
     Program PWSCF v.6.3 starts on 22Feb2020 at 14:12: 7 

     This program is part of the open-source Quantum ESPRESSO suite
     for quantum simulation of materials; please cite
         "P. Giannozzi et al., J. Phys.:Condens. Matter 21 395502 (2009);
         "P. Giannozzi et al., J. Phys.:Condens. Matter 29 465901 (2017);
          URL http://www.quantum-espresso.org", 
     in publications or presentations arising from this work. More details at
     http://www.quantum-espresso.org/quote

 *** WARNING: using old-style file format, will disappear from next version ***

     Parallel version (MPI & OpenMP), running on      36 processor cores
     Number of MPI processes:                36
     Threads/MPI process:                     1

     MPI processes distributed on     1 nodes
     K-points division:     npool     =       4
     R & G space division:  proc/nbgrp/npool/nimage =       9
     Reading input from aiida.in
Warning: card &IONS ignored
Warning: card   !PRESS_CONV_THR = 0.05                 ! JUST FOR VOLUME RELAXATIONS ignored
Warning: card / ignored

     Current dimensions of program PWSCF are:
     Max number of different atomic species (ntypx) = 10
     Max number of k-points (npk) =  40000
     Max angular momentum in pseudopotentials (lmaxx) =  3
               file Al.pbe-n-kjpaw_psl.1.0.0.UPF: wavefunction(s)  3S 3P renormalized
               file Mg.pbe-n-kjpaw_psl.0.3.0.UPF: wavefunction(s)  3S renormalized

     Subspace diagonalization in iterative solution of the eigenvalue problem:
     one sub-group per band group will be used
     scalapack distributed-memory algorithm (size of sub-group:  2*  2 procs)

 
     Parallelization info
     --------------------
     sticks:   dense  smooth     PW     G-vecs:    dense   smooth      PW
     Min         787     316     91                40303    10200    1590
     Max         788     317     92                40306    10201    1591
     Sum        7089    2849    825               362745    91805   14317
 


     bravais-lattice index     =            0
     lattice parameter (alat)  =      28.5890  a.u.
     unit-cell volume          =    2685.4529 (a.u.)^3
     number of atoms/cell      =           22
     number of atomic types    =            3
     number of electrons       =        66.00
     number of Kohn-Sham states=           40
     kinetic-energy cutoff     =      40.0000  Ry
     charge density cutoff     =     400.0000  Ry
     convergence threshold     =      1.0E-12
     mixing beta               =       0.4000
     number of iterations used =            8  local-TF  mixing
     Exchange-correlation      = PBE ( 1  4  3  4 0 0)

     celldm(1)=  28.588964  celldm(2)=   0.000000  celldm(3)=   0.000000
     celldm(4)=   0.000000  celldm(5)=   0.000000  celldm(6)=   0.000000

     crystal axes: (cart. coord. in units of alat)
               a(1) = (   0.958425   0.000000  -0.285344 )  
               a(2) = (   0.000000   0.272981   0.000000 )  
               a(3) = (   0.000000   0.000000   0.439270 )  

     reciprocal axes: (cart. coord. in units 2 pi/alat)
               b(1) = (  1.043378  0.000000  0.000000 )  
               b(2) = (  0.000000  3.663257  0.000000 )  
               b(3) = (  0.677764  0.000000  2.276505 )  


     PseudoPot. # 1 for Al read from file:
     /users/aglensk/Dropbox/Albert/scripts/dotfiles/scripts/potentials/quantum_espresso/pseudo_SSSPefV1.1_alalloy/Al.pbe-n-kjpaw_psl.1.0.0.UPF
     MD5 check sum: cfc449ca30b5f3223ec38ddd88ac046d
     Pseudo is Projector augmented-wave + core cor, Zval =  3.0
     Generated using "atomic" code by A. Dal Corso v.5.1
     Shape of augmentation charge: PSQ
     Using radial grid of 1135 points,  6 beta functions with: 
                l(1) =   0
                l(2) =   0
                l(3) =   1
                l(4) =   1
                l(5) =   2
                l(6) =   2
     Q(r) pseudized with 0 coefficients 


     PseudoPot. # 2 for Mg read from file:
     /users/aglensk/Dropbox/Albert/scripts/dotfiles/scripts/potentials/quantum_espresso/pseudo_SSSPefV1.1_alalloy/Mg.pbe-n-kjpaw_psl.0.3.0.UPF
     MD5 check sum: 24ecedc7f3e3cbe212e682f4413594e4
     Pseudo is Projector augmented-wave + core cor, Zval =  2.0
     Generated using "atomic" code by A. Dal Corso v.5.0.99 svn rev. 10869
     Shape of augmentation charge: PSQ
     Using radial grid of 1129 points,  4 beta functions with: 
                l(1) =   0
                l(2) =   0
                l(3) =   1
                l(4) =   1
     Q(r) pseudized with 0 coefficients 


     PseudoPot. # 3 for Si read from file:
     /users/aglensk/Dropbox/Albert/scripts/dotfiles/scripts/potentials/quantum_espresso/pseudo_SSSPefV1.1_alalloy/Si.pbe-n-rrkjus_psl.1.0.0.UPF
     MD5 check sum: 0b0bb1205258b0d07b9f9672cf965d36
     Pseudo is Ultrasoft + core correction, Zval =  4.0
     Generated using "atomic" code by A. Dal Corso v.5.1
     Using radial grid of 1141 points,  6 beta functions with: 
                l(1) =   0
                l(2) =   0
                l(3) =   1
                l(4) =   1
                l(5) =   2
                l(6) =   2
     Q(r) pseudized with 0 coefficients 


     atomic species   valence    mass     pseudopotential
        Al             3.00    26.98154     Al( 1.00)
        Mg             2.00    24.30500     Mg( 1.00)
        Si             4.00    28.08500     Si( 1.00)

     No symmetry found


                                    s                        frac. trans.

      isym =  1     identity                                     

 cryst.   s( 1) = (     1          0          0      )
                  (     0          1          0      )
                  (     0          0          1      )

 cart.    s( 1) = (  1.0000000  0.0000000  0.0000000 )
                  (  0.0000000  1.0000000  0.0000000 )
                  (  0.0000000  0.0000000  1.0000000 )


   Cartesian axes

     site n.     atom                  positions (alat units)
         1           Al  tau(   1) = (   0.0013522   0.2728583   0.4338406  )
         2           Mg  tau(   2) = (   0.0702116   0.1363623   0.1264291  )
         3           Mg  tau(   3) = (   0.1482318   0.1363561   0.3516451  )
         4           Mg  tau(   4) = (   0.3336871   0.2728429  -0.0659086  )
         5           Mg  tau(   5) = (   0.4117087   0.2728366   0.1593115  )
         6           Si  tau(   6) = (   0.0566711   0.2728462   0.2702207  )
         7           Si  tau(   7) = (   0.1761748   0.2728469   0.0381530  )
         8           Al  tau(   8) = (   0.2102991   0.2728479   0.2047497  )
         9           Al  tau(   9) = (   0.2716169   0.1363515   0.0809861  )
        10           Si  tau(  10) = (   0.3057370   0.1363528   0.2475816  )
        11           Si  tau(  11) = (   0.4252431   0.1363531   0.0155178  )
        12           Al  tau(  12) = (   0.4805649   0.1363407   0.2911688  )
        13           Mg  tau(  13) = (   0.5494242   0.2728365  -0.0162427  )
        14           Mg  tau(  14) = (   0.6274445   0.2728429   0.2089733  )
        15           Mg  tau(  15) = (   0.8128997   0.1363561  -0.2085804  )
        16           Mg  tau(  16) = (   0.8909213   0.1363624   0.0166397  )
        17           Si  tau(  17) = (   0.5358838   0.1363531   0.1275489  )
        18           Si  tau(  18) = (   0.6553875   0.1363527  -0.1045188  )
        19           Al  tau(  19) = (   0.6895117   0.1363515   0.0620779  )
        20           Al  tau(  20) = (   0.7508295   0.2728479  -0.0616857  )
        21           Si  tau(  21) = (   0.7849496   0.2728469   0.1049099  )
        22           Si  tau(  22) = (   0.9044557   0.2728463  -0.1271540  )

   Crystallographic axes

     site n.     atom                  positions (cryst. coord.)
         1           Al  tau(   1) = (  0.0014109  0.9995501  0.9885568  )
         2           Mg  tau(   2) = (  0.0732572  0.4995303  0.3354033  )
         3           Mg  tau(   3) = (  0.1546618  0.4995075  0.9009879  )
         4           Mg  tau(   4) = (  0.3481618  0.9994936  0.0761198  )
         5           Mg  tau(   5) = (  0.4295679  0.9994705  0.6417147  )
         6           Si  tau(   6) = (  0.0591294  0.9995059  0.6535683  )
         7           Si  tau(   7) = (  0.1838170  0.9995082  0.2062605  )
         8           Al  tau(   8) = (  0.2194214  0.9995122  0.6086467  )
         9           Al  tau(   9) = (  0.2833991  0.4994906  0.3684574  )
        10           Si  tau(  10) = (  0.3189993  0.4994952  0.7708382  )
        11           Si  tau(  11) = (  0.4436894  0.4994964  0.3235407  )
        12           Al  tau(  12) = (  0.5014109  0.4994509  0.9885567  )
        13           Mg  tau(  13) = (  0.5732572  0.9994704  0.3354034  )
        14           Mg  tau(  14) = (  0.6546618  0.9994936  0.9009879  )
        15           Mg  tau(  15) = (  0.8481618  0.4995075  0.0761197  )
        16           Mg  tau(  16) = (  0.9295678  0.4995304  0.6417146  )
        17           Si  tau(  17) = (  0.5591295  0.4994964  0.6535684  )
        18           Si  tau(  18) = (  0.6838170  0.4994951  0.2062605  )
        19           Al  tau(  19) = (  0.7194214  0.4994906  0.6086467  )
        20           Al  tau(  20) = (  0.7833991  0.9995122  0.3684574  )
        21           Si  tau(  21) = (  0.8189993  0.9995083  0.7708383  )
        22           Si  tau(  22) = (  0.9436893  0.9995060  0.3235406  )

     number of k points=   782  Methfessel-Paxton smearing, width (Ry)=  0.0441
                       cart. coord. in units 2pi/alat
        k(    1) = (   0.0000000   0.0000000   0.0000000), wk =   0.0012821
        k(    2) = (   0.0521357   0.0000000   0.1751158), wk =   0.0025641
        k(    3) = (   0.1042714   0.0000000   0.3502315), wk =   0.0025641
        k(    4) = (   0.1564070   0.0000000   0.5253473), wk =   0.0025641
        k(    5) = (   0.2085427   0.0000000   0.7004630), wk =   0.0025641
        k(    6) = (   0.2606784   0.0000000   0.8755788), wk =   0.0025641
        k(    7) = (   0.3128141   0.0000000   1.0506945), wk =   0.0025641
        k(    8) = (   0.0000000   0.1831629   0.0000000), wk =   0.0025641
        k(    9) = (   0.0521357   0.1831629   0.1751158), wk =   0.0025641
        k(   10) = (   0.1042714   0.1831629   0.3502315), wk =   0.0025641
        k(   11) = (   0.1564070   0.1831629   0.5253473), wk =   0.0025641
        k(   12) = (   0.2085427   0.1831629   0.7004630), wk =   0.0025641
        k(   13) = (   0.2606784   0.1831629   0.8755788), wk =   0.0025641
        k(   14) = (   0.3128141   0.1831629   1.0506945), wk =   0.0025641
        k(   15) = (  -0.3128141   0.1831629  -1.0506945), wk =   0.0025641
        k(   16) = (  -0.2606784   0.1831629  -0.8755788), wk =   0.0025641
        k(   17) = (  -0.2085427   0.1831629  -0.7004630), wk =   0.0025641
        k(   18) = (  -0.1564070   0.1831629  -0.5253473), wk =   0.0025641
        k(   19) = (  -0.1042714   0.1831629  -0.3502315), wk =   0.0025641
        k(   20) = (  -0.0521357   0.1831629  -0.1751158), wk =   0.0025641
        k(   21) = (   0.0000000   0.3663257   0.0000000), wk =   0.0025641
        k(   22) = (   0.0521357   0.3663257   0.1751158), wk =   0.0025641
        k(   23) = (   0.1042714   0.3663257   0.3502315), wk =   0.0025641
        k(   24) = (   0.1564070   0.3663257   0.5253473), wk =   0.0025641
        k(   25) = (   0.2085427   0.3663257   0.7004630), wk =   0.0025641
        k(   26) = (   0.2606784   0.3663257   0.8755788), wk =   0.0025641
        k(   27) = (   0.3128141   0.3663257   1.0506945), wk =   0.0025641
        k(   28) = (  -0.3128141   0.3663257  -1.0506945), wk =   0.0025641
        k(   29) = (  -0.2606784   0.3663257  -0.8755788), wk =   0.0025641
        k(   30) = (  -0.2085427   0.3663257  -0.7004630), wk =   0.0025641
        k(   31) = (  -0.1564070   0.3663257  -0.5253473), wk =   0.0025641
        k(   32) = (  -0.1042714   0.3663257  -0.3502315), wk =   0.0025641
        k(   33) = (  -0.0521357   0.3663257  -0.1751158), wk =   0.0025641
        k(   34) = (   0.0000000   0.5494886   0.0000000), wk =   0.0025641
        k(   35) = (   0.0521357   0.5494886   0.1751158), wk =   0.0025641
        k(   36) = (   0.1042714   0.5494886   0.3502315), wk =   0.0025641
        k(   37) = (   0.1564070   0.5494886   0.5253473), wk =   0.0025641
        k(   38) = (   0.2085427   0.5494886   0.7004630), wk =   0.0025641
        k(   39) = (   0.2606784   0.5494886   0.8755788), wk =   0.0025641
        k(   40) = (   0.3128141   0.5494886   1.0506945), wk =   0.0025641
        k(   41) = (  -0.3128141   0.5494886  -1.0506945), wk =   0.0025641
        k(   42) = (  -0.2606784   0.5494886  -0.8755788), wk =   0.0025641
        k(   43) = (  -0.2085427   0.5494886  -0.7004630), wk =   0.0025641
        k(   44) = (  -0.1564070   0.5494886  -0.5253473), wk =   0.0025641
        k(   45) = (  -0.1042714   0.5494886  -0.3502315), wk =   0.0025641
        k(   46) = (  -0.0521357   0.5494886  -0.1751158), wk =   0.0025641
        k(   47) = (   0.0000000   0.7326514   0.0000000), wk =   0.0025641
        k(   48) = (   0.0521357   0.7326514   0.1751158), wk =   0.0025641
        k(   49) = (   0.1042714   0.7326514   0.3502315), wk =   0.0025641
        k(   50) = (   0.1564070   0.7326514   0.5253473), wk =   0.0025641
        k(   51) = (   0.2085427   0.7326514   0.7004630), wk =   0.0025641
        k(   52) = (   0.2606784   0.7326514   0.8755788), wk =   0.0025641
        k(   53) = (   0.3128141   0.7326514   1.0506945), wk =   0.0025641
        k(   54) = (  -0.3128141   0.7326514  -1.0506945), wk =   0.0025641
        k(   55) = (  -0.2606784   0.7326514  -0.8755788), wk =   0.0025641
        k(   56) = (  -0.2085427   0.7326514  -0.7004630), wk =   0.0025641
        k(   57) = (  -0.1564070   0.7326514  -0.5253473), wk =   0.0025641
        k(   58) = (  -0.1042714   0.7326514  -0.3502315), wk =   0.0025641
        k(   59) = (  -0.0521357   0.7326514  -0.1751158), wk =   0.0025641
        k(   60) = (   0.0000000   0.9158143   0.0000000), wk =   0.0025641
        k(   61) = (   0.0521357   0.9158143   0.1751158), wk =   0.0025641
        k(   62) = (   0.1042714   0.9158143   0.3502315), wk =   0.0025641
        k(   63) = (   0.1564070   0.9158143   0.5253473), wk =   0.0025641
        k(   64) = (   0.2085427   0.9158143   0.7004630), wk =   0.0025641
        k(   65) = (   0.2606784   0.9158143   0.8755788), wk =   0.0025641
        k(   66) = (   0.3128141   0.9158143   1.0506945), wk =   0.0025641
        k(   67) = (  -0.3128141   0.9158143  -1.0506945), wk =   0.0025641
        k(   68) = (  -0.2606784   0.9158143  -0.8755788), wk =   0.0025641
        k(   69) = (  -0.2085427   0.9158143  -0.7004630), wk =   0.0025641
        k(   70) = (  -0.1564070   0.9158143  -0.5253473), wk =   0.0025641
        k(   71) = (  -0.1042714   0.9158143  -0.3502315), wk =   0.0025641
        k(   72) = (  -0.0521357   0.9158143  -0.1751158), wk =   0.0025641
        k(   73) = (   0.0000000   1.0989771   0.0000000), wk =   0.0025641
        k(   74) = (   0.0521357   1.0989771   0.1751158), wk =   0.0025641
        k(   75) = (   0.1042714   1.0989771   0.3502315), wk =   0.0025641
        k(   76) = (   0.1564070   1.0989771   0.5253473), wk =   0.0025641
        k(   77) = (   0.2085427   1.0989771   0.7004630), wk =   0.0025641
        k(   78) = (   0.2606784   1.0989771   0.8755788), wk =   0.0025641
        k(   79) = (   0.3128141   1.0989771   1.0506945), wk =   0.0025641
        k(   80) = (  -0.3128141   1.0989771  -1.0506945), wk =   0.0025641
        k(   81) = (  -0.2606784   1.0989771  -0.8755788), wk =   0.0025641
        k(   82) = (  -0.2085427   1.0989771  -0.7004630), wk =   0.0025641
        k(   83) = (  -0.1564070   1.0989771  -0.5253473), wk =   0.0025641
        k(   84) = (  -0.1042714   1.0989771  -0.3502315), wk =   0.0025641
        k(   85) = (  -0.0521357   1.0989771  -0.1751158), wk =   0.0025641
        k(   86) = (   0.0000000   1.2821400   0.0000000), wk =   0.0025641
        k(   87) = (   0.0521357   1.2821400   0.1751158), wk =   0.0025641
        k(   88) = (   0.1042714   1.2821400   0.3502315), wk =   0.0025641
        k(   89) = (   0.1564070   1.2821400   0.5253473), wk =   0.0025641
        k(   90) = (   0.2085427   1.2821400   0.7004630), wk =   0.0025641
        k(   91) = (   0.2606784   1.2821400   0.8755788), wk =   0.0025641
        k(   92) = (   0.3128141   1.2821400   1.0506945), wk =   0.0025641
        k(   93) = (  -0.3128141   1.2821400  -1.0506945), wk =   0.0025641
        k(   94) = (  -0.2606784   1.2821400  -0.8755788), wk =   0.0025641
        k(   95) = (  -0.2085427   1.2821400  -0.7004630), wk =   0.0025641
        k(   96) = (  -0.1564070   1.2821400  -0.5253473), wk =   0.0025641
        k(   97) = (  -0.1042714   1.2821400  -0.3502315), wk =   0.0025641
        k(   98) = (  -0.0521357   1.2821400  -0.1751158), wk =   0.0025641
        k(   99) = (   0.0000000   1.4653029   0.0000000), wk =   0.0025641
        k(  100) = (   0.0521357   1.4653029   0.1751158), wk =   0.0025641
        k(  101) = (   0.1042714   1.4653029   0.3502315), wk =   0.0025641
        k(  102) = (   0.1564070   1.4653029   0.5253473), wk =   0.0025641
        k(  103) = (   0.2085427   1.4653029   0.7004630), wk =   0.0025641
        k(  104) = (   0.2606784   1.4653029   0.8755788), wk =   0.0025641
        k(  105) = (   0.3128141   1.4653029   1.0506945), wk =   0.0025641
        k(  106) = (  -0.3128141   1.4653029  -1.0506945), wk =   0.0025641
        k(  107) = (  -0.2606784   1.4653029  -0.8755788), wk =   0.0025641
        k(  108) = (  -0.2085427   1.4653029  -0.7004630), wk =   0.0025641
        k(  109) = (  -0.1564070   1.4653029  -0.5253473), wk =   0.0025641
        k(  110) = (  -0.1042714   1.4653029  -0.3502315), wk =   0.0025641
        k(  111) = (  -0.0521357   1.4653029  -0.1751158), wk =   0.0025641
        k(  112) = (   0.0000000   1.6484657   0.0000000), wk =   0.0025641
        k(  113) = (   0.0521357   1.6484657   0.1751158), wk =   0.0025641
        k(  114) = (   0.1042714   1.6484657   0.3502315), wk =   0.0025641
        k(  115) = (   0.1564070   1.6484657   0.5253473), wk =   0.0025641
        k(  116) = (   0.2085427   1.6484657   0.7004630), wk =   0.0025641
        k(  117) = (   0.2606784   1.6484657   0.8755788), wk =   0.0025641
        k(  118) = (   0.3128141   1.6484657   1.0506945), wk =   0.0025641
        k(  119) = (  -0.3128141   1.6484657  -1.0506945), wk =   0.0025641
        k(  120) = (  -0.2606784   1.6484657  -0.8755788), wk =   0.0025641
        k(  121) = (  -0.2085427   1.6484657  -0.7004630), wk =   0.0025641
        k(  122) = (  -0.1564070   1.6484657  -0.5253473), wk =   0.0025641
        k(  123) = (  -0.1042714   1.6484657  -0.3502315), wk =   0.0025641
        k(  124) = (  -0.0521357   1.6484657  -0.1751158), wk =   0.0025641
        k(  125) = (   0.0000000  -1.8316286   0.0000000), wk =   0.0012821
        k(  126) = (   0.0521357  -1.8316286   0.1751158), wk =   0.0025641
        k(  127) = (   0.1042714  -1.8316286   0.3502315), wk =   0.0025641
        k(  128) = (   0.1564070  -1.8316286   0.5253473), wk =   0.0025641
        k(  129) = (   0.2085427  -1.8316286   0.7004630), wk =   0.0025641
        k(  130) = (   0.2606784  -1.8316286   0.8755788), wk =   0.0025641
        k(  131) = (   0.3128141  -1.8316286   1.0506945), wk =   0.0025641
        k(  132) = (   0.1738964   0.0000000   0.0000000), wk =   0.0025641
        k(  133) = (   0.2260320   0.0000000   0.1751158), wk =   0.0025641
        k(  134) = (   0.2781677   0.0000000   0.3502315), wk =   0.0025641
        k(  135) = (   0.3303034   0.0000000   0.5253473), wk =   0.0025641
        k(  136) = (   0.3824391   0.0000000   0.7004630), wk =   0.0025641
        k(  137) = (   0.4345748   0.0000000   0.8755788), wk =   0.0025641
        k(  138) = (   0.4867104   0.0000000   1.0506945), wk =   0.0025641
        k(  139) = (  -0.1389177   0.0000000  -1.0506945), wk =   0.0025641
        k(  140) = (  -0.0867820   0.0000000  -0.8755788), wk =   0.0025641
        k(  141) = (  -0.0346464   0.0000000  -0.7004630), wk =   0.0025641
        k(  142) = (   0.0174893   0.0000000  -0.5253473), wk =   0.0025641
        k(  143) = (   0.0696250   0.0000000  -0.3502315), wk =   0.0025641
        k(  144) = (   0.1217607   0.0000000  -0.1751158), wk =   0.0025641
        k(  145) = (   0.1738964   0.1831629   0.0000000), wk =   0.0025641
        k(  146) = (   0.2260320   0.1831629   0.1751158), wk =   0.0025641
        k(  147) = (   0.2781677   0.1831629   0.3502315), wk =   0.0025641
        k(  148) = (   0.3303034   0.1831629   0.5253473), wk =   0.0025641
        k(  149) = (   0.3824391   0.1831629   0.7004630), wk =   0.0025641
        k(  150) = (   0.4345748   0.1831629   0.8755788), wk =   0.0025641
        k(  151) = (   0.4867104   0.1831629   1.0506945), wk =   0.0025641
        k(  152) = (  -0.1389177   0.1831629  -1.0506945), wk =   0.0025641
        k(  153) = (  -0.0867820   0.1831629  -0.8755788), wk =   0.0025641
        k(  154) = (  -0.0346464   0.1831629  -0.7004630), wk =   0.0025641
        k(  155) = (   0.0174893   0.1831629  -0.5253473), wk =   0.0025641
        k(  156) = (   0.0696250   0.1831629  -0.3502315), wk =   0.0025641
        k(  157) = (   0.1217607   0.1831629  -0.1751158), wk =   0.0025641
        k(  158) = (   0.1738964   0.3663257   0.0000000), wk =   0.0025641
        k(  159) = (   0.2260320   0.3663257   0.1751158), wk =   0.0025641
        k(  160) = (   0.2781677   0.3663257   0.3502315), wk =   0.0025641
        k(  161) = (   0.3303034   0.3663257   0.5253473), wk =   0.0025641
        k(  162) = (   0.3824391   0.3663257   0.7004630), wk =   0.0025641
        k(  163) = (   0.4345748   0.3663257   0.8755788), wk =   0.0025641
        k(  164) = (   0.4867104   0.3663257   1.0506945), wk =   0.0025641
        k(  165) = (  -0.1389177   0.3663257  -1.0506945), wk =   0.0025641
        k(  166) = (  -0.0867820   0.3663257  -0.8755788), wk =   0.0025641
        k(  167) = (  -0.0346464   0.3663257  -0.7004630), wk =   0.0025641
        k(  168) = (   0.0174893   0.3663257  -0.5253473), wk =   0.0025641
        k(  169) = (   0.0696250   0.3663257  -0.3502315), wk =   0.0025641
        k(  170) = (   0.1217607   0.3663257  -0.1751158), wk =   0.0025641
        k(  171) = (   0.1738964   0.5494886   0.0000000), wk =   0.0025641
        k(  172) = (   0.2260320   0.5494886   0.1751158), wk =   0.0025641
        k(  173) = (   0.2781677   0.5494886   0.3502315), wk =   0.0025641
        k(  174) = (   0.3303034   0.5494886   0.5253473), wk =   0.0025641
        k(  175) = (   0.3824391   0.5494886   0.7004630), wk =   0.0025641
        k(  176) = (   0.4345748   0.5494886   0.8755788), wk =   0.0025641
        k(  177) = (   0.4867104   0.5494886   1.0506945), wk =   0.0025641
        k(  178) = (  -0.1389177   0.5494886  -1.0506945), wk =   0.0025641
        k(  179) = (  -0.0867820   0.5494886  -0.8755788), wk =   0.0025641
        k(  180) = (  -0.0346464   0.5494886  -0.7004630), wk =   0.0025641
        k(  181) = (   0.0174893   0.5494886  -0.5253473), wk =   0.0025641
        k(  182) = (   0.0696250   0.5494886  -0.3502315), wk =   0.0025641
        k(  183) = (   0.1217607   0.5494886  -0.1751158), wk =   0.0025641
        k(  184) = (   0.1738964   0.7326514   0.0000000), wk =   0.0025641
        k(  185) = (   0.2260320   0.7326514   0.1751158), wk =   0.0025641
        k(  186) = (   0.2781677   0.7326514   0.3502315), wk =   0.0025641
        k(  187) = (   0.3303034   0.7326514   0.5253473), wk =   0.0025641
        k(  188) = (   0.3824391   0.7326514   0.7004630), wk =   0.0025641
        k(  189) = (   0.4345748   0.7326514   0.8755788), wk =   0.0025641
        k(  190) = (   0.4867104   0.7326514   1.0506945), wk =   0.0025641
        k(  191) = (  -0.1389177   0.7326514  -1.0506945), wk =   0.0025641
        k(  192) = (  -0.0867820   0.7326514  -0.8755788), wk =   0.0025641
        k(  193) = (  -0.0346464   0.7326514  -0.7004630), wk =   0.0025641
        k(  194) = (   0.0174893   0.7326514  -0.5253473), wk =   0.0025641
        k(  195) = (   0.0696250   0.7326514  -0.3502315), wk =   0.0025641
        k(  196) = (   0.1217607   0.7326514  -0.1751158), wk =   0.0025641
        k(  197) = (   0.1738964   0.9158143   0.0000000), wk =   0.0025641
        k(  198) = (   0.2260320   0.9158143   0.1751158), wk =   0.0025641
        k(  199) = (   0.2781677   0.9158143   0.3502315), wk =   0.0025641
        k(  200) = (   0.3303034   0.9158143   0.5253473), wk =   0.0025641
        k(  201) = (   0.3824391   0.9158143   0.7004630), wk =   0.0025641
        k(  202) = (   0.4345748   0.9158143   0.8755788), wk =   0.0025641
        k(  203) = (   0.4867104   0.9158143   1.0506945), wk =   0.0025641
        k(  204) = (  -0.1389177   0.9158143  -1.0506945), wk =   0.0025641
        k(  205) = (  -0.0867820   0.9158143  -0.8755788), wk =   0.0025641
        k(  206) = (  -0.0346464   0.9158143  -0.7004630), wk =   0.0025641
        k(  207) = (   0.0174893   0.9158143  -0.5253473), wk =   0.0025641
        k(  208) = (   0.0696250   0.9158143  -0.3502315), wk =   0.0025641
        k(  209) = (   0.1217607   0.9158143  -0.1751158), wk =   0.0025641
        k(  210) = (   0.1738964   1.0989771   0.0000000), wk =   0.0025641
        k(  211) = (   0.2260320   1.0989771   0.1751158), wk =   0.0025641
        k(  212) = (   0.2781677   1.0989771   0.3502315), wk =   0.0025641
        k(  213) = (   0.3303034   1.0989771   0.5253473), wk =   0.0025641
        k(  214) = (   0.3824391   1.0989771   0.7004630), wk =   0.0025641
        k(  215) = (   0.4345748   1.0989771   0.8755788), wk =   0.0025641
        k(  216) = (   0.4867104   1.0989771   1.0506945), wk =   0.0025641
        k(  217) = (  -0.1389177   1.0989771  -1.0506945), wk =   0.0025641
        k(  218) = (  -0.0867820   1.0989771  -0.8755788), wk =   0.0025641
        k(  219) = (  -0.0346464   1.0989771  -0.7004630), wk =   0.0025641
        k(  220) = (   0.0174893   1.0989771  -0.5253473), wk =   0.0025641
        k(  221) = (   0.0696250   1.0989771  -0.3502315), wk =   0.0025641
        k(  222) = (   0.1217607   1.0989771  -0.1751158), wk =   0.0025641
        k(  223) = (   0.1738964   1.2821400   0.0000000), wk =   0.0025641
        k(  224) = (   0.2260320   1.2821400   0.1751158), wk =   0.0025641
        k(  225) = (   0.2781677   1.2821400   0.3502315), wk =   0.0025641
        k(  226) = (   0.3303034   1.2821400   0.5253473), wk =   0.0025641
        k(  227) = (   0.3824391   1.2821400   0.7004630), wk =   0.0025641
        k(  228) = (   0.4345748   1.2821400   0.8755788), wk =   0.0025641
        k(  229) = (   0.4867104   1.2821400   1.0506945), wk =   0.0025641
        k(  230) = (  -0.1389177   1.2821400  -1.0506945), wk =   0.0025641
        k(  231) = (  -0.0867820   1.2821400  -0.8755788), wk =   0.0025641
        k(  232) = (  -0.0346464   1.2821400  -0.7004630), wk =   0.0025641
        k(  233) = (   0.0174893   1.2821400  -0.5253473), wk =   0.0025641
        k(  234) = (   0.0696250   1.2821400  -0.3502315), wk =   0.0025641
        k(  235) = (   0.1217607   1.2821400  -0.1751158), wk =   0.0025641
        k(  236) = (   0.1738964   1.4653029   0.0000000), wk =   0.0025641
        k(  237) = (   0.2260320   1.4653029   0.1751158), wk =   0.0025641
        k(  238) = (   0.2781677   1.4653029   0.3502315), wk =   0.0025641
        k(  239) = (   0.3303034   1.4653029   0.5253473), wk =   0.0025641
        k(  240) = (   0.3824391   1.4653029   0.7004630), wk =   0.0025641
        k(  241) = (   0.4345748   1.4653029   0.8755788), wk =   0.0025641
        k(  242) = (   0.4867104   1.4653029   1.0506945), wk =   0.0025641
        k(  243) = (  -0.1389177   1.4653029  -1.0506945), wk =   0.0025641
        k(  244) = (  -0.0867820   1.4653029  -0.8755788), wk =   0.0025641
        k(  245) = (  -0.0346464   1.4653029  -0.7004630), wk =   0.0025641
        k(  246) = (   0.0174893   1.4653029  -0.5253473), wk =   0.0025641
        k(  247) = (   0.0696250   1.4653029  -0.3502315), wk =   0.0025641
        k(  248) = (   0.1217607   1.4653029  -0.1751158), wk =   0.0025641
        k(  249) = (   0.1738964   1.6484657   0.0000000), wk =   0.0025641
        k(  250) = (   0.2260320   1.6484657   0.1751158), wk =   0.0025641
        k(  251) = (   0.2781677   1.6484657   0.3502315), wk =   0.0025641
        k(  252) = (   0.3303034   1.6484657   0.5253473), wk =   0.0025641
        k(  253) = (   0.3824391   1.6484657   0.7004630), wk =   0.0025641
        k(  254) = (   0.4345748   1.6484657   0.8755788), wk =   0.0025641
        k(  255) = (   0.4867104   1.6484657   1.0506945), wk =   0.0025641
        k(  256) = (  -0.1389177   1.6484657  -1.0506945), wk =   0.0025641
        k(  257) = (  -0.0867820   1.6484657  -0.8755788), wk =   0.0025641
        k(  258) = (  -0.0346464   1.6484657  -0.7004630), wk =   0.0025641
        k(  259) = (   0.0174893   1.6484657  -0.5253473), wk =   0.0025641
        k(  260) = (   0.0696250   1.6484657  -0.3502315), wk =   0.0025641
        k(  261) = (   0.1217607   1.6484657  -0.1751158), wk =   0.0025641
        k(  262) = (   0.1738964  -1.8316286   0.0000000), wk =   0.0025641
        k(  263) = (   0.2260320  -1.8316286   0.1751158), wk =   0.0025641
        k(  264) = (   0.2781677  -1.8316286   0.3502315), wk =   0.0025641
        k(  265) = (   0.3303034  -1.8316286   0.5253473), wk =   0.0025641
        k(  266) = (   0.3824391  -1.8316286   0.7004630), wk =   0.0025641
        k(  267) = (   0.4345748  -1.8316286   0.8755788), wk =   0.0025641
        k(  268) = (   0.4867104  -1.8316286   1.0506945), wk =   0.0025641
        k(  269) = (  -0.1389177  -1.8316286  -1.0506945), wk =   0.0025641
        k(  270) = (  -0.0867820  -1.8316286  -0.8755788), wk =   0.0025641
        k(  271) = (  -0.0346464  -1.8316286  -0.7004630), wk =   0.0025641
        k(  272) = (   0.0174893  -1.8316286  -0.5253473), wk =   0.0025641
        k(  273) = (   0.0696250  -1.8316286  -0.3502315), wk =   0.0025641
        k(  274) = (   0.1217607  -1.8316286  -0.1751158), wk =   0.0025641
        k(  275) = (   0.1738964  -1.6484657   0.0000000), wk =   0.0025641
        k(  276) = (   0.2260320  -1.6484657   0.1751158), wk =   0.0025641
        k(  277) = (   0.2781677  -1.6484657   0.3502315), wk =   0.0025641
        k(  278) = (   0.3303034  -1.6484657   0.5253473), wk =   0.0025641
        k(  279) = (   0.3824391  -1.6484657   0.7004630), wk =   0.0025641
        k(  280) = (   0.4345748  -1.6484657   0.8755788), wk =   0.0025641
        k(  281) = (   0.4867104  -1.6484657   1.0506945), wk =   0.0025641
        k(  282) = (  -0.1389177  -1.6484657  -1.0506945), wk =   0.0025641
        k(  283) = (  -0.0867820  -1.6484657  -0.8755788), wk =   0.0025641
        k(  284) = (  -0.0346464  -1.6484657  -0.7004630), wk =   0.0025641
        k(  285) = (   0.0174893  -1.6484657  -0.5253473), wk =   0.0025641
        k(  286) = (   0.0696250  -1.6484657  -0.3502315), wk =   0.0025641
        k(  287) = (   0.1217607  -1.6484657  -0.1751158), wk =   0.0025641
        k(  288) = (   0.1738964  -1.4653029   0.0000000), wk =   0.0025641
        k(  289) = (   0.2260320  -1.4653029   0.1751158), wk =   0.0025641
        k(  290) = (   0.2781677  -1.4653029   0.3502315), wk =   0.0025641
        k(  291) = (   0.3303034  -1.4653029   0.5253473), wk =   0.0025641
        k(  292) = (   0.3824391  -1.4653029   0.7004630), wk =   0.0025641
        k(  293) = (   0.4345748  -1.4653029   0.8755788), wk =   0.0025641
        k(  294) = (   0.4867104  -1.4653029   1.0506945), wk =   0.0025641
        k(  295) = (  -0.1389177  -1.4653029  -1.0506945), wk =   0.0025641
        k(  296) = (  -0.0867820  -1.4653029  -0.8755788), wk =   0.0025641
        k(  297) = (  -0.0346464  -1.4653029  -0.7004630), wk =   0.0025641
        k(  298) = (   0.0174893  -1.4653029  -0.5253473), wk =   0.0025641
        k(  299) = (   0.0696250  -1.4653029  -0.3502315), wk =   0.0025641
        k(  300) = (   0.1217607  -1.4653029  -0.1751158), wk =   0.0025641
        k(  301) = (   0.1738964  -1.2821400   0.0000000), wk =   0.0025641
        k(  302) = (   0.2260320  -1.2821400   0.1751158), wk =   0.0025641
        k(  303) = (   0.2781677  -1.2821400   0.3502315), wk =   0.0025641
        k(  304) = (   0.3303034  -1.2821400   0.5253473), wk =   0.0025641
        k(  305) = (   0.3824391  -1.2821400   0.7004630), wk =   0.0025641
        k(  306) = (   0.4345748  -1.2821400   0.8755788), wk =   0.0025641
        k(  307) = (   0.4867104  -1.2821400   1.0506945), wk =   0.0025641
        k(  308) = (  -0.1389177  -1.2821400  -1.0506945), wk =   0.0025641
        k(  309) = (  -0.0867820  -1.2821400  -0.8755788), wk =   0.0025641
        k(  310) = (  -0.0346464  -1.2821400  -0.7004630), wk =   0.0025641
        k(  311) = (   0.0174893  -1.2821400  -0.5253473), wk =   0.0025641
        k(  312) = (   0.0696250  -1.2821400  -0.3502315), wk =   0.0025641
        k(  313) = (   0.1217607  -1.2821400  -0.1751158), wk =   0.0025641
        k(  314) = (   0.1738964  -1.0989771   0.0000000), wk =   0.0025641
        k(  315) = (   0.2260320  -1.0989771   0.1751158), wk =   0.0025641
        k(  316) = (   0.2781677  -1.0989771   0.3502315), wk =   0.0025641
        k(  317) = (   0.3303034  -1.0989771   0.5253473), wk =   0.0025641
        k(  318) = (   0.3824391  -1.0989771   0.7004630), wk =   0.0025641
        k(  319) = (   0.4345748  -1.0989771   0.8755788), wk =   0.0025641
        k(  320) = (   0.4867104  -1.0989771   1.0506945), wk =   0.0025641
        k(  321) = (  -0.1389177  -1.0989771  -1.0506945), wk =   0.0025641
        k(  322) = (  -0.0867820  -1.0989771  -0.8755788), wk =   0.0025641
        k(  323) = (  -0.0346464  -1.0989771  -0.7004630), wk =   0.0025641
        k(  324) = (   0.0174893  -1.0989771  -0.5253473), wk =   0.0025641
        k(  325) = (   0.0696250  -1.0989771  -0.3502315), wk =   0.0025641
        k(  326) = (   0.1217607  -1.0989771  -0.1751158), wk =   0.0025641
        k(  327) = (   0.1738964  -0.9158143   0.0000000), wk =   0.0025641
        k(  328) = (   0.2260320  -0.9158143   0.1751158), wk =   0.0025641
        k(  329) = (   0.2781677  -0.9158143   0.3502315), wk =   0.0025641
        k(  330) = (   0.3303034  -0.9158143   0.5253473), wk =   0.0025641
        k(  331) = (   0.3824391  -0.9158143   0.7004630), wk =   0.0025641
        k(  332) = (   0.4345748  -0.9158143   0.8755788), wk =   0.0025641
        k(  333) = (   0.4867104  -0.9158143   1.0506945), wk =   0.0025641
        k(  334) = (  -0.1389177  -0.9158143  -1.0506945), wk =   0.0025641
        k(  335) = (  -0.0867820  -0.9158143  -0.8755788), wk =   0.0025641
        k(  336) = (  -0.0346464  -0.9158143  -0.7004630), wk =   0.0025641
        k(  337) = (   0.0174893  -0.9158143  -0.5253473), wk =   0.0025641
        k(  338) = (   0.0696250  -0.9158143  -0.3502315), wk =   0.0025641
        k(  339) = (   0.1217607  -0.9158143  -0.1751158), wk =   0.0025641
        k(  340) = (   0.1738964  -0.7326514   0.0000000), wk =   0.0025641
        k(  341) = (   0.2260320  -0.7326514   0.1751158), wk =   0.0025641
        k(  342) = (   0.2781677  -0.7326514   0.3502315), wk =   0.0025641
        k(  343) = (   0.3303034  -0.7326514   0.5253473), wk =   0.0025641
        k(  344) = (   0.3824391  -0.7326514   0.7004630), wk =   0.0025641
        k(  345) = (   0.4345748  -0.7326514   0.8755788), wk =   0.0025641
        k(  346) = (   0.4867104  -0.7326514   1.0506945), wk =   0.0025641
        k(  347) = (  -0.1389177  -0.7326514  -1.0506945), wk =   0.0025641
        k(  348) = (  -0.0867820  -0.7326514  -0.8755788), wk =   0.0025641
        k(  349) = (  -0.0346464  -0.7326514  -0.7004630), wk =   0.0025641
        k(  350) = (   0.0174893  -0.7326514  -0.5253473), wk =   0.0025641
        k(  351) = (   0.0696250  -0.7326514  -0.3502315), wk =   0.0025641
        k(  352) = (   0.1217607  -0.7326514  -0.1751158), wk =   0.0025641
        k(  353) = (   0.1738964  -0.5494886   0.0000000), wk =   0.0025641
        k(  354) = (   0.2260320  -0.5494886   0.1751158), wk =   0.0025641
        k(  355) = (   0.2781677  -0.5494886   0.3502315), wk =   0.0025641
        k(  356) = (   0.3303034  -0.5494886   0.5253473), wk =   0.0025641
        k(  357) = (   0.3824391  -0.5494886   0.7004630), wk =   0.0025641
        k(  358) = (   0.4345748  -0.5494886   0.8755788), wk =   0.0025641
        k(  359) = (   0.4867104  -0.5494886   1.0506945), wk =   0.0025641
        k(  360) = (  -0.1389177  -0.5494886  -1.0506945), wk =   0.0025641
        k(  361) = (  -0.0867820  -0.5494886  -0.8755788), wk =   0.0025641
        k(  362) = (  -0.0346464  -0.5494886  -0.7004630), wk =   0.0025641
        k(  363) = (   0.0174893  -0.5494886  -0.5253473), wk =   0.0025641
        k(  364) = (   0.0696250  -0.5494886  -0.3502315), wk =   0.0025641
        k(  365) = (   0.1217607  -0.5494886  -0.1751158), wk =   0.0025641
        k(  366) = (   0.1738964  -0.3663257   0.0000000), wk =   0.0025641
        k(  367) = (   0.2260320  -0.3663257   0.1751158), wk =   0.0025641
        k(  368) = (   0.2781677  -0.3663257   0.3502315), wk =   0.0025641
        k(  369) = (   0.3303034  -0.3663257   0.5253473), wk =   0.0025641
        k(  370) = (   0.3824391  -0.3663257   0.7004630), wk =   0.0025641
        k(  371) = (   0.4345748  -0.3663257   0.8755788), wk =   0.0025641
        k(  372) = (   0.4867104  -0.3663257   1.0506945), wk =   0.0025641
        k(  373) = (  -0.1389177  -0.3663257  -1.0506945), wk =   0.0025641
        k(  374) = (  -0.0867820  -0.3663257  -0.8755788), wk =   0.0025641
        k(  375) = (  -0.0346464  -0.3663257  -0.7004630), wk =   0.0025641
        k(  376) = (   0.0174893  -0.3663257  -0.5253473), wk =   0.0025641
        k(  377) = (   0.0696250  -0.3663257  -0.3502315), wk =   0.0025641
        k(  378) = (   0.1217607  -0.3663257  -0.1751158), wk =   0.0025641
        k(  379) = (   0.1738964  -0.1831629   0.0000000), wk =   0.0025641
        k(  380) = (   0.2260320  -0.1831629   0.1751158), wk =   0.0025641
        k(  381) = (   0.2781677  -0.1831629   0.3502315), wk =   0.0025641
        k(  382) = (   0.3303034  -0.1831629   0.5253473), wk =   0.0025641
        k(  383) = (   0.3824391  -0.1831629   0.7004630), wk =   0.0025641
        k(  384) = (   0.4345748  -0.1831629   0.8755788), wk =   0.0025641
        k(  385) = (   0.4867104  -0.1831629   1.0506945), wk =   0.0025641
        k(  386) = (  -0.1389177  -0.1831629  -1.0506945), wk =   0.0025641
        k(  387) = (  -0.0867820  -0.1831629  -0.8755788), wk =   0.0025641
        k(  388) = (  -0.0346464  -0.1831629  -0.7004630), wk =   0.0025641
        k(  389) = (   0.0174893  -0.1831629  -0.5253473), wk =   0.0025641
        k(  390) = (   0.0696250  -0.1831629  -0.3502315), wk =   0.0025641
        k(  391) = (   0.1217607  -0.1831629  -0.1751158), wk =   0.0025641
        k(  392) = (   0.3477927   0.0000000   0.0000000), wk =   0.0025641
        k(  393) = (   0.3999284   0.0000000   0.1751158), wk =   0.0025641
        k(  394) = (   0.4520641   0.0000000   0.3502315), wk =   0.0025641
        k(  395) = (   0.5041998   0.0000000   0.5253473), wk =   0.0025641
        k(  396) = (   0.5563354   0.0000000   0.7004630), wk =   0.0025641
        k(  397) = (   0.6084711   0.0000000   0.8755788), wk =   0.0025641
        k(  398) = (   0.6606068   0.0000000   1.0506945), wk =   0.0025641
        k(  399) = (   0.0349786   0.0000000  -1.0506945), wk =   0.0025641
        k(  400) = (   0.0871143   0.0000000  -0.8755788), wk =   0.0025641
        k(  401) = (   0.1392500   0.0000000  -0.7004630), wk =   0.0025641
        k(  402) = (   0.1913857   0.0000000  -0.5253473), wk =   0.0025641
        k(  403) = (   0.2435214   0.0000000  -0.3502315), wk =   0.0025641
        k(  404) = (   0.2956570   0.0000000  -0.1751158), wk =   0.0025641
        k(  405) = (   0.3477927   0.1831629   0.0000000), wk =   0.0025641
        k(  406) = (   0.3999284   0.1831629   0.1751158), wk =   0.0025641
        k(  407) = (   0.4520641   0.1831629   0.3502315), wk =   0.0025641
        k(  408) = (   0.5041998   0.1831629   0.5253473), wk =   0.0025641
        k(  409) = (   0.5563354   0.1831629   0.7004630), wk =   0.0025641
        k(  410) = (   0.6084711   0.1831629   0.8755788), wk =   0.0025641
        k(  411) = (   0.6606068   0.1831629   1.0506945), wk =   0.0025641
        k(  412) = (   0.0349786   0.1831629  -1.0506945), wk =   0.0025641
        k(  413) = (   0.0871143   0.1831629  -0.8755788), wk =   0.0025641
        k(  414) = (   0.1392500   0.1831629  -0.7004630), wk =   0.0025641
        k(  415) = (   0.1913857   0.1831629  -0.5253473), wk =   0.0025641
        k(  416) = (   0.2435214   0.1831629  -0.3502315), wk =   0.0025641
        k(  417) = (   0.2956570   0.1831629  -0.1751158), wk =   0.0025641
        k(  418) = (   0.3477927   0.3663257   0.0000000), wk =   0.0025641
        k(  419) = (   0.3999284   0.3663257   0.1751158), wk =   0.0025641
        k(  420) = (   0.4520641   0.3663257   0.3502315), wk =   0.0025641
        k(  421) = (   0.5041998   0.3663257   0.5253473), wk =   0.0025641
        k(  422) = (   0.5563354   0.3663257   0.7004630), wk =   0.0025641
        k(  423) = (   0.6084711   0.3663257   0.8755788), wk =   0.0025641
        k(  424) = (   0.6606068   0.3663257   1.0506945), wk =   0.0025641
        k(  425) = (   0.0349786   0.3663257  -1.0506945), wk =   0.0025641
        k(  426) = (   0.0871143   0.3663257  -0.8755788), wk =   0.0025641
        k(  427) = (   0.1392500   0.3663257  -0.7004630), wk =   0.0025641
        k(  428) = (   0.1913857   0.3663257  -0.5253473), wk =   0.0025641
        k(  429) = (   0.2435214   0.3663257  -0.3502315), wk =   0.0025641
        k(  430) = (   0.2956570   0.3663257  -0.1751158), wk =   0.0025641
        k(  431) = (   0.3477927   0.5494886   0.0000000), wk =   0.0025641
        k(  432) = (   0.3999284   0.5494886   0.1751158), wk =   0.0025641
        k(  433) = (   0.4520641   0.5494886   0.3502315), wk =   0.0025641
        k(  434) = (   0.5041998   0.5494886   0.5253473), wk =   0.0025641
        k(  435) = (   0.5563354   0.5494886   0.7004630), wk =   0.0025641
        k(  436) = (   0.6084711   0.5494886   0.8755788), wk =   0.0025641
        k(  437) = (   0.6606068   0.5494886   1.0506945), wk =   0.0025641
        k(  438) = (   0.0349786   0.5494886  -1.0506945), wk =   0.0025641
        k(  439) = (   0.0871143   0.5494886  -0.8755788), wk =   0.0025641
        k(  440) = (   0.1392500   0.5494886  -0.7004630), wk =   0.0025641
        k(  441) = (   0.1913857   0.5494886  -0.5253473), wk =   0.0025641
        k(  442) = (   0.2435214   0.5494886  -0.3502315), wk =   0.0025641
        k(  443) = (   0.2956570   0.5494886  -0.1751158), wk =   0.0025641
        k(  444) = (   0.3477927   0.7326514   0.0000000), wk =   0.0025641
        k(  445) = (   0.3999284   0.7326514   0.1751158), wk =   0.0025641
        k(  446) = (   0.4520641   0.7326514   0.3502315), wk =   0.0025641
        k(  447) = (   0.5041998   0.7326514   0.5253473), wk =   0.0025641
        k(  448) = (   0.5563354   0.7326514   0.7004630), wk =   0.0025641
        k(  449) = (   0.6084711   0.7326514   0.8755788), wk =   0.0025641
        k(  450) = (   0.6606068   0.7326514   1.0506945), wk =   0.0025641
        k(  451) = (   0.0349786   0.7326514  -1.0506945), wk =   0.0025641
        k(  452) = (   0.0871143   0.7326514  -0.8755788), wk =   0.0025641
        k(  453) = (   0.1392500   0.7326514  -0.7004630), wk =   0.0025641
        k(  454) = (   0.1913857   0.7326514  -0.5253473), wk =   0.0025641
        k(  455) = (   0.2435214   0.7326514  -0.3502315), wk =   0.0025641
        k(  456) = (   0.2956570   0.7326514  -0.1751158), wk =   0.0025641
        k(  457) = (   0.3477927   0.9158143   0.0000000), wk =   0.0025641
        k(  458) = (   0.3999284   0.9158143   0.1751158), wk =   0.0025641
        k(  459) = (   0.4520641   0.9158143   0.3502315), wk =   0.0025641
        k(  460) = (   0.5041998   0.9158143   0.5253473), wk =   0.0025641
        k(  461) = (   0.5563354   0.9158143   0.7004630), wk =   0.0025641
        k(  462) = (   0.6084711   0.9158143   0.8755788), wk =   0.0025641
        k(  463) = (   0.6606068   0.9158143   1.0506945), wk =   0.0025641
        k(  464) = (   0.0349786   0.9158143  -1.0506945), wk =   0.0025641
        k(  465) = (   0.0871143   0.9158143  -0.8755788), wk =   0.0025641
        k(  466) = (   0.1392500   0.9158143  -0.7004630), wk =   0.0025641
        k(  467) = (   0.1913857   0.9158143  -0.5253473), wk =   0.0025641
        k(  468) = (   0.2435214   0.9158143  -0.3502315), wk =   0.0025641
        k(  469) = (   0.2956570   0.9158143  -0.1751158), wk =   0.0025641
        k(  470) = (   0.3477927   1.0989771   0.0000000), wk =   0.0025641
        k(  471) = (   0.3999284   1.0989771   0.1751158), wk =   0.0025641
        k(  472) = (   0.4520641   1.0989771   0.3502315), wk =   0.0025641
        k(  473) = (   0.5041998   1.0989771   0.5253473), wk =   0.0025641
        k(  474) = (   0.5563354   1.0989771   0.7004630), wk =   0.0025641
        k(  475) = (   0.6084711   1.0989771   0.8755788), wk =   0.0025641
        k(  476) = (   0.6606068   1.0989771   1.0506945), wk =   0.0025641
        k(  477) = (   0.0349786   1.0989771  -1.0506945), wk =   0.0025641
        k(  478) = (   0.0871143   1.0989771  -0.8755788), wk =   0.0025641
        k(  479) = (   0.1392500   1.0989771  -0.7004630), wk =   0.0025641
        k(  480) = (   0.1913857   1.0989771  -0.5253473), wk =   0.0025641
        k(  481) = (   0.2435214   1.0989771  -0.3502315), wk =   0.0025641
        k(  482) = (   0.2956570   1.0989771  -0.1751158), wk =   0.0025641
        k(  483) = (   0.3477927   1.2821400   0.0000000), wk =   0.0025641
        k(  484) = (   0.3999284   1.2821400   0.1751158), wk =   0.0025641
        k(  485) = (   0.4520641   1.2821400   0.3502315), wk =   0.0025641
        k(  486) = (   0.5041998   1.2821400   0.5253473), wk =   0.0025641
        k(  487) = (   0.5563354   1.2821400   0.7004630), wk =   0.0025641
        k(  488) = (   0.6084711   1.2821400   0.8755788), wk =   0.0025641
        k(  489) = (   0.6606068   1.2821400   1.0506945), wk =   0.0025641
        k(  490) = (   0.0349786   1.2821400  -1.0506945), wk =   0.0025641
        k(  491) = (   0.0871143   1.2821400  -0.8755788), wk =   0.0025641
        k(  492) = (   0.1392500   1.2821400  -0.7004630), wk =   0.0025641
        k(  493) = (   0.1913857   1.2821400  -0.5253473), wk =   0.0025641
        k(  494) = (   0.2435214   1.2821400  -0.3502315), wk =   0.0025641
        k(  495) = (   0.2956570   1.2821400  -0.1751158), wk =   0.0025641
        k(  496) = (   0.3477927   1.4653029   0.0000000), wk =   0.0025641
        k(  497) = (   0.3999284   1.4653029   0.1751158), wk =   0.0025641
        k(  498) = (   0.4520641   1.4653029   0.3502315), wk =   0.0025641
        k(  499) = (   0.5041998   1.4653029   0.5253473), wk =   0.0025641
        k(  500) = (   0.5563354   1.4653029   0.7004630), wk =   0.0025641
        k(  501) = (   0.6084711   1.4653029   0.8755788), wk =   0.0025641
        k(  502) = (   0.6606068   1.4653029   1.0506945), wk =   0.0025641
        k(  503) = (   0.0349786   1.4653029  -1.0506945), wk =   0.0025641
        k(  504) = (   0.0871143   1.4653029  -0.8755788), wk =   0.0025641
        k(  505) = (   0.1392500   1.4653029  -0.7004630), wk =   0.0025641
        k(  506) = (   0.1913857   1.4653029  -0.5253473), wk =   0.0025641
        k(  507) = (   0.2435214   1.4653029  -0.3502315), wk =   0.0025641
        k(  508) = (   0.2956570   1.4653029  -0.1751158), wk =   0.0025641
        k(  509) = (   0.3477927   1.6484657   0.0000000), wk =   0.0025641
        k(  510) = (   0.3999284   1.6484657   0.1751158), wk =   0.0025641
        k(  511) = (   0.4520641   1.6484657   0.3502315), wk =   0.0025641
        k(  512) = (   0.5041998   1.6484657   0.5253473), wk =   0.0025641
        k(  513) = (   0.5563354   1.6484657   0.7004630), wk =   0.0025641
        k(  514) = (   0.6084711   1.6484657   0.8755788), wk =   0.0025641
        k(  515) = (   0.6606068   1.6484657   1.0506945), wk =   0.0025641
        k(  516) = (   0.0349786   1.6484657  -1.0506945), wk =   0.0025641
        k(  517) = (   0.0871143   1.6484657  -0.8755788), wk =   0.0025641
        k(  518) = (   0.1392500   1.6484657  -0.7004630), wk =   0.0025641
        k(  519) = (   0.1913857   1.6484657  -0.5253473), wk =   0.0025641
        k(  520) = (   0.2435214   1.6484657  -0.3502315), wk =   0.0025641
        k(  521) = (   0.2956570   1.6484657  -0.1751158), wk =   0.0025641
        k(  522) = (   0.3477927  -1.8316286   0.0000000), wk =   0.0025641
        k(  523) = (   0.3999284  -1.8316286   0.1751158), wk =   0.0025641
        k(  524) = (   0.4520641  -1.8316286   0.3502315), wk =   0.0025641
        k(  525) = (   0.5041998  -1.8316286   0.5253473), wk =   0.0025641
        k(  526) = (   0.5563354  -1.8316286   0.7004630), wk =   0.0025641
        k(  527) = (   0.6084711  -1.8316286   0.8755788), wk =   0.0025641
        k(  528) = (   0.6606068  -1.8316286   1.0506945), wk =   0.0025641
        k(  529) = (   0.0349786  -1.8316286  -1.0506945), wk =   0.0025641
        k(  530) = (   0.0871143  -1.8316286  -0.8755788), wk =   0.0025641
        k(  531) = (   0.1392500  -1.8316286  -0.7004630), wk =   0.0025641
        k(  532) = (   0.1913857  -1.8316286  -0.5253473), wk =   0.0025641
        k(  533) = (   0.2435214  -1.8316286  -0.3502315), wk =   0.0025641
        k(  534) = (   0.2956570  -1.8316286  -0.1751158), wk =   0.0025641
        k(  535) = (   0.3477927  -1.6484657   0.0000000), wk =   0.0025641
        k(  536) = (   0.3999284  -1.6484657   0.1751158), wk =   0.0025641
        k(  537) = (   0.4520641  -1.6484657   0.3502315), wk =   0.0025641
        k(  538) = (   0.5041998  -1.6484657   0.5253473), wk =   0.0025641
        k(  539) = (   0.5563354  -1.6484657   0.7004630), wk =   0.0025641
        k(  540) = (   0.6084711  -1.6484657   0.8755788), wk =   0.0025641
        k(  541) = (   0.6606068  -1.6484657   1.0506945), wk =   0.0025641
        k(  542) = (   0.0349786  -1.6484657  -1.0506945), wk =   0.0025641
        k(  543) = (   0.0871143  -1.6484657  -0.8755788), wk =   0.0025641
        k(  544) = (   0.1392500  -1.6484657  -0.7004630), wk =   0.0025641
        k(  545) = (   0.1913857  -1.6484657  -0.5253473), wk =   0.0025641
        k(  546) = (   0.2435214  -1.6484657  -0.3502315), wk =   0.0025641
        k(  547) = (   0.2956570  -1.6484657  -0.1751158), wk =   0.0025641
        k(  548) = (   0.3477927  -1.4653029   0.0000000), wk =   0.0025641
        k(  549) = (   0.3999284  -1.4653029   0.1751158), wk =   0.0025641
        k(  550) = (   0.4520641  -1.4653029   0.3502315), wk =   0.0025641
        k(  551) = (   0.5041998  -1.4653029   0.5253473), wk =   0.0025641
        k(  552) = (   0.5563354  -1.4653029   0.7004630), wk =   0.0025641
        k(  553) = (   0.6084711  -1.4653029   0.8755788), wk =   0.0025641
        k(  554) = (   0.6606068  -1.4653029   1.0506945), wk =   0.0025641
        k(  555) = (   0.0349786  -1.4653029  -1.0506945), wk =   0.0025641
        k(  556) = (   0.0871143  -1.4653029  -0.8755788), wk =   0.0025641
        k(  557) = (   0.1392500  -1.4653029  -0.7004630), wk =   0.0025641
        k(  558) = (   0.1913857  -1.4653029  -0.5253473), wk =   0.0025641
        k(  559) = (   0.2435214  -1.4653029  -0.3502315), wk =   0.0025641
        k(  560) = (   0.2956570  -1.4653029  -0.1751158), wk =   0.0025641
        k(  561) = (   0.3477927  -1.2821400   0.0000000), wk =   0.0025641
        k(  562) = (   0.3999284  -1.2821400   0.1751158), wk =   0.0025641
        k(  563) = (   0.4520641  -1.2821400   0.3502315), wk =   0.0025641
        k(  564) = (   0.5041998  -1.2821400   0.5253473), wk =   0.0025641
        k(  565) = (   0.5563354  -1.2821400   0.7004630), wk =   0.0025641
        k(  566) = (   0.6084711  -1.2821400   0.8755788), wk =   0.0025641
        k(  567) = (   0.6606068  -1.2821400   1.0506945), wk =   0.0025641
        k(  568) = (   0.0349786  -1.2821400  -1.0506945), wk =   0.0025641
        k(  569) = (   0.0871143  -1.2821400  -0.8755788), wk =   0.0025641
        k(  570) = (   0.1392500  -1.2821400  -0.7004630), wk =   0.0025641
        k(  571) = (   0.1913857  -1.2821400  -0.5253473), wk =   0.0025641
        k(  572) = (   0.2435214  -1.2821400  -0.3502315), wk =   0.0025641
        k(  573) = (   0.2956570  -1.2821400  -0.1751158), wk =   0.0025641
        k(  574) = (   0.3477927  -1.0989771   0.0000000), wk =   0.0025641
        k(  575) = (   0.3999284  -1.0989771   0.1751158), wk =   0.0025641
        k(  576) = (   0.4520641  -1.0989771   0.3502315), wk =   0.0025641
        k(  577) = (   0.5041998  -1.0989771   0.5253473), wk =   0.0025641
        k(  578) = (   0.5563354  -1.0989771   0.7004630), wk =   0.0025641
        k(  579) = (   0.6084711  -1.0989771   0.8755788), wk =   0.0025641
        k(  580) = (   0.6606068  -1.0989771   1.0506945), wk =   0.0025641
        k(  581) = (   0.0349786  -1.0989771  -1.0506945), wk =   0.0025641
        k(  582) = (   0.0871143  -1.0989771  -0.8755788), wk =   0.0025641
        k(  583) = (   0.1392500  -1.0989771  -0.7004630), wk =   0.0025641
        k(  584) = (   0.1913857  -1.0989771  -0.5253473), wk =   0.0025641
        k(  585) = (   0.2435214  -1.0989771  -0.3502315), wk =   0.0025641
        k(  586) = (   0.2956570  -1.0989771  -0.1751158), wk =   0.0025641
        k(  587) = (   0.3477927  -0.9158143   0.0000000), wk =   0.0025641
        k(  588) = (   0.3999284  -0.9158143   0.1751158), wk =   0.0025641
        k(  589) = (   0.4520641  -0.9158143   0.3502315), wk =   0.0025641
        k(  590) = (   0.5041998  -0.9158143   0.5253473), wk =   0.0025641
        k(  591) = (   0.5563354  -0.9158143   0.7004630), wk =   0.0025641
        k(  592) = (   0.6084711  -0.9158143   0.8755788), wk =   0.0025641
        k(  593) = (   0.6606068  -0.9158143   1.0506945), wk =   0.0025641
        k(  594) = (   0.0349786  -0.9158143  -1.0506945), wk =   0.0025641
        k(  595) = (   0.0871143  -0.9158143  -0.8755788), wk =   0.0025641
        k(  596) = (   0.1392500  -0.9158143  -0.7004630), wk =   0.0025641
        k(  597) = (   0.1913857  -0.9158143  -0.5253473), wk =   0.0025641
        k(  598) = (   0.2435214  -0.9158143  -0.3502315), wk =   0.0025641
        k(  599) = (   0.2956570  -0.9158143  -0.1751158), wk =   0.0025641
        k(  600) = (   0.3477927  -0.7326514   0.0000000), wk =   0.0025641
        k(  601) = (   0.3999284  -0.7326514   0.1751158), wk =   0.0025641
        k(  602) = (   0.4520641  -0.7326514   0.3502315), wk =   0.0025641
        k(  603) = (   0.5041998  -0.7326514   0.5253473), wk =   0.0025641
        k(  604) = (   0.5563354  -0.7326514   0.7004630), wk =   0.0025641
        k(  605) = (   0.6084711  -0.7326514   0.8755788), wk =   0.0025641
        k(  606) = (   0.6606068  -0.7326514   1.0506945), wk =   0.0025641
        k(  607) = (   0.0349786  -0.7326514  -1.0506945), wk =   0.0025641
        k(  608) = (   0.0871143  -0.7326514  -0.8755788), wk =   0.0025641
        k(  609) = (   0.1392500  -0.7326514  -0.7004630), wk =   0.0025641
        k(  610) = (   0.1913857  -0.7326514  -0.5253473), wk =   0.0025641
        k(  611) = (   0.2435214  -0.7326514  -0.3502315), wk =   0.0025641
        k(  612) = (   0.2956570  -0.7326514  -0.1751158), wk =   0.0025641
        k(  613) = (   0.3477927  -0.5494886   0.0000000), wk =   0.0025641
        k(  614) = (   0.3999284  -0.5494886   0.1751158), wk =   0.0025641
        k(  615) = (   0.4520641  -0.5494886   0.3502315), wk =   0.0025641
        k(  616) = (   0.5041998  -0.5494886   0.5253473), wk =   0.0025641
        k(  617) = (   0.5563354  -0.5494886   0.7004630), wk =   0.0025641
        k(  618) = (   0.6084711  -0.5494886   0.8755788), wk =   0.0025641
        k(  619) = (   0.6606068  -0.5494886   1.0506945), wk =   0.0025641
        k(  620) = (   0.0349786  -0.5494886  -1.0506945), wk =   0.0025641
        k(  621) = (   0.0871143  -0.5494886  -0.8755788), wk =   0.0025641
        k(  622) = (   0.1392500  -0.5494886  -0.7004630), wk =   0.0025641
        k(  623) = (   0.1913857  -0.5494886  -0.5253473), wk =   0.0025641
        k(  624) = (   0.2435214  -0.5494886  -0.3502315), wk =   0.0025641
        k(  625) = (   0.2956570  -0.5494886  -0.1751158), wk =   0.0025641
        k(  626) = (   0.3477927  -0.3663257   0.0000000), wk =   0.0025641
        k(  627) = (   0.3999284  -0.3663257   0.1751158), wk =   0.0025641
        k(  628) = (   0.4520641  -0.3663257   0.3502315), wk =   0.0025641
        k(  629) = (   0.5041998  -0.3663257   0.5253473), wk =   0.0025641
        k(  630) = (   0.5563354  -0.3663257   0.7004630), wk =   0.0025641
        k(  631) = (   0.6084711  -0.3663257   0.8755788), wk =   0.0025641
        k(  632) = (   0.6606068  -0.3663257   1.0506945), wk =   0.0025641
        k(  633) = (   0.0349786  -0.3663257  -1.0506945), wk =   0.0025641
        k(  634) = (   0.0871143  -0.3663257  -0.8755788), wk =   0.0025641
        k(  635) = (   0.1392500  -0.3663257  -0.7004630), wk =   0.0025641
        k(  636) = (   0.1913857  -0.3663257  -0.5253473), wk =   0.0025641
        k(  637) = (   0.2435214  -0.3663257  -0.3502315), wk =   0.0025641
        k(  638) = (   0.2956570  -0.3663257  -0.1751158), wk =   0.0025641
        k(  639) = (   0.3477927  -0.1831629   0.0000000), wk =   0.0025641
        k(  640) = (   0.3999284  -0.1831629   0.1751158), wk =   0.0025641
        k(  641) = (   0.4520641  -0.1831629   0.3502315), wk =   0.0025641
        k(  642) = (   0.5041998  -0.1831629   0.5253473), wk =   0.0025641
        k(  643) = (   0.5563354  -0.1831629   0.7004630), wk =   0.0025641
        k(  644) = (   0.6084711  -0.1831629   0.8755788), wk =   0.0025641
        k(  645) = (   0.6606068  -0.1831629   1.0506945), wk =   0.0025641
        k(  646) = (   0.0349786  -0.1831629  -1.0506945), wk =   0.0025641
        k(  647) = (   0.0871143  -0.1831629  -0.8755788), wk =   0.0025641
        k(  648) = (   0.1392500  -0.1831629  -0.7004630), wk =   0.0025641
        k(  649) = (   0.1913857  -0.1831629  -0.5253473), wk =   0.0025641
        k(  650) = (   0.2435214  -0.1831629  -0.3502315), wk =   0.0025641
        k(  651) = (   0.2956570  -0.1831629  -0.1751158), wk =   0.0025641
        k(  652) = (  -0.5216891   0.0000000   0.0000000), wk =   0.0012821
        k(  653) = (  -0.4695534   0.0000000   0.1751158), wk =   0.0025641
        k(  654) = (  -0.4174177   0.0000000   0.3502315), wk =   0.0025641
        k(  655) = (  -0.3652820   0.0000000   0.5253473), wk =   0.0025641
        k(  656) = (  -0.3131464   0.0000000   0.7004630), wk =   0.0025641
        k(  657) = (  -0.2610107   0.0000000   0.8755788), wk =   0.0025641
        k(  658) = (  -0.2088750   0.0000000   1.0506945), wk =   0.0025641
        k(  659) = (  -0.5216891   0.1831629   0.0000000), wk =   0.0025641
        k(  660) = (  -0.4695534   0.1831629   0.1751158), wk =   0.0025641
        k(  661) = (  -0.4174177   0.1831629   0.3502315), wk =   0.0025641
        k(  662) = (  -0.3652820   0.1831629   0.5253473), wk =   0.0025641
        k(  663) = (  -0.3131464   0.1831629   0.7004630), wk =   0.0025641
        k(  664) = (  -0.2610107   0.1831629   0.8755788), wk =   0.0025641
        k(  665) = (  -0.2088750   0.1831629   1.0506945), wk =   0.0025641
        k(  666) = (  -0.8345031   0.1831629  -1.0506945), wk =   0.0025641
        k(  667) = (  -0.7823675   0.1831629  -0.8755788), wk =   0.0025641
        k(  668) = (  -0.7302318   0.1831629  -0.7004630), wk =   0.0025641
        k(  669) = (  -0.6780961   0.1831629  -0.5253473), wk =   0.0025641
        k(  670) = (  -0.6259604   0.1831629  -0.3502315), wk =   0.0025641
        k(  671) = (  -0.5738247   0.1831629  -0.1751158), wk =   0.0025641
        k(  672) = (  -0.5216891   0.3663257   0.0000000), wk =   0.0025641
        k(  673) = (  -0.4695534   0.3663257   0.1751158), wk =   0.0025641
        k(  674) = (  -0.4174177   0.3663257   0.3502315), wk =   0.0025641
        k(  675) = (  -0.3652820   0.3663257   0.5253473), wk =   0.0025641
        k(  676) = (  -0.3131464   0.3663257   0.7004630), wk =   0.0025641
        k(  677) = (  -0.2610107   0.3663257   0.8755788), wk =   0.0025641
        k(  678) = (  -0.2088750   0.3663257   1.0506945), wk =   0.0025641
        k(  679) = (  -0.8345031   0.3663257  -1.0506945), wk =   0.0025641
        k(  680) = (  -0.7823675   0.3663257  -0.8755788), wk =   0.0025641
        k(  681) = (  -0.7302318   0.3663257  -0.7004630), wk =   0.0025641
        k(  682) = (  -0.6780961   0.3663257  -0.5253473), wk =   0.0025641
        k(  683) = (  -0.6259604   0.3663257  -0.3502315), wk =   0.0025641
        k(  684) = (  -0.5738247   0.3663257  -0.1751158), wk =   0.0025641
        k(  685) = (  -0.5216891   0.5494886   0.0000000), wk =   0.0025641
        k(  686) = (  -0.4695534   0.5494886   0.1751158), wk =   0.0025641
        k(  687) = (  -0.4174177   0.5494886   0.3502315), wk =   0.0025641
        k(  688) = (  -0.3652820   0.5494886   0.5253473), wk =   0.0025641
        k(  689) = (  -0.3131464   0.5494886   0.7004630), wk =   0.0025641
        k(  690) = (  -0.2610107   0.5494886   0.8755788), wk =   0.0025641
        k(  691) = (  -0.2088750   0.5494886   1.0506945), wk =   0.0025641
        k(  692) = (  -0.8345031   0.5494886  -1.0506945), wk =   0.0025641
        k(  693) = (  -0.7823675   0.5494886  -0.8755788), wk =   0.0025641
        k(  694) = (  -0.7302318   0.5494886  -0.7004630), wk =   0.0025641
        k(  695) = (  -0.6780961   0.5494886  -0.5253473), wk =   0.0025641
        k(  696) = (  -0.6259604   0.5494886  -0.3502315), wk =   0.0025641
        k(  697) = (  -0.5738247   0.5494886  -0.1751158), wk =   0.0025641
        k(  698) = (  -0.5216891   0.7326514   0.0000000), wk =   0.0025641
        k(  699) = (  -0.4695534   0.7326514   0.1751158), wk =   0.0025641
        k(  700) = (  -0.4174177   0.7326514   0.3502315), wk =   0.0025641
        k(  701) = (  -0.3652820   0.7326514   0.5253473), wk =   0.0025641
        k(  702) = (  -0.3131464   0.7326514   0.7004630), wk =   0.0025641
        k(  703) = (  -0.2610107   0.7326514   0.8755788), wk =   0.0025641
        k(  704) = (  -0.2088750   0.7326514   1.0506945), wk =   0.0025641
        k(  705) = (  -0.8345031   0.7326514  -1.0506945), wk =   0.0025641
        k(  706) = (  -0.7823675   0.7326514  -0.8755788), wk =   0.0025641
        k(  707) = (  -0.7302318   0.7326514  -0.7004630), wk =   0.0025641
        k(  708) = (  -0.6780961   0.7326514  -0.5253473), wk =   0.0025641
        k(  709) = (  -0.6259604   0.7326514  -0.3502315), wk =   0.0025641
        k(  710) = (  -0.5738247   0.7326514  -0.1751158), wk =   0.0025641
        k(  711) = (  -0.5216891   0.9158143   0.0000000), wk =   0.0025641
        k(  712) = (  -0.4695534   0.9158143   0.1751158), wk =   0.0025641
        k(  713) = (  -0.4174177   0.9158143   0.3502315), wk =   0.0025641
        k(  714) = (  -0.3652820   0.9158143   0.5253473), wk =   0.0025641
        k(  715) = (  -0.3131464   0.9158143   0.7004630), wk =   0.0025641
        k(  716) = (  -0.2610107   0.9158143   0.8755788), wk =   0.0025641
        k(  717) = (  -0.2088750   0.9158143   1.0506945), wk =   0.0025641
        k(  718) = (  -0.8345031   0.9158143  -1.0506945), wk =   0.0025641
        k(  719) = (  -0.7823675   0.9158143  -0.8755788), wk =   0.0025641
        k(  720) = (  -0.7302318   0.9158143  -0.7004630), wk =   0.0025641
        k(  721) = (  -0.6780961   0.9158143  -0.5253473), wk =   0.0025641
        k(  722) = (  -0.6259604   0.9158143  -0.3502315), wk =   0.0025641
        k(  723) = (  -0.5738247   0.9158143  -0.1751158), wk =   0.0025641
        k(  724) = (  -0.5216891   1.0989771   0.0000000), wk =   0.0025641
        k(  725) = (  -0.4695534   1.0989771   0.1751158), wk =   0.0025641
        k(  726) = (  -0.4174177   1.0989771   0.3502315), wk =   0.0025641
        k(  727) = (  -0.3652820   1.0989771   0.5253473), wk =   0.0025641
        k(  728) = (  -0.3131464   1.0989771   0.7004630), wk =   0.0025641
        k(  729) = (  -0.2610107   1.0989771   0.8755788), wk =   0.0025641
        k(  730) = (  -0.2088750   1.0989771   1.0506945), wk =   0.0025641
        k(  731) = (  -0.8345031   1.0989771  -1.0506945), wk =   0.0025641
        k(  732) = (  -0.7823675   1.0989771  -0.8755788), wk =   0.0025641
        k(  733) = (  -0.7302318   1.0989771  -0.7004630), wk =   0.0025641
        k(  734) = (  -0.6780961   1.0989771  -0.5253473), wk =   0.0025641
        k(  735) = (  -0.6259604   1.0989771  -0.3502315), wk =   0.0025641
        k(  736) = (  -0.5738247   1.0989771  -0.1751158), wk =   0.0025641
        k(  737) = (  -0.5216891   1.2821400   0.0000000), wk =   0.0025641
        k(  738) = (  -0.4695534   1.2821400   0.1751158), wk =   0.0025641
        k(  739) = (  -0.4174177   1.2821400   0.3502315), wk =   0.0025641
        k(  740) = (  -0.3652820   1.2821400   0.5253473), wk =   0.0025641
        k(  741) = (  -0.3131464   1.2821400   0.7004630), wk =   0.0025641
        k(  742) = (  -0.2610107   1.2821400   0.8755788), wk =   0.0025641
        k(  743) = (  -0.2088750   1.2821400   1.0506945), wk =   0.0025641
        k(  744) = (  -0.8345031   1.2821400  -1.0506945), wk =   0.0025641
        k(  745) = (  -0.7823675   1.2821400  -0.8755788), wk =   0.0025641
        k(  746) = (  -0.7302318   1.2821400  -0.7004630), wk =   0.0025641
        k(  747) = (  -0.6780961   1.2821400  -0.5253473), wk =   0.0025641
        k(  748) = (  -0.6259604   1.2821400  -0.3502315), wk =   0.0025641
        k(  749) = (  -0.5738247   1.2821400  -0.1751158), wk =   0.0025641
        k(  750) = (  -0.5216891   1.4653029   0.0000000), wk =   0.0025641
        k(  751) = (  -0.4695534   1.4653029   0.1751158), wk =   0.0025641
        k(  752) = (  -0.4174177   1.4653029   0.3502315), wk =   0.0025641
        k(  753) = (  -0.3652820   1.4653029   0.5253473), wk =   0.0025641
        k(  754) = (  -0.3131464   1.4653029   0.7004630), wk =   0.0025641
        k(  755) = (  -0.2610107   1.4653029   0.8755788), wk =   0.0025641
        k(  756) = (  -0.2088750   1.4653029   1.0506945), wk =   0.0025641
        k(  757) = (  -0.8345031   1.4653029  -1.0506945), wk =   0.0025641
        k(  758) = (  -0.7823675   1.4653029  -0.8755788), wk =   0.0025641
        k(  759) = (  -0.7302318   1.4653029  -0.7004630), wk =   0.0025641
        k(  760) = (  -0.6780961   1.4653029  -0.5253473), wk =   0.0025641
        k(  761) = (  -0.6259604   1.4653029  -0.3502315), wk =   0.0025641
        k(  762) = (  -0.5738247   1.4653029  -0.1751158), wk =   0.0025641
        k(  763) = (  -0.5216891   1.6484657   0.0000000), wk =   0.0025641
        k(  764) = (  -0.4695534   1.6484657   0.1751158), wk =   0.0025641
        k(  765) = (  -0.4174177   1.6484657   0.3502315), wk =   0.0025641
        k(  766) = (  -0.3652820   1.6484657   0.5253473), wk =   0.0025641
        k(  767) = (  -0.3131464   1.6484657   0.7004630), wk =   0.0025641
        k(  768) = (  -0.2610107   1.6484657   0.8755788), wk =   0.0025641
        k(  769) = (  -0.2088750   1.6484657   1.0506945), wk =   0.0025641
        k(  770) = (  -0.8345031   1.6484657  -1.0506945), wk =   0.0025641
        k(  771) = (  -0.7823675   1.6484657  -0.8755788), wk =   0.0025641
        k(  772) = (  -0.7302318   1.6484657  -0.7004630), wk =   0.0025641
        k(  773) = (  -0.6780961   1.6484657  -0.5253473), wk =   0.0025641
        k(  774) = (  -0.6259604   1.6484657  -0.3502315), wk =   0.0025641
        k(  775) = (  -0.5738247   1.6484657  -0.1751158), wk =   0.0025641
        k(  776) = (  -0.5216891  -1.8316286   0.0000000), wk =   0.0012821
        k(  777) = (  -0.4695534  -1.8316286   0.1751158), wk =   0.0025641
        k(  778) = (  -0.4174177  -1.8316286   0.3502315), wk =   0.0025641
        k(  779) = (  -0.3652820  -1.8316286   0.5253473), wk =   0.0025641
        k(  780) = (  -0.3131464  -1.8316286   0.7004630), wk =   0.0025641
        k(  781) = (  -0.2610107  -1.8316286   0.8755788), wk =   0.0025641
        k(  782) = (  -0.2088750  -1.8316286   1.0506945), wk =   0.0025641

                       cryst. coord.
        k(    1) = (   0.0000000   0.0000000   0.0000000), wk =   0.0012821
        k(    2) = (  -0.0000000   0.0000000   0.0769231), wk =   0.0025641
        k(    3) = (  -0.0000000   0.0000000   0.1538462), wk =   0.0025641
        k(    4) = (  -0.0000000   0.0000000   0.2307692), wk =   0.0025641
        k(    5) = (  -0.0000000   0.0000000   0.3076923), wk =   0.0025641
        k(    6) = (   0.0000000   0.0000000   0.3846154), wk =   0.0025641
        k(    7) = (  -0.0000000   0.0000000   0.4615385), wk =   0.0025641
        k(    8) = (   0.0000000   0.0500000   0.0000000), wk =   0.0025641
        k(    9) = (  -0.0000000   0.0500000   0.0769231), wk =   0.0025641
        k(   10) = (  -0.0000000   0.0500000   0.1538462), wk =   0.0025641
        k(   11) = (  -0.0000000   0.0500000   0.2307692), wk =   0.0025641
        k(   12) = (  -0.0000000   0.0500000   0.3076923), wk =   0.0025641
        k(   13) = (   0.0000000   0.0500000   0.3846154), wk =   0.0025641
        k(   14) = (  -0.0000000   0.0500000   0.4615385), wk =   0.0025641
        k(   15) = (   0.0000000   0.0500000  -0.4615385), wk =   0.0025641
        k(   16) = (   0.0000000   0.0500000  -0.3846154), wk =   0.0025641
        k(   17) = (   0.0000000   0.0500000  -0.3076923), wk =   0.0025641
        k(   18) = (   0.0000000   0.0500000  -0.2307692), wk =   0.0025641
        k(   19) = (   0.0000000   0.0500000  -0.1538462), wk =   0.0025641
        k(   20) = (  -0.0000000   0.0500000  -0.0769231), wk =   0.0025641
        k(   21) = (   0.0000000   0.1000000   0.0000000), wk =   0.0025641
        k(   22) = (  -0.0000000   0.1000000   0.0769231), wk =   0.0025641
        k(   23) = (  -0.0000000   0.1000000   0.1538462), wk =   0.0025641
        k(   24) = (  -0.0000000   0.1000000   0.2307692), wk =   0.0025641
        k(   25) = (  -0.0000000   0.1000000   0.3076923), wk =   0.0025641
        k(   26) = (   0.0000000   0.1000000   0.3846154), wk =   0.0025641
        k(   27) = (  -0.0000000   0.1000000   0.4615385), wk =   0.0025641
        k(   28) = (   0.0000000   0.1000000  -0.4615385), wk =   0.0025641
        k(   29) = (   0.0000000   0.1000000  -0.3846154), wk =   0.0025641
        k(   30) = (   0.0000000   0.1000000  -0.3076923), wk =   0.0025641
        k(   31) = (   0.0000000   0.1000000  -0.2307692), wk =   0.0025641
        k(   32) = (   0.0000000   0.1000000  -0.1538462), wk =   0.0025641
        k(   33) = (  -0.0000000   0.1000000  -0.0769231), wk =   0.0025641
        k(   34) = (   0.0000000   0.1500000   0.0000000), wk =   0.0025641
        k(   35) = (  -0.0000000   0.1500000   0.0769231), wk =   0.0025641
        k(   36) = (  -0.0000000   0.1500000   0.1538462), wk =   0.0025641
        k(   37) = (  -0.0000000   0.1500000   0.2307692), wk =   0.0025641
        k(   38) = (  -0.0000000   0.1500000   0.3076923), wk =   0.0025641
        k(   39) = (   0.0000000   0.1500000   0.3846154), wk =   0.0025641
        k(   40) = (  -0.0000000   0.1500000   0.4615385), wk =   0.0025641
        k(   41) = (   0.0000000   0.1500000  -0.4615385), wk =   0.0025641
        k(   42) = (   0.0000000   0.1500000  -0.3846154), wk =   0.0025641
        k(   43) = (   0.0000000   0.1500000  -0.3076923), wk =   0.0025641
        k(   44) = (   0.0000000   0.1500000  -0.2307692), wk =   0.0025641
        k(   45) = (   0.0000000   0.1500000  -0.1538462), wk =   0.0025641
        k(   46) = (  -0.0000000   0.1500000  -0.0769231), wk =   0.0025641
        k(   47) = (   0.0000000   0.2000000   0.0000000), wk =   0.0025641
        k(   48) = (  -0.0000000   0.2000000   0.0769231), wk =   0.0025641
        k(   49) = (  -0.0000000   0.2000000   0.1538462), wk =   0.0025641
        k(   50) = (  -0.0000000   0.2000000   0.2307692), wk =   0.0025641
        k(   51) = (  -0.0000000   0.2000000   0.3076923), wk =   0.0025641
        k(   52) = (   0.0000000   0.2000000   0.3846154), wk =   0.0025641
        k(   53) = (  -0.0000000   0.2000000   0.4615385), wk =   0.0025641
        k(   54) = (   0.0000000   0.2000000  -0.4615385), wk =   0.0025641
        k(   55) = (   0.0000000   0.2000000  -0.3846154), wk =   0.0025641
        k(   56) = (   0.0000000   0.2000000  -0.3076923), wk =   0.0025641
        k(   57) = (   0.0000000   0.2000000  -0.2307692), wk =   0.0025641
        k(   58) = (   0.0000000   0.2000000  -0.1538462), wk =   0.0025641
        k(   59) = (  -0.0000000   0.2000000  -0.0769231), wk =   0.0025641
        k(   60) = (   0.0000000   0.2500000   0.0000000), wk =   0.0025641
        k(   61) = (  -0.0000000   0.2500000   0.0769231), wk =   0.0025641
        k(   62) = (  -0.0000000   0.2500000   0.1538462), wk =   0.0025641
        k(   63) = (  -0.0000000   0.2500000   0.2307692), wk =   0.0025641
        k(   64) = (  -0.0000000   0.2500000   0.3076923), wk =   0.0025641
        k(   65) = (   0.0000000   0.2500000   0.3846154), wk =   0.0025641
        k(   66) = (  -0.0000000   0.2500000   0.4615385), wk =   0.0025641
        k(   67) = (   0.0000000   0.2500000  -0.4615385), wk =   0.0025641
        k(   68) = (   0.0000000   0.2500000  -0.3846154), wk =   0.0025641
        k(   69) = (   0.0000000   0.2500000  -0.3076923), wk =   0.0025641
        k(   70) = (   0.0000000   0.2500000  -0.2307692), wk =   0.0025641
        k(   71) = (   0.0000000   0.2500000  -0.1538462), wk =   0.0025641
        k(   72) = (  -0.0000000   0.2500000  -0.0769231), wk =   0.0025641
        k(   73) = (   0.0000000   0.3000000   0.0000000), wk =   0.0025641
        k(   74) = (  -0.0000000   0.3000000   0.0769231), wk =   0.0025641
        k(   75) = (  -0.0000000   0.3000000   0.1538462), wk =   0.0025641
        k(   76) = (  -0.0000000   0.3000000   0.2307692), wk =   0.0025641
        k(   77) = (  -0.0000000   0.3000000   0.3076923), wk =   0.0025641
        k(   78) = (   0.0000000   0.3000000   0.3846154), wk =   0.0025641
        k(   79) = (  -0.0000000   0.3000000   0.4615385), wk =   0.0025641
        k(   80) = (   0.0000000   0.3000000  -0.4615385), wk =   0.0025641
        k(   81) = (   0.0000000   0.3000000  -0.3846154), wk =   0.0025641
        k(   82) = (   0.0000000   0.3000000  -0.3076923), wk =   0.0025641
        k(   83) = (   0.0000000   0.3000000  -0.2307692), wk =   0.0025641
        k(   84) = (   0.0000000   0.3000000  -0.1538462), wk =   0.0025641
        k(   85) = (  -0.0000000   0.3000000  -0.0769231), wk =   0.0025641
        k(   86) = (   0.0000000   0.3500000   0.0000000), wk =   0.0025641
        k(   87) = (  -0.0000000   0.3500000   0.0769231), wk =   0.0025641
        k(   88) = (  -0.0000000   0.3500000   0.1538462), wk =   0.0025641
        k(   89) = (  -0.0000000   0.3500000   0.2307692), wk =   0.0025641
        k(   90) = (  -0.0000000   0.3500000   0.3076923), wk =   0.0025641
        k(   91) = (   0.0000000   0.3500000   0.3846154), wk =   0.0025641
        k(   92) = (  -0.0000000   0.3500000   0.4615385), wk =   0.0025641
        k(   93) = (   0.0000000   0.3500000  -0.4615385), wk =   0.0025641
        k(   94) = (   0.0000000   0.3500000  -0.3846154), wk =   0.0025641
        k(   95) = (   0.0000000   0.3500000  -0.3076923), wk =   0.0025641
        k(   96) = (   0.0000000   0.3500000  -0.2307692), wk =   0.0025641
        k(   97) = (   0.0000000   0.3500000  -0.1538462), wk =   0.0025641
        k(   98) = (  -0.0000000   0.3500000  -0.0769231), wk =   0.0025641
        k(   99) = (   0.0000000   0.4000000   0.0000000), wk =   0.0025641
        k(  100) = (  -0.0000000   0.4000000   0.0769231), wk =   0.0025641
        k(  101) = (  -0.0000000   0.4000000   0.1538462), wk =   0.0025641
        k(  102) = (  -0.0000000   0.4000000   0.2307692), wk =   0.0025641
        k(  103) = (  -0.0000000   0.4000000   0.3076923), wk =   0.0025641
        k(  104) = (   0.0000000   0.4000000   0.3846154), wk =   0.0025641
        k(  105) = (  -0.0000000   0.4000000   0.4615385), wk =   0.0025641
        k(  106) = (   0.0000000   0.4000000  -0.4615385), wk =   0.0025641
        k(  107) = (   0.0000000   0.4000000  -0.3846154), wk =   0.0025641
        k(  108) = (   0.0000000   0.4000000  -0.3076923), wk =   0.0025641
        k(  109) = (   0.0000000   0.4000000  -0.2307692), wk =   0.0025641
        k(  110) = (   0.0000000   0.4000000  -0.1538462), wk =   0.0025641
        k(  111) = (  -0.0000000   0.4000000  -0.0769231), wk =   0.0025641
        k(  112) = (   0.0000000   0.4500000   0.0000000), wk =   0.0025641
        k(  113) = (  -0.0000000   0.4500000   0.0769231), wk =   0.0025641
        k(  114) = (  -0.0000000   0.4500000   0.1538462), wk =   0.0025641
        k(  115) = (  -0.0000000   0.4500000   0.2307692), wk =   0.0025641
        k(  116) = (  -0.0000000   0.4500000   0.3076923), wk =   0.0025641
        k(  117) = (   0.0000000   0.4500000   0.3846154), wk =   0.0025641
        k(  118) = (  -0.0000000   0.4500000   0.4615385), wk =   0.0025641
        k(  119) = (   0.0000000   0.4500000  -0.4615385), wk =   0.0025641
        k(  120) = (   0.0000000   0.4500000  -0.3846154), wk =   0.0025641
        k(  121) = (   0.0000000   0.4500000  -0.3076923), wk =   0.0025641
        k(  122) = (   0.0000000   0.4500000  -0.2307692), wk =   0.0025641
        k(  123) = (   0.0000000   0.4500000  -0.1538462), wk =   0.0025641
        k(  124) = (  -0.0000000   0.4500000  -0.0769231), wk =   0.0025641
        k(  125) = (   0.0000000  -0.5000000   0.0000000), wk =   0.0012821
        k(  126) = (  -0.0000000  -0.5000000   0.0769231), wk =   0.0025641
        k(  127) = (  -0.0000000  -0.5000000   0.1538462), wk =   0.0025641
        k(  128) = (  -0.0000000  -0.5000000   0.2307692), wk =   0.0025641
        k(  129) = (  -0.0000000  -0.5000000   0.3076923), wk =   0.0025641
        k(  130) = (   0.0000000  -0.5000000   0.3846154), wk =   0.0025641
        k(  131) = (  -0.0000000  -0.5000000   0.4615385), wk =   0.0025641
        k(  132) = (   0.1666667   0.0000000   0.0000000), wk =   0.0025641
        k(  133) = (   0.1666667   0.0000000   0.0769231), wk =   0.0025641
        k(  134) = (   0.1666667   0.0000000   0.1538462), wk =   0.0025641
        k(  135) = (   0.1666667   0.0000000   0.2307692), wk =   0.0025641
        k(  136) = (   0.1666667   0.0000000   0.3076923), wk =   0.0025641
        k(  137) = (   0.1666667   0.0000000   0.3846154), wk =   0.0025641
        k(  138) = (   0.1666667   0.0000000   0.4615385), wk =   0.0025641
        k(  139) = (   0.1666667   0.0000000  -0.4615385), wk =   0.0025641
        k(  140) = (   0.1666667   0.0000000  -0.3846154), wk =   0.0025641
        k(  141) = (   0.1666667   0.0000000  -0.3076923), wk =   0.0025641
        k(  142) = (   0.1666667   0.0000000  -0.2307692), wk =   0.0025641
        k(  143) = (   0.1666667   0.0000000  -0.1538462), wk =   0.0025641
[...]

          k =-0.2089-1.8316 1.0507 ( 11464 PWs)   bands (ev):

    -2.9083  -2.9083  -2.1041  -2.1041  -1.7370  -1.7369  -1.1473  -1.1472
     0.2384   0.2384   0.8030   0.8030   1.0985   1.0985   1.9484   1.9485
     2.0528   2.0528   3.0255   3.0255   3.4882   3.4882   4.0110   4.0110
     4.3773   4.3774   4.8048   4.8048   5.2718   5.2718   5.7719   5.7719
     6.4034   6.4034   6.7270   6.7270   7.0201   7.0201   7.3221   7.3222

     occupation numbers 
     1.0000   1.0000   1.0000   1.0000   1.0000   1.0000   1.0000   1.0000
     1.0000   1.0000   1.0000   1.0000   1.0000   1.0000   1.0000   1.0000
     1.0000   1.0000   1.0000   1.0000   1.0000   1.0000   1.0000   1.0000
     1.0000   1.0000   1.0000   1.0000   1.0011   1.0011   1.0193   1.0193
     0.9329   0.9329   0.5763   0.5762   0.1909   0.1909  -0.0116  -0.0116

     the Fermi energy is     6.7813 ev

!    total energy              =    -597.36828279 Ry
     Harris-Foulkes estimate   =    -597.36828279 Ry
     estimated scf accuracy    <          2.7E-13 Ry

     The total energy is the sum of the following terms:

     one-electron contribution =      48.71162977 Ry
     hartree contribution      =       6.73549656 Ry
     xc contribution           =     -77.80446316 Ry
     ewald contribution        =    -116.66016898 Ry
     one-center paw contrib.   =    -458.35047978 Ry
      -> PAW hartree energy AE =       1.25198608 Ry
      -> PAW hartree energy PS =      -1.24754559 Ry
      -> PAW xc energy AE      =     -36.51032638 Ry
      -> PAW xc energy PS      =       1.83198866 Ry
      -> total E_H with PAW    =       6.73993705 Ry
      -> total E_XC with PAW   =    -112.48280088 Ry
     smearing contrib. (-TS)   =      -0.00029720 Ry

     convergence has been achieved in  18 iterations

     Forces acting on atoms (cartesian axes, Ry/au):

     atom    1 type  1   force =    -0.00000053   -0.00000729   -0.00000000
     atom    2 type  2   force =    -0.00087655   -0.00000816   -0.00007840
     atom    3 type  2   force =    -0.00162467    0.00000109   -0.00065162
     atom    4 type  2   force =     0.00162721   -0.00000057    0.00065166
     atom    5 type  2   force =     0.00087544    0.00000857    0.00007909
     atom    6 type  3   force =    -0.00050771    0.00000852   -0.00006996
     atom    7 type  3   force =     0.00090968   -0.00000550    0.00084493
     atom    8 type  1   force =    -0.00081825   -0.00000928   -0.00121678
     atom    9 type  1   force =     0.00081771    0.00000897    0.00121612
     atom   10 type  3   force =    -0.00090981    0.00000529   -0.00084549
     atom   11 type  3   force =     0.00050772   -0.00000875    0.00007060
     atom   12 type  1   force =    -0.00000058    0.00000687    0.00000007
     atom   13 type  2   force =    -0.00087663    0.00000870   -0.00007834
     atom   14 type  2   force =    -0.00162461   -0.00000059   -0.00065170
     atom   15 type  2   force =     0.00162724    0.00000113    0.00065152
     atom   16 type  2   force =     0.00087535   -0.00000826    0.00007927
     atom   17 type  3   force =    -0.00050797   -0.00000876   -0.00007035
     atom   18 type  3   force =     0.00090963    0.00000532    0.00084526
     atom   19 type  1   force =    -0.00081808    0.00000895   -0.00121686
     atom   20 type  1   force =     0.00081750   -0.00000924    0.00121629
     atom   21 type  3   force =    -0.00090991   -0.00000555   -0.00084576
     atom   22 type  3   force =     0.00050783    0.00000854    0.00007046
     The non-local contrib.  to forces
     atom    1 type  1   force =    -0.00000595   -0.00002922   -0.00000126
     atom    2 type  2   force =     0.01177028   -0.00002350    0.01047313
     atom    3 type  2   force =     0.00869971    0.00000455    0.01269512
     atom    4 type  2   force =    -0.00871551   -0.00000230   -0.01269832
     atom    5 type  2   force =    -0.01179084    0.00002576   -0.01047689
     atom    6 type  3   force =    -0.03083820    0.00001520   -0.04019541
     atom    7 type  3   force =     0.00684759   -0.00000416    0.01777811
     atom    8 type  1   force =     0.00690436   -0.00001350   -0.00209801
     atom    9 type  1   force =    -0.00691500    0.00001386    0.00209470
     atom   10 type  3   force =    -0.00683527    0.00000492   -0.01777196
     atom   11 type  3   force =     0.03084418   -0.00001416    0.04019310
     atom   12 type  1   force =    -0.00000618    0.00003001   -0.00000148
     atom   13 type  2   force =     0.01177001    0.00002621    0.01047230
     atom   14 type  2   force =     0.00869978   -0.00000248    0.01269519
     atom   15 type  2   force =    -0.00871529    0.00000481   -0.01269813
     atom   16 type  2   force =    -0.01179078   -0.00002371   -0.01047742
     atom   17 type  3   force =    -0.03083792   -0.00001399   -0.04019537
     atom   18 type  3   force =     0.00684773    0.00000482    0.01777856
     atom   19 type  1   force =     0.00690450    0.00001374   -0.00209831
     atom   20 type  1   force =    -0.00691532   -0.00001351    0.00209459
     atom   21 type  3   force =    -0.00683507   -0.00000405   -0.01777203
     atom   22 type  3   force =     0.03084412    0.00001498    0.04019324
     The ionic contribution  to forces
     atom    1 type  1   force =    -0.00005921    0.00006440   -0.00000372
     atom    2 type  2   force =    -0.06487105   -0.00006287   -0.13058324
     atom    3 type  2   force =    -0.02612461    0.00001772    0.07521422
     atom    4 type  2   force =     0.02612095   -0.00001314   -0.07521930
     atom    5 type  2   force =     0.06482372    0.00006945    0.13059716
     atom    6 type  3   force =     0.27942259    0.00001257    0.46888872
     atom    7 type  3   force =    -0.22016434   -0.00006362   -0.58429395
     atom    8 type  1   force =    -0.01378507   -0.00006224    0.30439459
     atom    9 type  1   force =     0.01378543    0.00006315   -0.30442288
     atom   10 type  3   force =     0.22027147    0.00005887    0.58433721
     atom   11 type  3   force =    -0.27942027   -0.00001739   -0.46890920
     atom   12 type  1   force =    -0.00006047   -0.00006960   -0.00000287
     atom   13 type  2   force =    -0.06487133    0.00006981   -0.13058344
     atom   14 type  2   force =    -0.02612482   -0.00001335    0.07521427
     atom   15 type  2   force =     0.02612166    0.00001812   -0.07521906
     atom   16 type  2   force =     0.06482462   -0.00006328    0.13059719
     atom   17 type  3   force =     0.27942119   -0.00001730    0.46888826
     atom   18 type  3   force =    -0.22016451    0.00005927   -0.58429288
     atom   19 type  1   force =    -0.01378485    0.00006363    0.30439366
     atom   20 type  1   force =     0.01378536   -0.00006281   -0.30442243
     atom   21 type  3   force =     0.22027231   -0.00006404    0.58433661
     atom   22 type  3   force =    -0.27941877    0.00001264   -0.46890892
     The local contribution  to forces
     atom    1 type  1   force =     0.00006063   -0.00004511    0.00000413
     atom    2 type  2   force =     0.05382618    0.00007550    0.12111327
     atom    3 type  2   force =     0.01680371   -0.00002042   -0.08700204
     atom    4 type  2   force =    -0.01678989    0.00001479    0.08700863
     atom    5 type  2   force =    -0.05376818   -0.00008324   -0.12112446
     atom    6 type  3   force =    -0.25207788   -0.00001706   -0.43274473
     atom    7 type  3   force =     0.21488607    0.00006221    0.56901692
     atom    8 type  1   force =     0.00690454    0.00006493   -0.30339738
     atom    9 type  1   force =    -0.00690249   -0.00006605    0.30342651
     atom   10 type  3   force =    -0.21499066   -0.00005744   -0.56905935
     atom   11 type  3   force =     0.25207893    0.00002180    0.43276524
     atom   12 type  1   force =     0.00006206    0.00004957    0.00000355
     atom   13 type  2   force =     0.05382665   -0.00008389    0.12111429
     atom   14 type  2   force =     0.01680392    0.00001514   -0.08700223
     atom   15 type  2   force =    -0.01679077   -0.00002100    0.08700810
     atom   16 type  2   force =    -0.05376923    0.00007601   -0.12112382
     atom   17 type  3   force =    -0.25207695    0.00002160   -0.43274470
     atom   18 type  3   force =     0.21488608   -0.00005768    0.56901580
     atom   19 type  1   force =     0.00690437   -0.00006644   -0.30339626
     atom   20 type  1   force =    -0.00690235    0.00006554    0.30342635
     atom   21 type  3   force =    -0.21499178    0.00006244   -0.56905898
     atom   22 type  3   force =     0.25207755   -0.00001696    0.43276468
     The core correction contribution to forces
     atom    1 type  1   force =     0.00000082    0.00000285    0.00000017
     atom    2 type  2   force =    -0.00160523    0.00000290   -0.00108218
     atom    3 type  2   force =    -0.00100673   -0.00000055   -0.00155964
     atom    4 type  2   force =     0.00100852    0.00000028    0.00156000
     atom    5 type  2   force =     0.00160763   -0.00000318    0.00108253
     atom    6 type  3   force =     0.00298246   -0.00000199    0.00398067
     atom    7 type  3   force =    -0.00066289    0.00000028   -0.00165682
     atom    8 type  1   force =    -0.00084537    0.00000174   -0.00011664
     atom    9 type  1   force =     0.00084669   -0.00000178    0.00011709
     atom   10 type  3   force =     0.00064151   -0.00000086    0.00164793
     atom   11 type  3   force =    -0.00299816    0.00000121   -0.00397909
     atom   12 type  1   force =     0.00000084   -0.00000292    0.00000019
     atom   13 type  2   force =    -0.00160520   -0.00000323   -0.00108210
     atom   14 type  2   force =    -0.00100674    0.00000030   -0.00155965
     atom   15 type  2   force =     0.00100849   -0.00000058    0.00155998
     atom   16 type  2   force =     0.00160762    0.00000292    0.00108258
     atom   17 type  3   force =     0.00298243    0.00000113    0.00398067
     atom   18 type  3   force =    -0.00066291   -0.00000089   -0.00165687
     atom   19 type  1   force =    -0.00084539   -0.00000177   -0.00011661
     atom   20 type  1   force =     0.00084672    0.00000174    0.00011710
     atom   21 type  3   force =     0.00064148    0.00000031    0.00164794
     atom   22 type  3   force =    -0.00299815   -0.00000191   -0.00397911
     The Hubbard contrib.    to forces
     atom    1 type  1   force =     0.00000000    0.00000000    0.00000000
     atom    2 type  2   force =     0.00000000    0.00000000    0.00000000
     atom    3 type  2   force =     0.00000000    0.00000000    0.00000000
     atom    4 type  2   force =     0.00000000    0.00000000    0.00000000
     atom    5 type  2   force =     0.00000000    0.00000000    0.00000000
     atom    6 type  3   force =     0.00000000    0.00000000    0.00000000
     atom    7 type  3   force =     0.00000000    0.00000000    0.00000000
     atom    8 type  1   force =     0.00000000    0.00000000    0.00000000
     atom    9 type  1   force =     0.00000000    0.00000000    0.00000000
     atom   10 type  3   force =     0.00000000    0.00000000    0.00000000
     atom   11 type  3   force =     0.00000000    0.00000000    0.00000000
     atom   12 type  1   force =     0.00000000    0.00000000    0.00000000
     atom   13 type  2   force =     0.00000000    0.00000000    0.00000000
     atom   14 type  2   force =     0.00000000    0.00000000    0.00000000
     atom   15 type  2   force =     0.00000000    0.00000000    0.00000000
     atom   16 type  2   force =     0.00000000    0.00000000    0.00000000
     atom   17 type  3   force =     0.00000000    0.00000000    0.00000000
     atom   18 type  3   force =     0.00000000    0.00000000    0.00000000
     atom   19 type  1   force =     0.00000000    0.00000000    0.00000000
     atom   20 type  1   force =     0.00000000    0.00000000    0.00000000
     atom   21 type  3   force =     0.00000000    0.00000000    0.00000000
     atom   22 type  3   force =     0.00000000    0.00000000    0.00000000
     The SCF correction term to forces
     atom    1 type  1   force =     0.00000000   -0.00000000   -0.00000000
     atom    2 type  2   force =     0.00000007    0.00000000   -0.00000006
     atom    3 type  2   force =     0.00000006   -0.00000000    0.00000004
     atom    4 type  2   force =    -0.00000006    0.00000000   -0.00000004
     atom    5 type  2   force =    -0.00000008   -0.00000000    0.00000006
     atom    6 type  3   force =     0.00000013    0.00000001    0.00000011
     atom    7 type  3   force =     0.00000007   -0.00000000    0.00000000
     atom    8 type  1   force =     0.00000011   -0.00000000   -0.00000002
     atom    9 type  1   force =    -0.00000009    0.00000000    0.00000002
     atom   10 type  3   force =    -0.00000004    0.00000000    0.00000000
     atom   11 type  3   force =    -0.00000014   -0.00000001   -0.00000012
     atom   12 type  1   force =    -0.00000001    0.00000000    0.00000000
     atom   13 type  2   force =     0.00000006    0.00000000   -0.00000007
     atom   14 type  2   force =     0.00000005   -0.00000000    0.00000005
     atom   15 type  2   force =    -0.00000006    0.00000000   -0.00000004
     atom   16 type  2   force =    -0.00000006   -0.00000000    0.00000006
     atom   17 type  3   force =     0.00000010    0.00000001    0.00000012
     atom   18 type  3   force =     0.00000004   -0.00000000   -0.00000002
     atom   19 type  1   force =     0.00000010   -0.00000000   -0.00000001
     atom   20 type  1   force =    -0.00000010    0.00000000    0.00000001
     atom   21 type  3   force =    -0.00000004    0.00000000    0.00000002
     atom   22 type  3   force =    -0.00000011   -0.00000001   -0.00000012

     Total force =     0.005584     Total SCF correction =     0.000000


     Computing stress (Cartesian axis) and pressure

          total   stress  (Ry/bohr**3)                   (kbar)     P=   -4.77
  -0.00002399   0.00000000  -0.00000812         -3.53      0.00     -1.20
   0.00000000  -0.00002615  -0.00000000          0.00     -3.85     -0.00
  -0.00000812  -0.00000000  -0.00004713         -1.20     -0.00     -6.93

     kinetic stress (kbar)   1459.35      0.00    -14.34
                                0.00   1480.05     -0.00
                              -14.34     -0.00   1457.94

     local   stress (kbar)    -49.39      0.00   -124.34
                                0.00    493.42      0.00
                             -124.34      0.00     12.44

     nonloc. stress (kbar)   1131.37     -0.00      3.47
                               -0.00   1126.46      0.00
                                3.47      0.00   1126.22

     hartree stress (kbar)    184.77     -0.00     29.94
                               -0.00     19.44     -0.00
                               29.94     -0.00    164.75

     exc-cor stress (kbar)   1484.03     -0.00      0.22
                               -0.00   1483.48     -0.00
                                0.22     -0.00   1483.65

     corecor stress (kbar)  -2227.66      0.00     -0.29
                                0.00  -2227.22      0.00
                               -0.29      0.00  -2226.93

     ewald   stress (kbar)  -1985.99     -0.00    104.15
                               -0.00  -2379.48     -0.00
                              104.15     -0.00  -2025.00

     hubbard stress (kbar)      0.00      0.00      0.00
                                0.00      0.00      0.00
                                0.00      0.00      0.00

     london  stress (kbar)      0.00      0.00      0.00
                                0.00      0.00      0.00
                                0.00      0.00      0.00

     DFT-D3  stress (kbar)      0.00      0.00      0.00
                                0.00      0.00      0.00
                                0.00      0.00      0.00

     XDM     stress (kbar)      0.00      0.00      0.00
                                0.00      0.00      0.00
                                0.00      0.00      0.00

     dft-nl  stress (kbar)      0.00      0.00      0.00
                                0.00      0.00      0.00
                                0.00      0.00      0.00

     TS-vdW  stress (kbar)      0.00      0.00      0.00
                                0.00      0.00      0.00
                                0.00      0.00      0.00



     Writing output data file aiida.save/
 
     init_run     :     23.83s CPU     24.28s WALL (       1 calls)
     electrons    :    868.85s CPU    881.54s WALL (       1 calls)
     forces       :      9.81s CPU      9.90s WALL (       1 calls)
     stress       :     72.33s CPU     72.44s WALL (       1 calls)

     Called by init_run:
     wfcinit      :     21.32s CPU     21.68s WALL (       1 calls)
     wfcinit:atom :      0.17s CPU      0.19s WALL (     196 calls)
     wfcinit:wfcr :     19.80s CPU     20.08s WALL (     196 calls)
     potinit      :      0.86s CPU      0.87s WALL (       1 calls)
     hinit0       :      1.49s CPU      1.50s WALL (       1 calls)

     Called by electrons:
     c_bands      :    775.85s CPU    785.62s WALL (      19 calls)
     sum_band     :     87.10s CPU     89.05s WALL (      19 calls)
     v_of_rho     :      1.45s CPU      1.54s WALL (      19 calls)
     v_h          :      0.10s CPU      0.10s WALL (      19 calls)
     v_xc         :      1.48s CPU      1.57s WALL (      21 calls)
     newd         :      1.54s CPU      2.31s WALL (      19 calls)
     PAW_pot      :      2.33s CPU      2.39s WALL (      19 calls)
     mix_rho      :      0.56s CPU      0.62s WALL (      19 calls)

     Called by c_bands:
     init_us_2    :     27.86s CPU     28.29s WALL (    8036 calls)
     cegterg      :    609.12s CPU    616.91s WALL (    3724 calls)

     Called by sum_band:
     sum_band:bec :      0.56s CPU      0.56s WALL (    3724 calls)
     addusdens    :      1.52s CPU      2.41s WALL (      19 calls)

     Called by *egterg:
     h_psi        :    418.75s CPU    425.25s WALL (   17051 calls)
     s_psi        :     63.80s CPU     63.98s WALL (   17051 calls)
     g_psi        :      2.83s CPU      2.85s WALL (   13131 calls)
     cdiaghg      :     65.68s CPU     66.64s WALL (   16659 calls)
     cegterg:over :     28.69s CPU     28.83s WALL (   13131 calls)
     cegterg:upda :     25.24s CPU     25.47s WALL (   13131 calls)
     cegterg:last :     10.70s CPU     10.75s WALL (    4248 calls)
     cdiaghg:chol :      4.40s CPU      4.44s WALL (   16659 calls)
     cdiaghg:inve :      0.89s CPU      0.90s WALL (   16659 calls)
     cdiaghg:para :      8.64s CPU      8.71s WALL (   33318 calls)

     Called by h_psi:
     h_psi:pot    :    416.64s CPU    423.13s WALL (   17051 calls)
     h_psi:calbec :     61.25s CPU     61.91s WALL (   17051 calls)
     vloc_psi     :    290.69s CPU    296.33s WALL (   17051 calls)
     add_vuspsi   :     64.54s CPU     64.76s WALL (   17051 calls)

     General routines
     calbec       :     86.93s CPU     87.87s WALL (   21755 calls)
     fft          :      1.20s CPU      1.26s WALL (     272 calls)
     ffts         :      0.20s CPU      0.22s WALL (     289 calls)
     fftw         :    308.30s CPU    314.02s WALL ( 1015982 calls)
     interpolate  :      0.12s CPU      0.12s WALL (      19 calls)
 
     Parallel routines
     fft_scatt_xy :     38.84s CPU     39.59s WALL ( 1016543 calls)
     fft_scatt_yz :    119.24s CPU    121.64s WALL ( 1016543 calls)

     PAW routines
     PAW_pot      :      2.33s CPU      2.39s WALL (      19 calls)
 
     PWSCF        :  16m39.59s CPU  17m15.31s WALL

 
   This run was terminated on:  14:29:22  22Feb2020            

=------------------------------------------------------------------------------=
   JOB DONE.
=------------------------------------------------------------------------------=
