
     Program PWSCF v.6.3 starts on 22Feb2020 at 11:24:28 

     This program is part of the open-source Quantum ESPRESSO suite
     for quantum simulation of materials; please cite
         "P. Giannozzi et al., J. Phys.:Condens. Matter 21 395502 (2009);
         "P. Giannozzi et al., J. Phys.:Condens. Matter 29 465901 (2017);
          URL http://www.quantum-espresso.org", 
     in publications or presentations arising from this work. More details at
     http://www.quantum-espresso.org/quote

 *** WARNING: using old-style file format, will disappear from next version ***

     Parallel version (MPI & OpenMP), running on      36 processor cores
     Number of MPI processes:                36
     Threads/MPI process:                     1

     MPI processes distributed on     1 nodes
     K-points division:     npool     =       4
     R & G space division:  proc/nbgrp/npool/nimage =       9
     Reading input from aiida.in
Warning: card &IONS ignored
Warning: card   !PRESS_CONV_THR = 0.05                 ! JUST FOR VOLUME RELAXATIONS ignored
Warning: card / ignored

     Current dimensions of program PWSCF are:
     Max number of different atomic species (ntypx) = 10
     Max number of k-points (npk) =  40000
     Max angular momentum in pseudopotentials (lmaxx) =  3
               file Mg.pbe-n-kjpaw_psl.0.3.0.UPF: wavefunction(s)  3S renormalized

     Subspace diagonalization in iterative solution of the eigenvalue problem:
     one sub-group per band group will be used
     scalapack distributed-memory algorithm (size of sub-group:  2*  2 procs)

 
     Parallelization info
     --------------------
     sticks:   dense  smooth     PW     G-vecs:    dense   smooth      PW
     Min         781     312     90                40773    10325    1612
     Max         782     313     91                40773    10327    1613
     Sum        7031    2813    817               366957    92929   14511
 


     bravais-lattice index     =            0
     lattice parameter (alat)  =      28.6012  a.u.
     unit-cell volume          =    2714.9304 (a.u.)^3
     number of atoms/cell      =           22
     number of atomic types    =            2
     number of electrons       =        68.00
     number of Kohn-Sham states=           41
     kinetic-energy cutoff     =      40.0000  Ry
     charge density cutoff     =     400.0000  Ry
     convergence threshold     =      1.0E-12
     mixing beta               =       0.4000
     number of iterations used =            8  local-TF  mixing
     Exchange-correlation      = PBE ( 1  4  3  4 0 0)

     celldm(1)=  28.601187  celldm(2)=   0.000000  celldm(3)=   0.000000
     celldm(4)=   0.000000  celldm(5)=   0.000000  celldm(6)=   0.000000

     crystal axes: (cart. coord. in units of alat)
               a(1) = (   0.940296   0.000000  -0.340358 )  
               a(2) = (   0.000000   0.269614   0.000229 )  
               a(3) = (   0.000000   0.000135   0.457720 )  

     reciprocal axes: (cart. coord. in units 2 pi/alat)
               b(1) = (  1.063495  0.000000  0.000000 )  
               b(2) = ( -0.000395  3.709011 -0.001092 )  
               b(3) = (  0.790808 -0.001855  2.184742 )  


     PseudoPot. # 1 for Mg read from file:
     /users/aglensk/Dropbox/Albert/scripts/dotfiles/scripts/potentials/quantum_espresso/pseudo_SSSPefV1.1_alalloy/Mg.pbe-n-kjpaw_psl.0.3.0.UPF
     MD5 check sum: 24ecedc7f3e3cbe212e682f4413594e4
     Pseudo is Projector augmented-wave + core cor, Zval =  2.0
     Generated using "atomic" code by A. Dal Corso v.5.0.99 svn rev. 10869
     Shape of augmentation charge: PSQ
     Using radial grid of 1129 points,  4 beta functions with: 
                l(1) =   0
                l(2) =   0
                l(3) =   1
                l(4) =   1
     Q(r) pseudized with 0 coefficients 


     PseudoPot. # 2 for Si read from file:
     /users/aglensk/Dropbox/Albert/scripts/dotfiles/scripts/potentials/quantum_espresso/pseudo_SSSPefV1.1_alalloy/Si.pbe-n-rrkjus_psl.1.0.0.UPF
     MD5 check sum: 0b0bb1205258b0d07b9f9672cf965d36
     Pseudo is Ultrasoft + core correction, Zval =  4.0
     Generated using "atomic" code by A. Dal Corso v.5.1
     Using radial grid of 1141 points,  6 beta functions with: 
                l(1) =   0
                l(2) =   0
                l(3) =   1
                l(4) =   1
                l(5) =   2
                l(6) =   2
     Q(r) pseudized with 0 coefficients 


     atomic species   valence    mass     pseudopotential
        Mg             2.00    24.30500     Mg( 1.00)
        Si             4.00    28.08500     Si( 1.00)

     No symmetry found


                                    s                        frac. trans.

      isym =  1     identity                                     

 cryst.   s( 1) = (     1          0          0      )
                  (     0          1          0      )
                  (     0          0          1      )

 cart.    s( 1) = (  1.0000000  0.0000000  0.0000000 )
                  ( -0.0000000  1.0000000 -0.0000000 )
                  (  0.0000000  0.0000000  1.0000000 )


   Cartesian axes

     site n.     atom                  positions (alat units)
         1           Mg  tau(   1) = (   0.0013290   0.0001348   0.4519448  )
         2           Mg  tau(   2) = (   0.0746515   0.1348470   0.1385855  )
         3           Mg  tau(   3) = (   0.1484930   0.1349522   0.3683069  )
         4           Mg  tau(   4) = (   0.3243116   0.2696032  -0.0919772  )
         5           Mg  tau(   5) = (   0.3981500   0.0000947   0.1375199  )
         6           Si  tau(   6) = (   0.0555964   0.0001533   0.2809573  )
         7           Si  tau(   7) = (   0.1823495   0.0000860   0.0467507  )
         8           Si  tau(   8) = (   0.1980367   0.2696713   0.2125352  )
         9           Si  tau(   9) = (   0.2747614   0.1348842   0.0637970  )
        10           Si  tau(  10) = (   0.2904495   0.1348557   0.2293521  )
        11           Si  tau(  11) = (   0.4172008   0.1347884  -0.0048544  )
        12           Mg  tau(  12) = (   0.4714760   0.1349417   0.2818790  )
        13           Mg  tau(  13) = (   0.5448089   0.2696537  -0.0314923  )
        14           Mg  tau(  14) = (   0.6186455   0.0001454   0.1980128  )
        15           Mg  tau(  15) = (   0.7944555   0.1347963  -0.2622697  )
        16           Mg  tau(  16) = (   0.8682887   0.1349017  -0.0325310  )
        17           Si  tau(  17) = (   0.5257434   0.1349602   0.1108928  )
        18           Si  tau(  18) = (   0.6525031   0.1348928  -0.1233171  )
        19           Si  tau(  19) = (   0.6681822   0.1348644   0.0422385  )
        20           Si  tau(  20) = (   0.7449120   0.0000773  -0.1064927  )
        21           Si  tau(  21) = (   0.7605921   0.2696626   0.0592912  )
        22           Si  tau(  22) = (   0.8873499   0.2695952  -0.1749186  )

   Crystallographic axes

     site n.     atom                  positions (cryst. coord.)
         1           Mg  tau(   1) = (  0.0014134  0.0000058  0.9884336  )
         2           Mg  tau(   2) = (  0.0793915  0.4999679  0.3615584  )
         3           Mg  tau(   3) = (  0.1579216  0.5000782  0.9218345  )
         4           Mg  tau(   4) = (  0.3449037  0.9999333  0.0550217  )
         5           Mg  tau(   5) = (  0.4234304  0.0000436  0.6153053  )
         6           Si  tau(   6) = (  0.0591264  0.0002397  0.6577849  )
         7           Si  tau(   7) = (  0.1939278  0.0001960  0.2463414  )
         8           Si  tau(   8) = (  0.2106111  0.9999032  0.6204433  )
         9           Si  tau(   9) = (  0.2922073  0.5001084  0.3564132  )
        10           Si  tau(  10) = (  0.3088915  0.4998157  0.7305147  )
        11           Si  tau(  11) = (  0.4436909  0.4997718  0.3190700  )
        12           Mg  tau(  12) = (  0.5014123  0.5000059  0.9884295  )
        13           Mg  tau(  13) = (  0.5794014  0.9999676  0.3615364  )
        14           Mg  tau(  14) = (  0.6579263  0.0000782  0.9218362  )
        15           Mg  tau(  15) = (  0.8448993  0.4999333  0.0550199  )
        16           Mg  tau(  16) = (  0.9234205  0.5000439  0.6153274  )
        17           Si  tau(  17) = (  0.5591254  0.5002399  0.6577838  )
        18           Si  tau(  18) = (  0.6939337  0.5001955  0.2463383  )
        19           Si  tau(  19) = (  0.7106083  0.4999033  0.6204337  )
        20           Si  tau(  20) = (  0.7922100  0.0001084  0.3564228  )
        21           Si  tau(  21) = (  0.8088858  0.9998160  0.7305180  )
        22           Si  tau(  22) = (  0.9436920  0.9997716  0.3190712  )

     number of k points=   782  Methfessel-Paxton smearing, width (Ry)=  0.0441
                       cart. coord. in units 2pi/alat
        k(    1) = (   0.0000000   0.0000000   0.0000000), wk =   0.0012821
        k(    2) = (   0.0608314  -0.0001427   0.1680571), wk =   0.0025641
        k(    3) = (   0.1216627  -0.0002853   0.3361141), wk =   0.0025641
        k(    4) = (   0.1824941  -0.0004280   0.5041712), wk =   0.0025641
        k(    5) = (   0.2433254  -0.0005706   0.6722283), wk =   0.0025641
        k(    6) = (   0.3041568  -0.0007133   0.8402853), wk =   0.0025641
        k(    7) = (   0.3649882  -0.0008560   1.0083424), wk =   0.0025641
        k(    8) = (  -0.0000198   0.1854505  -0.0000546), wk =   0.0025641
        k(    9) = (   0.0608116   0.1853079   0.1680024), wk =   0.0025641
        k(   10) = (   0.1216430   0.1851652   0.3360595), wk =   0.0025641
        k(   11) = (   0.1824743   0.1850225   0.5041166), wk =   0.0025641
        k(   12) = (   0.2433057   0.1848799   0.6721736), wk =   0.0025641
        k(   13) = (   0.3041370   0.1847372   0.8402307), wk =   0.0025641
        k(   14) = (   0.3649684   0.1845946   1.0082878), wk =   0.0025641
        k(   15) = (  -0.3650079   0.1863065  -1.0083970), wk =   0.0025641
        k(   16) = (  -0.3041766   0.1861638  -0.8403399), wk =   0.0025641
        k(   17) = (  -0.2433452   0.1860212  -0.6722829), wk =   0.0025641
        k(   18) = (  -0.1825139   0.1858785  -0.5042258), wk =   0.0025641
        k(   19) = (  -0.1216825   0.1857359  -0.3361688), wk =   0.0025641
        k(   20) = (  -0.0608511   0.1855932  -0.1681117), wk =   0.0025641
        k(   21) = (  -0.0000395   0.3709011  -0.0001092), wk =   0.0025641
        k(   22) = (   0.0607918   0.3707584   0.1679478), wk =   0.0025641
        k(   23) = (   0.1216232   0.3706157   0.3360049), wk =   0.0025641
        k(   24) = (   0.1824545   0.3704731   0.5040619), wk =   0.0025641
        k(   25) = (   0.2432859   0.3703304   0.6721190), wk =   0.0025641
        k(   26) = (   0.3041173   0.3701878   0.8401761), wk =   0.0025641
        k(   27) = (   0.3649486   0.3700451   1.0082331), wk =   0.0025641
        k(   28) = (  -0.3650277   0.3717570  -1.0084516), wk =   0.0025641
        k(   29) = (  -0.3041964   0.3716144  -0.8403946), wk =   0.0025641
        k(   30) = (  -0.2433650   0.3714717  -0.6723375), wk =   0.0025641
        k(   31) = (  -0.1825336   0.3713291  -0.5042804), wk =   0.0025641
        k(   32) = (  -0.1217023   0.3711864  -0.3362234), wk =   0.0025641
        k(   33) = (  -0.0608709   0.3710437  -0.1681663), wk =   0.0025641
        k(   34) = (  -0.0000593   0.5563516  -0.0001639), wk =   0.0025641
        k(   35) = (   0.0607720   0.5562089   0.1678932), wk =   0.0025641
        k(   36) = (   0.1216034   0.5560663   0.3359503), wk =   0.0025641
        k(   37) = (   0.1824348   0.5559236   0.5040073), wk =   0.0025641
        k(   38) = (   0.2432661   0.5557810   0.6720644), wk =   0.0025641
        k(   39) = (   0.3040975   0.5556383   0.8401215), wk =   0.0025641
        k(   40) = (   0.3649289   0.5554956   1.0081785), wk =   0.0025641
        k(   41) = (  -0.3650475   0.5572076  -1.0085063), wk =   0.0025641
        k(   42) = (  -0.3042161   0.5570649  -0.8404492), wk =   0.0025641
        k(   43) = (  -0.2433848   0.5569222  -0.6723921), wk =   0.0025641
        k(   44) = (  -0.1825534   0.5567796  -0.5043351), wk =   0.0025641
        k(   45) = (  -0.1217220   0.5566369  -0.3362780), wk =   0.0025641
        k(   46) = (  -0.0608907   0.5564943  -0.1682209), wk =   0.0025641
        k(   47) = (  -0.0000791   0.7418021  -0.0002185), wk =   0.0025641
        k(   48) = (   0.0607523   0.7416595   0.1678386), wk =   0.0025641
        k(   49) = (   0.1215836   0.7415168   0.3358956), wk =   0.0025641
        k(   50) = (   0.1824150   0.7413742   0.5039527), wk =   0.0025641
        k(   51) = (   0.2432464   0.7412315   0.6720098), wk =   0.0025641
        k(   52) = (   0.3040777   0.7410888   0.8400668), wk =   0.0025641
        k(   53) = (   0.3649091   0.7409462   1.0081239), wk =   0.0025641
        k(   54) = (  -0.3650673   0.7426581  -1.0085609), wk =   0.0025641
        k(   55) = (  -0.3042359   0.7425154  -0.8405038), wk =   0.0025641
        k(   56) = (  -0.2434045   0.7423728  -0.6724468), wk =   0.0025641
        k(   57) = (  -0.1825732   0.7422301  -0.5043897), wk =   0.0025641
        k(   58) = (  -0.1217418   0.7420875  -0.3363326), wk =   0.0025641
        k(   59) = (  -0.0609105   0.7419448  -0.1682756), wk =   0.0025641
        k(   60) = (  -0.0000989   0.9272527  -0.0002731), wk =   0.0025641
        k(   61) = (   0.0607325   0.9271100   0.1677839), wk =   0.0025641
        k(   62) = (   0.1215639   0.9269673   0.3358410), wk =   0.0025641
        k(   63) = (   0.1823952   0.9268247   0.5038981), wk =   0.0025641
        k(   64) = (   0.2432266   0.9266820   0.6719551), wk =   0.0025641
        k(   65) = (   0.3040579   0.9265394   0.8400122), wk =   0.0025641
        k(   66) = (   0.3648893   0.9263967   1.0080693), wk =   0.0025641
        k(   67) = (  -0.3650870   0.9281086  -1.0086155), wk =   0.0025641
        k(   68) = (  -0.3042557   0.9279660  -0.8405584), wk =   0.0025641
        k(   69) = (  -0.2434243   0.9278233  -0.6725014), wk =   0.0025641
        k(   70) = (  -0.1825929   0.9276807  -0.5044443), wk =   0.0025641
        k(   71) = (  -0.1217616   0.9275380  -0.3363872), wk =   0.0025641
        k(   72) = (  -0.0609302   0.9273953  -0.1683302), wk =   0.0025641
        k(   73) = (  -0.0001186   1.1127032  -0.0003277), wk =   0.0025641
        k(   74) = (   0.0607127   1.1125605   0.1677293), wk =   0.0025641
        k(   75) = (   0.1215441   1.1124179   0.3357864), wk =   0.0025641
        k(   76) = (   0.1823755   1.1122752   0.5038435), wk =   0.0025641
        k(   77) = (   0.2432068   1.1121326   0.6719005), wk =   0.0025641
        k(   78) = (   0.3040382   1.1119899   0.8399576), wk =   0.0025641
        k(   79) = (   0.3648695   1.1118472   1.0080146), wk =   0.0025641
        k(   80) = (  -0.3651068   1.1135592  -1.0086701), wk =   0.0025641
        k(   81) = (  -0.3042754   1.1134165  -0.8406131), wk =   0.0025641
        k(   82) = (  -0.2434441   1.1132738  -0.6725560), wk =   0.0025641
        k(   83) = (  -0.1826127   1.1131312  -0.5044989), wk =   0.0025641
        k(   84) = (  -0.1217814   1.1129885  -0.3364419), wk =   0.0025641
        k(   85) = (  -0.0609500   1.1128459  -0.1683848), wk =   0.0025641
        k(   86) = (  -0.0001384   1.2981537  -0.0003824), wk =   0.0025641
        k(   87) = (   0.0606930   1.2980111   0.1676747), wk =   0.0025641
        k(   88) = (   0.1215243   1.2978684   0.3357318), wk =   0.0025641
        k(   89) = (   0.1823557   1.2977258   0.5037888), wk =   0.0025641
        k(   90) = (   0.2431870   1.2975831   0.6718459), wk =   0.0025641
        k(   91) = (   0.3040184   1.2974404   0.8399030), wk =   0.0025641
        k(   92) = (   0.3648498   1.2972978   1.0079600), wk =   0.0025641
        k(   93) = (  -0.3651266   1.2990097  -1.0087248), wk =   0.0025641
        k(   94) = (  -0.3042952   1.2988670  -0.8406677), wk =   0.0025641
        k(   95) = (  -0.2434639   1.2987244  -0.6726106), wk =   0.0025641
        k(   96) = (  -0.1826325   1.2985817  -0.5045536), wk =   0.0025641
        k(   97) = (  -0.1218011   1.2984391  -0.3364965), wk =   0.0025641
        k(   98) = (  -0.0609698   1.2982964  -0.1684394), wk =   0.0025641
        k(   99) = (  -0.0001582   1.4836043  -0.0004370), wk =   0.0025641
        k(  100) = (   0.0606732   1.4834616   0.1676201), wk =   0.0025641
        k(  101) = (   0.1215045   1.4833189   0.3356771), wk =   0.0025641
        k(  102) = (   0.1823359   1.4831763   0.5037342), wk =   0.0025641
        k(  103) = (   0.2431673   1.4830336   0.6717913), wk =   0.0025641
        k(  104) = (   0.3039986   1.4828910   0.8398483), wk =   0.0025641
        k(  105) = (   0.3648300   1.4827483   1.0079054), wk =   0.0025641
        k(  106) = (  -0.3651463   1.4844602  -1.0087794), wk =   0.0025641
        k(  107) = (  -0.3043150   1.4843176  -0.8407223), wk =   0.0025641
        k(  108) = (  -0.2434836   1.4841749  -0.6726652), wk =   0.0025641
        k(  109) = (  -0.1826523   1.4840323  -0.5046082), wk =   0.0025641
        k(  110) = (  -0.1218209   1.4838896  -0.3365511), wk =   0.0025641
        k(  111) = (  -0.0609895   1.4837469  -0.1684941), wk =   0.0025641
        k(  112) = (  -0.0001779   1.6690548  -0.0004916), wk =   0.0025641
        k(  113) = (   0.0606534   1.6689121   0.1675655), wk =   0.0025641
        k(  114) = (   0.1214848   1.6687695   0.3356225), wk =   0.0025641
        k(  115) = (   0.1823161   1.6686268   0.5036796), wk =   0.0025641
        k(  116) = (   0.2431475   1.6684842   0.6717366), wk =   0.0025641
        k(  117) = (   0.3039789   1.6683415   0.8397937), wk =   0.0025641
        k(  118) = (   0.3648102   1.6681988   1.0078508), wk =   0.0025641
        k(  119) = (  -0.3651661   1.6699108  -1.0088340), wk =   0.0025641
        k(  120) = (  -0.3043348   1.6697681  -0.8407769), wk =   0.0025641
        k(  121) = (  -0.2435034   1.6696254  -0.6727199), wk =   0.0025641
        k(  122) = (  -0.1826720   1.6694828  -0.5046628), wk =   0.0025641
        k(  123) = (  -0.1218407   1.6693401  -0.3366057), wk =   0.0025641
        k(  124) = (  -0.0610093   1.6691975  -0.1685487), wk =   0.0025641
        k(  125) = (   0.0001977  -1.8545053   0.0005462), wk =   0.0012821
        k(  126) = (   0.0610291  -1.8546480   0.1686033), wk =   0.0025641
        k(  127) = (   0.1218604  -1.8547907   0.3366604), wk =   0.0025641
        k(  128) = (   0.1826918  -1.8549333   0.5047174), wk =   0.0025641
        k(  129) = (   0.2435232  -1.8550760   0.6727745), wk =   0.0025641
        k(  130) = (   0.3043545  -1.8552186   0.8408316), wk =   0.0025641
        k(  131) = (   0.3651859  -1.8553613   1.0088886), wk =   0.0025641
        k(  132) = (   0.1772491   0.0000000   0.0000000), wk =   0.0025641
        k(  133) = (   0.2380805  -0.0001427   0.1680571), wk =   0.0025641
        k(  134) = (   0.2989119  -0.0002853   0.3361141), wk =   0.0025641
        k(  135) = (   0.3597432  -0.0004280   0.5041712), wk =   0.0025641
        k(  136) = (   0.4205746  -0.0005706   0.6722283), wk =   0.0025641
        k(  137) = (   0.4814059  -0.0007133   0.8402853), wk =   0.0025641
        k(  138) = (   0.5422373  -0.0008560   1.0083424), wk =   0.0025641
        k(  139) = (  -0.1877390   0.0008560  -1.0083424), wk =   0.0025641
        k(  140) = (  -0.1269077   0.0007133  -0.8402853), wk =   0.0025641
        k(  141) = (  -0.0660763   0.0005706  -0.6722283), wk =   0.0025641
        k(  142) = (  -0.0052450   0.0004280  -0.5041712), wk =   0.0025641
        k(  143) = (   0.0555864   0.0002853  -0.3361141), wk =   0.0025641
        k(  144) = (   0.1164178   0.0001427  -0.1680571), wk =   0.0025641
        k(  145) = (   0.1772294   0.1854505  -0.0000546), wk =   0.0025641
        k(  146) = (   0.2380607   0.1853079   0.1680024), wk =   0.0025641
        k(  147) = (   0.2988921   0.1851652   0.3360595), wk =   0.0025641
        k(  148) = (   0.3597234   0.1850225   0.5041166), wk =   0.0025641
        k(  149) = (   0.4205548   0.1848799   0.6721736), wk =   0.0025641
        k(  150) = (   0.4813862   0.1847372   0.8402307), wk =   0.0025641
        k(  151) = (   0.5422175   0.1845946   1.0082878), wk =   0.0025641
        k(  152) = (  -0.1877588   0.1863065  -1.0083970), wk =   0.0025641
        k(  153) = (  -0.1269274   0.1861638  -0.8403399), wk =   0.0025641
        k(  154) = (  -0.0660961   0.1860212  -0.6722829), wk =   0.0025641
        k(  155) = (  -0.0052647   0.1858785  -0.5042258), wk =   0.0025641
        k(  156) = (   0.0555666   0.1857359  -0.3361688), wk =   0.0025641
        k(  157) = (   0.1163980   0.1855932  -0.1681117), wk =   0.0025641
        k(  158) = (   0.1772096   0.3709011  -0.0001092), wk =   0.0025641
        k(  159) = (   0.2380410   0.3707584   0.1679478), wk =   0.0025641
        k(  160) = (   0.2988723   0.3706157   0.3360049), wk =   0.0025641
        k(  161) = (   0.3597037   0.3704731   0.5040619), wk =   0.0025641
        k(  162) = (   0.4205350   0.3703304   0.6721190), wk =   0.0025641
        k(  163) = (   0.4813664   0.3701878   0.8401761), wk =   0.0025641
        k(  164) = (   0.5421978   0.3700451   1.0082331), wk =   0.0025641
        k(  165) = (  -0.1877786   0.3717570  -1.0084516), wk =   0.0025641
        k(  166) = (  -0.1269472   0.3716144  -0.8403946), wk =   0.0025641
        k(  167) = (  -0.0661159   0.3714717  -0.6723375), wk =   0.0025641
        k(  168) = (  -0.0052845   0.3713291  -0.5042804), wk =   0.0025641
        k(  169) = (   0.0555469   0.3711864  -0.3362234), wk =   0.0025641
        k(  170) = (   0.1163782   0.3710437  -0.1681663), wk =   0.0025641
        k(  171) = (   0.1771898   0.5563516  -0.0001639), wk =   0.0025641
        k(  172) = (   0.2380212   0.5562089   0.1678932), wk =   0.0025641
        k(  173) = (   0.2988525   0.5560663   0.3359503), wk =   0.0025641
        k(  174) = (   0.3596839   0.5559236   0.5040073), wk =   0.0025641
        k(  175) = (   0.4205153   0.5557810   0.6720644), wk =   0.0025641
        k(  176) = (   0.4813466   0.5556383   0.8401215), wk =   0.0025641
        k(  177) = (   0.5421780   0.5554956   1.0081785), wk =   0.0025641
        k(  178) = (  -0.1877984   0.5572076  -1.0085063), wk =   0.0025641
        k(  179) = (  -0.1269670   0.5570649  -0.8404492), wk =   0.0025641
        k(  180) = (  -0.0661356   0.5569222  -0.6723921), wk =   0.0025641
        k(  181) = (  -0.0053043   0.5567796  -0.5043351), wk =   0.0025641
        k(  182) = (   0.0555271   0.5566369  -0.3362780), wk =   0.0025641
        k(  183) = (   0.1163585   0.5564943  -0.1682209), wk =   0.0025641
        k(  184) = (   0.1771700   0.7418021  -0.0002185), wk =   0.0025641
        k(  185) = (   0.2380014   0.7416595   0.1678386), wk =   0.0025641
        k(  186) = (   0.2988328   0.7415168   0.3358956), wk =   0.0025641
        k(  187) = (   0.3596641   0.7413742   0.5039527), wk =   0.0025641
        k(  188) = (   0.4204955   0.7412315   0.6720098), wk =   0.0025641
        k(  189) = (   0.4813269   0.7410888   0.8400668), wk =   0.0025641
        k(  190) = (   0.5421582   0.7409462   1.0081239), wk =   0.0025641
        k(  191) = (  -0.1878181   0.7426581  -1.0085609), wk =   0.0025641
        k(  192) = (  -0.1269868   0.7425154  -0.8405038), wk =   0.0025641
        k(  193) = (  -0.0661554   0.7423728  -0.6724468), wk =   0.0025641
        k(  194) = (  -0.0053240   0.7422301  -0.5043897), wk =   0.0025641
        k(  195) = (   0.0555073   0.7420875  -0.3363326), wk =   0.0025641
        k(  196) = (   0.1163387   0.7419448  -0.1682756), wk =   0.0025641
        k(  197) = (   0.1771503   0.9272527  -0.0002731), wk =   0.0025641
        k(  198) = (   0.2379816   0.9271100   0.1677839), wk =   0.0025641
        k(  199) = (   0.2988130   0.9269673   0.3358410), wk =   0.0025641
        k(  200) = (   0.3596444   0.9268247   0.5038981), wk =   0.0025641
        k(  201) = (   0.4204757   0.9266820   0.6719551), wk =   0.0025641
        k(  202) = (   0.4813071   0.9265394   0.8400122), wk =   0.0025641
        k(  203) = (   0.5421384   0.9263967   1.0080693), wk =   0.0025641
        k(  204) = (  -0.1878379   0.9281086  -1.0086155), wk =   0.0025641
        k(  205) = (  -0.1270065   0.9279660  -0.8405584), wk =   0.0025641
        k(  206) = (  -0.0661752   0.9278233  -0.6725014), wk =   0.0025641
        k(  207) = (  -0.0053438   0.9276807  -0.5044443), wk =   0.0025641
        k(  208) = (   0.0554875   0.9275380  -0.3363872), wk =   0.0025641
        k(  209) = (   0.1163189   0.9273953  -0.1683302), wk =   0.0025641
        k(  210) = (   0.1771305   1.1127032  -0.0003277), wk =   0.0025641
        k(  211) = (   0.2379619   1.1125605   0.1677293), wk =   0.0025641
        k(  212) = (   0.2987932   1.1124179   0.3357864), wk =   0.0025641
        k(  213) = (   0.3596246   1.1122752   0.5038435), wk =   0.0025641
        k(  214) = (   0.4204559   1.1121326   0.6719005), wk =   0.0025641
        k(  215) = (   0.4812873   1.1119899   0.8399576), wk =   0.0025641
        k(  216) = (   0.5421187   1.1118472   1.0080146), wk =   0.0025641
        k(  217) = (  -0.1878577   1.1135592  -1.0086701), wk =   0.0025641
        k(  218) = (  -0.1270263   1.1134165  -0.8406131), wk =   0.0025641
        k(  219) = (  -0.0661949   1.1132738  -0.6725560), wk =   0.0025641
        k(  220) = (  -0.0053636   1.1131312  -0.5044989), wk =   0.0025641
        k(  221) = (   0.0554678   1.1129885  -0.3364419), wk =   0.0025641
        k(  222) = (   0.1162991   1.1128459  -0.1683848), wk =   0.0025641
        k(  223) = (   0.1771107   1.2981537  -0.0003824), wk =   0.0025641
        k(  224) = (   0.2379421   1.2980111   0.1676747), wk =   0.0025641
        k(  225) = (   0.2987735   1.2978684   0.3357318), wk =   0.0025641
        k(  226) = (   0.3596048   1.2977258   0.5037888), wk =   0.0025641
        k(  227) = (   0.4204362   1.2975831   0.6718459), wk =   0.0025641
        k(  228) = (   0.4812675   1.2974404   0.8399030), wk =   0.0025641
        k(  229) = (   0.5420989   1.2972978   1.0079600), wk =   0.0025641
        k(  230) = (  -0.1878774   1.2990097  -1.0087248), wk =   0.0025641
        k(  231) = (  -0.1270461   1.2988670  -0.8406677), wk =   0.0025641
        k(  232) = (  -0.0662147   1.2987244  -0.6726106), wk =   0.0025641
        k(  233) = (  -0.0053834   1.2985817  -0.5045536), wk =   0.0025641
        k(  234) = (   0.0554480   1.2984391  -0.3364965), wk =   0.0025641
        k(  235) = (   0.1162794   1.2982964  -0.1684394), wk =   0.0025641
        k(  236) = (   0.1770910   1.4836043  -0.0004370), wk =   0.0025641
        k(  237) = (   0.2379223   1.4834616   0.1676201), wk =   0.0025641
        k(  238) = (   0.2987537   1.4833189   0.3356771), wk =   0.0025641
        k(  239) = (   0.3595850   1.4831763   0.5037342), wk =   0.0025641
        k(  240) = (   0.4204164   1.4830336   0.6717913), wk =   0.0025641
        k(  241) = (   0.4812478   1.4828910   0.8398483), wk =   0.0025641
        k(  242) = (   0.5420791   1.4827483   1.0079054), wk =   0.0025641
        k(  243) = (  -0.1878972   1.4844602  -1.0087794), wk =   0.0025641
        k(  244) = (  -0.1270659   1.4843176  -0.8407223), wk =   0.0025641
        k(  245) = (  -0.0662345   1.4841749  -0.6726652), wk =   0.0025641
        k(  246) = (  -0.0054031   1.4840323  -0.5046082), wk =   0.0025641
        k(  247) = (   0.0554282   1.4838896  -0.3365511), wk =   0.0025641
        k(  248) = (   0.1162596   1.4837469  -0.1684941), wk =   0.0025641
        k(  249) = (   0.1770712   1.6690548  -0.0004916), wk =   0.0025641
        k(  250) = (   0.2379025   1.6689121   0.1675655), wk =   0.0025641
        k(  251) = (   0.2987339   1.6687695   0.3356225), wk =   0.0025641
        k(  252) = (   0.3595653   1.6686268   0.5036796), wk =   0.0025641
        k(  253) = (   0.4203966   1.6684842   0.6717366), wk =   0.0025641
        k(  254) = (   0.4812280   1.6683415   0.8397937), wk =   0.0025641
        k(  255) = (   0.5420594   1.6681988   1.0078508), wk =   0.0025641
        k(  256) = (  -0.1879170   1.6699108  -1.0088340), wk =   0.0025641
        k(  257) = (  -0.1270856   1.6697681  -0.8407769), wk =   0.0025641
        k(  258) = (  -0.0662543   1.6696254  -0.6727199), wk =   0.0025641
        k(  259) = (  -0.0054229   1.6694828  -0.5046628), wk =   0.0025641
        k(  260) = (   0.0554085   1.6693401  -0.3366057), wk =   0.0025641
        k(  261) = (   0.1162398   1.6691975  -0.1685487), wk =   0.0025641
        k(  262) = (   0.1774469  -1.8545053   0.0005462), wk =   0.0025641
        k(  263) = (   0.2382782  -1.8546480   0.1686033), wk =   0.0025641
        k(  264) = (   0.2991096  -1.8547907   0.3366604), wk =   0.0025641
        k(  265) = (   0.3599409  -1.8549333   0.5047174), wk =   0.0025641
        k(  266) = (   0.4207723  -1.8550760   0.6727745), wk =   0.0025641
        k(  267) = (   0.4816037  -1.8552186   0.8408316), wk =   0.0025641
        k(  268) = (   0.5424350  -1.8553613   1.0088886), wk =   0.0025641
        k(  269) = (  -0.1875413  -1.8536494  -1.0077962), wk =   0.0025641
        k(  270) = (  -0.1267100  -1.8537920  -0.8397391), wk =   0.0025641
        k(  271) = (  -0.0658786  -1.8539347  -0.6716820), wk =   0.0025641
        k(  272) = (  -0.0050472  -1.8540774  -0.5036250), wk =   0.0025641
        k(  273) = (   0.0557841  -1.8542200  -0.3355679), wk =   0.0025641
        k(  274) = (   0.1166155  -1.8543627  -0.1675108), wk =   0.0025641
        k(  275) = (   0.1774271  -1.6690548   0.0004916), wk =   0.0025641
        k(  276) = (   0.2382584  -1.6691975   0.1685487), wk =   0.0025641
        k(  277) = (   0.2990898  -1.6693401   0.3366057), wk =   0.0025641
        k(  278) = (   0.3599212  -1.6694828   0.5046628), wk =   0.0025641
        k(  279) = (   0.4207525  -1.6696254   0.6727199), wk =   0.0025641
        k(  280) = (   0.4815839  -1.6697681   0.8407769), wk =   0.0025641
        k(  281) = (   0.5424153  -1.6699108   1.0088340), wk =   0.0025641
        k(  282) = (  -0.1875611  -1.6681988  -1.0078508), wk =   0.0025641
        k(  283) = (  -0.1267297  -1.6683415  -0.8397937), wk =   0.0025641
        k(  284) = (  -0.0658984  -1.6684842  -0.6717366), wk =   0.0025641
        k(  285) = (  -0.0050670  -1.6686268  -0.5036796), wk =   0.0025641
        k(  286) = (   0.0557644  -1.6687695  -0.3356225), wk =   0.0025641
        k(  287) = (   0.1165957  -1.6689121  -0.1675655), wk =   0.0025641
        k(  288) = (   0.1774073  -1.4836043   0.0004370), wk =   0.0025641
        k(  289) = (   0.2382387  -1.4837469   0.1684941), wk =   0.0025641
        k(  290) = (   0.2990700  -1.4838896   0.3365511), wk =   0.0025641
        k(  291) = (   0.3599014  -1.4840323   0.5046082), wk =   0.0025641
        k(  292) = (   0.4207328  -1.4841749   0.6726652), wk =   0.0025641
        k(  293) = (   0.4815641  -1.4843176   0.8407223), wk =   0.0025641
        k(  294) = (   0.5423955  -1.4844602   1.0087794), wk =   0.0025641
        k(  295) = (  -0.1875809  -1.4827483  -1.0079054), wk =   0.0025641
        k(  296) = (  -0.1267495  -1.4828910  -0.8398483), wk =   0.0025641
        k(  297) = (  -0.0659181  -1.4830336  -0.6717913), wk =   0.0025641
        k(  298) = (  -0.0050868  -1.4831763  -0.5037342), wk =   0.0025641
        k(  299) = (   0.0557446  -1.4833189  -0.3356771), wk =   0.0025641
        k(  300) = (   0.1165759  -1.4834616  -0.1676201), wk =   0.0025641
        k(  301) = (   0.1773875  -1.2981537   0.0003824), wk =   0.0025641
        k(  302) = (   0.2382189  -1.2982964   0.1684394), wk =   0.0025641
        k(  303) = (   0.2990503  -1.2984391   0.3364965), wk =   0.0025641
        k(  304) = (   0.3598816  -1.2985817   0.5045536), wk =   0.0025641
        k(  305) = (   0.4207130  -1.2987244   0.6726106), wk =   0.0025641
        k(  306) = (   0.4815443  -1.2988670   0.8406677), wk =   0.0025641
        k(  307) = (   0.5423757  -1.2990097   1.0087248), wk =   0.0025641
        k(  308) = (  -0.1876006  -1.2972978  -1.0079600), wk =   0.0025641
        k(  309) = (  -0.1267693  -1.2974404  -0.8399030), wk =   0.0025641
        k(  310) = (  -0.0659379  -1.2975831  -0.6718459), wk =   0.0025641
        k(  311) = (  -0.0051065  -1.2977258  -0.5037888), wk =   0.0025641
        k(  312) = (   0.0557248  -1.2978684  -0.3357318), wk =   0.0025641
        k(  313) = (   0.1165562  -1.2980111  -0.1676747), wk =   0.0025641
        k(  314) = (   0.1773678  -1.1127032   0.0003277), wk =   0.0025641
        k(  315) = (   0.2381991  -1.1128459   0.1683848), wk =   0.0025641
        k(  316) = (   0.2990305  -1.1129885   0.3364419), wk =   0.0025641
        k(  317) = (   0.3598619  -1.1131312   0.5044989), wk =   0.0025641
        k(  318) = (   0.4206932  -1.1132738   0.6725560), wk =   0.0025641
        k(  319) = (   0.4815246  -1.1134165   0.8406131), wk =   0.0025641
        k(  320) = (   0.5423559  -1.1135592   1.0086701), wk =   0.0025641
        k(  321) = (  -0.1876204  -1.1118472  -1.0080146), wk =   0.0025641
        k(  322) = (  -0.1267890  -1.1119899  -0.8399576), wk =   0.0025641
        k(  323) = (  -0.0659577  -1.1121326  -0.6719005), wk =   0.0025641
        k(  324) = (  -0.0051263  -1.1122752  -0.5038435), wk =   0.0025641
        k(  325) = (   0.0557050  -1.1124179  -0.3357864), wk =   0.0025641
        k(  326) = (   0.1165364  -1.1125605  -0.1677293), wk =   0.0025641
        k(  327) = (   0.1773480  -0.9272527   0.0002731), wk =   0.0025641
        k(  328) = (   0.2381794  -0.9273953   0.1683302), wk =   0.0025641
        k(  329) = (   0.2990107  -0.9275380   0.3363872), wk =   0.0025641
        k(  330) = (   0.3598421  -0.9276807   0.5044443), wk =   0.0025641
        k(  331) = (   0.4206734  -0.9278233   0.6725014), wk =   0.0025641
        k(  332) = (   0.4815048  -0.9279660   0.8405584), wk =   0.0025641
        k(  333) = (   0.5423362  -0.9281086   1.0086155), wk =   0.0025641
        k(  334) = (  -0.1876402  -0.9263967  -1.0080693), wk =   0.0025641
        k(  335) = (  -0.1268088  -0.9265394  -0.8400122), wk =   0.0025641
        k(  336) = (  -0.0659775  -0.9266820  -0.6719551), wk =   0.0025641
        k(  337) = (  -0.0051461  -0.9268247  -0.5038981), wk =   0.0025641
        k(  338) = (   0.0556853  -0.9269673  -0.3358410), wk =   0.0025641
        k(  339) = (   0.1165166  -0.9271100  -0.1677839), wk =   0.0025641
        k(  340) = (   0.1773282  -0.7418021   0.0002185), wk =   0.0025641
        k(  341) = (   0.2381596  -0.7419448   0.1682756), wk =   0.0025641
        k(  342) = (   0.2989909  -0.7420875   0.3363326), wk =   0.0025641
        k(  343) = (   0.3598223  -0.7422301   0.5043897), wk =   0.0025641
        k(  344) = (   0.4206537  -0.7423728   0.6724468), wk =   0.0025641
        k(  345) = (   0.4814850  -0.7425154   0.8405038), wk =   0.0025641
        k(  346) = (   0.5423164  -0.7426581   1.0085609), wk =   0.0025641
        k(  347) = (  -0.1876600  -0.7409462  -1.0081239), wk =   0.0025641
        k(  348) = (  -0.1268286  -0.7410888  -0.8400668), wk =   0.0025641
        k(  349) = (  -0.0659972  -0.7412315  -0.6720098), wk =   0.0025641
        k(  350) = (  -0.0051659  -0.7413742  -0.5039527), wk =   0.0025641
        k(  351) = (   0.0556655  -0.7415168  -0.3358956), wk =   0.0025641
        k(  352) = (   0.1164969  -0.7416595  -0.1678386), wk =   0.0025641
        k(  353) = (   0.1773084  -0.5563516   0.0001639), wk =   0.0025641
        k(  354) = (   0.2381398  -0.5564943   0.1682209), wk =   0.0025641
        k(  355) = (   0.2989712  -0.5566369   0.3362780), wk =   0.0025641
        k(  356) = (   0.3598025  -0.5567796   0.5043351), wk =   0.0025641
        k(  357) = (   0.4206339  -0.5569222   0.6723921), wk =   0.0025641
        k(  358) = (   0.4814653  -0.5570649   0.8404492), wk =   0.0025641
        k(  359) = (   0.5422966  -0.5572076   1.0085063), wk =   0.0025641
        k(  360) = (  -0.1876797  -0.5554956  -1.0081785), wk =   0.0025641
        k(  361) = (  -0.1268484  -0.5556383  -0.8401215), wk =   0.0025641
        k(  362) = (  -0.0660170  -0.5557810  -0.6720644), wk =   0.0025641
        k(  363) = (  -0.0051856  -0.5559236  -0.5040073), wk =   0.0025641
        k(  364) = (   0.0556457  -0.5560663  -0.3359503), wk =   0.0025641
        k(  365) = (   0.1164771  -0.5562089  -0.1678932), wk =   0.0025641
        k(  366) = (   0.1772887  -0.3709011   0.0001092), wk =   0.0025641
        k(  367) = (   0.2381200  -0.3710437   0.1681663), wk =   0.0025641
        k(  368) = (   0.2989514  -0.3711864   0.3362234), wk =   0.0025641
        k(  369) = (   0.3597828  -0.3713291   0.5042804), wk =   0.0025641
        k(  370) = (   0.4206141  -0.3714717   0.6723375), wk =   0.0025641
        k(  371) = (   0.4814455  -0.3716144   0.8403946), wk =   0.0025641
        k(  372) = (   0.5422768  -0.3717570   1.0084516), wk =   0.0025641
        k(  373) = (  -0.1876995  -0.3700451  -1.0082331), wk =   0.0025641
        k(  374) = (  -0.1268681  -0.3701878  -0.8401761), wk =   0.0025641
        k(  375) = (  -0.0660368  -0.3703304  -0.6721190), wk =   0.0025641
        k(  376) = (  -0.0052054  -0.3704731  -0.5040619), wk =   0.0025641
        k(  377) = (   0.0556260  -0.3706157  -0.3360049), wk =   0.0025641
        k(  378) = (   0.1164573  -0.3707584  -0.1679478), wk =   0.0025641
        k(  379) = (   0.1772689  -0.1854505   0.0000546), wk =   0.0025641
        k(  380) = (   0.2381003  -0.1855932   0.1681117), wk =   0.0025641
        k(  381) = (   0.2989316  -0.1857359   0.3361688), wk =   0.0025641
        k(  382) = (   0.3597630  -0.1858785   0.5042258), wk =   0.0025641
        k(  383) = (   0.4205944  -0.1860212   0.6722829), wk =   0.0025641
        k(  384) = (   0.4814257  -0.1861638   0.8403399), wk =   0.0025641
        k(  385) = (   0.5422571  -0.1863065   1.0083970), wk =   0.0025641
        k(  386) = (  -0.1877193  -0.1845946  -1.0082878), wk =   0.0025641
        k(  387) = (  -0.1268879  -0.1847372  -0.8402307), wk =   0.0025641
        k(  388) = (  -0.0660565  -0.1848799  -0.6721736), wk =   0.0025641
        k(  389) = (  -0.0052252  -0.1850225  -0.5041166), wk =   0.0025641
        k(  390) = (   0.0556062  -0.1851652  -0.3360595), wk =   0.0025641
        k(  391) = (   0.1164375  -0.1853079  -0.1680024), wk =   0.0025641
        k(  392) = (   0.3544983   0.0000000   0.0000000), wk =   0.0025641
        k(  393) = (   0.4153296  -0.0001427   0.1680571), wk =   0.0025641
        k(  394) = (   0.4761610  -0.0002853   0.3361141), wk =   0.0025641
        k(  395) = (   0.5369924  -0.0004280   0.5041712), wk =   0.0025641
        k(  396) = (   0.5978237  -0.0005706   0.6722283), wk =   0.0025641
        k(  397) = (   0.6586551  -0.0007133   0.8402853), wk =   0.0025641
        k(  398) = (   0.7194864  -0.0008560   1.0083424), wk =   0.0025641
        k(  399) = (  -0.0104899   0.0008560  -1.0083424), wk =   0.0025641
        k(  400) = (   0.0503415   0.0007133  -0.8402853), wk =   0.0025641
        k(  401) = (   0.1111728   0.0005706  -0.6722283), wk =   0.0025641
        k(  402) = (   0.1720042   0.0004280  -0.5041712), wk =   0.0025641
        k(  403) = (   0.2328355   0.0002853  -0.3361141), wk =   0.0025641
        k(  404) = (   0.2936669   0.0001427  -0.1680571), wk =   0.0025641
        k(  405) = (   0.3544785   0.1854505  -0.0000546), wk =   0.0025641
        k(  406) = (   0.4153099   0.1853079   0.1680024), wk =   0.0025641
        k(  407) = (   0.4761412   0.1851652   0.3360595), wk =   0.0025641
        k(  408) = (   0.5369726   0.1850225   0.5041166), wk =   0.0025641
        k(  409) = (   0.5978039   0.1848799   0.6721736), wk =   0.0025641
        k(  410) = (   0.6586353   0.1847372   0.8402307), wk =   0.0025641
        k(  411) = (   0.7194667   0.1845946   1.0082878), wk =   0.0025641
        k(  412) = (  -0.0105097   0.1863065  -1.0083970), wk =   0.0025641
        k(  413) = (   0.0503217   0.1861638  -0.8403399), wk =   0.0025641
        k(  414) = (   0.1111530   0.1860212  -0.6722829), wk =   0.0025641
        k(  415) = (   0.1719844   0.1858785  -0.5042258), wk =   0.0025641
        k(  416) = (   0.2328158   0.1857359  -0.3361688), wk =   0.0025641
        k(  417) = (   0.2936471   0.1855932  -0.1681117), wk =   0.0025641
        k(  418) = (   0.3544587   0.3709011  -0.0001092), wk =   0.0025641
        k(  419) = (   0.4152901   0.3707584   0.1679478), wk =   0.0025641
        k(  420) = (   0.4761214   0.3706157   0.3360049), wk =   0.0025641
        k(  421) = (   0.5369528   0.3704731   0.5040619), wk =   0.0025641
        k(  422) = (   0.5977842   0.3703304   0.6721190), wk =   0.0025641
        k(  423) = (   0.6586155   0.3701878   0.8401761), wk =   0.0025641
        k(  424) = (   0.7194469   0.3700451   1.0082331), wk =   0.0025641
        k(  425) = (  -0.0105294   0.3717570  -1.0084516), wk =   0.0025641
        k(  426) = (   0.0503019   0.3716144  -0.8403946), wk =   0.0025641
        k(  427) = (   0.1111333   0.3714717  -0.6723375), wk =   0.0025641
        k(  428) = (   0.1719646   0.3713291  -0.5042804), wk =   0.0025641
        k(  429) = (   0.2327960   0.3711864  -0.3362234), wk =   0.0025641
        k(  430) = (   0.2936274   0.3710437  -0.1681663), wk =   0.0025641
        k(  431) = (   0.3544390   0.5563516  -0.0001639), wk =   0.0025641
        k(  432) = (   0.4152703   0.5562089   0.1678932), wk =   0.0025641
        k(  433) = (   0.4761017   0.5560663   0.3359503), wk =   0.0025641
        k(  434) = (   0.5369330   0.5559236   0.5040073), wk =   0.0025641
        k(  435) = (   0.5977644   0.5557810   0.6720644), wk =   0.0025641
        k(  436) = (   0.6585958   0.5556383   0.8401215), wk =   0.0025641
        k(  437) = (   0.7194271   0.5554956   1.0081785), wk =   0.0025641
        k(  438) = (  -0.0105492   0.5572076  -1.0085063), wk =   0.0025641
        k(  439) = (   0.0502821   0.5570649  -0.8404492), wk =   0.0025641
        k(  440) = (   0.1111135   0.5569222  -0.6723921), wk =   0.0025641
        k(  441) = (   0.1719449   0.5567796  -0.5043351), wk =   0.0025641
        k(  442) = (   0.2327762   0.5566369  -0.3362780), wk =   0.0025641
        k(  443) = (   0.2936076   0.5564943  -0.1682209), wk =   0.0025641
        k(  444) = (   0.3544192   0.7418021  -0.0002185), wk =   0.0025641
        k(  445) = (   0.4152505   0.7416595   0.1678386), wk =   0.0025641
        k(  446) = (   0.4760819   0.7415168   0.3358956), wk =   0.0025641
        k(  447) = (   0.5369133   0.7413742   0.5039527), wk =   0.0025641
        k(  448) = (   0.5977446   0.7412315   0.6720098), wk =   0.0025641
        k(  449) = (   0.6585760   0.7410888   0.8400668), wk =   0.0025641
        k(  450) = (   0.7194073   0.7409462   1.0081239), wk =   0.0025641
        k(  451) = (  -0.0105690   0.7426581  -1.0085609), wk =   0.0025641
        k(  452) = (   0.0502624   0.7425154  -0.8405038), wk =   0.0025641
        k(  453) = (   0.1110937   0.7423728  -0.6724468), wk =   0.0025641
        k(  454) = (   0.1719251   0.7422301  -0.5043897), wk =   0.0025641
        k(  455) = (   0.2327565   0.7420875  -0.3363326), wk =   0.0025641
        k(  456) = (   0.2935878   0.7419448  -0.1682756), wk =   0.0025641
        k(  457) = (   0.3543994   0.9272527  -0.0002731), wk =   0.0025641
        k(  458) = (   0.4152308   0.9271100   0.1677839), wk =   0.0025641
        k(  459) = (   0.4760621   0.9269673   0.3358410), wk =   0.0025641
        k(  460) = (   0.5368935   0.9268247   0.5038981), wk =   0.0025641
        k(  461) = (   0.5977249   0.9266820   0.6719551), wk =   0.0025641
        k(  462) = (   0.6585562   0.9265394   0.8400122), wk =   0.0025641
        k(  463) = (   0.7193876   0.9263967   1.0080693), wk =   0.0025641
        k(  464) = (  -0.0105888   0.9281086  -1.0086155), wk =   0.0025641
        k(  465) = (   0.0502426   0.9279660  -0.8405584), wk =   0.0025641
        k(  466) = (   0.1110740   0.9278233  -0.6725014), wk =   0.0025641
        k(  467) = (   0.1719053   0.9276807  -0.5044443), wk =   0.0025641
        k(  468) = (   0.2327367   0.9275380  -0.3363872), wk =   0.0025641
        k(  469) = (   0.2935680   0.9273953  -0.1683302), wk =   0.0025641
        k(  470) = (   0.3543796   1.1127032  -0.0003277), wk =   0.0025641
        k(  471) = (   0.4152110   1.1125605   0.1677293), wk =   0.0025641
        k(  472) = (   0.4760424   1.1124179   0.3357864), wk =   0.0025641
        k(  473) = (   0.5368737   1.1122752   0.5038435), wk =   0.0025641
        k(  474) = (   0.5977051   1.1121326   0.6719005), wk =   0.0025641
        k(  475) = (   0.6585364   1.1119899   0.8399576), wk =   0.0025641
        k(  476) = (   0.7193678   1.1118472   1.0080146), wk =   0.0025641
        k(  477) = (  -0.0106085   1.1135592  -1.0086701), wk =   0.0025641
        k(  478) = (   0.0502228   1.1134165  -0.8406131), wk =   0.0025641
        k(  479) = (   0.1110542   1.1132738  -0.6725560), wk =   0.0025641
        k(  480) = (   0.1718855   1.1131312  -0.5044989), wk =   0.0025641
        k(  481) = (   0.2327169   1.1129885  -0.3364419), wk =   0.0025641
        k(  482) = (   0.2935483   1.1128459  -0.1683848), wk =   0.0025641
        k(  483) = (   0.3543599   1.2981537  -0.0003824), wk =   0.0025641
        k(  484) = (   0.4151912   1.2980111   0.1676747), wk =   0.0025641
        k(  485) = (   0.4760226   1.2978684   0.3357318), wk =   0.0025641
        k(  486) = (   0.5368539   1.2977258   0.5037888), wk =   0.0025641
        k(  487) = (   0.5976853   1.2975831   0.6718459), wk =   0.0025641
        k(  488) = (   0.6585167   1.2974404   0.8399030), wk =   0.0025641
        k(  489) = (   0.7193480   1.2972978   1.0079600), wk =   0.0025641
        k(  490) = (  -0.0106283   1.2990097  -1.0087248), wk =   0.0025641
        k(  491) = (   0.0502031   1.2988670  -0.8406677), wk =   0.0025641
        k(  492) = (   0.1110344   1.2987244  -0.6726106), wk =   0.0025641
        k(  493) = (   0.1718658   1.2985817  -0.5045536), wk =   0.0025641
        k(  494) = (   0.2326971   1.2984391  -0.3364965), wk =   0.0025641
        k(  495) = (   0.2935285   1.2982964  -0.1684394), wk =   0.0025641
        k(  496) = (   0.3543401   1.4836043  -0.0004370), wk =   0.0025641
        k(  497) = (   0.4151715   1.4834616   0.1676201), wk =   0.0025641
        k(  498) = (   0.4760028   1.4833189   0.3356771), wk =   0.0025641
        k(  499) = (   0.5368342   1.4831763   0.5037342), wk =   0.0025641
        k(  500) = (   0.5976655   1.4830336   0.6717913), wk =   0.0025641
        k(  501) = (   0.6584969   1.4828910   0.8398483), wk =   0.0025641
        k(  502) = (   0.7193283   1.4827483   1.0079054), wk =   0.0025641
        k(  503) = (  -0.0106481   1.4844602  -1.0087794), wk =   0.0025641
        k(  504) = (   0.0501833   1.4843176  -0.8407223), wk =   0.0025641
        k(  505) = (   0.1110146   1.4841749  -0.6726652), wk =   0.0025641
        k(  506) = (   0.1718460   1.4840323  -0.5046082), wk =   0.0025641
        k(  507) = (   0.2326774   1.4838896  -0.3365511), wk =   0.0025641
        k(  508) = (   0.2935087   1.4837469  -0.1684941), wk =   0.0025641
        k(  509) = (   0.3543203   1.6690548  -0.0004916), wk =   0.0025641
        k(  510) = (   0.4151517   1.6689121   0.1675655), wk =   0.0025641
        k(  511) = (   0.4759830   1.6687695   0.3356225), wk =   0.0025641
        k(  512) = (   0.5368144   1.6686268   0.5036796), wk =   0.0025641
        k(  513) = (   0.5976458   1.6684842   0.6717366), wk =   0.0025641
        k(  514) = (   0.6584771   1.6683415   0.8397937), wk =   0.0025641
        k(  515) = (   0.7193085   1.6681988   1.0078508), wk =   0.0025641
        k(  516) = (  -0.0106679   1.6699108  -1.0088340), wk =   0.0025641
        k(  517) = (   0.0501635   1.6697681  -0.8407769), wk =   0.0025641
        k(  518) = (   0.1109949   1.6696254  -0.6727199), wk =   0.0025641
        k(  519) = (   0.1718262   1.6694828  -0.5046628), wk =   0.0025641
        k(  520) = (   0.2326576   1.6693401  -0.3366057), wk =   0.0025641
        k(  521) = (   0.2934890   1.6691975  -0.1685487), wk =   0.0025641
        k(  522) = (   0.3546960  -1.8545053   0.0005462), wk =   0.0025641
        k(  523) = (   0.4155273  -1.8546480   0.1686033), wk =   0.0025641
        k(  524) = (   0.4763587  -1.8547907   0.3366604), wk =   0.0025641
        k(  525) = (   0.5371901  -1.8549333   0.5047174), wk =   0.0025641
        k(  526) = (   0.5980214  -1.8550760   0.6727745), wk =   0.0025641
        k(  527) = (   0.6588528  -1.8552186   0.8408316), wk =   0.0025641
        k(  528) = (   0.7196842  -1.8553613   1.0088886), wk =   0.0025641
        k(  529) = (  -0.0102922  -1.8536494  -1.0077962), wk =   0.0025641
        k(  530) = (   0.0505392  -1.8537920  -0.8397391), wk =   0.0025641
        k(  531) = (   0.1113705  -1.8539347  -0.6716820), wk =   0.0025641
        k(  532) = (   0.1722019  -1.8540774  -0.5036250), wk =   0.0025641
        k(  533) = (   0.2330333  -1.8542200  -0.3355679), wk =   0.0025641
        k(  534) = (   0.2938646  -1.8543627  -0.1675108), wk =   0.0025641
        k(  535) = (   0.3546762  -1.6690548   0.0004916), wk =   0.0025641
        k(  536) = (   0.4155076  -1.6691975   0.1685487), wk =   0.0025641
        k(  537) = (   0.4763389  -1.6693401   0.3366057), wk =   0.0025641
        k(  538) = (   0.5371703  -1.6694828   0.5046628), wk =   0.0025641
        k(  539) = (   0.5980017  -1.6696254   0.6727199), wk =   0.0025641
        k(  540) = (   0.6588330  -1.6697681   0.8407769), wk =   0.0025641
        k(  541) = (   0.7196644  -1.6699108   1.0088340), wk =   0.0025641
        k(  542) = (  -0.0103120  -1.6681988  -1.0078508), wk =   0.0025641
        k(  543) = (   0.0505194  -1.6683415  -0.8397937), wk =   0.0025641
        k(  544) = (   0.1113508  -1.6684842  -0.6717366), wk =   0.0025641
        k(  545) = (   0.1721821  -1.6686268  -0.5036796), wk =   0.0025641
        k(  546) = (   0.2330135  -1.6687695  -0.3356225), wk =   0.0025641
        k(  547) = (   0.2938449  -1.6689121  -0.1675655), wk =   0.0025641
        k(  548) = (   0.3546564  -1.4836043   0.0004370), wk =   0.0025641
        k(  549) = (   0.4154878  -1.4837469   0.1684941), wk =   0.0025641
        k(  550) = (   0.4763192  -1.4838896   0.3365511), wk =   0.0025641
        k(  551) = (   0.5371505  -1.4840323   0.5046082), wk =   0.0025641
        k(  552) = (   0.5979819  -1.4841749   0.6726652), wk =   0.0025641
        k(  553) = (   0.6588133  -1.4843176   0.8407223), wk =   0.0025641
        k(  554) = (   0.7196446  -1.4844602   1.0087794), wk =   0.0025641
        k(  555) = (  -0.0103317  -1.4827483  -1.0079054), wk =   0.0025641
        k(  556) = (   0.0504996  -1.4828910  -0.8398483), wk =   0.0025641
        k(  557) = (   0.1113310  -1.4830336  -0.6717913), wk =   0.0025641
        k(  558) = (   0.1721624  -1.4831763  -0.5037342), wk =   0.0025641
        k(  559) = (   0.2329937  -1.4833189  -0.3356771), wk =   0.0025641
        k(  560) = (   0.2938251  -1.4834616  -0.1676201), wk =   0.0025641
        k(  561) = (   0.3546367  -1.2981537   0.0003824), wk =   0.0025641
        k(  562) = (   0.4154680  -1.2982964   0.1684394), wk =   0.0025641
        k(  563) = (   0.4762994  -1.2984391   0.3364965), wk =   0.0025641
        k(  564) = (   0.5371308  -1.2985817   0.5045536), wk =   0.0025641
        k(  565) = (   0.5979621  -1.2987244   0.6726106), wk =   0.0025641
        k(  566) = (   0.6587935  -1.2988670   0.8406677), wk =   0.0025641
        k(  567) = (   0.7196248  -1.2990097   1.0087248), wk =   0.0025641
        k(  568) = (  -0.0103515  -1.2972978  -1.0079600), wk =   0.0025641
        k(  569) = (   0.0504799  -1.2974404  -0.8399030), wk =   0.0025641
        k(  570) = (   0.1113112  -1.2975831  -0.6718459), wk =   0.0025641
        k(  571) = (   0.1721426  -1.2977258  -0.5037888), wk =   0.0025641
        k(  572) = (   0.2329739  -1.2978684  -0.3357318), wk =   0.0025641
        k(  573) = (   0.2938053  -1.2980111  -0.1676747), wk =   0.0025641
        k(  574) = (   0.3546169  -1.1127032   0.0003277), wk =   0.0025641
        k(  575) = (   0.4154483  -1.1128459   0.1683848), wk =   0.0025641
        k(  576) = (   0.4762796  -1.1129885   0.3364419), wk =   0.0025641
        k(  577) = (   0.5371110  -1.1131312   0.5044989), wk =   0.0025641
        k(  578) = (   0.5979423  -1.1132738   0.6725560), wk =   0.0025641
        k(  579) = (   0.6587737  -1.1134165   0.8406131), wk =   0.0025641
        k(  580) = (   0.7196051  -1.1135592   1.0086701), wk =   0.0025641
        k(  581) = (  -0.0103713  -1.1118472  -1.0080146), wk =   0.0025641
        k(  582) = (   0.0504601  -1.1119899  -0.8399576), wk =   0.0025641
        k(  583) = (   0.1112915  -1.1121326  -0.6719005), wk =   0.0025641
        k(  584) = (   0.1721228  -1.1122752  -0.5038435), wk =   0.0025641
        k(  585) = (   0.2329542  -1.1124179  -0.3357864), wk =   0.0025641
        k(  586) = (   0.2937855  -1.1125605  -0.1677293), wk =   0.0025641
        k(  587) = (   0.3545971  -0.9272527   0.0002731), wk =   0.0025641
        k(  588) = (   0.4154285  -0.9273953   0.1683302), wk =   0.0025641
        k(  589) = (   0.4762599  -0.9275380   0.3363872), wk =   0.0025641
        k(  590) = (   0.5370912  -0.9276807   0.5044443), wk =   0.0025641
        k(  591) = (   0.5979226  -0.9278233   0.6725014), wk =   0.0025641
        k(  592) = (   0.6587539  -0.9279660   0.8405584), wk =   0.0025641
        k(  593) = (   0.7195853  -0.9281086   1.0086155), wk =   0.0025641
        k(  594) = (  -0.0103910  -0.9263967  -1.0080693), wk =   0.0025641
        k(  595) = (   0.0504403  -0.9265394  -0.8400122), wk =   0.0025641
        k(  596) = (   0.1112717  -0.9266820  -0.6719551), wk =   0.0025641
        k(  597) = (   0.1721030  -0.9268247  -0.5038981), wk =   0.0025641
        k(  598) = (   0.2329344  -0.9269673  -0.3358410), wk =   0.0025641
        k(  599) = (   0.2937658  -0.9271100  -0.1677839), wk =   0.0025641
        k(  600) = (   0.3545774  -0.7418021   0.0002185), wk =   0.0025641
        k(  601) = (   0.4154087  -0.7419448   0.1682756), wk =   0.0025641
        k(  602) = (   0.4762401  -0.7420875   0.3363326), wk =   0.0025641
        k(  603) = (   0.5370714  -0.7422301   0.5043897), wk =   0.0025641
        k(  604) = (   0.5979028  -0.7423728   0.6724468), wk =   0.0025641
        k(  605) = (   0.6587342  -0.7425154   0.8405038), wk =   0.0025641
        k(  606) = (   0.7195655  -0.7426581   1.0085609), wk =   0.0025641
        k(  607) = (  -0.0104108  -0.7409462  -1.0081239), wk =   0.0025641
        k(  608) = (   0.0504205  -0.7410888  -0.8400668), wk =   0.0025641
        k(  609) = (   0.1112519  -0.7412315  -0.6720098), wk =   0.0025641
        k(  610) = (   0.1720833  -0.7413742  -0.5039527), wk =   0.0025641
        k(  611) = (   0.2329146  -0.7415168  -0.3358956), wk =   0.0025641
        k(  612) = (   0.2937460  -0.7416595  -0.1678386), wk =   0.0025641
        k(  613) = (   0.3545576  -0.5563516   0.0001639), wk =   0.0025641
        k(  614) = (   0.4153889  -0.5564943   0.1682209), wk =   0.0025641
        k(  615) = (   0.4762203  -0.5566369   0.3362780), wk =   0.0025641
        k(  616) = (   0.5370517  -0.5567796   0.5043351), wk =   0.0025641
        k(  617) = (   0.5978830  -0.5569222   0.6723921), wk =   0.0025641
        k(  618) = (   0.6587144  -0.5570649   0.8404492), wk =   0.0025641
        k(  619) = (   0.7195458  -0.5572076   1.0085063), wk =   0.0025641
        k(  620) = (  -0.0104306  -0.5554956  -1.0081785), wk =   0.0025641
        k(  621) = (   0.0504008  -0.5556383  -0.8401215), wk =   0.0025641
        k(  622) = (   0.1112321  -0.5557810  -0.6720644), wk =   0.0025641
        k(  623) = (   0.1720635  -0.5559236  -0.5040073), wk =   0.0025641
        k(  624) = (   0.2328949  -0.5560663  -0.3359503), wk =   0.0025641
        k(  625) = (   0.2937262  -0.5562089  -0.1678932), wk =   0.0025641
        k(  626) = (   0.3545378  -0.3709011   0.0001092), wk =   0.0025641
        k(  627) = (   0.4153692  -0.3710437   0.1681663), wk =   0.0025641
        k(  628) = (   0.4762005  -0.3711864   0.3362234), wk =   0.0025641
        k(  629) = (   0.5370319  -0.3713291   0.5042804), wk =   0.0025641
        k(  630) = (   0.5978633  -0.3714717   0.6723375), wk =   0.0025641
        k(  631) = (   0.6586946  -0.3716144   0.8403946), wk =   0.0025641
        k(  632) = (   0.7195260  -0.3717570   1.0084516), wk =   0.0025641
        k(  633) = (  -0.0104504  -0.3700451  -1.0082331), wk =   0.0025641
        k(  634) = (   0.0503810  -0.3701878  -0.8401761), wk =   0.0025641
        k(  635) = (   0.1112124  -0.3703304  -0.6721190), wk =   0.0025641
        k(  636) = (   0.1720437  -0.3704731  -0.5040619), wk =   0.0025641
        k(  637) = (   0.2328751  -0.3706157  -0.3360049), wk =   0.0025641
        k(  638) = (   0.2937064  -0.3707584  -0.1679478), wk =   0.0025641
        k(  639) = (   0.3545180  -0.1854505   0.0000546), wk =   0.0025641
        k(  640) = (   0.4153494  -0.1855932   0.1681117), wk =   0.0025641
        k(  641) = (   0.4761808  -0.1857359   0.3361688), wk =   0.0025641
        k(  642) = (   0.5370121  -0.1858785   0.5042258), wk =   0.0025641
        k(  643) = (   0.5978435  -0.1860212   0.6722829), wk =   0.0025641
        k(  644) = (   0.6586748  -0.1861638   0.8403399), wk =   0.0025641
        k(  645) = (   0.7195062  -0.1863065   1.0083970), wk =   0.0025641
        k(  646) = (  -0.0104701  -0.1845946  -1.0082878), wk =   0.0025641
        k(  647) = (   0.0503612  -0.1847372  -0.8402307), wk =   0.0025641
        k(  648) = (   0.1111926  -0.1848799  -0.6721736), wk =   0.0025641
        k(  649) = (   0.1720240  -0.1850225  -0.5041166), wk =   0.0025641
        k(  650) = (   0.2328553  -0.1851652  -0.3360595), wk =   0.0025641
        k(  651) = (   0.2936867  -0.1853079  -0.1680024), wk =   0.0025641
        k(  652) = (  -0.5317474   0.0000000   0.0000000), wk =   0.0012821
        k(  653) = (  -0.4709160  -0.0001427   0.1680571), wk =   0.0025641
        k(  654) = (  -0.4100847  -0.0002853   0.3361141), wk =   0.0025641
        k(  655) = (  -0.3492533  -0.0004280   0.5041712), wk =   0.0025641
        k(  656) = (  -0.2884220  -0.0005706   0.6722283), wk =   0.0025641
        k(  657) = (  -0.2275906  -0.0007133   0.8402853), wk =   0.0025641
        k(  658) = (  -0.1667592  -0.0008560   1.0083424), wk =   0.0025641
        k(  659) = (  -0.5317672   0.1854505  -0.0000546), wk =   0.0025641
        k(  660) = (  -0.4709358   0.1853079   0.1680024), wk =   0.0025641
        k(  661) = (  -0.4101044   0.1851652   0.3360595), wk =   0.0025641
        k(  662) = (  -0.3492731   0.1850225   0.5041166), wk =   0.0025641
        k(  663) = (  -0.2884417   0.1848799   0.6721736), wk =   0.0025641
        k(  664) = (  -0.2276104   0.1847372   0.8402307), wk =   0.0025641
        k(  665) = (  -0.1667790   0.1845946   1.0082878), wk =   0.0025641
        k(  666) = (  -0.8967553   0.1863065  -1.0083970), wk =   0.0025641
        k(  667) = (  -0.8359240   0.1861638  -0.8403399), wk =   0.0025641
        k(  668) = (  -0.7750926   0.1860212  -0.6722829), wk =   0.0025641
        k(  669) = (  -0.7142613   0.1858785  -0.5042258), wk =   0.0025641
        k(  670) = (  -0.6534299   0.1857359  -0.3361688), wk =   0.0025641
        k(  671) = (  -0.5925985   0.1855932  -0.1681117), wk =   0.0025641
        k(  672) = (  -0.5317869   0.3709011  -0.0001092), wk =   0.0025641
        k(  673) = (  -0.4709556   0.3707584   0.1679478), wk =   0.0025641
        k(  674) = (  -0.4101242   0.3706157   0.3360049), wk =   0.0025641
        k(  675) = (  -0.3492929   0.3704731   0.5040619), wk =   0.0025641
        k(  676) = (  -0.2884615   0.3703304   0.6721190), wk =   0.0025641
        k(  677) = (  -0.2276301   0.3701878   0.8401761), wk =   0.0025641
        k(  678) = (  -0.1667988   0.3700451   1.0082331), wk =   0.0025641
        k(  679) = (  -0.8967751   0.3717570  -1.0084516), wk =   0.0025641
        k(  680) = (  -0.8359438   0.3716144  -0.8403946), wk =   0.0025641
        k(  681) = (  -0.7751124   0.3714717  -0.6723375), wk =   0.0025641
        k(  682) = (  -0.7142810   0.3713291  -0.5042804), wk =   0.0025641
        k(  683) = (  -0.6534497   0.3711864  -0.3362234), wk =   0.0025641
        k(  684) = (  -0.5926183   0.3710437  -0.1681663), wk =   0.0025641
        k(  685) = (  -0.5318067   0.5563516  -0.0001639), wk =   0.0025641
        k(  686) = (  -0.4709754   0.5562089   0.1678932), wk =   0.0025641
        k(  687) = (  -0.4101440   0.5560663   0.3359503), wk =   0.0025641
        k(  688) = (  -0.3493126   0.5559236   0.5040073), wk =   0.0025641
        k(  689) = (  -0.2884813   0.5557810   0.6720644), wk =   0.0025641
        k(  690) = (  -0.2276499   0.5556383   0.8401215), wk =   0.0025641
        k(  691) = (  -0.1668185   0.5554956   1.0081785), wk =   0.0025641
        k(  692) = (  -0.8967949   0.5572076  -1.0085063), wk =   0.0025641
        k(  693) = (  -0.8359635   0.5570649  -0.8404492), wk =   0.0025641
        k(  694) = (  -0.7751322   0.5569222  -0.6723921), wk =   0.0025641
        k(  695) = (  -0.7143008   0.5567796  -0.5043351), wk =   0.0025641
        k(  696) = (  -0.6534694   0.5566369  -0.3362780), wk =   0.0025641
        k(  697) = (  -0.5926381   0.5564943  -0.1682209), wk =   0.0025641
        k(  698) = (  -0.5318265   0.7418021  -0.0002185), wk =   0.0025641
        k(  699) = (  -0.4709951   0.7416595   0.1678386), wk =   0.0025641
        k(  700) = (  -0.4101638   0.7415168   0.3358956), wk =   0.0025641
        k(  701) = (  -0.3493324   0.7413742   0.5039527), wk =   0.0025641
        k(  702) = (  -0.2885010   0.7412315   0.6720098), wk =   0.0025641
        k(  703) = (  -0.2276697   0.7410888   0.8400668), wk =   0.0025641
        k(  704) = (  -0.1668383   0.7409462   1.0081239), wk =   0.0025641
        k(  705) = (  -0.8968147   0.7426581  -1.0085609), wk =   0.0025641
        k(  706) = (  -0.8359833   0.7425154  -0.8405038), wk =   0.0025641
        k(  707) = (  -0.7751519   0.7423728  -0.6724468), wk =   0.0025641
        k(  708) = (  -0.7143206   0.7422301  -0.5043897), wk =   0.0025641
        k(  709) = (  -0.6534892   0.7420875  -0.3363326), wk =   0.0025641
        k(  710) = (  -0.5926578   0.7419448  -0.1682756), wk =   0.0025641
        k(  711) = (  -0.5318463   0.9272527  -0.0002731), wk =   0.0025641
        k(  712) = (  -0.4710149   0.9271100   0.1677839), wk =   0.0025641
        k(  713) = (  -0.4101835   0.9269673   0.3358410), wk =   0.0025641
        k(  714) = (  -0.3493522   0.9268247   0.5038981), wk =   0.0025641
        k(  715) = (  -0.2885208   0.9266820   0.6719551), wk =   0.0025641
        k(  716) = (  -0.2276895   0.9265394   0.8400122), wk =   0.0025641
        k(  717) = (  -0.1668581   0.9263967   1.0080693), wk =   0.0025641
        k(  718) = (  -0.8968344   0.9281086  -1.0086155), wk =   0.0025641
        k(  719) = (  -0.8360031   0.9279660  -0.8405584), wk =   0.0025641
        k(  720) = (  -0.7751717   0.9278233  -0.6725014), wk =   0.0025641
        k(  721) = (  -0.7143403   0.9276807  -0.5044443), wk =   0.0025641
        k(  722) = (  -0.6535090   0.9275380  -0.3363872), wk =   0.0025641
        k(  723) = (  -0.5926776   0.9273953  -0.1683302), wk =   0.0025641
        k(  724) = (  -0.5318660   1.1127032  -0.0003277), wk =   0.0025641
        k(  725) = (  -0.4710347   1.1125605   0.1677293), wk =   0.0025641
        k(  726) = (  -0.4102033   1.1124179   0.3357864), wk =   0.0025641
        k(  727) = (  -0.3493719   1.1122752   0.5038435), wk =   0.0025641
        k(  728) = (  -0.2885406   1.1121326   0.6719005), wk =   0.0025641
        k(  729) = (  -0.2277092   1.1119899   0.8399576), wk =   0.0025641
        k(  730) = (  -0.1668779   1.1118472   1.0080146), wk =   0.0025641
        k(  731) = (  -0.8968542   1.1135592  -1.0086701), wk =   0.0025641
        k(  732) = (  -0.8360228   1.1134165  -0.8406131), wk =   0.0025641
        k(  733) = (  -0.7751915   1.1132738  -0.6725560), wk =   0.0025641
        k(  734) = (  -0.7143601   1.1131312  -0.5044989), wk =   0.0025641
        k(  735) = (  -0.6535288   1.1129885  -0.3364419), wk =   0.0025641
        k(  736) = (  -0.5926974   1.1128459  -0.1683848), wk =   0.0025641
        k(  737) = (  -0.5318858   1.2981537  -0.0003824), wk =   0.0025641
        k(  738) = (  -0.4710544   1.2980111   0.1676747), wk =   0.0025641
        k(  739) = (  -0.4102231   1.2978684   0.3357318), wk =   0.0025641
        k(  740) = (  -0.3493917   1.2977258   0.5037888), wk =   0.0025641
        k(  741) = (  -0.2885604   1.2975831   0.6718459), wk =   0.0025641
        k(  742) = (  -0.2277290   1.2974404   0.8399030), wk =   0.0025641
        k(  743) = (  -0.1668976   1.2972978   1.0079600), wk =   0.0025641
        k(  744) = (  -0.8968740   1.2990097  -1.0087248), wk =   0.0025641
        k(  745) = (  -0.8360426   1.2988670  -0.8406677), wk =   0.0025641
        k(  746) = (  -0.7752113   1.2987244  -0.6726106), wk =   0.0025641
        k(  747) = (  -0.7143799   1.2985817  -0.5045536), wk =   0.0025641
        k(  748) = (  -0.6535485   1.2984391  -0.3364965), wk =   0.0025641
        k(  749) = (  -0.5927172   1.2982964  -0.1684394), wk =   0.0025641
        k(  750) = (  -0.5319056   1.4836043  -0.0004370), wk =   0.0025641
        k(  751) = (  -0.4710742   1.4834616   0.1676201), wk =   0.0025641
        k(  752) = (  -0.4102429   1.4833189   0.3356771), wk =   0.0025641
        k(  753) = (  -0.3494115   1.4831763   0.5037342), wk =   0.0025641
        k(  754) = (  -0.2885801   1.4830336   0.6717913), wk =   0.0025641
        k(  755) = (  -0.2277488   1.4828910   0.8398483), wk =   0.0025641
        k(  756) = (  -0.1669174   1.4827483   1.0079054), wk =   0.0025641
        k(  757) = (  -0.8968937   1.4844602  -1.0087794), wk =   0.0025641
        k(  758) = (  -0.8360624   1.4843176  -0.8407223), wk =   0.0025641
        k(  759) = (  -0.7752310   1.4841749  -0.6726652), wk =   0.0025641
        k(  760) = (  -0.7143997   1.4840323  -0.5046082), wk =   0.0025641
        k(  761) = (  -0.6535683   1.4838896  -0.3365511), wk =   0.0025641
        k(  762) = (  -0.5927369   1.4837469  -0.1684941), wk =   0.0025641
        k(  763) = (  -0.5319253   1.6690548  -0.0004916), wk =   0.0025641
        k(  764) = (  -0.4710940   1.6689121   0.1675655), wk =   0.0025641
        k(  765) = (  -0.4102626   1.6687695   0.3356225), wk =   0.0025641
        k(  766) = (  -0.3494313   1.6686268   0.5036796), wk =   0.0025641
        k(  767) = (  -0.2885999   1.6684842   0.6717366), wk =   0.0025641
        k(  768) = (  -0.2277685   1.6683415   0.8397937), wk =   0.0025641
        k(  769) = (  -0.1669372   1.6681988   1.0078508), wk =   0.0025641
        k(  770) = (  -0.8969135   1.6699108  -1.0088340), wk =   0.0025641
        k(  771) = (  -0.8360822   1.6697681  -0.8407769), wk =   0.0025641
        k(  772) = (  -0.7752508   1.6696254  -0.6727199), wk =   0.0025641
        k(  773) = (  -0.7144194   1.6694828  -0.5046628), wk =   0.0025641
        k(  774) = (  -0.6535881   1.6693401  -0.3366057), wk =   0.0025641
        k(  775) = (  -0.5927567   1.6691975  -0.1685487), wk =   0.0025641
        k(  776) = (  -0.5315497  -1.8545053   0.0005462), wk =   0.0012821
        k(  777) = (  -0.4707183  -1.8546480   0.1686033), wk =   0.0025641
        k(  778) = (  -0.4098870  -1.8547907   0.3366604), wk =   0.0025641
        k(  779) = (  -0.3490556  -1.8549333   0.5047174), wk =   0.0025641
        k(  780) = (  -0.2882242  -1.8550760   0.6727745), wk =   0.0025641
        k(  781) = (  -0.2273929  -1.8552186   0.8408316), wk =   0.0025641
        k(  782) = (  -0.1665615  -1.8553613   1.0088886), wk =   0.0025641

                       cryst. coord.
        k(    1) = (   0.0000000   0.0000000   0.0000000), wk =   0.0012821
        k(    2) = (  -0.0000000   0.0000000   0.0769231), wk =   0.0025641
        k(    3) = (  -0.0000000   0.0000000   0.1538462), wk =   0.0025641
        k(    4) = (  -0.0000000  -0.0000000   0.2307692), wk =   0.0025641
        k(    5) = (  -0.0000000   0.0000000   0.3076923), wk =   0.0025641
        k(    6) = (   0.0000000  -0.0000000   0.3846154), wk =   0.0025641
        k(    7) = (  -0.0000000  -0.0000000   0.4615385), wk =   0.0025641
        k(    8) = (   0.0000000   0.0500000   0.0000000), wk =   0.0025641
        k(    9) = (  -0.0000000   0.0500000   0.0769231), wk =   0.0025641
        k(   10) = (  -0.0000000   0.0500000   0.1538462), wk =   0.0025641
        k(   11) = (  -0.0000000   0.0500000   0.2307692), wk =   0.0025641
        k(   12) = (  -0.0000000   0.0500000   0.3076923), wk =   0.0025641
        k(   13) = (   0.0000000   0.0500000   0.3846154), wk =   0.0025641
        k(   14) = (  -0.0000000   0.0500000   0.4615385), wk =   0.0025641
        k(   15) = (  -0.0000000   0.0500000  -0.4615385), wk =   0.0025641
        k(   16) = (  -0.0000000   0.0500000  -0.3846154), wk =   0.0025641
        k(   17) = (   0.0000000   0.0500000  -0.3076923), wk =   0.0025641
        k(   18) = (   0.0000000   0.0500000  -0.2307692), wk =   0.0025641
        k(   19) = (   0.0000000   0.0500000  -0.1538462), wk =   0.0025641
        k(   20) = (   0.0000000   0.0500000  -0.0769231), wk =   0.0025641
        k(   21) = (   0.0000000   0.1000000   0.0000000), wk =   0.0025641
        k(   22) = (  -0.0000000   0.1000000   0.0769231), wk =   0.0025641
        k(   23) = (  -0.0000000   0.1000000   0.1538462), wk =   0.0025641
        k(   24) = (  -0.0000000   0.1000000   0.2307692), wk =   0.0025641
        k(   25) = (  -0.0000000   0.1000000   0.3076923), wk =   0.0025641
        k(   26) = (  -0.0000000   0.1000000   0.3846154), wk =   0.0025641
        k(   27) = (  -0.0000000   0.1000000   0.4615385), wk =   0.0025641
        k(   28) = (   0.0000000   0.1000000  -0.4615385), wk =   0.0025641
        k(   29) = (   0.0000000   0.1000000  -0.3846154), wk =   0.0025641
        k(   30) = (   0.0000000   0.1000000  -0.3076923), wk =   0.0025641
        k(   31) = (   0.0000000   0.1000000  -0.2307692), wk =   0.0025641
        k(   32) = (   0.0000000   0.1000000  -0.1538462), wk =   0.0025641
        k(   33) = (  -0.0000000   0.1000000  -0.0769231), wk =   0.0025641
        k(   34) = (   0.0000000   0.1500000  -0.0000000), wk =   0.0025641
        k(   35) = (  -0.0000000   0.1500000   0.0769231), wk =   0.0025641
        k(   36) = (  -0.0000000   0.1500000   0.1538462), wk =   0.0025641
        k(   37) = (  -0.0000000   0.1500000   0.2307692), wk =   0.0025641
        k(   38) = (  -0.0000000   0.1500000   0.3076923), wk =   0.0025641
        k(   39) = (  -0.0000000   0.1500000   0.3846154), wk =   0.0025641
        k(   40) = (  -0.0000000   0.1500000   0.4615385), wk =   0.0025641
        k(   41) = (   0.0000000   0.1500000  -0.4615385), wk =   0.0025641
        k(   42) = (  -0.0000000   0.1500000  -0.3846154), wk =   0.0025641
        k(   43) = (   0.0000000   0.1500000  -0.3076923), wk =   0.0025641
        k(   44) = (  -0.0000000   0.1500000  -0.2307692), wk =   0.0025641
        k(   45) = (   0.0000000   0.1500000  -0.1538462), wk =   0.0025641
        k(   46) = (  -0.0000000   0.1500000  -0.0769231), wk =   0.0025641
        k(   47) = (   0.0000000   0.2000000   0.0000000), wk =   0.0025641
        k(   48) = (  -0.0000000   0.2000000   0.0769231), wk =   0.0025641
        k(   49) = (  -0.0000000   0.2000000   0.1538462), wk =   0.0025641
        k(   50) = (   0.0000000   0.2000000   0.2307692), wk =   0.0025641
        k(   51) = (  -0.0000000   0.2000000   0.3076923), wk =   0.0025641
        k(   52) = (  -0.0000000   0.2000000   0.3846154), wk =   0.0025641
        k(   53) = (  -0.0000000   0.2000000   0.4615385), wk =   0.0025641
        k(   54) = (  -0.0000000   0.2000000  -0.4615385), wk =   0.0025641
        k(   55) = (  -0.0000000   0.2000000  -0.3846154), wk =   0.0025641
        k(   56) = (   0.0000000   0.2000000  -0.3076923), wk =   0.0025641
        k(   57) = (   0.0000000   0.2000000  -0.2307692), wk =   0.0025641
        k(   58) = (   0.0000000   0.2000000  -0.1538462), wk =   0.0025641
        k(   59) = (  -0.0000000   0.2000000  -0.0769231), wk =   0.0025641
        k(   60) = (   0.0000000   0.2500000   0.0000000), wk =   0.0025641
        k(   61) = (  -0.0000000   0.2500000   0.0769231), wk =   0.0025641
        k(   62) = (  -0.0000000   0.2500000   0.1538462), wk =   0.0025641
        k(   63) = (  -0.0000000   0.2500000   0.2307692), wk =   0.0025641
        k(   64) = (  -0.0000000   0.2500000   0.3076923), wk =   0.0025641
        k(   65) = (  -0.0000000   0.2500000   0.3846154), wk =   0.0025641
        k(   66) = (   0.0000000   0.2500000   0.4615385), wk =   0.0025641
        k(   67) = (  -0.0000000   0.2500000  -0.4615385), wk =   0.0025641
        k(   68) = (  -0.0000000   0.2500000  -0.3846154), wk =   0.0025641
        k(   69) = (   0.0000000   0.2500000  -0.3076923), wk =   0.0025641
        k(   70) = (  -0.0000000   0.2500000  -0.2307692), wk =   0.0025641
        k(   71) = (   0.0000000   0.2500000  -0.1538462), wk =   0.0025641
        k(   72) = (  -0.0000000   0.2500000  -0.0769231), wk =   0.0025641
        k(   73) = (   0.0000000   0.3000000  -0.0000000), wk =   0.0025641
        k(   74) = (  -0.0000000   0.3000000   0.0769231), wk =   0.0025641
        k(   75) = (  -0.0000000   0.3000000   0.1538462), wk =   0.0025641
        k(   76) = (  -0.0000000   0.3000000   0.2307692), wk =   0.0025641
        k(   77) = (  -0.0000000   0.3000000   0.3076923), wk =   0.0025641
        k(   78) = (  -0.0000000   0.3000000   0.3846154), wk =   0.0025641
        k(   79) = (  -0.0000000   0.3000000   0.4615385), wk =   0.0025641
        k(   80) = (   0.0000000   0.3000000  -0.4615385), wk =   0.0025641
        k(   81) = (   0.0000000   0.3000000  -0.3846154), wk =   0.0025641
        k(   82) = (   0.0000000   0.3000000  -0.3076923), wk =   0.0025641
        k(   83) = (   0.0000000   0.3000000  -0.2307692), wk =   0.0025641
        k(   84) = (   0.0000000   0.3000000  -0.1538462), wk =   0.0025641
        k(   85) = (  -0.0000000   0.3000000  -0.0769231), wk =   0.0025641
        k(   86) = (  -0.0000000   0.3500000   0.0000000), wk =   0.0025641
        k(   87) = (  -0.0000000   0.3500000   0.0769231), wk =   0.0025641
        k(   88) = (  -0.0000000   0.3500000   0.1538462), wk =   0.0025641
        k(   89) = (  -0.0000000   0.3500000   0.2307692), wk =   0.0025641
        k(   90) = (   0.0000000   0.3500000   0.3076923), wk =   0.0025641
        k(   91) = (  -0.0000000   0.3500000   0.3846154), wk =   0.0025641
        k(   92) = (   0.0000000   0.3500000   0.4615385), wk =   0.0025641
        k(   93) = (  -0.0000000   0.3500000  -0.4615385), wk =   0.0025641
        k(   94) = (  -0.0000000   0.3500000  -0.3846154), wk =   0.0025641
        k(   95) = (  -0.0000000   0.3500000  -0.3076923), wk =   0.0025641
        k(   96) = (   0.0000000   0.3500000  -0.2307692), wk =   0.0025641
        k(   97) = (   0.0000000   0.3500000  -0.1538462), wk =   0.0025641
        k(   98) = (  -0.0000000   0.3500000  -0.0769231), wk =   0.0025641
        k(   99) = (   0.0000000   0.4000000   0.0000000), wk =   0.0025641
        k(  100) = (  -0.0000000   0.4000000   0.0769231), wk =   0.0025641
        k(  101) = (  -0.0000000   0.4000000   0.1538462), wk =   0.0025641
        k(  102) = (  -0.0000000   0.4000000   0.2307692), wk =   0.0025641
        k(  103) = (  -0.0000000   0.4000000   0.3076923), wk =   0.0025641
        k(  104) = (   0.0000000   0.4000000   0.3846154), wk =   0.0025641
        k(  105) = (   0.0000000   0.4000000   0.4615385), wk =   0.0025641
        k(  106) = (  -0.0000000   0.4000000  -0.4615385), wk =   0.0025641
        k(  107) = (   0.0000000   0.4000000  -0.3846154), wk =   0.0025641
        k(  108) = (   0.0000000   0.4000000  -0.3076923), wk =   0.0025641
        k(  109) = (   0.0000000   0.4000000  -0.2307692), wk =   0.0025641
        k(  110) = (   0.0000000   0.4000000  -0.1538462), wk =   0.0025641
        k(  111) = (   0.0000000   0.4000000  -0.0769231), wk =   0.0025641
        k(  112) = (   0.0000000   0.4500000  -0.0000000), wk =   0.0025641
        k(  113) = (  -0.0000000   0.4500000   0.0769231), wk =   0.0025641
        k(  114) = (  -0.0000000   0.4500000   0.1538462), wk =   0.0025641
        k(  115) = (  -0.0000000   0.4500000   0.2307692), wk =   0.0025641
        k(  116) = (  -0.0000000   0.4500000   0.3076923), wk =   0.0025641
        k(  117) = (  -0.0000000   0.4500000   0.3846154), wk =   0.0025641
        k(  118) = (  -0.0000000   0.4500000   0.4615385), wk =   0.0025641
        k(  119) = (  -0.0000000   0.4500000  -0.4615385), wk =   0.0025641
        k(  120) = (   0.0000000   0.4500000  -0.3846154), wk =   0.0025641
        k(  121) = (   0.0000000   0.4500000  -0.3076923), wk =   0.0025641
        k(  122) = (   0.0000000   0.4500000  -0.2307692), wk =   0.0025641
        k(  123) = (   0.0000000   0.4500000  -0.1538462), wk =   0.0025641
        k(  124) = (  -0.0000000   0.4500000  -0.0769231), wk =   0.0025641
        k(  125) = (  -0.0000000  -0.5000000  -0.0000000), wk =   0.0012821
        k(  126) = (  -0.0000000  -0.5000000   0.0769231), wk =   0.0025641
        k(  127) = (  -0.0000000  -0.5000000   0.1538462), wk =   0.0025641
        k(  128) = (   0.0000000  -0.5000000   0.2307692), wk =   0.0025641
        k(  129) = (  -0.0000000  -0.5000000   0.3076923), wk =   0.0025641
        k(  130) = (  -0.0000000  -0.5000000   0.3846154), wk =   0.0025641
        k(  131) = (  -0.0000000  -0.5000000   0.4615385), wk =   0.0025641
        k(  132) = (   0.1666667   0.0000000   0.0000000), wk =   0.0025641
        k(  133) = (   0.1666667   0.0000000   0.0769231), wk =   0.0025641
        k(  134) = (   0.1666667   0.0000000   0.1538462), wk =   0.0025641
        k(  135) = (   0.1666667  -0.0000000   0.2307692), wk =   0.0025641
        k(  136) = (   0.1666667   0.0000000   0.3076923), wk =   0.0025641
        k(  137) = (   0.1666667  -0.0000000   0.3846154), wk =   0.0025641
        k(  138) = (   0.1666667  -0.0000000   0.4615385), wk =   0.0025641
        k(  139) = (   0.1666667   0.0000000  -0.4615385), wk =   0.0025641
        k(  140) = (   0.1666667   0.0000000  -0.3846154), wk =   0.0025641
        k(  141) = (   0.1666667  -0.0000000  -0.3076923), wk =   0.0025641
        k(  142) = (   0.1666667   0.0000000  -0.2307692), wk =   0.0025641
        k(  143) = (   0.1666667  -0.0000000  -0.1538462), wk =   0.0025641
        k(  144) = (   0.1666667  -0.0000000  -0.0769231), wk =   0.0025641
        k(  145) = (   0.1666667   0.0500000   0.0000000), wk =   0.0025641
        k(  146) = (   0.1666667   0.0500000   0.0769231), wk =   0.0025641
        k(  147) = (   0.1666667   0.0500000   0.1538462), wk =   0.0025641
        k(  148) = (   0.1666667   0.0500000   0.2307692), wk =   0.0025641
        k(  149) = (   0.1666667   0.0500000   0.3076923), wk =   0.0025641
        k(  150) = (   0.1666667   0.0500000   0.3846154), wk =   0.0025641
        k(  151) = (   0.1666667   0.0500000   0.4615385), wk =   0.0025641
        k(  152) = (   0.1666667   0.0500000  -0.4615385), wk =   0.0025641
        k(  153) = (   0.1666667   0.0500000  -0.3846154), wk =   0.0025641
        k(  154) = (   0.1666667   0.0500000  -0.3076923), wk =   0.0025641
[...]
    -0.0108

          k =-0.1666-1.8554 1.0089 ( 11594 PWs)   bands (ev):

    -3.6521  -3.6507  -3.0989  -3.0972  -2.2102  -2.2080  -1.7046  -1.7024
    -0.7814  -0.7807   0.5594   0.5618   0.8535   0.8539   1.8717   1.8758
     2.2629   2.2653   2.3590   2.3594   3.5003   3.5003   3.8048   3.8056
     3.9444   3.9488   4.4607   4.4635   4.6461   4.6476   5.6480   5.6500
     5.7272   5.7277   6.0656   6.0702   6.8170   6.8175   7.5069   7.5104
     7.7616

     occupation numbers 
     1.0000   1.0000   1.0000   1.0000   1.0000   1.0000   1.0000   1.0000
     1.0000   1.0000   1.0000   1.0000   1.0000   1.0000   1.0000   1.0000
     1.0000   1.0000   1.0000   1.0000   1.0000   1.0000   1.0000   1.0000
     1.0000   1.0000   1.0000   1.0000   1.0000   1.0000   1.0163   1.0164
     1.0221   1.0221   1.0301   1.0296   0.3389   0.3382  -0.0336  -0.0334
    -0.0157

     the Fermi energy is     6.7004 ev

!    total energy              =    -473.15923297 Ry
     Harris-Foulkes estimate   =    -473.15923297 Ry
     estimated scf accuracy    <          2.9E-13 Ry

     The total energy is the sum of the following terms:

     one-electron contribution =      36.47181989 Ry
     hartree contribution      =      13.19737617 Ry
     xc contribution           =     -90.17197782 Ry
     ewald contribution        =    -119.78392019 Ry
     one-center paw contrib.   =    -312.87117196 Ry
      -> PAW hartree energy AE =       0.81658905 Ry
      -> PAW hartree energy PS =      -0.81473282 Ry
      -> PAW xc energy AE      =     -32.62106781 Ry
      -> PAW xc energy PS      =       1.32492022 Ry
      -> total E_H with PAW    =      13.19923240 Ry
      -> total E_XC with PAW   =    -121.46812541 Ry
     smearing contrib. (-TS)   =      -0.00135905 Ry

     convergence has been achieved in  22 iterations

     Forces acting on atoms (cartesian axes, Ry/au):

     atom    1 type  1   force =    -0.00000422   -0.00000048    0.00000103
     atom    2 type  1   force =    -0.00043408   -0.00000475    0.00001552
     atom    3 type  1   force =    -0.00062371   -0.00000104   -0.00011258
     atom    4 type  1   force =     0.00062382    0.00000106    0.00011195
     atom    5 type  1   force =     0.00043431    0.00000477   -0.00001544
     atom    6 type  2   force =     0.00005448    0.00002457    0.00042431
     atom    7 type  2   force =    -0.00009798    0.00001928    0.00104591
     atom    8 type  2   force =    -0.00058768    0.00000896   -0.00060706
     atom    9 type  2   force =     0.00058910   -0.00000888    0.00060723
     atom   10 type  2   force =     0.00009797   -0.00001933   -0.00104577
     atom   11 type  2   force =    -0.00005390   -0.00002462   -0.00042473
     atom   12 type  1   force =     0.00000022    0.00000042   -0.00000032
     atom   13 type  1   force =    -0.00044723   -0.00000546    0.00002794
     atom   14 type  1   force =    -0.00063275   -0.00000161   -0.00011326
     atom   15 type  1   force =     0.00063205    0.00000159    0.00011279
     atom   16 type  1   force =     0.00044747    0.00000549   -0.00002763
     atom   17 type  2   force =     0.00006769    0.00002616    0.00041569
     atom   18 type  2   force =    -0.00010590    0.00002048    0.00104326
     atom   19 type  2   force =    -0.00059351    0.00000915   -0.00060170
     atom   20 type  2   force =     0.00059306   -0.00000927    0.00060217
     atom   21 type  2   force =     0.00010646   -0.00002032   -0.00104329
     atom   22 type  2   force =    -0.00006569   -0.00002616   -0.00041603
     The non-local contrib.  to forces
     atom    1 type  1   force =    -0.00002158    0.00000215   -0.00000098
     atom    2 type  1   force =     0.00736588    0.00010447    0.01099166
     atom    3 type  1   force =     0.01706790    0.00005112    0.00315857
     atom    4 type  1   force =    -0.01708433   -0.00005123   -0.00316070
     atom    5 type  1   force =    -0.00737718   -0.00010417   -0.01099511
     atom    6 type  2   force =     0.00000670   -0.00011389   -0.06321380
     atom    7 type  2   force =     0.04419290   -0.00003470    0.01445717
     atom    8 type  2   force =    -0.01374357   -0.00003180    0.02668296
     atom    9 type  2   force =     0.01374335    0.00003178   -0.02668036
     atom   10 type  2   force =    -0.04419530    0.00003455   -0.01445644
     atom   11 type  2   force =    -0.00000463    0.00011381    0.06321282
     atom   12 type  1   force =    -0.00000349   -0.00000226    0.00000127
     atom   13 type  1   force =     0.00732830    0.00010580    0.01102796
     atom   14 type  1   force =     0.01704667    0.00005134    0.00315694
     atom   15 type  1   force =    -0.01706383   -0.00005115   -0.00315815
     atom   16 type  1   force =    -0.00733872   -0.00010592   -0.01103316
     atom   17 type  2   force =     0.00002497   -0.00011669   -0.06322621
     atom   18 type  2   force =     0.04417951   -0.00003315    0.01446004
     atom   19 type  2   force =    -0.01374366   -0.00003268    0.02668938
     atom   20 type  2   force =     0.01374209    0.00003254   -0.02668526
     atom   21 type  2   force =    -0.04417922    0.00003338   -0.01445962
     atom   22 type  2   force =    -0.00002054    0.00011677    0.06322637
     The ionic contribution  to forces
     atom    1 type  1   force =    -0.00002177   -0.00000002   -0.00001821
     atom    2 type  1   force =    -0.41760717    0.00087913   -0.38967399
     atom    3 type  1   force =    -0.25418082   -0.00019294    0.19898684
     atom    4 type  1   force =     0.25417860    0.00019312   -0.19898330
     atom    5 type  1   force =     0.41757800   -0.00087885    0.38968227
     atom    6 type  2   force =    -0.24417043    0.00038999    1.18109781
     atom    7 type  2   force =    -1.16201289    0.00052086   -1.24662971
     atom    8 type  2   force =    -0.10077079   -0.00120159    0.73674250
     atom    9 type  2   force =     0.10078493    0.00120167   -0.73673437
     atom   10 type  2   force =     1.16205348   -0.00052102    1.24661817
     atom   11 type  2   force =     0.24419198   -0.00039033   -1.18110067
     atom   12 type  1   force =    -0.00004411    0.00000001    0.00000735
     atom   13 type  1   force =    -0.41782416    0.00088032   -0.38965228
     atom   14 type  1   force =    -0.25425903   -0.00019318    0.19898460
     atom   15 type  1   force =     0.25425346    0.00019326   -0.19897810
     atom   16 type  1   force =     0.41779304   -0.00088015    0.38965907
     atom   17 type  2   force =    -0.24422932    0.00038926    1.18107119
     atom   18 type  2   force =    -1.16205645    0.00052302   -1.24671096
     atom   19 type  2   force =    -0.10093466   -0.00120016    0.73671903
     atom   20 type  2   force =     0.10094253    0.00119967   -0.73671235
     atom   21 type  2   force =     1.16208961   -0.00052246    1.24669735
     atom   22 type  2   force =     0.24424597   -0.00038962   -1.18107224
     The local contribution  to forces
     atom    1 type  1   force =     0.00003460   -0.00000237    0.00001973
     atom    2 type  1   force =     0.41079924   -0.00097279    0.37920816
     atom    3 type  1   force =     0.23840061    0.00014629   -0.20169846
     atom    4 type  1   force =    -0.23838774   -0.00014633    0.20169555
     atom    5 type  1   force =    -0.41076392    0.00097229   -0.37921396
     atom    6 type  2   force =     0.24406705   -0.00026306   -1.12358152
     atom    7 type  2   force =     1.12198925   -0.00047091    1.23430374
     atom    8 type  2   force =     0.11251298    0.00123841   -0.76107569
     atom    9 type  2   force =    -0.11252514   -0.00123843    0.76106722
     atom   10 type  2   force =    -1.12202776    0.00047111   -1.23429241
     atom   11 type  2   force =    -0.24408824    0.00026341    1.12358510
     atom   12 type  1   force =     0.00004546    0.00000245   -0.00000907
     atom   13 type  1   force =     0.41103598   -0.00097586    0.37916675
     atom   14 type  1   force =     0.23848862    0.00014577   -0.20169543
     atom   15 type  1   force =    -0.23847245   -0.00014602    0.20168891
     atom   16 type  1   force =    -0.41099943    0.00097585   -0.37916930
     atom   17 type  2   force =     0.24412294   -0.00025830   -1.12355246
     atom   18 type  2   force =     1.12203693   -0.00047326    1.23437970
     atom   19 type  2   force =     0.11267120    0.00123796   -0.76105261
     atom   20 type  2   force =    -0.11267748   -0.00123750    0.76104451
     atom   21 type  2   force =    -1.12206963    0.00047260   -1.23436617
     atom   22 type  2   force =    -0.24413985    0.00025857    1.12355331
     The core correction contribution to forces
     atom    1 type  1   force =     0.00000252   -0.00000022    0.00000015
     atom    2 type  1   force =    -0.00099410   -0.00001556   -0.00051067
     atom    3 type  1   force =    -0.00191346   -0.00000551   -0.00055986
     atom    4 type  1   force =     0.00191529    0.00000552    0.00056003
     atom    5 type  1   force =     0.00099543    0.00001553    0.00051106
     atom    6 type  2   force =     0.00014906    0.00001157    0.00612157
     atom    7 type  2   force =    -0.00426942    0.00000409   -0.00108574
     atom    8 type  2   force =     0.00141163    0.00000400   -0.00295711
     atom    9 type  2   force =    -0.00141610   -0.00000395    0.00295434
     atom   10 type  2   force =     0.00426561   -0.00000401    0.00108466
     atom   11 type  2   force =    -0.00015495   -0.00001152   -0.00612243
     atom   12 type  1   force =     0.00000036    0.00000023   -0.00000021
     atom   13 type  1   force =    -0.00098936   -0.00001571   -0.00051487
     atom   14 type  1   force =    -0.00191102   -0.00000554   -0.00055969
     atom   15 type  1   force =     0.00191292    0.00000552    0.00055977
     atom   16 type  1   force =     0.00099062    0.00001572    0.00051545
     atom   17 type  2   force =     0.00014706    0.00001189    0.00612292
     atom   18 type  2   force =    -0.00426796    0.00000392   -0.00108596
     atom   19 type  2   force =     0.00141168    0.00000409   -0.00295779
     atom   20 type  2   force =    -0.00141603   -0.00000403    0.00295486
     atom   21 type  2   force =     0.00426386   -0.00000388    0.00108491
     atom   22 type  2   force =    -0.00015320   -0.00001185   -0.00612389
     The Hubbard contrib.    to forces
     atom    1 type  1   force =     0.00000000    0.00000000    0.00000000
     atom    2 type  1   force =     0.00000000    0.00000000    0.00000000
     atom    3 type  1   force =     0.00000000    0.00000000    0.00000000
     atom    4 type  1   force =     0.00000000    0.00000000    0.00000000
     atom    5 type  1   force =     0.00000000    0.00000000    0.00000000
     atom    6 type  2   force =     0.00000000    0.00000000    0.00000000
     atom    7 type  2   force =     0.00000000    0.00000000    0.00000000
     atom    8 type  2   force =     0.00000000    0.00000000    0.00000000
     atom    9 type  2   force =     0.00000000    0.00000000    0.00000000
     atom   10 type  2   force =     0.00000000    0.00000000    0.00000000
     atom   11 type  2   force =     0.00000000    0.00000000    0.00000000
     atom   12 type  1   force =     0.00000000    0.00000000    0.00000000
     atom   13 type  1   force =     0.00000000    0.00000000    0.00000000
     atom   14 type  1   force =     0.00000000    0.00000000    0.00000000
     atom   15 type  1   force =     0.00000000    0.00000000    0.00000000
     atom   16 type  1   force =     0.00000000    0.00000000    0.00000000
     atom   17 type  2   force =     0.00000000    0.00000000    0.00000000
     atom   18 type  2   force =     0.00000000    0.00000000    0.00000000
     atom   19 type  2   force =     0.00000000    0.00000000    0.00000000
     atom   20 type  2   force =     0.00000000    0.00000000    0.00000000
     atom   21 type  2   force =     0.00000000    0.00000000    0.00000000
     atom   22 type  2   force =     0.00000000    0.00000000    0.00000000
     The SCF correction term to forces
     atom    1 type  1   force =     0.00000001   -0.00000001   -0.00000000
     atom    2 type  1   force =     0.00000006    0.00000001    0.00000003
     atom    3 type  1   force =     0.00000006    0.00000001   -0.00000002
     atom    4 type  1   force =    -0.00000001   -0.00000001    0.00000002
     atom    5 type  1   force =    -0.00000003   -0.00000001   -0.00000004
     atom    6 type  2   force =     0.00000010   -0.00000002   -0.00000008
     atom    7 type  2   force =     0.00000017   -0.00000004    0.00000010
     atom    8 type  2   force =     0.00000006   -0.00000005   -0.00000007
     atom    9 type  2   force =     0.00000006    0.00000006    0.00000006
     atom   10 type  2   force =    -0.00000007    0.00000004   -0.00000010
     atom   11 type  2   force =    -0.00000006    0.00000002    0.00000010
     atom   12 type  1   force =    -0.00000001    0.00000001   -0.00000000
     atom   13 type  1   force =     0.00000002    0.00000000    0.00000004
     atom   14 type  1   force =     0.00000000    0.00000000   -0.00000003
     atom   15 type  1   force =    -0.00000005   -0.00000000    0.00000002
     atom   16 type  1   force =    -0.00000005   -0.00000000   -0.00000003
     atom   17 type  2   force =     0.00000004    0.00000002   -0.00000010
     atom   18 type  2   force =     0.00000006   -0.00000004    0.00000010
     atom   19 type  2   force =    -0.00000008   -0.00000005   -0.00000006
     atom   20 type  2   force =    -0.00000005    0.00000005    0.00000006
     atom   21 type  2   force =    -0.00000016    0.00000004   -0.00000010
     atom   22 type  2   force =    -0.00000007   -0.00000002    0.00000009

     Total force =     0.003225     Total SCF correction =     0.000000


     Computing stress (Cartesian axis) and pressure

          total   stress  (Ry/bohr**3)                   (kbar)     P=   -3.49
  -0.00002532  -0.00000028  -0.00000820         -3.73     -0.04     -1.21
  -0.00000028  -0.00002280  -0.00000145         -0.04     -3.35     -0.21
  -0.00000820  -0.00000145  -0.00002297         -1.21     -0.21     -3.38

     kinetic stress (kbar)   1569.33      0.09      0.14
                                0.09   1592.31     -0.01
                                0.14     -0.01   1590.02

     local   stress (kbar)   -145.96     -0.04    279.36
                               -0.04   -380.81     -0.56
                              279.36     -0.56    184.12

     nonloc. stress (kbar)   1240.89     -0.09      2.61
                               -0.09   1225.55     -0.21
                                2.61     -0.21   1225.81

     hartree stress (kbar)    215.86      0.16   -125.50
                                0.16    386.29      0.50
                             -125.50      0.50    112.94

     exc-cor stress (kbar)   1971.91     -0.00      0.09
                               -0.00   1971.25     -0.01
                                0.09     -0.01   1971.28

     corecor stress (kbar)  -2751.52      0.01     -0.40
                                0.01  -2749.68      0.03
                               -0.40      0.03  -2749.73

     ewald   stress (kbar)  -2104.24     -0.17   -157.50
                               -0.17  -2048.27      0.05
                             -157.50      0.05  -2337.82

     hubbard stress (kbar)      0.00      0.00      0.00
                                0.00      0.00      0.00
                                0.00      0.00      0.00

     london  stress (kbar)      0.00      0.00      0.00
                                0.00      0.00      0.00
                                0.00      0.00      0.00

     DFT-D3  stress (kbar)      0.00      0.00      0.00
                                0.00      0.00      0.00
                                0.00      0.00      0.00

     XDM     stress (kbar)      0.00      0.00      0.00
                                0.00      0.00      0.00
                                0.00      0.00      0.00

     dft-nl  stress (kbar)      0.00      0.00      0.00
                                0.00      0.00      0.00
                                0.00      0.00      0.00

     TS-vdW  stress (kbar)      0.00      0.00      0.00
                                0.00      0.00      0.00
                                0.00      0.00      0.00



     Writing output data file aiida.save/
 
     init_run     :     22.90s CPU     23.29s WALL (       1 calls)
     electrons    :    986.52s CPU   1000.33s WALL (       1 calls)
     forces       :      9.05s CPU      9.12s WALL (       1 calls)
     stress       :     69.09s CPU     69.18s WALL (       1 calls)

     Called by init_run:
     wfcinit      :     21.08s CPU     21.41s WALL (       1 calls)
     wfcinit:atom :      0.17s CPU      0.18s WALL (     196 calls)
     wfcinit:wfcr :     19.60s CPU     19.84s WALL (     196 calls)
     potinit      :      0.61s CPU      0.62s WALL (       1 calls)
     hinit0       :      1.06s CPU      1.07s WALL (       1 calls)

     Called by electrons:
     c_bands      :    876.01s CPU    886.79s WALL (      23 calls)
     sum_band     :    105.54s CPU    107.71s WALL (      23 calls)
     v_of_rho     :      2.12s CPU      2.23s WALL (      23 calls)
     v_h          :      0.16s CPU      0.16s WALL (      23 calls)
     v_xc         :      2.11s CPU      2.23s WALL (      25 calls)
     newd         :      1.14s CPU      1.80s WALL (      23 calls)
     PAW_pot      :      0.75s CPU      0.76s WALL (      23 calls)
     mix_rho      :      0.75s CPU      0.81s WALL (      23 calls)

     Called by c_bands:
     init_us_2    :     30.51s CPU     30.94s WALL (    9604 calls)
     cegterg      :    681.30s CPU    690.34s WALL (    4508 calls)

     Called by sum_band:
     sum_band:bec :      0.61s CPU      0.61s WALL (    4508 calls)
     addusdens    :      1.12s CPU      1.80s WALL (      23 calls)

     Called by *egterg:
     h_psi        :    468.83s CPU    476.21s WALL (   18987 calls)
     s_psi        :     66.85s CPU     67.03s WALL (   18987 calls)
     g_psi        :      3.15s CPU      3.18s WALL (   14283 calls)
     cdiaghg      :     71.74s CPU     72.88s WALL (   18595 calls)
     cegterg:over :     34.53s CPU     34.74s WALL (   14283 calls)
     cegterg:upda :     26.74s CPU     27.00s WALL (   14283 calls)
     cegterg:last :     11.27s CPU     11.34s WALL (    4890 calls)
     cdiaghg:chol :      4.48s CPU      4.52s WALL (   18595 calls)
     cdiaghg:inve :      0.93s CPU      0.94s WALL (   18595 calls)
     cdiaghg:para :      9.24s CPU      9.31s WALL (   37190 calls)

     Called by h_psi:
     h_psi:pot    :    466.27s CPU    473.64s WALL (   18987 calls)
     h_psi:calbec :     66.51s CPU     67.22s WALL (   18987 calls)
     vloc_psi     :    332.25s CPU    338.78s WALL (   18987 calls)
     add_vuspsi   :     67.33s CPU     67.50s WALL (   18987 calls)

     General routines
     calbec       :     94.56s CPU     95.50s WALL (   24475 calls)
     fft          :      1.81s CPU      1.87s WALL (     324 calls)
     ffts         :      0.25s CPU      0.27s WALL (     361 calls)
     fftw         :    358.22s CPU    365.06s WALL ( 1175516 calls)
     interpolate  :      0.18s CPU      0.19s WALL (      23 calls)
 
     Parallel routines
     fft_scatt_xy :     45.38s CPU     46.32s WALL ( 1176201 calls)
     fft_scatt_yz :    140.06s CPU    142.93s WALL ( 1176201 calls)

     PAW routines
     PAW_pot      :      0.75s CPU      0.76s WALL (      23 calls)
 
     PWSCF        :  18m31.75s CPU  19m 3.05s WALL

 
   This run was terminated on:  11:43:31  22Feb2020            

=------------------------------------------------------------------------------=
   JOB DONE.
=------------------------------------------------------------------------------=
