begin
comment 22 atoms, species Al6Mg8Si8
lattice     27.4003777073     0.0000000000    -8.1576893095
lattice      0.0000000000     7.7886629638     0.0062895721
lattice      0.0000000000     0.0038880991    12.5582741638
atom      0.0381977146     0.0038995347    12.4016009240   Al  0.0 0.0    3.32999975e-06 -1.34999990e-07  3.75999972e-06
atom      2.0083832893     3.8951891508     3.6161837345   Mg  0.0 0.0   -4.46094966e-04 -2.49999981e-06 -2.59899980e-05
atom      4.2396204109     3.8982510288    10.0550530754   Mg  0.0 0.0   -8.24114938e-04  1.23349991e-05 -3.29639975e-04
atom      9.5379073078     7.7886486693    -1.8798558844   Mg  0.0 0.0    8.26074938e-04 -1.23399991e-05  3.29704975e-04
atom     11.7692016073     0.0030390069     4.5528239458   Mg  0.0 0.0    4.46034966e-04  2.57999981e-06  2.63449980e-05
atom      1.6196048284     0.0047915103     7.7237831691   Si  0.0 0.0   -2.50454981e-04  6.39499952e-06 -4.71299965e-05
atom      5.0352770058     7.7893834057     1.0949544577   Si  0.0 0.0    4.64559965e-04  1.83799986e-05  4.29924968e-04
atom      6.0101578152     0.0030304302     5.8515491025   Al  0.0 0.0   -4.02234970e-04  4.14999969e-07 -5.99764955e-04
atom      7.7673241611     3.8951977275     2.3173642342   Al  0.0 0.0    4.01784970e-04 -4.19999968e-07  5.98514955e-04
atom      8.7420791791     3.8975162925     7.0801969910   Si  0.0 0.0   -4.64309965e-04 -1.83599986e-05 -4.29414968e-04
atom     12.1578228290     3.8934366473     0.4451616155   Si  0.0 0.0    2.50229981e-04 -6.20499953e-06  4.75299964e-05
atom     13.7393385808     3.8982252988     8.3256466134   Al  0.0 0.0   -4.63999965e-06  1.34999990e-07 -3.35499975e-06
atom     15.7088351614     7.7895292094    -0.4592130912   Mg  0.0 0.0   -4.50374966e-04 -2.91999978e-06 -3.37149975e-05
atom     17.9393089577     0.0039195469     5.9730550579   Mg  0.0 0.0   -8.13544939e-04  1.20049991e-05 -3.25869976e-04
atom     23.2386536462     3.8943114696    -5.9618167362   Mg  0.0 0.0    8.14329939e-04 -1.20199991e-05  3.25729976e-04
atom     25.4691531726     3.8973676299     0.4768267519   Mg  0.0 0.0    4.49524966e-04  2.86499978e-06  3.43249974e-05
atom     15.3200023814     3.8991201333     3.6472770916   Si  0.0 0.0   -2.62769980e-04  6.53499951e-06 -2.76749979e-05
atom     18.7359347184     3.8950462060    -2.9868119891   Si  0.0 0.0    4.47554966e-04  1.88549986e-05  4.05749970e-04
atom     19.7107383377     3.8973590532     1.7759550130   Al  0.0 0.0   -4.16764969e-04  9.34999930e-07 -6.00889955e-04
atom     21.4671327815     7.7895406450    -1.7584385548   Al  0.0 0.0    4.16414969e-04 -9.24999930e-07  5.99839955e-04
atom     22.4418163271     0.0031819517     2.9980102863   Si  0.0 0.0   -4.47029966e-04 -1.89099986e-05 -4.05599970e-04
atom     25.8578144187     7.7877767059    -3.6297206089   Si  0.0 0.0    2.62504980e-04 -6.70499950e-06  2.76149979e-05
energy -2.986841602840303e+02
charge 0.0000
end
