
     Program PWSCF v.6.3 starts on 22Feb2020 at  9:44:43 

     This program is part of the open-source Quantum ESPRESSO suite
     for quantum simulation of materials; please cite
         "P. Giannozzi et al., J. Phys.:Condens. Matter 21 395502 (2009);
         "P. Giannozzi et al., J. Phys.:Condens. Matter 29 465901 (2017);
          URL http://www.quantum-espresso.org", 
     in publications or presentations arising from this work. More details at
     http://www.quantum-espresso.org/quote

 *** WARNING: using old-style file format, will disappear from next version ***

     Parallel version (MPI & OpenMP), running on      36 processor cores
     Number of MPI processes:                36
     Threads/MPI process:                     1

     MPI processes distributed on     1 nodes
     K-points division:     npool     =       4
     R & G space division:  proc/nbgrp/npool/nimage =       9
     Reading input from aiida.in
Warning: card &IONS ignored
Warning: card   !PRESS_CONV_THR = 0.05                 ! JUST FOR VOLUME RELAXATIONS ignored
Warning: card / ignored

     Current dimensions of program PWSCF are:
     Max number of different atomic species (ntypx) = 10
     Max number of k-points (npk) =  40000
     Max angular momentum in pseudopotentials (lmaxx) =  3
               file Al.pbe-n-kjpaw_psl.1.0.0.UPF: wavefunction(s)  3S 3P renormalized
               file Mg.pbe-n-kjpaw_psl.0.3.0.UPF: wavefunction(s)  3S renormalized

     Subspace diagonalization in iterative solution of the eigenvalue problem:
     one sub-group per band group will be used
     scalapack distributed-memory algorithm (size of sub-group:  2*  2 procs)

 
     Parallelization info
     --------------------
     sticks:   dense  smooth     PW     G-vecs:    dense   smooth      PW
     Min         787     315     91                40255    10191    1589
     Max         787     316     92                40258    10193    1591
     Sum        7083    2841    823               362313    91733   14309
 


     bravais-lattice index     =            0
     lattice parameter (alat)  =      28.6152  a.u.
     unit-cell volume          =    2682.7730 (a.u.)^3
     number of atoms/cell      =           22
     number of atomic types    =            3
     number of electrons       =        66.00
     number of Kohn-Sham states=           40
     kinetic-energy cutoff     =      40.0000  Ry
     charge density cutoff     =     400.0000  Ry
     convergence threshold     =      1.0E-12
     mixing beta               =       0.4000
     number of iterations used =            8  local-TF  mixing
     Exchange-correlation      = PBE ( 1  4  3  4 0 0)

     celldm(1)=  28.615227  celldm(2)=   0.000000  celldm(3)=   0.000000
     celldm(4)=   0.000000  celldm(5)=   0.000000  celldm(6)=   0.000000

     crystal axes: (cart. coord. in units of alat)
               a(1) = (   0.958503   0.000000  -0.285082 )  
               a(2) = (   0.000000   0.272186   0.000000 )  
               a(3) = (   0.000000   0.000000   0.438867 )  

     reciprocal axes: (cart. coord. in units 2 pi/alat)
               b(1) = (  1.043293  0.000000  0.000000 )  
               b(2) = (  0.000000  3.673955  0.000000 )  
               b(3) = (  0.677709  0.000000  2.278596 )  


     PseudoPot. # 1 for Al read from file:
     /users/aglensk/Dropbox/Albert/scripts/dotfiles/scripts/potentials/quantum_espresso/pseudo_SSSPefV1.1_alalloy/Al.pbe-n-kjpaw_psl.1.0.0.UPF
     MD5 check sum: cfc449ca30b5f3223ec38ddd88ac046d
     Pseudo is Projector augmented-wave + core cor, Zval =  3.0
     Generated using "atomic" code by A. Dal Corso v.5.1
     Shape of augmentation charge: PSQ
     Using radial grid of 1135 points,  6 beta functions with: 
                l(1) =   0
                l(2) =   0
                l(3) =   1
                l(4) =   1
                l(5) =   2
                l(6) =   2
     Q(r) pseudized with 0 coefficients 


     PseudoPot. # 2 for Mg read from file:
     /users/aglensk/Dropbox/Albert/scripts/dotfiles/scripts/potentials/quantum_espresso/pseudo_SSSPefV1.1_alalloy/Mg.pbe-n-kjpaw_psl.0.3.0.UPF
     MD5 check sum: 24ecedc7f3e3cbe212e682f4413594e4
     Pseudo is Projector augmented-wave + core cor, Zval =  2.0
     Generated using "atomic" code by A. Dal Corso v.5.0.99 svn rev. 10869
     Shape of augmentation charge: PSQ
     Using radial grid of 1129 points,  4 beta functions with: 
                l(1) =   0
                l(2) =   0
                l(3) =   1
                l(4) =   1
     Q(r) pseudized with 0 coefficients 


     PseudoPot. # 3 for Si read from file:
     /users/aglensk/Dropbox/Albert/scripts/dotfiles/scripts/potentials/quantum_espresso/pseudo_SSSPefV1.1_alalloy/Si.pbe-n-rrkjus_psl.1.0.0.UPF
     MD5 check sum: 0b0bb1205258b0d07b9f9672cf965d36
     Pseudo is Ultrasoft + core correction, Zval =  4.0
     Generated using "atomic" code by A. Dal Corso v.5.1
     Using radial grid of 1141 points,  6 beta functions with: 
                l(1) =   0
                l(2) =   0
                l(3) =   1
                l(4) =   1
                l(5) =   2
                l(6) =   2
     Q(r) pseudized with 0 coefficients 


     atomic species   valence    mass     pseudopotential
        Al             3.00    26.98154     Al( 1.00)
        Mg             2.00    24.30500     Mg( 1.00)
        Si             4.00    28.08500     Si( 1.00)

     No symmetry found


                                    s                        frac. trans.

      isym =  1     identity                                     

 cryst.   s( 1) = (     1          0          0      )
                  (     0          1          0      )
                  (     0          0          1      )

 cart.    s( 1) = (  1.0000000  0.0000000  0.0000000 )
                  (  0.0000000  1.0000000  0.0000000 )
                  ( -0.0000000  0.0000000  1.0000000 )


   Cartesian axes

     site n.     atom                  positions (alat units)
         1           Al  tau(   1) = (   0.0011165   0.0000000   0.4334598  )
         2           Mg  tau(   2) = (   0.0700278   0.1360931   0.1263391  )
         3           Mg  tau(   3) = (   0.1480692   0.1360931   0.3513267  )
         4           Mg  tau(   4) = (   0.3334076   0.0000000  -0.0658528  )
         5           Mg  tau(   5) = (   0.4114502   0.0000000   0.1591392  )
         6           Si  tau(   6) = (   0.0564164   0.0000000   0.2699521  )
         7           Si  tau(   7) = (   0.1759287   0.0000000   0.0381191  )
         8           Al  tau(   8) = (   0.2099803   0.0000000   0.2045800  )
         9           Al  tau(   9) = (   0.2714934   0.1360931   0.0808933  )
        10           Si  tau(  10) = (   0.3055409   0.1360931   0.2473534  )
        11           Si  tau(  11) = (   0.4250556   0.1360931   0.0155243  )
        12           Al  tau(  12) = (   0.4803580   0.1360931   0.2908844  )
        13           Mg  tau(  13) = (   0.5492653   0.0000000  -0.0162588  )
        14           Mg  tau(  14) = (   0.6273087   0.0000000   0.2087705  )
        15           Mg  tau(  15) = (   0.8126713   0.1360931  -0.2083782  )
        16           Mg  tau(  16) = (   0.8907158   0.1360931   0.0166555  )
        17           Si  tau(  17) = (   0.5356564   0.1360931   0.1273822  )
        18           Si  tau(  18) = (   0.6551818   0.1360931  -0.1044332  )
        19           Al  tau(  19) = (   0.6892256   0.1360931   0.0620305  )
        20           Al  tau(  20) = (   0.7507511   0.0000000  -0.0616387  )
        21           Si  tau(  21) = (   0.7847909   0.0000000   0.1048241  )
        22           Si  tau(  22) = (   0.9043189   0.0000000  -0.1269873  )

   Crystallographic axes

     site n.     atom                  positions (cryst. coord.)
         1           Al  tau(   1) = (  0.0011648  0.0000000  0.9884365  )
         2           Mg  tau(   2) = (  0.0730595  0.5000000  0.3353341  )
         3           Mg  tau(   3) = (  0.1544796  0.5000000  0.9008795  )
         4           Mg  tau(   4) = (  0.3478419  0.0000000  0.0759012  )
         5           Mg  tau(   5) = (  0.4292633  0.0000000  0.6414574  )
         6           Si  tau(   6) = (  0.0588588  0.0000000  0.6533456  )
         7           Si  tau(   7) = (  0.1835452  0.0000000  0.2060864  )
         8           Al  tau(   8) = (  0.2190710  0.0000000  0.6084606  )
         9           Al  tau(   9) = (  0.2832472  0.5000000  0.3683166  )
        10           Si  tau(  10) = (  0.3187688  0.5000000  0.7706862  )
        11           Si  tau(  11) = (  0.4434577  0.5000000  0.3234376  )
        12           Al  tau(  12) = (  0.5011543  0.5000000  0.9883508  )
        13           Mg  tau(  13) = (  0.5730448  0.0000000  0.3351946  )
        14           Mg  tau(  14) = (  0.6544670  0.0000000  0.9008363  )
        15           Mg  tau(  15) = (  0.8478545  0.5000000  0.0759448  )
        16           Mg  tau(  16) = (  0.9292778  0.5000000  0.6415970  )
        17           Si  tau(  17) = (  0.5588467  0.5000000  0.6532715  )
        18           Si  tau(  18) = (  0.6835468  0.5000000  0.2060614  )
        19           Al  tau(  19) = (  0.7190645  0.5000000  0.6084367  )
        20           Al  tau(  20) = (  0.7832536  0.0000000  0.3683408  )
        21           Si  tau(  21) = (  0.8187671  0.0000000  0.7707114  )
        22           Si  tau(  22) = (  0.9434698  0.0000000  0.3235120  )

     number of k points=   782  Methfessel-Paxton smearing, width (Ry)=  0.0441
                       cart. coord. in units 2pi/alat
        k(    1) = (   0.0000000   0.0000000   0.0000000), wk =   0.0012821
        k(    2) = (   0.0521314   0.0000000   0.1752766), wk =   0.0025641
        k(    3) = (   0.1042629   0.0000000   0.3505532), wk =   0.0025641
        k(    4) = (   0.1563943   0.0000000   0.5258299), wk =   0.0025641
        k(    5) = (   0.2085258   0.0000000   0.7011065), wk =   0.0025641
        k(    6) = (   0.2606572   0.0000000   0.8763831), wk =   0.0025641
        k(    7) = (   0.3127886   0.0000000   1.0516597), wk =   0.0025641
        k(    8) = (   0.0000000   0.1836978   0.0000000), wk =   0.0025641
        k(    9) = (   0.0521314   0.1836978   0.1752766), wk =   0.0025641
        k(   10) = (   0.1042629   0.1836978   0.3505532), wk =   0.0025641
        k(   11) = (   0.1563943   0.1836978   0.5258299), wk =   0.0025641
        k(   12) = (   0.2085258   0.1836978   0.7011065), wk =   0.0025641
        k(   13) = (   0.2606572   0.1836978   0.8763831), wk =   0.0025641
        k(   14) = (   0.3127886   0.1836978   1.0516597), wk =   0.0025641
        k(   15) = (  -0.3127886   0.1836978  -1.0516597), wk =   0.0025641
        k(   16) = (  -0.2606572   0.1836978  -0.8763831), wk =   0.0025641
        k(   17) = (  -0.2085258   0.1836978  -0.7011065), wk =   0.0025641
        k(   18) = (  -0.1563943   0.1836978  -0.5258299), wk =   0.0025641
        k(   19) = (  -0.1042629   0.1836978  -0.3505532), wk =   0.0025641
        k(   20) = (  -0.0521314   0.1836978  -0.1752766), wk =   0.0025641
        k(   21) = (   0.0000000   0.3673955   0.0000000), wk =   0.0025641
        k(   22) = (   0.0521314   0.3673955   0.1752766), wk =   0.0025641
        k(   23) = (   0.1042629   0.3673955   0.3505532), wk =   0.0025641
        k(   24) = (   0.1563943   0.3673955   0.5258299), wk =   0.0025641
        k(   25) = (   0.2085258   0.3673955   0.7011065), wk =   0.0025641
        k(   26) = (   0.2606572   0.3673955   0.8763831), wk =   0.0025641
        k(   27) = (   0.3127886   0.3673955   1.0516597), wk =   0.0025641
        k(   28) = (  -0.3127886   0.3673955  -1.0516597), wk =   0.0025641
        k(   29) = (  -0.2606572   0.3673955  -0.8763831), wk =   0.0025641
        k(   30) = (  -0.2085258   0.3673955  -0.7011065), wk =   0.0025641
        k(   31) = (  -0.1563943   0.3673955  -0.5258299), wk =   0.0025641
        k(   32) = (  -0.1042629   0.3673955  -0.3505532), wk =   0.0025641
        k(   33) = (  -0.0521314   0.3673955  -0.1752766), wk =   0.0025641
        k(   34) = (   0.0000000   0.5510933   0.0000000), wk =   0.0025641
        k(   35) = (   0.0521314   0.5510933   0.1752766), wk =   0.0025641
        k(   36) = (   0.1042629   0.5510933   0.3505532), wk =   0.0025641
        k(   37) = (   0.1563943   0.5510933   0.5258299), wk =   0.0025641
        k(   38) = (   0.2085258   0.5510933   0.7011065), wk =   0.0025641
        k(   39) = (   0.2606572   0.5510933   0.8763831), wk =   0.0025641
        k(   40) = (   0.3127886   0.5510933   1.0516597), wk =   0.0025641
        k(   41) = (  -0.3127886   0.5510933  -1.0516597), wk =   0.0025641
        k(   42) = (  -0.2606572   0.5510933  -0.8763831), wk =   0.0025641
        k(   43) = (  -0.2085258   0.5510933  -0.7011065), wk =   0.0025641
        k(   44) = (  -0.1563943   0.5510933  -0.5258299), wk =   0.0025641
        k(   45) = (  -0.1042629   0.5510933  -0.3505532), wk =   0.0025641
        k(   46) = (  -0.0521314   0.5510933  -0.1752766), wk =   0.0025641
        k(   47) = (   0.0000000   0.7347911   0.0000000), wk =   0.0025641
        k(   48) = (   0.0521314   0.7347911   0.1752766), wk =   0.0025641
        k(   49) = (   0.1042629   0.7347911   0.3505532), wk =   0.0025641
        k(   50) = (   0.1563943   0.7347911   0.5258299), wk =   0.0025641
        k(   51) = (   0.2085258   0.7347911   0.7011065), wk =   0.0025641
        k(   52) = (   0.2606572   0.7347911   0.8763831), wk =   0.0025641
        k(   53) = (   0.3127886   0.7347911   1.0516597), wk =   0.0025641
        k(   54) = (  -0.3127886   0.7347911  -1.0516597), wk =   0.0025641
        k(   55) = (  -0.2606572   0.7347911  -0.8763831), wk =   0.0025641
        k(   56) = (  -0.2085258   0.7347911  -0.7011065), wk =   0.0025641
        k(   57) = (  -0.1563943   0.7347911  -0.5258299), wk =   0.0025641
        k(   58) = (  -0.1042629   0.7347911  -0.3505532), wk =   0.0025641
        k(   59) = (  -0.0521314   0.7347911  -0.1752766), wk =   0.0025641
        k(   60) = (   0.0000000   0.9184889   0.0000000), wk =   0.0025641
        k(   61) = (   0.0521314   0.9184889   0.1752766), wk =   0.0025641
        k(   62) = (   0.1042629   0.9184889   0.3505532), wk =   0.0025641
        k(   63) = (   0.1563943   0.9184889   0.5258299), wk =   0.0025641
        k(   64) = (   0.2085258   0.9184889   0.7011065), wk =   0.0025641
        k(   65) = (   0.2606572   0.9184889   0.8763831), wk =   0.0025641
        k(   66) = (   0.3127886   0.9184889   1.0516597), wk =   0.0025641
        k(   67) = (  -0.3127886   0.9184889  -1.0516597), wk =   0.0025641
        k(   68) = (  -0.2606572   0.9184889  -0.8763831), wk =   0.0025641
        k(   69) = (  -0.2085258   0.9184889  -0.7011065), wk =   0.0025641
        k(   70) = (  -0.1563943   0.9184889  -0.5258299), wk =   0.0025641
        k(   71) = (  -0.1042629   0.9184889  -0.3505532), wk =   0.0025641
        k(   72) = (  -0.0521314   0.9184889  -0.1752766), wk =   0.0025641
        k(   73) = (   0.0000000   1.1021866   0.0000000), wk =   0.0025641
        k(   74) = (   0.0521314   1.1021866   0.1752766), wk =   0.0025641
        k(   75) = (   0.1042629   1.1021866   0.3505532), wk =   0.0025641
        k(   76) = (   0.1563943   1.1021866   0.5258299), wk =   0.0025641
        k(   77) = (   0.2085258   1.1021866   0.7011065), wk =   0.0025641
        k(   78) = (   0.2606572   1.1021866   0.8763831), wk =   0.0025641
        k(   79) = (   0.3127886   1.1021866   1.0516597), wk =   0.0025641
        k(   80) = (  -0.3127886   1.1021866  -1.0516597), wk =   0.0025641
        k(   81) = (  -0.2606572   1.1021866  -0.8763831), wk =   0.0025641
        k(   82) = (  -0.2085258   1.1021866  -0.7011065), wk =   0.0025641
        k(   83) = (  -0.1563943   1.1021866  -0.5258299), wk =   0.0025641
        k(   84) = (  -0.1042629   1.1021866  -0.3505532), wk =   0.0025641
        k(   85) = (  -0.0521314   1.1021866  -0.1752766), wk =   0.0025641
        k(   86) = (   0.0000000   1.2858844   0.0000000), wk =   0.0025641
        k(   87) = (   0.0521314   1.2858844   0.1752766), wk =   0.0025641
        k(   88) = (   0.1042629   1.2858844   0.3505532), wk =   0.0025641
        k(   89) = (   0.1563943   1.2858844   0.5258299), wk =   0.0025641
        k(   90) = (   0.2085258   1.2858844   0.7011065), wk =   0.0025641
        k(   91) = (   0.2606572   1.2858844   0.8763831), wk =   0.0025641
        k(   92) = (   0.3127886   1.2858844   1.0516597), wk =   0.0025641
        k(   93) = (  -0.3127886   1.2858844  -1.0516597), wk =   0.0025641
        k(   94) = (  -0.2606572   1.2858844  -0.8763831), wk =   0.0025641
        k(   95) = (  -0.2085258   1.2858844  -0.7011065), wk =   0.0025641
        k(   96) = (  -0.1563943   1.2858844  -0.5258299), wk =   0.0025641
        k(   97) = (  -0.1042629   1.2858844  -0.3505532), wk =   0.0025641
        k(   98) = (  -0.0521314   1.2858844  -0.1752766), wk =   0.0025641
        k(   99) = (   0.0000000   1.4695822   0.0000000), wk =   0.0025641
        k(  100) = (   0.0521314   1.4695822   0.1752766), wk =   0.0025641
        k(  101) = (   0.1042629   1.4695822   0.3505532), wk =   0.0025641
        k(  102) = (   0.1563943   1.4695822   0.5258299), wk =   0.0025641
        k(  103) = (   0.2085258   1.4695822   0.7011065), wk =   0.0025641
        k(  104) = (   0.2606572   1.4695822   0.8763831), wk =   0.0025641
        k(  105) = (   0.3127886   1.4695822   1.0516597), wk =   0.0025641
        k(  106) = (  -0.3127886   1.4695822  -1.0516597), wk =   0.0025641
        k(  107) = (  -0.2606572   1.4695822  -0.8763831), wk =   0.0025641
        k(  108) = (  -0.2085258   1.4695822  -0.7011065), wk =   0.0025641
        k(  109) = (  -0.1563943   1.4695822  -0.5258299), wk =   0.0025641
        k(  110) = (  -0.1042629   1.4695822  -0.3505532), wk =   0.0025641
        k(  111) = (  -0.0521314   1.4695822  -0.1752766), wk =   0.0025641
        k(  112) = (   0.0000000   1.6532800   0.0000000), wk =   0.0025641
        k(  113) = (   0.0521314   1.6532800   0.1752766), wk =   0.0025641
        k(  114) = (   0.1042629   1.6532800   0.3505532), wk =   0.0025641
        k(  115) = (   0.1563943   1.6532800   0.5258299), wk =   0.0025641
        k(  116) = (   0.2085258   1.6532800   0.7011065), wk =   0.0025641
        k(  117) = (   0.2606572   1.6532800   0.8763831), wk =   0.0025641
        k(  118) = (   0.3127886   1.6532800   1.0516597), wk =   0.0025641
        k(  119) = (  -0.3127886   1.6532800  -1.0516597), wk =   0.0025641
        k(  120) = (  -0.2606572   1.6532800  -0.8763831), wk =   0.0025641
        k(  121) = (  -0.2085258   1.6532800  -0.7011065), wk =   0.0025641
        k(  122) = (  -0.1563943   1.6532800  -0.5258299), wk =   0.0025641
        k(  123) = (  -0.1042629   1.6532800  -0.3505532), wk =   0.0025641
        k(  124) = (  -0.0521314   1.6532800  -0.1752766), wk =   0.0025641
        k(  125) = (   0.0000000  -1.8369777   0.0000000), wk =   0.0012821
        k(  126) = (   0.0521314  -1.8369777   0.1752766), wk =   0.0025641
        k(  127) = (   0.1042629  -1.8369777   0.3505532), wk =   0.0025641
        k(  128) = (   0.1563943  -1.8369777   0.5258299), wk =   0.0025641
        k(  129) = (   0.2085258  -1.8369777   0.7011065), wk =   0.0025641
        k(  130) = (   0.2606572  -1.8369777   0.8763831), wk =   0.0025641
        k(  131) = (   0.3127886  -1.8369777   1.0516597), wk =   0.0025641
        k(  132) = (   0.1738822   0.0000000   0.0000000), wk =   0.0025641
        k(  133) = (   0.2260137   0.0000000   0.1752766), wk =   0.0025641
        k(  134) = (   0.2781451   0.0000000   0.3505532), wk =   0.0025641
        k(  135) = (   0.3302765   0.0000000   0.5258299), wk =   0.0025641
        k(  136) = (   0.3824080   0.0000000   0.7011065), wk =   0.0025641
        k(  137) = (   0.4345394   0.0000000   0.8763831), wk =   0.0025641
        k(  138) = (   0.4866709   0.0000000   1.0516597), wk =   0.0025641
        k(  139) = (  -0.1389064   0.0000000  -1.0516597), wk =   0.0025641
        k(  140) = (  -0.0867750   0.0000000  -0.8763831), wk =   0.0025641
        k(  141) = (  -0.0346435   0.0000000  -0.7011065), wk =   0.0025641
        k(  142) = (   0.0174879   0.0000000  -0.5258299), wk =   0.0025641
        k(  143) = (   0.0696193   0.0000000  -0.3505532), wk =   0.0025641
        k(  144) = (   0.1217508   0.0000000  -0.1752766), wk =   0.0025641
        k(  145) = (   0.1738822   0.1836978   0.0000000), wk =   0.0025641
        k(  146) = (   0.2260137   0.1836978   0.1752766), wk =   0.0025641
        k(  147) = (   0.2781451   0.1836978   0.3505532), wk =   0.0025641
        k(  148) = (   0.3302765   0.1836978   0.5258299), wk =   0.0025641
        k(  149) = (   0.3824080   0.1836978   0.7011065), wk =   0.0025641
        k(  150) = (   0.4345394   0.1836978   0.8763831), wk =   0.0025641
        k(  151) = (   0.4866709   0.1836978   1.0516597), wk =   0.0025641
        k(  152) = (  -0.1389064   0.1836978  -1.0516597), wk =   0.0025641
        k(  153) = (  -0.0867750   0.1836978  -0.8763831), wk =   0.0025641
        k(  154) = (  -0.0346435   0.1836978  -0.7011065), wk =   0.0025641
        k(  155) = (   0.0174879   0.1836978  -0.5258299), wk =   0.0025641
        k(  156) = (   0.0696193   0.1836978  -0.3505532), wk =   0.0025641
        k(  157) = (   0.1217508   0.1836978  -0.1752766), wk =   0.0025641
        k(  158) = (   0.1738822   0.3673955   0.0000000), wk =   0.0025641
        k(  159) = (   0.2260137   0.3673955   0.1752766), wk =   0.0025641
        k(  160) = (   0.2781451   0.3673955   0.3505532), wk =   0.0025641
        k(  161) = (   0.3302765   0.3673955   0.5258299), wk =   0.0025641
        k(  162) = (   0.3824080   0.3673955   0.7011065), wk =   0.0025641
        k(  163) = (   0.4345394   0.3673955   0.8763831), wk =   0.0025641
        k(  164) = (   0.4866709   0.3673955   1.0516597), wk =   0.0025641
        k(  165) = (  -0.1389064   0.3673955  -1.0516597), wk =   0.0025641
        k(  166) = (  -0.0867750   0.3673955  -0.8763831), wk =   0.0025641
        k(  167) = (  -0.0346435   0.3673955  -0.7011065), wk =   0.0025641
        k(  168) = (   0.0174879   0.3673955  -0.5258299), wk =   0.0025641
        k(  169) = (   0.0696193   0.3673955  -0.3505532), wk =   0.0025641
        k(  170) = (   0.1217508   0.3673955  -0.1752766), wk =   0.0025641
        k(  171) = (   0.1738822   0.5510933   0.0000000), wk =   0.0025641
        k(  172) = (   0.2260137   0.5510933   0.1752766), wk =   0.0025641
        k(  173) = (   0.2781451   0.5510933   0.3505532), wk =   0.0025641
        k(  174) = (   0.3302765   0.5510933   0.5258299), wk =   0.0025641
        k(  175) = (   0.3824080   0.5510933   0.7011065), wk =   0.0025641
        k(  176) = (   0.4345394   0.5510933   0.8763831), wk =   0.0025641
        k(  177) = (   0.4866709   0.5510933   1.0516597), wk =   0.0025641
        k(  178) = (  -0.1389064   0.5510933  -1.0516597), wk =   0.0025641
        k(  179) = (  -0.0867750   0.5510933  -0.8763831), wk =   0.0025641
        k(  180) = (  -0.0346435   0.5510933  -0.7011065), wk =   0.0025641
        k(  181) = (   0.0174879   0.5510933  -0.5258299), wk =   0.0025641
        k(  182) = (   0.0696193   0.5510933  -0.3505532), wk =   0.0025641
        k(  183) = (   0.1217508   0.5510933  -0.1752766), wk =   0.0025641
        k(  184) = (   0.1738822   0.7347911   0.0000000), wk =   0.0025641
        k(  185) = (   0.2260137   0.7347911   0.1752766), wk =   0.0025641
        k(  186) = (   0.2781451   0.7347911   0.3505532), wk =   0.0025641
        k(  187) = (   0.3302765   0.7347911   0.5258299), wk =   0.0025641
        k(  188) = (   0.3824080   0.7347911   0.7011065), wk =   0.0025641
        k(  189) = (   0.4345394   0.7347911   0.8763831), wk =   0.0025641
        k(  190) = (   0.4866709   0.7347911   1.0516597), wk =   0.0025641
        k(  191) = (  -0.1389064   0.7347911  -1.0516597), wk =   0.0025641
        k(  192) = (  -0.0867750   0.7347911  -0.8763831), wk =   0.0025641
        k(  193) = (  -0.0346435   0.7347911  -0.7011065), wk =   0.0025641
        k(  194) = (   0.0174879   0.7347911  -0.5258299), wk =   0.0025641
        k(  195) = (   0.0696193   0.7347911  -0.3505532), wk =   0.0025641
        k(  196) = (   0.1217508   0.7347911  -0.1752766), wk =   0.0025641
        k(  197) = (   0.1738822   0.9184889   0.0000000), wk =   0.0025641
        k(  198) = (   0.2260137   0.9184889   0.1752766), wk =   0.0025641
        k(  199) = (   0.2781451   0.9184889   0.3505532), wk =   0.0025641
        k(  200) = (   0.3302765   0.9184889   0.5258299), wk =   0.0025641
        k(  201) = (   0.3824080   0.9184889   0.7011065), wk =   0.0025641
        k(  202) = (   0.4345394   0.9184889   0.8763831), wk =   0.0025641
        k(  203) = (   0.4866709   0.9184889   1.0516597), wk =   0.0025641
        k(  204) = (  -0.1389064   0.9184889  -1.0516597), wk =   0.0025641
        k(  205) = (  -0.0867750   0.9184889  -0.8763831), wk =   0.0025641
        k(  206) = (  -0.0346435   0.9184889  -0.7011065), wk =   0.0025641
        k(  207) = (   0.0174879   0.9184889  -0.5258299), wk =   0.0025641
        k(  208) = (   0.0696193   0.9184889  -0.3505532), wk =   0.0025641
        k(  209) = (   0.1217508   0.9184889  -0.1752766), wk =   0.0025641
        k(  210) = (   0.1738822   1.1021866   0.0000000), wk =   0.0025641
        k(  211) = (   0.2260137   1.1021866   0.1752766), wk =   0.0025641
        k(  212) = (   0.2781451   1.1021866   0.3505532), wk =   0.0025641
        k(  213) = (   0.3302765   1.1021866   0.5258299), wk =   0.0025641
        k(  214) = (   0.3824080   1.1021866   0.7011065), wk =   0.0025641
        k(  215) = (   0.4345394   1.1021866   0.8763831), wk =   0.0025641
        k(  216) = (   0.4866709   1.1021866   1.0516597), wk =   0.0025641
        k(  217) = (  -0.1389064   1.1021866  -1.0516597), wk =   0.0025641
        k(  218) = (  -0.0867750   1.1021866  -0.8763831), wk =   0.0025641
        k(  219) = (  -0.0346435   1.1021866  -0.7011065), wk =   0.0025641
        k(  220) = (   0.0174879   1.1021866  -0.5258299), wk =   0.0025641
        k(  221) = (   0.0696193   1.1021866  -0.3505532), wk =   0.0025641
        k(  222) = (   0.1217508   1.1021866  -0.1752766), wk =   0.0025641
        k(  223) = (   0.1738822   1.2858844   0.0000000), wk =   0.0025641
        k(  224) = (   0.2260137   1.2858844   0.1752766), wk =   0.0025641
        k(  225) = (   0.2781451   1.2858844   0.3505532), wk =   0.0025641
        k(  226) = (   0.3302765   1.2858844   0.5258299), wk =   0.0025641
        k(  227) = (   0.3824080   1.2858844   0.7011065), wk =   0.0025641
        k(  228) = (   0.4345394   1.2858844   0.8763831), wk =   0.0025641
        k(  229) = (   0.4866709   1.2858844   1.0516597), wk =   0.0025641
        k(  230) = (  -0.1389064   1.2858844  -1.0516597), wk =   0.0025641
        k(  231) = (  -0.0867750   1.2858844  -0.8763831), wk =   0.0025641
        k(  232) = (  -0.0346435   1.2858844  -0.7011065), wk =   0.0025641
        k(  233) = (   0.0174879   1.2858844  -0.5258299), wk =   0.0025641
        k(  234) = (   0.0696193   1.2858844  -0.3505532), wk =   0.0025641
        k(  235) = (   0.1217508   1.2858844  -0.1752766), wk =   0.0025641
        k(  236) = (   0.1738822   1.4695822   0.0000000), wk =   0.0025641
        k(  237) = (   0.2260137   1.4695822   0.1752766), wk =   0.0025641
        k(  238) = (   0.2781451   1.4695822   0.3505532), wk =   0.0025641
        k(  239) = (   0.3302765   1.4695822   0.5258299), wk =   0.0025641
        k(  240) = (   0.3824080   1.4695822   0.7011065), wk =   0.0025641
        k(  241) = (   0.4345394   1.4695822   0.8763831), wk =   0.0025641
        k(  242) = (   0.4866709   1.4695822   1.0516597), wk =   0.0025641
        k(  243) = (  -0.1389064   1.4695822  -1.0516597), wk =   0.0025641
        k(  244) = (  -0.0867750   1.4695822  -0.8763831), wk =   0.0025641
        k(  245) = (  -0.0346435   1.4695822  -0.7011065), wk =   0.0025641
        k(  246) = (   0.0174879   1.4695822  -0.5258299), wk =   0.0025641
        k(  247) = (   0.0696193   1.4695822  -0.3505532), wk =   0.0025641
        k(  248) = (   0.1217508   1.4695822  -0.1752766), wk =   0.0025641
        k(  249) = (   0.1738822   1.6532800   0.0000000), wk =   0.0025641
        k(  250) = (   0.2260137   1.6532800   0.1752766), wk =   0.0025641
        k(  251) = (   0.2781451   1.6532800   0.3505532), wk =   0.0025641
        k(  252) = (   0.3302765   1.6532800   0.5258299), wk =   0.0025641
        k(  253) = (   0.3824080   1.6532800   0.7011065), wk =   0.0025641
        k(  254) = (   0.4345394   1.6532800   0.8763831), wk =   0.0025641
        k(  255) = (   0.4866709   1.6532800   1.0516597), wk =   0.0025641
        k(  256) = (  -0.1389064   1.6532800  -1.0516597), wk =   0.0025641
        k(  257) = (  -0.0867750   1.6532800  -0.8763831), wk =   0.0025641
        k(  258) = (  -0.0346435   1.6532800  -0.7011065), wk =   0.0025641
        k(  259) = (   0.0174879   1.6532800  -0.5258299), wk =   0.0025641
        k(  260) = (   0.0696193   1.6532800  -0.3505532), wk =   0.0025641
        k(  261) = (   0.1217508   1.6532800  -0.1752766), wk =   0.0025641
        k(  262) = (   0.1738822  -1.8369777   0.0000000), wk =   0.0025641
        k(  263) = (   0.2260137  -1.8369777   0.1752766), wk =   0.0025641
        k(  264) = (   0.2781451  -1.8369777   0.3505532), wk =   0.0025641
        k(  265) = (   0.3302765  -1.8369777   0.5258299), wk =   0.0025641
        k(  266) = (   0.3824080  -1.8369777   0.7011065), wk =   0.0025641
        k(  267) = (   0.4345394  -1.8369777   0.8763831), wk =   0.0025641
        k(  268) = (   0.4866709  -1.8369777   1.0516597), wk =   0.0025641
        k(  269) = (  -0.1389064  -1.8369777  -1.0516597), wk =   0.0025641
        k(  270) = (  -0.0867750  -1.8369777  -0.8763831), wk =   0.0025641
        k(  271) = (  -0.0346435  -1.8369777  -0.7011065), wk =   0.0025641
        k(  272) = (   0.0174879  -1.8369777  -0.5258299), wk =   0.0025641
        k(  273) = (   0.0696193  -1.8369777  -0.3505532), wk =   0.0025641
        k(  274) = (   0.1217508  -1.8369777  -0.1752766), wk =   0.0025641
        k(  275) = (   0.1738822  -1.6532800   0.0000000), wk =   0.0025641
        k(  276) = (   0.2260137  -1.6532800   0.1752766), wk =   0.0025641
        k(  277) = (   0.2781451  -1.6532800   0.3505532), wk =   0.0025641
        k(  278) = (   0.3302765  -1.6532800   0.5258299), wk =   0.0025641
        k(  279) = (   0.3824080  -1.6532800   0.7011065), wk =   0.0025641
        k(  280) = (   0.4345394  -1.6532800   0.8763831), wk =   0.0025641
        k(  281) = (   0.4866709  -1.6532800   1.0516597), wk =   0.0025641
        k(  282) = (  -0.1389064  -1.6532800  -1.0516597), wk =   0.0025641
        k(  283) = (  -0.0867750  -1.6532800  -0.8763831), wk =   0.0025641
        k(  284) = (  -0.0346435  -1.6532800  -0.7011065), wk =   0.0025641
        k(  285) = (   0.0174879  -1.6532800  -0.5258299), wk =   0.0025641
        k(  286) = (   0.0696193  -1.6532800  -0.3505532), wk =   0.0025641
        k(  287) = (   0.1217508  -1.6532800  -0.1752766), wk =   0.0025641
        k(  288) = (   0.1738822  -1.4695822   0.0000000), wk =   0.0025641
        k(  289) = (   0.2260137  -1.4695822   0.1752766), wk =   0.0025641
        k(  290) = (   0.2781451  -1.4695822   0.3505532), wk =   0.0025641
        k(  291) = (   0.3302765  -1.4695822   0.5258299), wk =   0.0025641
        k(  292) = (   0.3824080  -1.4695822   0.7011065), wk =   0.0025641
        k(  293) = (   0.4345394  -1.4695822   0.8763831), wk =   0.0025641
        k(  294) = (   0.4866709  -1.4695822   1.0516597), wk =   0.0025641
        k(  295) = (  -0.1389064  -1.4695822  -1.0516597), wk =   0.0025641
        k(  296) = (  -0.0867750  -1.4695822  -0.8763831), wk =   0.0025641
        k(  297) = (  -0.0346435  -1.4695822  -0.7011065), wk =   0.0025641
        k(  298) = (   0.0174879  -1.4695822  -0.5258299), wk =   0.0025641
        k(  299) = (   0.0696193  -1.4695822  -0.3505532), wk =   0.0025641
        k(  300) = (   0.1217508  -1.4695822  -0.1752766), wk =   0.0025641
        k(  301) = (   0.1738822  -1.2858844   0.0000000), wk =   0.0025641
        k(  302) = (   0.2260137  -1.2858844   0.1752766), wk =   0.0025641
        k(  303) = (   0.2781451  -1.2858844   0.3505532), wk =   0.0025641
        k(  304) = (   0.3302765  -1.2858844   0.5258299), wk =   0.0025641
        k(  305) = (   0.3824080  -1.2858844   0.7011065), wk =   0.0025641
        k(  306) = (   0.4345394  -1.2858844   0.8763831), wk =   0.0025641
        k(  307) = (   0.4866709  -1.2858844   1.0516597), wk =   0.0025641
        k(  308) = (  -0.1389064  -1.2858844  -1.0516597), wk =   0.0025641
        k(  309) = (  -0.0867750  -1.2858844  -0.8763831), wk =   0.0025641
        k(  310) = (  -0.0346435  -1.2858844  -0.7011065), wk =   0.0025641
        k(  311) = (   0.0174879  -1.2858844  -0.5258299), wk =   0.0025641
        k(  312) = (   0.0696193  -1.2858844  -0.3505532), wk =   0.0025641
        k(  313) = (   0.1217508  -1.2858844  -0.1752766), wk =   0.0025641
        k(  314) = (   0.1738822  -1.1021866   0.0000000), wk =   0.0025641
        k(  315) = (   0.2260137  -1.1021866   0.1752766), wk =   0.0025641
        k(  316) = (   0.2781451  -1.1021866   0.3505532), wk =   0.0025641
        k(  317) = (   0.3302765  -1.1021866   0.5258299), wk =   0.0025641
        k(  318) = (   0.3824080  -1.1021866   0.7011065), wk =   0.0025641
        k(  319) = (   0.4345394  -1.1021866   0.8763831), wk =   0.0025641
        k(  320) = (   0.4866709  -1.1021866   1.0516597), wk =   0.0025641
        k(  321) = (  -0.1389064  -1.1021866  -1.0516597), wk =   0.0025641
        k(  322) = (  -0.0867750  -1.1021866  -0.8763831), wk =   0.0025641
        k(  323) = (  -0.0346435  -1.1021866  -0.7011065), wk =   0.0025641
        k(  324) = (   0.0174879  -1.1021866  -0.5258299), wk =   0.0025641
        k(  325) = (   0.0696193  -1.1021866  -0.3505532), wk =   0.0025641
        k(  326) = (   0.1217508  -1.1021866  -0.1752766), wk =   0.0025641
        k(  327) = (   0.1738822  -0.9184889   0.0000000), wk =   0.0025641
        k(  328) = (   0.2260137  -0.9184889   0.1752766), wk =   0.0025641
        k(  329) = (   0.2781451  -0.9184889   0.3505532), wk =   0.0025641
        k(  330) = (   0.3302765  -0.9184889   0.5258299), wk =   0.0025641
        k(  331) = (   0.3824080  -0.9184889   0.7011065), wk =   0.0025641
        k(  332) = (   0.4345394  -0.9184889   0.8763831), wk =   0.0025641
        k(  333) = (   0.4866709  -0.9184889   1.0516597), wk =   0.0025641
        k(  334) = (  -0.1389064  -0.9184889  -1.0516597), wk =   0.0025641
        k(  335) = (  -0.0867750  -0.9184889  -0.8763831), wk =   0.0025641
        k(  336) = (  -0.0346435  -0.9184889  -0.7011065), wk =   0.0025641
        k(  337) = (   0.0174879  -0.9184889  -0.5258299), wk =   0.0025641
        k(  338) = (   0.0696193  -0.9184889  -0.3505532), wk =   0.0025641
        k(  339) = (   0.1217508  -0.9184889  -0.1752766), wk =   0.0025641
        k(  340) = (   0.1738822  -0.7347911   0.0000000), wk =   0.0025641
        k(  341) = (   0.2260137  -0.7347911   0.1752766), wk =   0.0025641
        k(  342) = (   0.2781451  -0.7347911   0.3505532), wk =   0.0025641
        k(  343) = (   0.3302765  -0.7347911   0.5258299), wk =   0.0025641
        k(  344) = (   0.3824080  -0.7347911   0.7011065), wk =   0.0025641
        k(  345) = (   0.4345394  -0.7347911   0.8763831), wk =   0.0025641
        k(  346) = (   0.4866709  -0.7347911   1.0516597), wk =   0.0025641
        k(  347) = (  -0.1389064  -0.7347911  -1.0516597), wk =   0.0025641
        k(  348) = (  -0.0867750  -0.7347911  -0.8763831), wk =   0.0025641
        k(  349) = (  -0.0346435  -0.7347911  -0.7011065), wk =   0.0025641
        k(  350) = (   0.0174879  -0.7347911  -0.5258299), wk =   0.0025641
        k(  351) = (   0.0696193  -0.7347911  -0.3505532), wk =   0.0025641
        k(  352) = (   0.1217508  -0.7347911  -0.1752766), wk =   0.0025641
        k(  353) = (   0.1738822  -0.5510933   0.0000000), wk =   0.0025641
        k(  354) = (   0.2260137  -0.5510933   0.1752766), wk =   0.0025641
        k(  355) = (   0.2781451  -0.5510933   0.3505532), wk =   0.0025641
        k(  356) = (   0.3302765  -0.5510933   0.5258299), wk =   0.0025641
        k(  357) = (   0.3824080  -0.5510933   0.7011065), wk =   0.0025641
        k(  358) = (   0.4345394  -0.5510933   0.8763831), wk =   0.0025641
        k(  359) = (   0.4866709  -0.5510933   1.0516597), wk =   0.0025641
        k(  360) = (  -0.1389064  -0.5510933  -1.0516597), wk =   0.0025641
        k(  361) = (  -0.0867750  -0.5510933  -0.8763831), wk =   0.0025641
        k(  362) = (  -0.0346435  -0.5510933  -0.7011065), wk =   0.0025641
        k(  363) = (   0.0174879  -0.5510933  -0.5258299), wk =   0.0025641
        k(  364) = (   0.0696193  -0.5510933  -0.3505532), wk =   0.0025641
        k(  365) = (   0.1217508  -0.5510933  -0.1752766), wk =   0.0025641
        k(  366) = (   0.1738822  -0.3673955   0.0000000), wk =   0.0025641
        k(  367) = (   0.2260137  -0.3673955   0.1752766), wk =   0.0025641
        k(  368) = (   0.2781451  -0.3673955   0.3505532), wk =   0.0025641
        k(  369) = (   0.3302765  -0.3673955   0.5258299), wk =   0.0025641
        k(  370) = (   0.3824080  -0.3673955   0.7011065), wk =   0.0025641
        k(  371) = (   0.4345394  -0.3673955   0.8763831), wk =   0.0025641
        k(  372) = (   0.4866709  -0.3673955   1.0516597), wk =   0.0025641
        k(  373) = (  -0.1389064  -0.3673955  -1.0516597), wk =   0.0025641
        k(  374) = (  -0.0867750  -0.3673955  -0.8763831), wk =   0.0025641
        k(  375) = (  -0.0346435  -0.3673955  -0.7011065), wk =   0.0025641
        k(  376) = (   0.0174879  -0.3673955  -0.5258299), wk =   0.0025641
        k(  377) = (   0.0696193  -0.3673955  -0.3505532), wk =   0.0025641
        k(  378) = (   0.1217508  -0.3673955  -0.1752766), wk =   0.0025641
        k(  379) = (   0.1738822  -0.1836978   0.0000000), wk =   0.0025641
        k(  380) = (   0.2260137  -0.1836978   0.1752766), wk =   0.0025641
        k(  381) = (   0.2781451  -0.1836978   0.3505532), wk =   0.0025641
        k(  382) = (   0.3302765  -0.1836978   0.5258299), wk =   0.0025641
        k(  383) = (   0.3824080  -0.1836978   0.7011065), wk =   0.0025641
        k(  384) = (   0.4345394  -0.1836978   0.8763831), wk =   0.0025641
        k(  385) = (   0.4866709  -0.1836978   1.0516597), wk =   0.0025641
        k(  386) = (  -0.1389064  -0.1836978  -1.0516597), wk =   0.0025641
        k(  387) = (  -0.0867750  -0.1836978  -0.8763831), wk =   0.0025641
        k(  388) = (  -0.0346435  -0.1836978  -0.7011065), wk =   0.0025641
        k(  389) = (   0.0174879  -0.1836978  -0.5258299), wk =   0.0025641
        k(  390) = (   0.0696193  -0.1836978  -0.3505532), wk =   0.0025641
        k(  391) = (   0.1217508  -0.1836978  -0.1752766), wk =   0.0025641
        k(  392) = (   0.3477644   0.0000000   0.0000000), wk =   0.0025641
        k(  393) = (   0.3998959   0.0000000   0.1752766), wk =   0.0025641
        k(  394) = (   0.4520273   0.0000000   0.3505532), wk =   0.0025641
        k(  395) = (   0.5041588   0.0000000   0.5258299), wk =   0.0025641
        k(  396) = (   0.5562902   0.0000000   0.7011065), wk =   0.0025641
        k(  397) = (   0.6084216   0.0000000   0.8763831), wk =   0.0025641
        k(  398) = (   0.6605531   0.0000000   1.0516597), wk =   0.0025641
        k(  399) = (   0.0349758   0.0000000  -1.0516597), wk =   0.0025641
        k(  400) = (   0.0871072   0.0000000  -0.8763831), wk =   0.0025641
        k(  401) = (   0.1392387   0.0000000  -0.7011065), wk =   0.0025641
        k(  402) = (   0.1913701   0.0000000  -0.5258299), wk =   0.0025641
        k(  403) = (   0.2435016   0.0000000  -0.3505532), wk =   0.0025641
        k(  404) = (   0.2956330   0.0000000  -0.1752766), wk =   0.0025641
        k(  405) = (   0.3477644   0.1836978   0.0000000), wk =   0.0025641
        k(  406) = (   0.3998959   0.1836978   0.1752766), wk =   0.0025641
        k(  407) = (   0.4520273   0.1836978   0.3505532), wk =   0.0025641
        k(  408) = (   0.5041588   0.1836978   0.5258299), wk =   0.0025641
        k(  409) = (   0.5562902   0.1836978   0.7011065), wk =   0.0025641
        k(  410) = (   0.6084216   0.1836978   0.8763831), wk =   0.0025641
        k(  411) = (   0.6605531   0.1836978   1.0516597), wk =   0.0025641
        k(  412) = (   0.0349758   0.1836978  -1.0516597), wk =   0.0025641
        k(  413) = (   0.0871072   0.1836978  -0.8763831), wk =   0.0025641
        k(  414) = (   0.1392387   0.1836978  -0.7011065), wk =   0.0025641
        k(  415) = (   0.1913701   0.1836978  -0.5258299), wk =   0.0025641
        k(  416) = (   0.2435016   0.1836978  -0.3505532), wk =   0.0025641
        k(  417) = (   0.2956330   0.1836978  -0.1752766), wk =   0.0025641
        k(  418) = (   0.3477644   0.3673955   0.0000000), wk =   0.0025641
        k(  419) = (   0.3998959   0.3673955   0.1752766), wk =   0.0025641
        k(  420) = (   0.4520273   0.3673955   0.3505532), wk =   0.0025641
        k(  421) = (   0.5041588   0.3673955   0.5258299), wk =   0.0025641
        k(  422) = (   0.5562902   0.3673955   0.7011065), wk =   0.0025641
        k(  423) = (   0.6084216   0.3673955   0.8763831), wk =   0.0025641
        k(  424) = (   0.6605531   0.3673955   1.0516597), wk =   0.0025641
        k(  425) = (   0.0349758   0.3673955  -1.0516597), wk =   0.0025641
        k(  426) = (   0.0871072   0.3673955  -0.8763831), wk =   0.0025641
        k(  427) = (   0.1392387   0.3673955  -0.7011065), wk =   0.0025641
        k(  428) = (   0.1913701   0.3673955  -0.5258299), wk =   0.0025641
        k(  429) = (   0.2435016   0.3673955  -0.3505532), wk =   0.0025641
        k(  430) = (   0.2956330   0.3673955  -0.1752766), wk =   0.0025641
        k(  431) = (   0.3477644   0.5510933   0.0000000), wk =   0.0025641
        k(  432) = (   0.3998959   0.5510933   0.1752766), wk =   0.0025641
        k(  433) = (   0.4520273   0.5510933   0.3505532), wk =   0.0025641
        k(  434) = (   0.5041588   0.5510933   0.5258299), wk =   0.0025641
        k(  435) = (   0.5562902   0.5510933   0.7011065), wk =   0.0025641
        k(  436) = (   0.6084216   0.5510933   0.8763831), wk =   0.0025641
        k(  437) = (   0.6605531   0.5510933   1.0516597), wk =   0.0025641
        k(  438) = (   0.0349758   0.5510933  -1.0516597), wk =   0.0025641
        k(  439) = (   0.0871072   0.5510933  -0.8763831), wk =   0.0025641
        k(  440) = (   0.1392387   0.5510933  -0.7011065), wk =   0.0025641
        k(  441) = (   0.1913701   0.5510933  -0.5258299), wk =   0.0025641
        k(  442) = (   0.2435016   0.5510933  -0.3505532), wk =   0.0025641
        k(  443) = (   0.2956330   0.5510933  -0.1752766), wk =   0.0025641
        k(  444) = (   0.3477644   0.7347911   0.0000000), wk =   0.0025641
        k(  445) = (   0.3998959   0.7347911   0.1752766), wk =   0.0025641
        k(  446) = (   0.4520273   0.7347911   0.3505532), wk =   0.0025641
        k(  447) = (   0.5041588   0.7347911   0.5258299), wk =   0.0025641
        k(  448) = (   0.5562902   0.7347911   0.7011065), wk =   0.0025641
        k(  449) = (   0.6084216   0.7347911   0.8763831), wk =   0.0025641
        k(  450) = (   0.6605531   0.7347911   1.0516597), wk =   0.0025641
        k(  451) = (   0.0349758   0.7347911  -1.0516597), wk =   0.0025641
        k(  452) = (   0.0871072   0.7347911  -0.8763831), wk =   0.0025641
        k(  453) = (   0.1392387   0.7347911  -0.7011065), wk =   0.0025641
        k(  454) = (   0.1913701   0.7347911  -0.5258299), wk =   0.0025641
        k(  455) = (   0.2435016   0.7347911  -0.3505532), wk =   0.0025641
        k(  456) = (   0.2956330   0.7347911  -0.1752766), wk =   0.0025641
        k(  457) = (   0.3477644   0.9184889   0.0000000), wk =   0.0025641
        k(  458) = (   0.3998959   0.9184889   0.1752766), wk =   0.0025641
        k(  459) = (   0.4520273   0.9184889   0.3505532), wk =   0.0025641
        k(  460) = (   0.5041588   0.9184889   0.5258299), wk =   0.0025641
        k(  461) = (   0.5562902   0.9184889   0.7011065), wk =   0.0025641
        k(  462) = (   0.6084216   0.9184889   0.8763831), wk =   0.0025641
        k(  463) = (   0.6605531   0.9184889   1.0516597), wk =   0.0025641
        k(  464) = (   0.0349758   0.9184889  -1.0516597), wk =   0.0025641
        k(  465) = (   0.0871072   0.9184889  -0.8763831), wk =   0.0025641
        k(  466) = (   0.1392387   0.9184889  -0.7011065), wk =   0.0025641
        k(  467) = (   0.1913701   0.9184889  -0.5258299), wk =   0.0025641
        k(  468) = (   0.2435016   0.9184889  -0.3505532), wk =   0.0025641
        k(  469) = (   0.2956330   0.9184889  -0.1752766), wk =   0.0025641
        k(  470) = (   0.3477644   1.1021866   0.0000000), wk =   0.0025641
        k(  471) = (   0.3998959   1.1021866   0.1752766), wk =   0.0025641
        k(  472) = (   0.4520273   1.1021866   0.3505532), wk =   0.0025641
        k(  473) = (   0.5041588   1.1021866   0.5258299), wk =   0.0025641
        k(  474) = (   0.5562902   1.1021866   0.7011065), wk =   0.0025641
        k(  475) = (   0.6084216   1.1021866   0.8763831), wk =   0.0025641
        k(  476) = (   0.6605531   1.1021866   1.0516597), wk =   0.0025641
        k(  477) = (   0.0349758   1.1021866  -1.0516597), wk =   0.0025641
        k(  478) = (   0.0871072   1.1021866  -0.8763831), wk =   0.0025641
        k(  479) = (   0.1392387   1.1021866  -0.7011065), wk =   0.0025641
        k(  480) = (   0.1913701   1.1021866  -0.5258299), wk =   0.0025641
        k(  481) = (   0.2435016   1.1021866  -0.3505532), wk =   0.0025641
        k(  482) = (   0.2956330   1.1021866  -0.1752766), wk =   0.0025641
        k(  483) = (   0.3477644   1.2858844   0.0000000), wk =   0.0025641
        k(  484) = (   0.3998959   1.2858844   0.1752766), wk =   0.0025641
        k(  485) = (   0.4520273   1.2858844   0.3505532), wk =   0.0025641
        k(  486) = (   0.5041588   1.2858844   0.5258299), wk =   0.0025641
        k(  487) = (   0.5562902   1.2858844   0.7011065), wk =   0.0025641
        k(  488) = (   0.6084216   1.2858844   0.8763831), wk =   0.0025641
        k(  489) = (   0.6605531   1.2858844   1.0516597), wk =   0.0025641
        k(  490) = (   0.0349758   1.2858844  -1.0516597), wk =   0.0025641
        k(  491) = (   0.0871072   1.2858844  -0.8763831), wk =   0.0025641
        k(  492) = (   0.1392387   1.2858844  -0.7011065), wk =   0.0025641
        k(  493) = (   0.1913701   1.2858844  -0.5258299), wk =   0.0025641
        k(  494) = (   0.2435016   1.2858844  -0.3505532), wk =   0.0025641
        k(  495) = (   0.2956330   1.2858844  -0.1752766), wk =   0.0025641
        k(  496) = (   0.3477644   1.4695822   0.0000000), wk =   0.0025641
        k(  497) = (   0.3998959   1.4695822   0.1752766), wk =   0.0025641
        k(  498) = (   0.4520273   1.4695822   0.3505532), wk =   0.0025641
        k(  499) = (   0.5041588   1.4695822   0.5258299), wk =   0.0025641
        k(  500) = (   0.5562902   1.4695822   0.7011065), wk =   0.0025641
        k(  501) = (   0.6084216   1.4695822   0.8763831), wk =   0.0025641
        k(  502) = (   0.6605531   1.4695822   1.0516597), wk =   0.0025641
        k(  503) = (   0.0349758   1.4695822  -1.0516597), wk =   0.0025641
        k(  504) = (   0.0871072   1.4695822  -0.8763831), wk =   0.0025641
        k(  505) = (   0.1392387   1.4695822  -0.7011065), wk =   0.0025641
        k(  506) = (   0.1913701   1.4695822  -0.5258299), wk =   0.0025641
        k(  507) = (   0.2435016   1.4695822  -0.3505532), wk =   0.0025641
        k(  508) = (   0.2956330   1.4695822  -0.1752766), wk =   0.0025641
        k(  509) = (   0.3477644   1.6532800   0.0000000), wk =   0.0025641
        k(  510) = (   0.3998959   1.6532800   0.1752766), wk =   0.0025641
        k(  511) = (   0.4520273   1.6532800   0.3505532), wk =   0.0025641
        k(  512) = (   0.5041588   1.6532800   0.5258299), wk =   0.0025641
        k(  513) = (   0.5562902   1.6532800   0.7011065), wk =   0.0025641
        k(  514) = (   0.6084216   1.6532800   0.8763831), wk =   0.0025641
        k(  515) = (   0.6605531   1.6532800   1.0516597), wk =   0.0025641
        k(  516) = (   0.0349758   1.6532800  -1.0516597), wk =   0.0025641
        k(  517) = (   0.0871072   1.6532800  -0.8763831), wk =   0.0025641
        k(  518) = (   0.1392387   1.6532800  -0.7011065), wk =   0.0025641
        k(  519) = (   0.1913701   1.6532800  -0.5258299), wk =   0.0025641
        k(  520) = (   0.2435016   1.6532800  -0.3505532), wk =   0.0025641
        k(  521) = (   0.2956330   1.6532800  -0.1752766), wk =   0.0025641
        k(  522) = (   0.3477644  -1.8369777   0.0000000), wk =   0.0025641
        k(  523) = (   0.3998959  -1.8369777   0.1752766), wk =   0.0025641
        k(  524) = (   0.4520273  -1.8369777   0.3505532), wk =   0.0025641
        k(  525) = (   0.5041588  -1.8369777   0.5258299), wk =   0.0025641
        k(  526) = (   0.5562902  -1.8369777   0.7011065), wk =   0.0025641
        k(  527) = (   0.6084216  -1.8369777   0.8763831), wk =   0.0025641
        k(  528) = (   0.6605531  -1.8369777   1.0516597), wk =   0.0025641
        k(  529) = (   0.0349758  -1.8369777  -1.0516597), wk =   0.0025641
        k(  530) = (   0.0871072  -1.8369777  -0.8763831), wk =   0.0025641
        k(  531) = (   0.1392387  -1.8369777  -0.7011065), wk =   0.0025641
        k(  532) = (   0.1913701  -1.8369777  -0.5258299), wk =   0.0025641
        k(  533) = (   0.2435016  -1.8369777  -0.3505532), wk =   0.0025641
        k(  534) = (   0.2956330  -1.8369777  -0.1752766), wk =   0.0025641
        k(  535) = (   0.3477644  -1.6532800   0.0000000), wk =   0.0025641
        k(  536) = (   0.3998959  -1.6532800   0.1752766), wk =   0.0025641
        k(  537) = (   0.4520273  -1.6532800   0.3505532), wk =   0.0025641
        k(  538) = (   0.5041588  -1.6532800   0.5258299), wk =   0.0025641
        k(  539) = (   0.5562902  -1.6532800   0.7011065), wk =   0.0025641
        k(  540) = (   0.6084216  -1.6532800   0.8763831), wk =   0.0025641
        k(  541) = (   0.6605531  -1.6532800   1.0516597), wk =   0.0025641
        k(  542) = (   0.0349758  -1.6532800  -1.0516597), wk =   0.0025641
        k(  543) = (   0.0871072  -1.6532800  -0.8763831), wk =   0.0025641
        k(  544) = (   0.1392387  -1.6532800  -0.7011065), wk =   0.0025641
        k(  545) = (   0.1913701  -1.6532800  -0.5258299), wk =   0.0025641
        k(  546) = (   0.2435016  -1.6532800  -0.3505532), wk =   0.0025641
        k(  547) = (   0.2956330  -1.6532800  -0.1752766), wk =   0.0025641
        k(  548) = (   0.3477644  -1.4695822   0.0000000), wk =   0.0025641
        k(  549) = (   0.3998959  -1.4695822   0.1752766), wk =   0.0025641
        k(  550) = (   0.4520273  -1.4695822   0.3505532), wk =   0.0025641
        k(  551) = (   0.5041588  -1.4695822   0.5258299), wk =   0.0025641
        k(  552) = (   0.5562902  -1.4695822   0.7011065), wk =   0.0025641
        k(  553) = (   0.6084216  -1.4695822   0.8763831), wk =   0.0025641
        k(  554) = (   0.6605531  -1.4695822   1.0516597), wk =   0.0025641
        k(  555) = (   0.0349758  -1.4695822  -1.0516597), wk =   0.0025641
        k(  556) = (   0.0871072  -1.4695822  -0.8763831), wk =   0.0025641
        k(  557) = (   0.1392387  -1.4695822  -0.7011065), wk =   0.0025641
        k(  558) = (   0.1913701  -1.4695822  -0.5258299), wk =   0.0025641
        k(  559) = (   0.2435016  -1.4695822  -0.3505532), wk =   0.0025641
        k(  560) = (   0.2956330  -1.4695822  -0.1752766), wk =   0.0025641
        k(  561) = (   0.3477644  -1.2858844   0.0000000), wk =   0.0025641
        k(  562) = (   0.3998959  -1.2858844   0.1752766), wk =   0.0025641
        k(  563) = (   0.4520273  -1.2858844   0.3505532), wk =   0.0025641
        k(  564) = (   0.5041588  -1.2858844   0.5258299), wk =   0.0025641
        k(  565) = (   0.5562902  -1.2858844   0.7011065), wk =   0.0025641
        k(  566) = (   0.6084216  -1.2858844   0.8763831), wk =   0.0025641
        k(  567) = (   0.6605531  -1.2858844   1.0516597), wk =   0.0025641
        k(  568) = (   0.0349758  -1.2858844  -1.0516597), wk =   0.0025641
        k(  569) = (   0.0871072  -1.2858844  -0.8763831), wk =   0.0025641
        k(  570) = (   0.1392387  -1.2858844  -0.7011065), wk =   0.0025641
        k(  571) = (   0.1913701  -1.2858844  -0.5258299), wk =   0.0025641
        k(  572) = (   0.2435016  -1.2858844  -0.3505532), wk =   0.0025641
        k(  573) = (   0.2956330  -1.2858844  -0.1752766), wk =   0.0025641
        k(  574) = (   0.3477644  -1.1021866   0.0000000), wk =   0.0025641
        k(  575) = (   0.3998959  -1.1021866   0.1752766), wk =   0.0025641
        k(  576) = (   0.4520273  -1.1021866   0.3505532), wk =   0.0025641
        k(  577) = (   0.5041588  -1.1021866   0.5258299), wk =   0.0025641
        k(  578) = (   0.5562902  -1.1021866   0.7011065), wk =   0.0025641
        k(  579) = (   0.6084216  -1.1021866   0.8763831), wk =   0.0025641
        k(  580) = (   0.6605531  -1.1021866   1.0516597), wk =   0.0025641
        k(  581) = (   0.0349758  -1.1021866  -1.0516597), wk =   0.0025641
        k(  582) = (   0.0871072  -1.1021866  -0.8763831), wk =   0.0025641
        k(  583) = (   0.1392387  -1.1021866  -0.7011065), wk =   0.0025641
        k(  584) = (   0.1913701  -1.1021866  -0.5258299), wk =   0.0025641
        k(  585) = (   0.2435016  -1.1021866  -0.3505532), wk =   0.0025641
        k(  586) = (   0.2956330  -1.1021866  -0.1752766), wk =   0.0025641
        k(  587) = (   0.3477644  -0.9184889   0.0000000), wk =   0.0025641
        k(  588) = (   0.3998959  -0.9184889   0.1752766), wk =   0.0025641
        k(  589) = (   0.4520273  -0.9184889   0.3505532), wk =   0.0025641
        k(  590) = (   0.5041588  -0.9184889   0.5258299), wk =   0.0025641
        k(  591) = (   0.5562902  -0.9184889   0.7011065), wk =   0.0025641
        k(  592) = (   0.6084216  -0.9184889   0.8763831), wk =   0.0025641
        k(  593) = (   0.6605531  -0.9184889   1.0516597), wk =   0.0025641
        k(  594) = (   0.0349758  -0.9184889  -1.0516597), wk =   0.0025641
        k(  595) = (   0.0871072  -0.9184889  -0.8763831), wk =   0.0025641
        k(  596) = (   0.1392387  -0.9184889  -0.7011065), wk =   0.0025641
        k(  597) = (   0.1913701  -0.9184889  -0.5258299), wk =   0.0025641
        k(  598) = (   0.2435016  -0.9184889  -0.3505532), wk =   0.0025641
        k(  599) = (   0.2956330  -0.9184889  -0.1752766), wk =   0.0025641
        k(  600) = (   0.3477644  -0.7347911   0.0000000), wk =   0.0025641
        k(  601) = (   0.3998959  -0.7347911   0.1752766), wk =   0.0025641
        k(  602) = (   0.4520273  -0.7347911   0.3505532), wk =   0.0025641
        k(  603) = (   0.5041588  -0.7347911   0.5258299), wk =   0.0025641
        k(  604) = (   0.5562902  -0.7347911   0.7011065), wk =   0.0025641
        k(  605) = (   0.6084216  -0.7347911   0.8763831), wk =   0.0025641
        k(  606) = (   0.6605531  -0.7347911   1.0516597), wk =   0.0025641
        k(  607) = (   0.0349758  -0.7347911  -1.0516597), wk =   0.0025641
        k(  608) = (   0.0871072  -0.7347911  -0.8763831), wk =   0.0025641
        k(  609) = (   0.1392387  -0.7347911  -0.7011065), wk =   0.0025641
        k(  610) = (   0.1913701  -0.7347911  -0.5258299), wk =   0.0025641
        k(  611) = (   0.2435016  -0.7347911  -0.3505532), wk =   0.0025641
        k(  612) = (   0.2956330  -0.7347911  -0.1752766), wk =   0.0025641
        k(  613) = (   0.3477644  -0.5510933   0.0000000), wk =   0.0025641
        k(  614) = (   0.3998959  -0.5510933   0.1752766), wk =   0.0025641
        k(  615) = (   0.4520273  -0.5510933   0.3505532), wk =   0.0025641
        k(  616) = (   0.5041588  -0.5510933   0.5258299), wk =   0.0025641
        k(  617) = (   0.5562902  -0.5510933   0.7011065), wk =   0.0025641
        k(  618) = (   0.6084216  -0.5510933   0.8763831), wk =   0.0025641
        k(  619) = (   0.6605531  -0.5510933   1.0516597), wk =   0.0025641
        k(  620) = (   0.0349758  -0.5510933  -1.0516597), wk =   0.0025641
        k(  621) = (   0.0871072  -0.5510933  -0.8763831), wk =   0.0025641
        k(  622) = (   0.1392387  -0.5510933  -0.7011065), wk =   0.0025641
        k(  623) = (   0.1913701  -0.5510933  -0.5258299), wk =   0.0025641
        k(  624) = (   0.2435016  -0.5510933  -0.3505532), wk =   0.0025641
        k(  625) = (   0.2956330  -0.5510933  -0.1752766), wk =   0.0025641
        k(  626) = (   0.3477644  -0.3673955   0.0000000), wk =   0.0025641
        k(  627) = (   0.3998959  -0.3673955   0.1752766), wk =   0.0025641
        k(  628) = (   0.4520273  -0.3673955   0.3505532), wk =   0.0025641
        k(  629) = (   0.5041588  -0.3673955   0.5258299), wk =   0.0025641
        k(  630) = (   0.5562902  -0.3673955   0.7011065), wk =   0.0025641
        k(  631) = (   0.6084216  -0.3673955   0.8763831), wk =   0.0025641
        k(  632) = (   0.6605531  -0.3673955   1.0516597), wk =   0.0025641
        k(  633) = (   0.0349758  -0.3673955  -1.0516597), wk =   0.0025641
        k(  634) = (   0.0871072  -0.3673955  -0.8763831), wk =   0.0025641
        k(  635) = (   0.1392387  -0.3673955  -0.7011065), wk =   0.0025641
        k(  636) = (   0.1913701  -0.3673955  -0.5258299), wk =   0.0025641
        k(  637) = (   0.2435016  -0.3673955  -0.3505532), wk =   0.0025641
        k(  638) = (   0.2956330  -0.3673955  -0.1752766), wk =   0.0025641
        k(  639) = (   0.3477644  -0.1836978   0.0000000), wk =   0.0025641
        k(  640) = (   0.3998959  -0.1836978   0.1752766), wk =   0.0025641
        k(  641) = (   0.4520273  -0.1836978   0.3505532), wk =   0.0025641
        k(  642) = (   0.5041588  -0.1836978   0.5258299), wk =   0.0025641
        k(  643) = (   0.5562902  -0.1836978   0.7011065), wk =   0.0025641
        k(  644) = (   0.6084216  -0.1836978   0.8763831), wk =   0.0025641
        k(  645) = (   0.6605531  -0.1836978   1.0516597), wk =   0.0025641
        k(  646) = (   0.0349758  -0.1836978  -1.0516597), wk =   0.0025641
        k(  647) = (   0.0871072  -0.1836978  -0.8763831), wk =   0.0025641
        k(  648) = (   0.1392387  -0.1836978  -0.7011065), wk =   0.0025641
        k(  649) = (   0.1913701  -0.1836978  -0.5258299), wk =   0.0025641
        k(  650) = (   0.2435016  -0.1836978  -0.3505532), wk =   0.0025641
        k(  651) = (   0.2956330  -0.1836978  -0.1752766), wk =   0.0025641
        k(  652) = (  -0.5216467   0.0000000   0.0000000), wk =   0.0012821
        k(  653) = (  -0.4695152   0.0000000   0.1752766), wk =   0.0025641
        k(  654) = (  -0.4173838   0.0000000   0.3505532), wk =   0.0025641
        k(  655) = (  -0.3652523   0.0000000   0.5258299), wk =   0.0025641
        k(  656) = (  -0.3131209   0.0000000   0.7011065), wk =   0.0025641
        k(  657) = (  -0.2609895   0.0000000   0.8763831), wk =   0.0025641
        k(  658) = (  -0.2088580   0.0000000   1.0516597), wk =   0.0025641
        k(  659) = (  -0.5216467   0.1836978   0.0000000), wk =   0.0025641
        k(  660) = (  -0.4695152   0.1836978   0.1752766), wk =   0.0025641
        k(  661) = (  -0.4173838   0.1836978   0.3505532), wk =   0.0025641
        k(  662) = (  -0.3652523   0.1836978   0.5258299), wk =   0.0025641
        k(  663) = (  -0.3131209   0.1836978   0.7011065), wk =   0.0025641
        k(  664) = (  -0.2609895   0.1836978   0.8763831), wk =   0.0025641
        k(  665) = (  -0.2088580   0.1836978   1.0516597), wk =   0.0025641
        k(  666) = (  -0.8344353   0.1836978  -1.0516597), wk =   0.0025641
        k(  667) = (  -0.7823039   0.1836978  -0.8763831), wk =   0.0025641
        k(  668) = (  -0.7301724   0.1836978  -0.7011065), wk =   0.0025641
        k(  669) = (  -0.6780410   0.1836978  -0.5258299), wk =   0.0025641
        k(  670) = (  -0.6259095   0.1836978  -0.3505532), wk =   0.0025641
        k(  671) = (  -0.5737781   0.1836978  -0.1752766), wk =   0.0025641
        k(  672) = (  -0.5216467   0.3673955   0.0000000), wk =   0.0025641
        k(  673) = (  -0.4695152   0.3673955   0.1752766), wk =   0.0025641
        k(  674) = (  -0.4173838   0.3673955   0.3505532), wk =   0.0025641
        k(  675) = (  -0.3652523   0.3673955   0.5258299), wk =   0.0025641
        k(  676) = (  -0.3131209   0.3673955   0.7011065), wk =   0.0025641
        k(  677) = (  -0.2609895   0.3673955   0.8763831), wk =   0.0025641
        k(  678) = (  -0.2088580   0.3673955   1.0516597), wk =   0.0025641
        k(  679) = (  -0.8344353   0.3673955  -1.0516597), wk =   0.0025641
        k(  680) = (  -0.7823039   0.3673955  -0.8763831), wk =   0.0025641
        k(  681) = (  -0.7301724   0.3673955  -0.7011065), wk =   0.0025641
        k(  682) = (  -0.6780410   0.3673955  -0.5258299), wk =   0.0025641
        k(  683) = (  -0.6259095   0.3673955  -0.3505532), wk =   0.0025641
        k(  684) = (  -0.5737781   0.3673955  -0.1752766), wk =   0.0025641
        k(  685) = (  -0.5216467   0.5510933   0.0000000), wk =   0.0025641
        k(  686) = (  -0.4695152   0.5510933   0.1752766), wk =   0.0025641
        k(  687) = (  -0.4173838   0.5510933   0.3505532), wk =   0.0025641
        k(  688) = (  -0.3652523   0.5510933   0.5258299), wk =   0.0025641
        k(  689) = (  -0.3131209   0.5510933   0.7011065), wk =   0.0025641
        k(  690) = (  -0.2609895   0.5510933   0.8763831), wk =   0.0025641
        k(  691) = (  -0.2088580   0.5510933   1.0516597), wk =   0.0025641
        k(  692) = (  -0.8344353   0.5510933  -1.0516597), wk =   0.0025641
        k(  693) = (  -0.7823039   0.5510933  -0.8763831), wk =   0.0025641
        k(  694) = (  -0.7301724   0.5510933  -0.7011065), wk =   0.0025641
        k(  695) = (  -0.6780410   0.5510933  -0.5258299), wk =   0.0025641
        k(  696) = (  -0.6259095   0.5510933  -0.3505532), wk =   0.0025641
        k(  697) = (  -0.5737781   0.5510933  -0.1752766), wk =   0.0025641
        k(  698) = (  -0.5216467   0.7347911   0.0000000), wk =   0.0025641
        k(  699) = (  -0.4695152   0.7347911   0.1752766), wk =   0.0025641
        k(  700) = (  -0.4173838   0.7347911   0.3505532), wk =   0.0025641
        k(  701) = (  -0.3652523   0.7347911   0.5258299), wk =   0.0025641
        k(  702) = (  -0.3131209   0.7347911   0.7011065), wk =   0.0025641
        k(  703) = (  -0.2609895   0.7347911   0.8763831), wk =   0.0025641
        k(  704) = (  -0.2088580   0.7347911   1.0516597), wk =   0.0025641
        k(  705) = (  -0.8344353   0.7347911  -1.0516597), wk =   0.0025641
        k(  706) = (  -0.7823039   0.7347911  -0.8763831), wk =   0.0025641
        k(  707) = (  -0.7301724   0.7347911  -0.7011065), wk =   0.0025641
        k(  708) = (  -0.6780410   0.7347911  -0.5258299), wk =   0.0025641
        k(  709) = (  -0.6259095   0.7347911  -0.3505532), wk =   0.0025641
        k(  710) = (  -0.5737781   0.7347911  -0.1752766), wk =   0.0025641
        k(  711) = (  -0.5216467   0.9184889   0.0000000), wk =   0.0025641
        k(  712) = (  -0.4695152   0.9184889   0.1752766), wk =   0.0025641
        k(  713) = (  -0.4173838   0.9184889   0.3505532), wk =   0.0025641
        k(  714) = (  -0.3652523   0.9184889   0.5258299), wk =   0.0025641
        k(  715) = (  -0.3131209   0.9184889   0.7011065), wk =   0.0025641
        k(  716) = (  -0.2609895   0.9184889   0.8763831), wk =   0.0025641
        k(  717) = (  -0.2088580   0.9184889   1.0516597), wk =   0.0025641
        k(  718) = (  -0.8344353   0.9184889  -1.0516597), wk =   0.0025641
        k(  719) = (  -0.7823039   0.9184889  -0.8763831), wk =   0.0025641
        k(  720) = (  -0.7301724   0.9184889  -0.7011065), wk =   0.0025641
        k(  721) = (  -0.6780410   0.9184889  -0.5258299), wk =   0.0025641
        k(  722) = (  -0.6259095   0.9184889  -0.3505532), wk =   0.0025641
        k(  723) = (  -0.5737781   0.9184889  -0.1752766), wk =   0.0025641
        k(  724) = (  -0.5216467   1.1021866   0.0000000), wk =   0.0025641
        k(  725) = (  -0.4695152   1.1021866   0.1752766), wk =   0.0025641
        k(  726) = (  -0.4173838   1.1021866   0.3505532), wk =   0.0025641
        k(  727) = (  -0.3652523   1.1021866   0.5258299), wk =   0.0025641
        k(  728) = (  -0.3131209   1.1021866   0.7011065), wk =   0.0025641
        k(  729) = (  -0.2609895   1.1021866   0.8763831), wk =   0.0025641
        k(  730) = (  -0.2088580   1.1021866   1.0516597), wk =   0.0025641
        k(  731) = (  -0.8344353   1.1021866  -1.0516597), wk =   0.0025641
        k(  732) = (  -0.7823039   1.1021866  -0.8763831), wk =   0.0025641
        k(  733) = (  -0.7301724   1.1021866  -0.7011065), wk =   0.0025641
        k(  734) = (  -0.6780410   1.1021866  -0.5258299), wk =   0.0025641
        k(  735) = (  -0.6259095   1.1021866  -0.3505532), wk =   0.0025641
        k(  736) = (  -0.5737781   1.1021866  -0.1752766), wk =   0.0025641
        k(  737) = (  -0.5216467   1.2858844   0.0000000), wk =   0.0025641
        k(  738) = (  -0.4695152   1.2858844   0.1752766), wk =   0.0025641
        k(  739) = (  -0.4173838   1.2858844   0.3505532), wk =   0.0025641
        k(  740) = (  -0.3652523   1.2858844   0.5258299), wk =   0.0025641
        k(  741) = (  -0.3131209   1.2858844   0.7011065), wk =   0.0025641
        k(  742) = (  -0.2609895   1.2858844   0.8763831), wk =   0.0025641
        k(  743) = (  -0.2088580   1.2858844   1.0516597), wk =   0.0025641
        k(  744) = (  -0.8344353   1.2858844  -1.0516597), wk =   0.0025641
        k(  745) = (  -0.7823039   1.2858844  -0.8763831), wk =   0.0025641
        k(  746) = (  -0.7301724   1.2858844  -0.7011065), wk =   0.0025641
        k(  747) = (  -0.6780410   1.2858844  -0.5258299), wk =   0.0025641
        k(  748) = (  -0.6259095   1.2858844  -0.3505532), wk =   0.0025641
        k(  749) = (  -0.5737781   1.2858844  -0.1752766), wk =   0.0025641
        k(  750) = (  -0.5216467   1.4695822   0.0000000), wk =   0.0025641
        k(  751) = (  -0.4695152   1.4695822   0.1752766), wk =   0.0025641
        k(  752) = (  -0.4173838   1.4695822   0.3505532), wk =   0.0025641
        k(  753) = (  -0.3652523   1.4695822   0.5258299), wk =   0.0025641
        k(  754) = (  -0.3131209   1.4695822   0.7011065), wk =   0.0025641
        k(  755) = (  -0.2609895   1.4695822   0.8763831), wk =   0.0025641
        k(  756) = (  -0.2088580   1.4695822   1.0516597), wk =   0.0025641
        k(  757) = (  -0.8344353   1.4695822  -1.0516597), wk =   0.0025641
        k(  758) = (  -0.7823039   1.4695822  -0.8763831), wk =   0.0025641
        k(  759) = (  -0.7301724   1.4695822  -0.7011065), wk =   0.0025641
        k(  760) = (  -0.6780410   1.4695822  -0.5258299), wk =   0.0025641
        k(  761) = (  -0.6259095   1.4695822  -0.3505532), wk =   0.0025641
        k(  762) = (  -0.5737781   1.4695822  -0.1752766), wk =   0.0025641
        k(  763) = (  -0.5216467   1.6532800   0.0000000), wk =   0.0025641
        k(  764) = (  -0.4695152   1.6532800   0.1752766), wk =   0.0025641
        k(  765) = (  -0.4173838   1.6532800   0.3505532), wk =   0.0025641
        k(  766) = (  -0.3652523   1.6532800   0.5258299), wk =   0.0025641
        k(  767) = (  -0.3131209   1.6532800   0.7011065), wk =   0.0025641
        k(  768) = (  -0.2609895   1.6532800   0.8763831), wk =   0.0025641
        k(  769) = (  -0.2088580   1.6532800   1.0516597), wk =   0.0025641
        k(  770) = (  -0.8344353   1.6532800  -1.0516597), wk =   0.0025641
        k(  771) = (  -0.7823039   1.6532800  -0.8763831), wk =   0.0025641
        k(  772) = (  -0.7301724   1.6532800  -0.7011065), wk =   0.0025641
        k(  773) = (  -0.6780410   1.6532800  -0.5258299), wk =   0.0025641
        k(  774) = (  -0.6259095   1.6532800  -0.3505532), wk =   0.0025641
        k(  775) = (  -0.5737781   1.6532800  -0.1752766), wk =   0.0025641
        k(  776) = (  -0.5216467  -1.8369777   0.0000000), wk =   0.0012821
        k(  777) = (  -0.4695152  -1.8369777   0.1752766), wk =   0.0025641
        k(  778) = (  -0.4173838  -1.8369777   0.3505532), wk =   0.0025641
        k(  779) = (  -0.3652523  -1.8369777   0.5258299), wk =   0.0025641
        k(  780) = (  -0.3131209  -1.8369777   0.7011065), wk =   0.0025641
        k(  781) = (  -0.2609895  -1.8369777   0.8763831), wk =   0.0025641
        k(  782) = (  -0.2088580  -1.8369777   1.0516597), wk =   0.0025641

                       cryst. coord.
        k(    1) = (   0.0000000   0.0000000   0.0000000), wk =   0.0012821
        k(    2) = (   0.0000000   0.0000000   0.0769231), wk =   0.0025641
        k(    3) = (   0.0000000   0.0000000   0.1538462), wk =   0.0025641
        k(    4) = (   0.0000000   0.0000000   0.2307692), wk =   0.0025641
        k(    5) = (   0.0000000   0.0000000   0.3076923), wk =   0.0025641
        k(    6) = (   0.0000000   0.0000000   0.3846154), wk =   0.0025641
        k(    7) = (   0.0000000   0.0000000   0.4615385), wk =   0.0025641
        k(    8) = (   0.0000000   0.0500000   0.0000000), wk =   0.0025641
        k(    9) = (   0.0000000   0.0500000   0.0769231), wk =   0.0025641
        k(   10) = (   0.0000000   0.0500000   0.1538462), wk =   0.0025641
        k(   11) = (   0.0000000   0.0500000   0.2307692), wk =   0.0025641
        k(   12) = (   0.0000000   0.0500000   0.3076923), wk =   0.0025641
        k(   13) = (   0.0000000   0.0500000   0.3846154), wk =   0.0025641
        k(   14) = (   0.0000000   0.0500000   0.4615385), wk =   0.0025641
        k(   15) = (  -0.0000000   0.0500000  -0.4615385), wk =   0.0025641
        k(   16) = (  -0.0000000   0.0500000  -0.3846154), wk =   0.0025641
        k(   17) = (  -0.0000000   0.0500000  -0.3076923), wk =   0.0025641
        k(   18) = (  -0.0000000   0.0500000  -0.2307692), wk =   0.0025641
        k(   19) = (  -0.0000000   0.0500000  -0.1538462), wk =   0.0025641
        k(   20) = (  -0.0000000   0.0500000  -0.0769231), wk =   0.0025641
        k(   21) = (   0.0000000   0.1000000   0.0000000), wk =   0.0025641
        k(   22) = (   0.0000000   0.1000000   0.0769231), wk =   0.0025641
        k(   23) = (   0.0000000   0.1000000   0.1538462), wk =   0.0025641
        k(   24) = (   0.0000000   0.1000000   0.2307692), wk =   0.0025641
        k(   25) = (   0.0000000   0.1000000   0.3076923), wk =   0.0025641
        k(   26) = (   0.0000000   0.1000000   0.3846154), wk =   0.0025641
        k(   27) = (   0.0000000   0.1000000   0.4615385), wk =   0.0025641
        k(   28) = (  -0.0000000   0.1000000  -0.4615385), wk =   0.0025641
        k(   29) = (  -0.0000000   0.1000000  -0.3846154), wk =   0.0025641
        k(   30) = (  -0.0000000   0.1000000  -0.3076923), wk =   0.0025641
        k(   31) = (  -0.0000000   0.1000000  -0.2307692), wk =   0.0025641
        k(   32) = (  -0.0000000   0.1000000  -0.1538462), wk =   0.0025641
        k(   33) = (  -0.0000000   0.1000000  -0.0769231), wk =   0.0025641
        k(   34) = (   0.0000000   0.1500000   0.0000000), wk =   0.0025641
        k(   35) = (   0.0000000   0.1500000   0.0769231), wk =   0.0025641
        k(   36) = (   0.0000000   0.1500000   0.1538462), wk =   0.0025641
        k(   37) = (   0.0000000   0.1500000   0.2307692), wk =   0.0025641
        k(   38) = (   0.0000000   0.1500000   0.3076923), wk =   0.0025641
        k(   39) = (   0.0000000   0.1500000   0.3846154), wk =   0.0025641
        k(   40) = (   0.0000000   0.1500000   0.4615385), wk =   0.0025641
        k(   41) = (  -0.0000000   0.1500000  -0.4615385), wk =   0.0025641
        k(   42) = (  -0.0000000   0.1500000  -0.3846154), wk =   0.0025641
        k(   43) = (  -0.0000000   0.1500000  -0.3076923), wk =   0.0025641
        k(   44) = (  -0.0000000   0.1500000  -0.2307692), wk =   0.0025641
        k(   45) = (  -0.0000000   0.1500000  -0.1538462), wk =   0.0025641
        k(   46) = (  -0.0000000   0.1500000  -0.0769231), wk =   0.0025641
        k(   47) = (   0.0000000   0.2000000   0.0000000), wk =   0.0025641
        k(   48) = (   0.0000000   0.2000000   0.0769231), wk =   0.0025641
        k(   49) = (   0.0000000   0.2000000   0.1538462), wk =   0.0025641
        k(   50) = (   0.0000000   0.2000000   0.2307692), wk =   0.0025641
        k(   51) = (   0.0000000   0.2000000   0.3076923), wk =   0.0025641
        k(   52) = (   0.0000000   0.2000000   0.3846154), wk =   0.0025641
        k(   53) = (   0.0000000   0.2000000   0.4615385), wk =   0.0025641
        k(   54) = (  -0.0000000   0.2000000  -0.4615385), wk =   0.0025641
        k(   55) = (  -0.0000000   0.2000000  -0.3846154), wk =   0.0025641
        k(   56) = (  -0.0000000   0.2000000  -0.3076923), wk =   0.0025641
        k(   57) = (  -0.0000000   0.2000000  -0.2307692), wk =   0.0025641
        k(   58) = (  -0.0000000   0.2000000  -0.1538462), wk =   0.0025641
        k(   59) = (  -0.0000000   0.2000000  -0.0769231), wk =   0.0025641
        k(   60) = (   0.0000000   0.2500000   0.0000000), wk =   0.0025641
        k(   61) = (   0.0000000   0.2500000   0.0769231), wk =   0.0025641
        k(   62) = (   0.0000000   0.2500000   0.1538462), wk =   0.0025641
        k(   63) = (   0.0000000   0.2500000   0.2307692), wk =   0.0025641
        k(   64) = (   0.0000000   0.2500000   0.3076923), wk =   0.0025641
        k(   65) = (   0.0000000   0.2500000   0.3846154), wk =   0.0025641
        k(   66) = (   0.0000000   0.2500000   0.4615385), wk =   0.0025641
        k(   67) = (  -0.0000000   0.2500000  -0.4615385), wk =   0.0025641
        k(   68) = (  -0.0000000   0.2500000  -0.3846154), wk =   0.0025641
        k(   69) = (  -0.0000000   0.2500000  -0.3076923), wk =   0.0025641
        k(   70) = (  -0.0000000   0.2500000  -0.2307692), wk =   0.0025641
        k(   71) = (  -0.0000000   0.2500000  -0.1538462), wk =   0.0025641
        k(   72) = (  -0.0000000   0.2500000  -0.0769231), wk =   0.0025641
        k(   73) = (   0.0000000   0.3000000   0.0000000), wk =   0.0025641
        k(   74) = (   0.0000000   0.3000000   0.0769231), wk =   0.0025641
        k(   75) = (   0.0000000   0.3000000   0.1538462), wk =   0.0025641
        k(   76) = (   0.0000000   0.3000000   0.2307692), wk =   0.0025641
        k(   77) = (   0.0000000   0.3000000   0.3076923), wk =   0.0025641
        k(   78) = (   0.0000000   0.3000000   0.3846154), wk =   0.0025641
        k(   79) = (   0.0000000   0.3000000   0.4615385), wk =   0.0025641
        k(   80) = (  -0.0000000   0.3000000  -0.4615385), wk =   0.0025641
        k(   81) = (  -0.0000000   0.3000000  -0.3846154), wk =   0.0025641
        k(   82) = (  -0.0000000   0.3000000  -0.3076923), wk =   0.0025641
        k(   83) = (  -0.0000000   0.3000000  -0.2307692), wk =   0.0025641
        k(   84) = (  -0.0000000   0.3000000  -0.1538462), wk =   0.0025641
        k(   85) = (  -0.0000000   0.3000000  -0.0769231), wk =   0.0025641
        k(   86) = (   0.0000000   0.3500000   0.0000000), wk =   0.0025641
        k(   87) = (   0.0000000   0.3500000   0.0769231), wk =   0.0025641
        k(   88) = (   0.0000000   0.3500000   0.1538462), wk =   0.0025641
        k(   89) = (   0.0000000   0.3500000   0.2307692), wk =   0.0025641
        k(   90) = (   0.0000000   0.3500000   0.3076923), wk =   0.0025641
        k(   91) = (   0.0000000   0.3500000   0.3846154), wk =   0.0025641
        k(   92) = (   0.0000000   0.3500000   0.4615385), wk =   0.0025641
        k(   93) = (  -0.0000000   0.3500000  -0.4615385), wk =   0.0025641
        k(   94) = (  -0.0000000   0.3500000  -0.3846154), wk =   0.0025641
        k(   95) = (  -0.0000000   0.3500000  -0.3076923), wk =   0.0025641
        k(   96) = (  -0.0000000   0.3500000  -0.2307692), wk =   0.0025641
        k(   97) = (  -0.0000000   0.3500000  -0.1538462), wk =   0.0025641
        k(   98) = (  -0.0000000   0.3500000  -0.0769231), wk =   0.0025641
        k(   99) = (   0.0000000   0.4000000   0.0000000), wk =   0.0025641
        k(  100) = (   0.0000000   0.4000000   0.0769231), wk =   0.0025641
        k(  101) = (   0.0000000   0.4000000   0.1538462), wk =   0.0025641
        k(  102) = (   0.0000000   0.4000000   0.2307692), wk =   0.0025641
        k(  103) = (   0.0000000   0.4000000   0.3076923), wk =   0.0025641
        k(  104) = (   0.0000000   0.4000000   0.3846154), wk =   0.0025641
        k(  105) = (   0.0000000   0.4000000   0.4615385), wk =   0.0025641
        k(  106) = (  -0.0000000   0.4000000  -0.4615385), wk =   0.0025641
        k(  107) = (  -0.0000000   0.4000000  -0.3846154), wk =   0.0025641
        k(  108) = (  -0.0000000   0.4000000  -0.3076923), wk =   0.0025641
        k(  109) = (  -0.0000000   0.4000000  -0.2307692), wk =   0.0025641
        k(  110) = (  -0.0000000   0.4000000  -0.1538462), wk =   0.0025641
        k(  111) = (  -0.0000000   0.4000000  -0.0769231), wk =   0.0025641
        k(  112) = (   0.0000000   0.4500000   0.0000000), wk =   0.0025641
        k(  113) = (   0.0000000   0.4500000   0.0769231), wk =   0.0025641
        k(  114) = (   0.0000000   0.4500000   0.1538462), wk =   0.0025641
        k(  115) = (   0.0000000   0.4500000   0.2307692), wk =   0.0025641
        k(  116) = (   0.0000000   0.4500000   0.3076923), wk =   0.0025641
        k(  117) = (   0.0000000   0.4500000   0.3846154), wk =   0.0025641
        k(  118) = (   0.0000000   0.4500000   0.4615385), wk =   0.0025641
        k(  119) = (  -0.0000000   0.4500000  -0.4615385), wk =   0.0025641
        k(  120) = (  -0.0000000   0.4500000  -0.3846154), wk =   0.0025641
        k(  121) = (  -0.0000000   0.4500000  -0.3076923), wk =   0.0025641
        k(  122) = (  -0.0000000   0.4500000  -0.2307692), wk =   0.0025641
        k(  123) = (  -0.0000000   0.4500000  -0.1538462), wk =   0.0025641
        k(  124) = (  -0.0000000   0.4500000  -0.0769231), wk =   0.0025641
        k(  125) = (   0.0000000  -0.5000000   0.0000000), wk =   0.0012821
        k(  126) = (   0.0000000  -0.5000000   0.0769231), wk =   0.0025641
        k(  127) = (   0.0000000  -0.5000000   0.1538462), wk =   0.0025641
        k(  128) = (   0.0000000  -0.5000000   0.2307692), wk =   0.0025641
        k(  129) = (   0.0000000  -0.5000000   0.3076923), wk =   0.0025641
        k(  130) = (   0.0000000  -0.5000000   0.3846154), wk =   0.0025641
        k(  131) = (   0.0000000  -0.5000000   0.4615385), wk =   0.0025641
        k(  132) = (   0.1666667   0.0000000   0.0000000), wk =   0.0025641
        k(  133) = (   0.1666667   0.0000000   0.0769231), wk =   0.0025641
        k(  134) = (   0.1666667   0.0000000   0.1538462), wk =   0.0025641
        k(  135) = (   0.1666667   0.0000000   0.2307692), wk =   0.0025641
        k(  136) = (   0.1666667   0.0000000   0.3076923), wk =   0.0025641
        k(  137) = (   0.1666667   0.0000000   0.3846154), wk =   0.0025641
        k(  138) = (   0.1666667   0.0000000   0.4615385), wk =   0.0025641
        k(  139) = (   0.1666667   0.0000000  -0.4615385), wk =   0.0025641
        k(  140) = (   0.1666667   0.0000000  -0.3846154), wk =   0.0025641
        k(  141) = (   0.1666667   0.0000000  -0.3076923), wk =   0.0025641
        k(  142) = (   0.1666667   0.0000000  -0.2307692), wk =   0.0025641
        k(  143) = (   0.1666667   0.0000000  -0.1538462), wk =   0.0025641
[...]

          k =-0.2089-1.8370 1.0517 ( 11452 PWs)   bands (ev):

    -2.8994  -2.8994  -2.0934  -2.0934  -1.7284  -1.7284  -1.1375  -1.1375
     0.2468   0.2468   0.8111   0.8111   1.1051   1.1051   1.9529   1.9529
     2.0607   2.0607   3.0296   3.0296   3.4945   3.4945   4.0165   4.0165
     4.3854   4.3854   4.8117   4.8117   5.2752   5.2752   5.7706   5.7706
     6.4058   6.4058   6.7299   6.7299   7.0271   7.0271   7.3291   7.3291

     occupation numbers 
     1.0000   1.0000   1.0000   1.0000   1.0000   1.0000   1.0000   1.0000
     1.0000   1.0000   1.0000   1.0000   1.0000   1.0000   1.0000   1.0000
     1.0000   1.0000   1.0000   1.0000   1.0000   1.0000   1.0000   1.0000
     1.0000   1.0000   1.0000   1.0000   1.0010   1.0010   1.0185   1.0185
     0.9381   0.9381   0.5861   0.5861   0.1942   0.1942  -0.0108  -0.0108

     the Fermi energy is     6.7913 ev

!    total energy              =    -597.36831786 Ry
     Harris-Foulkes estimate   =    -597.36831786 Ry
     estimated scf accuracy    <          6.6E-13 Ry

     The total energy is the sum of the following terms:

     one-electron contribution =      48.78569417 Ry
     hartree contribution      =       6.72095832 Ry
     xc contribution           =     -77.81360784 Ry
     ewald contribution        =    -116.70897699 Ry
     one-center paw contrib.   =    -458.35196928 Ry
      -> PAW hartree energy AE =       1.25178499 Ry
      -> PAW hartree energy PS =      -1.24734339 Ry
      -> PAW xc energy AE      =     -36.51026651 Ry
      -> PAW xc energy PS      =       1.83188612 Ry
      -> total E_H with PAW    =       6.72539993 Ry
      -> total E_XC with PAW   =    -112.49198823 Ry
     smearing contrib. (-TS)   =      -0.00041623 Ry

     convergence has been achieved in  17 iterations

     Forces acting on atoms (cartesian axes, Ry/au):

     atom    1 type  1   force =    -0.00000137    0.00000004   -0.00000029
     atom    2 type  2   force =    -0.00088933   -0.00000003   -0.00009097
     atom    3 type  2   force =    -0.00163637   -0.00000013   -0.00064174
     atom    4 type  2   force =     0.00163872    0.00000014    0.00064198
     atom    5 type  2   force =     0.00088779    0.00000002    0.00009141
     atom    6 type  3   force =    -0.00051117    0.00000001   -0.00006428
     atom    7 type  3   force =     0.00092254    0.00000036    0.00082202
     atom    8 type  1   force =    -0.00081694    0.00000012   -0.00119732
     atom    9 type  1   force =     0.00081649   -0.00000011    0.00119695
     atom   10 type  3   force =    -0.00092283   -0.00000037   -0.00082243
     atom   11 type  3   force =     0.00051098   -0.00000005    0.00006435
     atom   12 type  1   force =     0.00000091   -0.00000003    0.00000002
     atom   13 type  2   force =    -0.00088010   -0.00000004   -0.00006341
     atom   14 type  2   force =    -0.00163525   -0.00000012   -0.00063942
     atom   15 type  2   force =     0.00163761    0.00000011    0.00063939
     atom   16 type  2   force =     0.00087880    0.00000005    0.00006406
     atom   17 type  3   force =    -0.00049853    0.00000004   -0.00006506
     atom   18 type  3   force =     0.00093154    0.00000032    0.00082015
     atom   19 type  1   force =    -0.00080675    0.00000016   -0.00119188
     atom   20 type  1   force =     0.00080624   -0.00000016    0.00119166
     atom   21 type  3   force =    -0.00093139   -0.00000031   -0.00082037
     atom   22 type  3   force =     0.00049842   -0.00000002    0.00006517
     The non-local contrib.  to forces
     atom    1 type  1   force =    -0.00001684    0.00000016   -0.00000543
     atom    2 type  2   force =     0.01179269    0.00000014    0.01036420
     atom    3 type  2   force =     0.00891695    0.00000038    0.01232725
     atom    4 type  2   force =    -0.00893288   -0.00000043   -0.01232863
     atom    5 type  2   force =    -0.01181391   -0.00000018   -0.01036836
     atom    6 type  3   force =    -0.03087025   -0.00000010   -0.04019534
     atom    7 type  3   force =     0.00669806   -0.00000009    0.01775671
     atom    8 type  1   force =     0.00662047   -0.00000013   -0.00232388
     atom    9 type  1   force =    -0.00663090    0.00000010    0.00232135
     atom   10 type  3   force =    -0.00668522    0.00000011   -0.01775078
     atom   11 type  3   force =     0.03087698    0.00000005    0.04019258
     atom   12 type  1   force =     0.00000608   -0.00000020    0.00000275
     atom   13 type  2   force =     0.01181663    0.00000007    0.01046818
     atom   14 type  2   force =     0.00891522    0.00000031    0.01232759
     atom   15 type  2   force =    -0.00893135   -0.00000026   -0.01232919
     atom   16 type  2   force =    -0.01183707   -0.00000007   -0.01047232
     atom   17 type  3   force =    -0.03085049   -0.00000005   -0.04019443
     atom   18 type  3   force =     0.00668780   -0.00000016    0.01777284
     atom   19 type  1   force =     0.00663997   -0.00000009   -0.00231663
     atom   20 type  1   force =    -0.00665058    0.00000014    0.00231404
     atom   21 type  3   force =    -0.00667516    0.00000016   -0.01776727
     atom   22 type  3   force =     0.03085674    0.00000005    0.04019180
     The ionic contribution  to forces
     atom    1 type  1   force =    -0.00041400   -0.00000000   -0.00002570
     atom    2 type  2   force =    -0.06451921    0.00000000   -0.13158125
     atom    3 type  2   force =    -0.02540773    0.00000000    0.07485702
     atom    4 type  2   force =     0.02540265   -0.00000000   -0.07485822
     atom    5 type  2   force =     0.06447092   -0.00000000    0.13159471
     atom    6 type  3   force =     0.27954923   -0.00000000    0.46994450
     atom    7 type  3   force =    -0.22345166   -0.00000000   -0.58507680
     atom    8 type  1   force =    -0.01690073   -0.00000000    0.30467153
     atom    9 type  1   force =     0.01689900    0.00000000   -0.30469923
     atom   10 type  3   force =     0.22355217    0.00000000    0.58511491
     atom   11 type  3   force =    -0.27954500    0.00000000   -0.46996275
     atom   12 type  1   force =     0.00030208    0.00000000    0.00001935
     atom   13 type  2   force =    -0.06420381   -0.00000000   -0.13149264
     atom   14 type  2   force =    -0.02524583   -0.00000000    0.07488505
     atom   15 type  2   force =     0.02524248    0.00000000   -0.07488681
     atom   16 type  2   force =     0.06415759    0.00000000    0.13150653
     atom   17 type  3   force =     0.28027495    0.00000000    0.46987023
     atom   18 type  3   force =    -0.22309275    0.00000000   -0.58519100
     atom   19 type  1   force =    -0.01678854    0.00000000    0.30468579
     atom   20 type  1   force =     0.01679065   -0.00000000   -0.30471376
     atom   21 type  3   force =     0.22319854   -0.00000000    0.58522961
     atom   22 type  3   force =    -0.28027099   -0.00000000   -0.46989105
     The local contribution  to forces
     atom    1 type  1   force =     0.00042399   -0.00000010    0.00002944
     atom    2 type  2   force =     0.05344362   -0.00000016    0.12219204
     atom    3 type  2   force =     0.01588368   -0.00000047   -0.08630955
     atom    4 type  2   force =    -0.01586834    0.00000053    0.08631119
     atom    5 type  2   force =    -0.05338434    0.00000018   -0.12220232
     atom    6 type  3   force =    -0.25217731    0.00000009   -0.43379528
     atom    7 type  3   force =     0.21831722    0.00000043    0.56979387
     atom    8 type  1   force =     0.01026330    0.00000023   -0.30345206
     atom    9 type  1   force =    -0.01025909   -0.00000020    0.30348051
     atom   10 type  3   force =    -0.21841602   -0.00000046   -0.56983180
     atom   11 type  3   force =     0.25217602   -0.00000010    0.43381365
     atom   12 type  1   force =    -0.00030947    0.00000015   -0.00002206
     atom   13 type  2   force =     0.05311579   -0.00000010    0.12203900
     atom   14 type  2   force =     0.01572434   -0.00000039   -0.08633538
     atom   15 type  2   force =    -0.01571059    0.00000035    0.08633749
     atom   16 type  2   force =    -0.05305907    0.00000012   -0.12204950
     atom   17 type  3   force =    -0.25290805    0.00000008   -0.43372270
     atom   18 type  3   force =     0.21797646    0.00000045    0.56989173
     atom   19 type  1   force =     0.01014431    0.00000023   -0.30346731
     atom   20 type  1   force =    -0.01014392   -0.00000028    0.30349627
     atom   21 type  3   force =    -0.21808005   -0.00000045   -0.56992971
     atom   22 type  3   force =     0.25290738   -0.00000006    0.43374318
     The core correction contribution to forces
     atom    1 type  1   force =     0.00000235   -0.00000002    0.00000087
     atom    2 type  2   force =    -0.00160967   -0.00000001   -0.00106637
     atom    3 type  2   force =    -0.00103246   -0.00000004   -0.00151704
     atom    4 type  2   force =     0.00103427    0.00000005    0.00151719
     atom    5 type  2   force =     0.00161214    0.00000002    0.00106676
     atom    6 type  3   force =     0.00298384    0.00000001    0.00398114
     atom    7 type  3   force =    -0.00064426    0.00000001   -0.00165235
     atom    8 type  1   force =    -0.00080325    0.00000001   -0.00009336
     atom    9 type  1   force =     0.00080454   -0.00000001    0.00009371
     atom   10 type  3   force =     0.00062321   -0.00000001    0.00164479
     atom   11 type  3   force =    -0.00299988   -0.00000001   -0.00397946
     atom   12 type  1   force =    -0.00000086    0.00000002   -0.00000052
     atom   13 type  2   force =    -0.00161194   -0.00000001   -0.00107834
     atom   14 type  2   force =    -0.00103218   -0.00000003   -0.00151727
     atom   15 type  2   force =     0.00103401    0.00000003    0.00151744
     atom   16 type  2   force =     0.00161432    0.00000001    0.00107872
     atom   17 type  3   force =     0.00298177    0.00000001    0.00398110
     atom   18 type  3   force =    -0.00064316    0.00000002   -0.00165397
     atom   19 type  1   force =    -0.00080579    0.00000001   -0.00009417
     atom   20 type  1   force =     0.00080710   -0.00000002    0.00009454
     atom   21 type  3   force =     0.00062218   -0.00000002    0.00164652
     atom   22 type  3   force =    -0.00299766   -0.00000001   -0.00397907
     The Hubbard contrib.    to forces
     atom    1 type  1   force =     0.00000000    0.00000000    0.00000000
     atom    2 type  2   force =     0.00000000    0.00000000    0.00000000
     atom    3 type  2   force =     0.00000000    0.00000000    0.00000000
     atom    4 type  2   force =     0.00000000    0.00000000    0.00000000
     atom    5 type  2   force =     0.00000000    0.00000000    0.00000000
     atom    6 type  3   force =     0.00000000    0.00000000    0.00000000
     atom    7 type  3   force =     0.00000000    0.00000000    0.00000000
     atom    8 type  1   force =     0.00000000    0.00000000    0.00000000
     atom    9 type  1   force =     0.00000000    0.00000000    0.00000000
     atom   10 type  3   force =     0.00000000    0.00000000    0.00000000
     atom   11 type  3   force =     0.00000000    0.00000000    0.00000000
     atom   12 type  1   force =     0.00000000    0.00000000    0.00000000
     atom   13 type  2   force =     0.00000000    0.00000000    0.00000000
     atom   14 type  2   force =     0.00000000    0.00000000    0.00000000
     atom   15 type  2   force =     0.00000000    0.00000000    0.00000000
     atom   16 type  2   force =     0.00000000    0.00000000    0.00000000
     atom   17 type  3   force =     0.00000000    0.00000000    0.00000000
     atom   18 type  3   force =     0.00000000    0.00000000    0.00000000
     atom   19 type  1   force =     0.00000000    0.00000000    0.00000000
     atom   20 type  1   force =     0.00000000    0.00000000    0.00000000
     atom   21 type  3   force =     0.00000000    0.00000000    0.00000000
     atom   22 type  3   force =     0.00000000    0.00000000    0.00000000
     The SCF correction term to forces
     atom    1 type  1   force =     0.00000001   -0.00000000    0.00000001
     atom    2 type  2   force =     0.00000012   -0.00000000   -0.00000010
     atom    3 type  2   force =     0.00000008   -0.00000000    0.00000006
     atom    4 type  2   force =    -0.00000009   -0.00000000   -0.00000007
     atom    5 type  2   force =    -0.00000015    0.00000000    0.00000011
     atom    6 type  3   force =     0.00000021    0.00000000    0.00000018
     atom    7 type  3   force =     0.00000006    0.00000001    0.00000008
     atom    8 type  1   force =     0.00000016    0.00000000   -0.00000008
     atom    9 type  1   force =    -0.00000017   -0.00000000    0.00000009
     atom   10 type  3   force =    -0.00000009   -0.00000001   -0.00000007
     atom   11 type  3   force =    -0.00000026    0.00000000   -0.00000019
     atom   12 type  1   force =    -0.00000003    0.00000000   -0.00000001
     atom   13 type  2   force =     0.00000011   -0.00000000   -0.00000011
     atom   14 type  2   force =     0.00000008   -0.00000000    0.00000007
     atom   15 type  2   force =    -0.00000006    0.00000000   -0.00000006
     atom   16 type  2   force =    -0.00000010    0.00000000    0.00000010
     atom   17 type  3   force =     0.00000016    0.00000000    0.00000022
     atom   18 type  3   force =     0.00000008    0.00000001    0.00000004
     atom   19 type  1   force =     0.00000018    0.00000000   -0.00000007
     atom   20 type  1   force =    -0.00000013   -0.00000000    0.00000006
     atom   21 type  3   force =    -0.00000001   -0.00000001   -0.00000004
     atom   22 type  3   force =    -0.00000016   -0.00000000   -0.00000020

     Total force =     0.005570     Total SCF correction =     0.000001


     Computing stress (Cartesian axis) and pressure

          total   stress  (Ry/bohr**3)                   (kbar)     P=   -4.15
  -0.00002545   0.00000000  -0.00000718         -3.74      0.00     -1.06
   0.00000000  -0.00001546  -0.00000000          0.00     -2.27     -0.00
  -0.00000718  -0.00000000  -0.00004373         -1.06     -0.00     -6.43

     kinetic stress (kbar)   1460.74      0.00    -14.30
                                0.00   1483.01     -0.00
                              -14.30     -0.00   1459.82

     local   stress (kbar)    -47.26      0.00   -125.14
                                0.00    491.69      0.00
                             -125.14      0.00     15.48

     nonloc. stress (kbar)   1132.48     -0.00      3.62
                               -0.00   1128.33     -0.00
                                3.62     -0.00   1127.69

     hartree stress (kbar)    184.31      0.00     30.06
                                0.00     20.55     -0.00
                               30.06     -0.00    163.68

     exc-cor stress (kbar)   1485.38     -0.00      0.23
                               -0.00   1484.85     -0.00
                                0.23     -0.00   1485.02

     corecor stress (kbar)  -2229.89      0.00     -0.32
                                0.00  -2229.58      0.00
                               -0.32      0.00  -2229.22

     ewald   stress (kbar)  -1989.50      0.00    104.80
                                0.00  -2381.13      0.00
                              104.80      0.00  -2028.90

     hubbard stress (kbar)      0.00      0.00      0.00
                                0.00      0.00      0.00
                                0.00      0.00      0.00

     london  stress (kbar)      0.00      0.00      0.00
                                0.00      0.00      0.00
                                0.00      0.00      0.00

     DFT-D3  stress (kbar)      0.00      0.00      0.00
                                0.00      0.00      0.00
                                0.00      0.00      0.00

     XDM     stress (kbar)      0.00      0.00      0.00
                                0.00      0.00      0.00
                                0.00      0.00      0.00

     dft-nl  stress (kbar)      0.00      0.00      0.00
                                0.00      0.00      0.00
                                0.00      0.00      0.00

     TS-vdW  stress (kbar)      0.00      0.00      0.00
                                0.00      0.00      0.00
                                0.00      0.00      0.00



     Writing output data file aiida.save/
 
     init_run     :     23.76s CPU     24.22s WALL (       1 calls)
     electrons    :    828.68s CPU    839.85s WALL (       1 calls)
     forces       :      9.46s CPU      9.55s WALL (       1 calls)
     stress       :     64.24s CPU     65.27s WALL (       1 calls)

     Called by init_run:
     wfcinit      :     21.25s CPU     21.61s WALL (       1 calls)
     wfcinit:atom :      0.16s CPU      0.18s WALL (     196 calls)
     wfcinit:wfcr :     19.75s CPU     20.04s WALL (     196 calls)
     potinit      :      0.87s CPU      0.88s WALL (       1 calls)
     hinit0       :      1.48s CPU      1.51s WALL (       1 calls)

     Called by electrons:
     c_bands      :    741.68s CPU    749.89s WALL (      18 calls)
     sum_band     :     81.71s CPU     83.66s WALL (      18 calls)
     v_of_rho     :      1.32s CPU      1.40s WALL (      18 calls)
     v_h          :      0.09s CPU      0.09s WALL (      18 calls)
     v_xc         :      1.35s CPU      1.44s WALL (      20 calls)
     newd         :      1.29s CPU      2.11s WALL (      18 calls)
     PAW_pot      :      2.18s CPU      2.27s WALL (      18 calls)
     mix_rho      :      0.52s CPU      0.56s WALL (      18 calls)

     Called by c_bands:
     init_us_2    :     24.06s CPU     24.31s WALL (    7644 calls)
     cegterg      :    577.06s CPU    584.35s WALL (    3528 calls)

     Called by sum_band:
     sum_band:bec :      0.53s CPU      0.53s WALL (    3528 calls)
     addusdens    :      1.36s CPU      2.21s WALL (      18 calls)

     Called by *egterg:
     h_psi        :    395.18s CPU    401.08s WALL (   16844 calls)
     s_psi        :     58.99s CPU     59.14s WALL (   16844 calls)
     g_psi        :      2.67s CPU      2.69s WALL (   13120 calls)
     cdiaghg      :     65.27s CPU     66.31s WALL (   16452 calls)
     cegterg:over :     28.59s CPU     28.78s WALL (   13120 calls)
     cegterg:upda :     23.51s CPU     23.72s WALL (   13120 calls)
     cegterg:last :      9.34s CPU      9.39s WALL (    3948 calls)
     cdiaghg:chol :      4.29s CPU      4.34s WALL (   16452 calls)
     cdiaghg:inve :      0.86s CPU      0.87s WALL (   16452 calls)
     cdiaghg:para :      8.57s CPU      8.63s WALL (   32904 calls)

     Called by h_psi:
     h_psi:pot    :    393.27s CPU    399.16s WALL (   16844 calls)
     h_psi:calbec :     57.37s CPU     57.99s WALL (   16844 calls)
     vloc_psi     :    276.22s CPU    281.35s WALL (   16844 calls)
     add_vuspsi   :     59.52s CPU     59.70s WALL (   16844 calls)

     General routines
     calbec       :    107.89s CPU    109.71s WALL (   21352 calls)
     fft          :      1.08s CPU      1.17s WALL (     259 calls)
     ffts         :      0.19s CPU      0.21s WALL (     278 calls)
     fftw         :    293.26s CPU    298.54s WALL (  963046 calls)
     interpolate  :      0.11s CPU      0.11s WALL (      18 calls)
 
     Parallel routines
     fft_scatt_xy :     37.17s CPU     37.86s WALL (  963583 calls)
     fft_scatt_yz :    113.84s CPU    116.08s WALL (  963583 calls)

     PAW routines
     PAW_pot      :      2.18s CPU      2.27s WALL (      18 calls)
 
     PWSCF        :  15m50.26s CPU  16m20.12s WALL

 
   This run was terminated on:  10: 1: 3  22Feb2020            

=------------------------------------------------------------------------------=
   JOB DONE.
=------------------------------------------------------------------------------=
