begin
comment 28 atoms, species Mg18Si10
lattice     13.5442180236     0.0000000000    -0.0000000000
lattice     -6.7721090109    11.7296368817     0.0000000000
lattice     -0.0000000000    -0.0000000000    23.0790132950
atom      3.4654579702     7.9696420950     1.9161494406   Mg  0.0 0.0       0.0000000000     0.0000000000     0.0000000000
atom     -1.8625324850    10.7459904725     1.9161494406   Mg  0.0 0.0       0.0000000000     0.0000000000     0.0000000000
atom     -1.6029254833     4.7436411979     1.9161494406   Mg  0.0 0.0       0.0000000000     0.0000000000     0.0000000000
atom      2.8353211968     3.2183293970     5.7697533228   Mg  0.0 0.0       0.0000000000     0.0000000000     0.0000000000
atom      9.3394024088     0.8462954849     5.7697533228   Mg  0.0 0.0       0.0000000000     0.0000000000     0.0000000000
atom      8.1416034289     7.6650119998     5.7697533228   Mg  0.0 0.0       0.0000000000     0.0000000000     0.0000000000
atom      3.4654579702     7.9696420950     9.6233572069   Mg  0.0 0.0       0.0000000000     0.0000000000     0.0000000000
atom     -1.8625324850    10.7459904725     9.6233572069   Mg  0.0 0.0       0.0000000000     0.0000000000     0.0000000000
atom     -1.6029254833     4.7436411979     9.6233572069   Mg  0.0 0.0       0.0000000000     0.0000000000     0.0000000000
atom      3.3066510425     3.7599947887    13.4556560881   Mg  0.0 0.0       0.0000000000     0.0000000000     0.0000000000
atom      8.6346414978     0.9836464111    13.4556560881   Mg  0.0 0.0       0.0000000000     0.0000000000     0.0000000000
atom      8.3750344942     6.9859956858    13.4556560881   Mg  0.0 0.0       0.0000000000     0.0000000000     0.0000000000
atom      3.9367878159     8.5113074847    17.3092599703   Mg  0.0 0.0       0.0000000000     0.0000000000     0.0000000000
atom     -2.5672933979    10.8833413969    17.3092599703   Mg  0.0 0.0       0.0000000000     0.0000000000     0.0000000000
atom     -1.3694944180     4.0646248819    17.3092599722   Mg  0.0 0.0       0.0000000000     0.0000000000     0.0000000000
atom      3.3066510425     3.7599947887    21.1628638544   Mg  0.0 0.0       0.0000000000     0.0000000000     0.0000000000
atom      8.6346414959     0.9836464092    21.1628638544   Mg  0.0 0.0       0.0000000000     0.0000000000     0.0000000000
atom      8.3750344942     6.9859956858    21.1628638544   Mg  0.0 0.0       0.0000000000     0.0000000000     0.0000000000
atom     -0.0000000000    -0.0000000000     2.3569888406   Si  0.0 0.0       0.0000000000     0.0000000000     0.0000000000
atom      6.7721090127     3.9098789606     2.0377305154   Si  0.0 0.0       0.0000000000     0.0000000000     0.0000000000
atom      0.0000000000     7.8197579212     5.7697533228   Si  0.0 0.0       0.0000000000     0.0000000000     0.0000000000
atom     -0.0000000000     0.0000000000     9.1825178031   Si  0.0 0.0       0.0000000000     0.0000000000     0.0000000000
atom     -0.0000000019     0.0000000019    13.8964954900   Si  0.0 0.0       0.0000000000     0.0000000000     0.0000000000
atom      6.7721090109     3.9098789606     9.5017761302   Si  0.0 0.0       0.0000000000     0.0000000000     0.0000000000
atom      0.0000000000     7.8197579212    13.5772371647   Si  0.0 0.0       0.0000000000     0.0000000000     0.0000000000
atom     -0.0000000000     0.0000000000    20.7220244525   Si  0.0 0.0       0.0000000000     0.0000000000     0.0000000000
atom      6.7721090109     3.9098789606    17.3092599722   Si  0.0 0.0       0.0000000000     0.0000000000     0.0000000000
atom     -0.0000000000     7.8197579212    21.0412827777   Si  0.0 0.0       0.0000000000     0.0000000000     0.0000000000
energy 0
charge 0.0000
end
