begin
comment 4 atoms, species Al4
lattice      7.4088749062    -0.0000000000    -0.0000000000
lattice     -0.0000000000     7.4088749062    -0.0000000000
lattice     -0.0000000000    -0.0000000000     7.4088749062
atom      0.0000000000     0.0000000000     0.0000000000   Al  0.0 0.0    7.12375266e-15  7.07151137e-15  6.76626031e-15
atom     -0.0000000000     3.7044374531     3.7044374531   Al  0.0 0.0    7.11835506e-15 -7.06324155e-15 -6.91111603e-15
atom      3.7044374531    -0.0000000000     3.7044374531   Al  0.0 0.0   -7.04926577e-15  7.02906431e-15 -7.06080595e-15
atom      3.7044374531     3.7044374531    -0.0000000000   Al  0.0 0.0   -7.15074066e-15 -7.03262915e-15  6.77283352e-15
energy -7.900022821009325e+01
charge 0.0000
end
begin
comment 4 atoms, species Al4
lattice      7.4661600214    -0.0000000000    -0.0000000000
lattice     -0.0000000000     7.4661600214    -0.0000000000
lattice     -0.0000000000    -0.0000000000     7.4661600214
atom      0.0000000000     0.0000000000     0.0000000000   Al  0.0 0.0   -1.93476977e-13 -1.93548075e-13 -1.93109192e-13
atom     -0.0000000000     3.7330800107     3.7330800107   Al  0.0 0.0   -1.93553623e-13  1.93520854e-13  1.93489742e-13
atom      3.7330800107    -0.0000000000     3.7330800107   Al  0.0 0.0    1.93475897e-13 -1.93520297e-13  1.93036563e-13
atom      3.7330800107     3.7330800107    -0.0000000000   Al  0.0 0.0    1.93510442e-13  1.93629673e-13 -1.93455187e-13
energy -7.900259408677216e+01
charge 0.0000
end
begin
comment 4 atoms, species Al4
lattice      7.5234451367    -0.0000000000    -0.0000000000
lattice     -0.0000000000     7.5234451367    -0.0000000000
lattice     -0.0000000000    -0.0000000000     7.5234451367
atom      0.0000000000     0.0000000000     0.0000000000   Al  0.0 0.0    2.20963716e-13  2.21032400e-13  2.20531244e-13
atom     -0.0000000000     3.7617225683     3.7617225683   Al  0.0 0.0    2.20863320e-13 -2.20927108e-13 -2.21013906e-13
atom      3.7617225683    -0.0000000000     3.7617225683   Al  0.0 0.0   -2.20861161e-13  2.20873538e-13 -2.20914966e-13
atom      3.7617225683     3.7617225683    -0.0000000000   Al  0.0 0.0   -2.20839571e-13 -2.20853301e-13  2.21289433e-13
energy -7.900423075854637e+01
charge 0.0000
end
begin
comment 4 atoms, species Al4
lattice      7.5807302519    -0.0000000000    -0.0000000000
lattice     -0.0000000000     7.5807302519    -0.0000000000
lattice     -0.0000000000    -0.0000000000     7.5807302519
atom      0.0000000000     0.0000000000     0.0000000000   Al  0.0 0.0    3.53057025e-14  3.55199416e-14  3.50571561e-14
atom     -0.0000000000     3.7903651260     3.7903651260   Al  0.0 0.0    3.52905892e-14 -3.51797966e-14 -3.57332660e-14
atom      3.7903651260    -0.0000000000     3.7903651260   Al  0.0 0.0   -3.51740010e-14  3.54093714e-14 -3.56017626e-14
atom      3.7903651260     3.7903651260    -0.0000000000   Al  0.0 0.0   -3.52808735e-14 -3.54717345e-14  3.54891928e-14
energy -7.900519076818627e+01
charge 0.0000
end
begin
comment 4 atoms, species Al4
lattice      7.6380153672    -0.0000000000    -0.0000000000
lattice     -0.0000000000     7.6380153672    -0.0000000000
lattice     -0.0000000000    -0.0000000000     7.6380153672
atom      0.0000000000     0.0000000000     0.0000000000   Al  0.0 0.0   -1.17760522e-13 -1.17711279e-13 -1.18186447e-13
atom     -0.0000000000     3.8190076836     3.8190076836   Al  0.0 0.0   -1.17802623e-13  1.17695691e-13  1.17949990e-13
atom      3.8190076836    -0.0000000000     3.8190076836   Al  0.0 0.0    1.17763760e-13 -1.17828772e-13  1.17840860e-13
atom      3.8190076836     3.8190076836    -0.0000000000   Al  0.0 0.0    1.17785351e-13  1.17748686e-13 -1.18013615e-13
energy -7.900550454253928e+01
charge 0.0000
end
begin
comment 4 atoms, species Al4
lattice      7.6953004824    -0.0000000000    -0.0000000000
lattice     -0.0000000000     7.6953004824    -0.0000000000
lattice     -0.0000000000    -0.0000000000     7.6953004824
atom      0.0000000000     0.0000000000     0.0000000000   Al  0.0 0.0    1.88484197e-13  1.88591155e-13  1.88227900e-13
atom     -0.0000000000     3.8476502412     3.8476502412   Al  0.0 0.0    1.88516582e-13 -1.88564591e-13 -1.88149369e-13
atom      3.8476502412    -0.0000000000     3.8476502412   Al  0.0 0.0   -1.88499310e-13  1.88518163e-13 -1.88474366e-13
atom      3.8476502412     3.8476502412    -0.0000000000   Al  0.0 0.0   -1.88500389e-13 -1.88549904e-13  1.88497821e-13
energy -7.900520430348089e+01
charge 0.0000
end
begin
comment 4 atoms, species Al4
lattice      7.7525855977    -0.0000000000    -0.0000000000
lattice     -0.0000000000     7.7525855977    -0.0000000000
lattice     -0.0000000000    -0.0000000000     7.7525855977
atom      0.0000000000     0.0000000000     0.0000000000   Al  0.0 0.0    4.78292143e-14  4.79680980e-14  4.78821927e-14
atom     -0.0000000000     3.8762927988     3.8762927988   Al  0.0 0.0    4.78950650e-14 -4.80102241e-14 -4.79059174e-14
atom      3.8762927988    -0.0000000000     3.8762927988   Al  0.0 0.0   -4.78810313e-14  4.79810352e-14 -4.76919204e-14
atom      3.8762927988     3.8762927988    -0.0000000000   Al  0.0 0.0   -4.77806359e-14 -4.78753310e-14  4.80406716e-14
energy -7.900433747836846e+01
charge 0.0000
end
begin
comment 4 atoms, species Al4
lattice      7.8098707129    -0.0000000000    -0.0000000000
lattice     -0.0000000000     7.8098707129    -0.0000000000
lattice     -0.0000000000    -0.0000000000     7.8098707129
atom      0.0000000000     0.0000000000     0.0000000000   Al  0.0 0.0   -6.56434538e-14 -6.55417725e-14 -6.58716732e-14
atom     -0.0000000000     3.9049353565     3.9049353565   Al  0.0 0.0   -6.56672032e-14  6.55547100e-14  6.58189874e-14
atom      3.9049353565    -0.0000000000     3.9049353565   Al  0.0 0.0    6.56898731e-14 -6.57166042e-14  6.56562642e-14
atom      3.9049353565     3.9049353565    -0.0000000000   Al  0.0 0.0    6.56132272e-14  6.55628443e-14 -6.55296324e-14
energy -7.900296124651263e+01
charge 0.0000
end
begin
comment 4 atoms, species Al4
lattice      7.8671558282    -0.0000000000    -0.0000000000
lattice     -0.0000000000     7.8671558282    -0.0000000000
lattice     -0.0000000000    -0.0000000000     7.8671558282
atom      0.0000000000     0.0000000000     0.0000000000   Al  0.0 0.0    1.52270618e-13  1.52309413e-13  1.52261069e-13
atom     -0.0000000000     3.9335779141     3.9335779141   Al  0.0 0.0    1.52308401e-13 -1.52370174e-13 -1.52317122e-13
atom      3.9335779141    -0.0000000000     3.9335779141   Al  0.0 0.0   -1.52323514e-13  1.52348086e-13 -1.52322189e-13
atom      3.9335779141     3.9335779141    -0.0000000000   Al  0.0 0.0   -1.52269538e-13 -1.52270306e-13  1.52203818e-13
energy -7.900113671553002e+01
charge 0.0000
end
