begin
comment 22 atoms, species Al4Mg10Si8
lattice     27.8548479806     0.0000000000    -7.9806818835
lattice      0.0000000000     7.6615160363     0.0064615510
lattice      0.0000000000     0.0038247746    12.9203782329
atom      0.0389634421     0.0038334672    12.7597290086   Mg  0.0 0.0    4.69499965e-06 -1.54999988e-07  4.36499967e-06
atom      2.1111828375     3.8322879280     3.8900449215   Mg  0.0 0.0   -4.16074969e-04  1.63499988e-06  7.38849944e-05
atom      4.3512171145     3.8344176320    10.4092051076   Mg  0.0 0.0   -6.35644952e-04  3.62499973e-06 -2.39159982e-04
atom      9.6549276904     7.6616725044    -1.7911187479   Mg  0.0 0.0    6.33594952e-04 -3.60499973e-06  2.40399982e-04
atom     11.8947591385     7.6638051060     4.7283340914   Mg  0.0 0.0    4.16704969e-04 -1.67999987e-06 -7.61749943e-05
atom      1.6487096416     0.0039667548     7.8823098407   Si  0.0 0.0   -2.59019981e-04 -6.60499950e-06 -2.81559979e-04
atom      5.2099804186     7.6621448061     1.2391400320   Si  0.0 0.0    1.21184991e-04  1.57099988e-05  1.41839989e-04
atom      6.0777580210     0.0031148732     6.0839124309   Al  0.0 0.0   -2.85364979e-04  3.96499970e-06 -2.23344983e-04
atom      7.9281665697     3.8314708171     2.5277384558   Al  0.0 0.0    2.86009979e-04 -3.89499971e-06  2.25629983e-04
atom      8.7960629718     3.8339453303     7.3789521228   Si  0.0 0.0   -1.22154991e-04 -1.58199988e-05 -1.40929989e-04
atom     12.3571975637     3.8306189355     0.7295148994   Si  0.0 0.0    2.60014980e-04  6.62999950e-06  2.80369979e-04
atom     13.9670625630     3.8345827927     8.7725116327   Mg  0.0 0.0   -3.02499977e-06  1.54999988e-07 -6.07499954e-06
atom     16.0386908570     0.0015472952    -0.1037788832   Mg  0.0 0.0   -4.13274969e-04  1.06499992e-06  7.70999942e-05
atom     18.2783571443     0.0036712041     6.4155580539   Mg  0.0 0.0   -6.30784953e-04  3.19999976e-06 -2.36179982e-04
atom     23.5826211535     3.8309115887    -5.7846238213   Mg  0.0 0.0    6.28709953e-04 -3.20499976e-06  2.37484982e-04
atom     25.8220904070     3.8330412927     0.7350115641   Mg  0.0 0.0    4.13809969e-04 -1.08499992e-06 -7.95949940e-05
atom     15.5762843048     3.8347160803     3.8947389630   Si  0.0 0.0   -2.68929980e-04 -6.09499954e-06 -2.70539980e-04
atom     19.1380071007     3.8313896855    -2.7542346513   Si  0.0 0.0    9.06949932e-05  1.63149988e-05  1.18229991e-04
atom     20.0053848402     3.8338641987     2.0968891914   Al  0.0 0.0   -3.03424977e-04  4.44499967e-06 -2.28649983e-04
atom     21.8553761408     7.6622288352    -1.4594673298   Al  0.0 0.0    3.04409977e-04 -4.46999966e-06  2.30824983e-04
atom     22.7228726802     0.0031931072     3.3851775766   Si  0.0 0.0   -9.19499931e-05 -1.62549988e-05 -1.17244991e-04
atom     26.2844621884     7.6613769536    -3.2571432480   Si  0.0 0.0    2.69814980e-04  6.10999954e-06  2.69334980e-04
energy -2.928222677790808e+02
charge 0.0000
end
