
     Program PWSCF v.6.3 starts on 22Feb2020 at 14:12:42 

     This program is part of the open-source Quantum ESPRESSO suite
     for quantum simulation of materials; please cite
         "P. Giannozzi et al., J. Phys.:Condens. Matter 21 395502 (2009);
         "P. Giannozzi et al., J. Phys.:Condens. Matter 29 465901 (2017);
          URL http://www.quantum-espresso.org", 
     in publications or presentations arising from this work. More details at
     http://www.quantum-espresso.org/quote

 *** WARNING: using old-style file format, will disappear from next version ***

     Parallel version (MPI & OpenMP), running on      36 processor cores
     Number of MPI processes:                36
     Threads/MPI process:                     1

     MPI processes distributed on     1 nodes
     K-points division:     npool     =       4
     R & G space division:  proc/nbgrp/npool/nimage =       9
     Reading input from aiida.in
Warning: card &IONS ignored
Warning: card   !PRESS_CONV_THR = 0.05                 ! JUST FOR VOLUME RELAXATIONS ignored
Warning: card / ignored

     Current dimensions of program PWSCF are:
     Max number of different atomic species (ntypx) = 10
     Max number of k-points (npk) =  40000
     Max angular momentum in pseudopotentials (lmaxx) =  3
               file Mg.pbe-n-kjpaw_psl.0.3.0.UPF: wavefunction(s)  3S renormalized

     Subspace diagonalization in iterative solution of the eigenvalue problem:
     one sub-group per band group will be used
     scalapack distributed-memory algorithm (size of sub-group:  2*  2 procs)

 
     Parallelization info
     --------------------
     sticks:   dense  smooth     PW     G-vecs:    dense   smooth      PW
     Min         780     313     91                40768    10326    1613
     Max         781     313     91                40769    10327    1614
     Sum        7025    2817    819               366915    92937   14523
 


     bravais-lattice index     =            0
     lattice parameter (alat)  =      28.6012  a.u.
     unit-cell volume          =    2714.9283 (a.u.)^3
     number of atoms/cell      =           22
     number of atomic types    =            2
     number of electrons       =        68.00
     number of Kohn-Sham states=           41
     kinetic-energy cutoff     =      40.0000  Ry
     charge density cutoff     =     400.0000  Ry
     convergence threshold     =      1.0E-12
     mixing beta               =       0.4000
     number of iterations used =            8  local-TF  mixing
     Exchange-correlation      = PBE ( 1  4  3  4 0 0)

     celldm(1)=  28.601188  celldm(2)=   0.000000  celldm(3)=   0.000000
     celldm(4)=   0.000000  celldm(5)=   0.000000  celldm(6)=   0.000000

     crystal axes: (cart. coord. in units of alat)
               a(1) = (   0.940296   0.000270  -0.340358 )  
               a(2) = (   0.000940   0.269614  -0.000340 )  
               a(3) = (   0.000000   0.000000   0.457720 )  

     reciprocal axes: (cart. coord. in units 2 pi/alat)
               b(1) = (  1.063496 -0.003709  0.000000 )  
               b(2) = ( -0.001063  3.709014  0.000000 )  
               b(3) = (  0.790808  0.000000  2.184741 )  


     PseudoPot. # 1 for Mg read from file:
     /users/aglensk/Dropbox/Albert/scripts/dotfiles/scripts/potentials/quantum_espresso/pseudo_SSSPefV1.1_alalloy/Mg.pbe-n-kjpaw_psl.0.3.0.UPF
     MD5 check sum: 24ecedc7f3e3cbe212e682f4413594e4
     Pseudo is Projector augmented-wave + core cor, Zval =  2.0
     Generated using "atomic" code by A. Dal Corso v.5.0.99 svn rev. 10869
     Shape of augmentation charge: PSQ
     Using radial grid of 1129 points,  4 beta functions with: 
                l(1) =   0
                l(2) =   0
                l(3) =   1
                l(4) =   1
     Q(r) pseudized with 0 coefficients 


     PseudoPot. # 2 for Si read from file:
     /users/aglensk/Dropbox/Albert/scripts/dotfiles/scripts/potentials/quantum_espresso/pseudo_SSSPefV1.1_alalloy/Si.pbe-n-rrkjus_psl.1.0.0.UPF
     MD5 check sum: 0b0bb1205258b0d07b9f9672cf965d36
     Pseudo is Ultrasoft + core correction, Zval =  4.0
     Generated using "atomic" code by A. Dal Corso v.5.1
     Using radial grid of 1141 points,  6 beta functions with: 
                l(1) =   0
                l(2) =   0
                l(3) =   1
                l(4) =   1
                l(5) =   2
                l(6) =   2
     Q(r) pseudized with 0 coefficients 


     atomic species   valence    mass     pseudopotential
        Mg             2.00    24.30500     Mg( 1.00)
        Si             4.00    28.08500     Si( 1.00)

     No symmetry found


                                    s                        frac. trans.

      isym =  1     identity                                     

 cryst.   s( 1) = (     1          0          0      )
                  (     0          1          0      )
                  (     0          0          1      )

 cart.    s( 1) = (  1.0000000 -0.0000000  0.0000000 )
                  ( -0.0000000  1.0000000  0.0000000 )
                  (  0.0000000 -0.0000000  1.0000000 )


   Cartesian axes

     site n.     atom                  positions (alat units)
         1           Mg  tau(   1) = (   0.0020375   0.2695570   0.4517381  )
         2           Mg  tau(   2) = (   0.0748939   0.1347844   0.1384404  )
         3           Mg  tau(   3) = (   0.1487350   0.1346020   0.3681568  )
         4           Mg  tau(   4) = (   0.3240694   0.0002052  -0.0920561  )
         5           Mg  tau(   5) = (   0.3988477   0.2696365   0.1373243  )
         6           Si  tau(   6) = (   0.0563040   0.2694267   0.2807525  )
         7           Si  tau(   7) = (   0.1830515   0.2696391   0.0465516  )
         8           Si  tau(   8) = (   0.1978072   0.0001087   0.2124483  )
         9           Si  tau(   9) = (   0.2749911   0.1346976   0.0636554  )
        10           Si  tau(  10) = (   0.2906880   0.1347810   0.2292111  )
        11           Si  tau(  11) = (   0.4174335   0.1349940  -0.0049905  )
        12           Mg  tau(  12) = (   0.4717080   0.1348643   0.2817450  )
        13           Mg  tau(  13) = (   0.5455105   0.2697091  -0.0319108  )
        14           Mg  tau(  14) = (   0.6193432   0.2695291   0.1978198  )
        15           Mg  tau(  15) = (   0.7946976   0.1351615  -0.2624169  )
        16           Mg  tau(  16) = (   0.8685273   0.1349813  -0.0326820  )
        17           Si  tau(  17) = (   0.5259769   0.1347344   0.1107563  )
        18           Si  tau(  18) = (   0.6527383   0.1349657  -0.1234577  )
        19           Si  tau(  19) = (   0.6684165   0.1350454   0.0420997  )
        20           Si  tau(  20) = (   0.7456181   0.2696442  -0.1066938  )
        21           Si  tau(  21) = (   0.7612973   0.2697240   0.0588630  )
        22           Si  tau(  22) = (   0.8871164   0.0003422  -0.1750114  )

   Crystallographic axes

     site n.     atom                  positions (cryst. coord.)
         1           Mg  tau(   1) = (  0.0011671  0.9997884  0.9885423  )
         2           Mg  tau(   2) = (  0.0791494  0.4998374  0.3616831  )
         3           Mg  tau(   3) = (  0.1576798  0.4990826  0.9219482  )
         4           Mg  tau(   4) = (  0.3446458  0.0004165  0.0551577  )
         5           Mg  tau(   5) = (  0.4231728  0.9996611  0.6154300  )
         6           Si  tau(   6) = (  0.0588797  0.9992475  0.6578973  )
         7           Si  tau(   7) = (  0.1936744  0.9999004  0.2464618  )
         8           Si  tau(   8) = (  0.2103667  0.0001927  0.6205720  )
         9           Si  tau(   9) = (  0.2919523  0.4993029  0.3565357  )
        10           Si  tau(  10) = (  0.3086456  0.4995956  0.7306453  )
        11           Si  tau(  11) = (  0.4434382  0.5002506  0.3192067  )
        12           Mg  tau(  12) = (  0.5011593  0.4997120  0.9885703  )
        13           Mg  tau(  13) = (  0.5791478  0.9997746  0.3616769  )
        14           Mg  tau(  14) = (  0.6576693  0.9990283  0.9219665  )
        15           Mg  tau(  15) = (  0.8446563  0.5004708  0.0551397  )
        16           Mg  tau(  16) = (  0.9231746  0.4997239  0.6154363  )
        17           Si  tau(  17) = (  0.5588745  0.4991723  0.6579204  )
        18           Si  tau(  18) = (  0.6936839  0.4998954  0.2464672  )
        19           Si  tau(  19) = (  0.7103573  0.5001743  0.6205657  )
        20           Si  tau(  20) = (  0.7919617  0.9993211  0.3565420  )
        21           Si  tau(  21) = (  0.8086361  0.9996004  0.7306400  )
        22           Si  tau(  22) = (  0.9434434  0.0003259  0.3191836  )

     number of k points=   782  Methfessel-Paxton smearing, width (Ry)=  0.0441
                       cart. coord. in units 2pi/alat
        k(    1) = (   0.0000000   0.0000000   0.0000000), wk =   0.0012821
        k(    2) = (   0.0608313   0.0000000   0.1680570), wk =   0.0025641
        k(    3) = (   0.1216627   0.0000000   0.3361141), wk =   0.0025641
        k(    4) = (   0.1824940   0.0000000   0.5041711), wk =   0.0025641
        k(    5) = (   0.2433254   0.0000000   0.6722281), wk =   0.0025641
        k(    6) = (   0.3041567   0.0000000   0.8402851), wk =   0.0025641
        k(    7) = (   0.3649881   0.0000000   1.0083422), wk =   0.0025641
        k(    8) = (  -0.0000532   0.1854507   0.0000000), wk =   0.0025641
        k(    9) = (   0.0607782   0.1854507   0.1680570), wk =   0.0025641
        k(   10) = (   0.1216095   0.1854507   0.3361141), wk =   0.0025641
        k(   11) = (   0.1824409   0.1854507   0.5041711), wk =   0.0025641
        k(   12) = (   0.2432722   0.1854507   0.6722281), wk =   0.0025641
        k(   13) = (   0.3041036   0.1854507   0.8402851), wk =   0.0025641
        k(   14) = (   0.3649349   0.1854507   1.0083422), wk =   0.0025641
        k(   15) = (  -0.3650413   0.1854507  -1.0083422), wk =   0.0025641
        k(   16) = (  -0.3042099   0.1854507  -0.8402851), wk =   0.0025641
        k(   17) = (  -0.2433786   0.1854507  -0.6722281), wk =   0.0025641
        k(   18) = (  -0.1825472   0.1854507  -0.5041711), wk =   0.0025641
        k(   19) = (  -0.1217159   0.1854507  -0.3361141), wk =   0.0025641
        k(   20) = (  -0.0608845   0.1854507  -0.1680570), wk =   0.0025641
        k(   21) = (  -0.0001063   0.3709014   0.0000000), wk =   0.0025641
        k(   22) = (   0.0607250   0.3709014   0.1680570), wk =   0.0025641
        k(   23) = (   0.1215564   0.3709014   0.3361141), wk =   0.0025641
        k(   24) = (   0.1823877   0.3709014   0.5041711), wk =   0.0025641
        k(   25) = (   0.2432191   0.3709014   0.6722281), wk =   0.0025641
        k(   26) = (   0.3040504   0.3709014   0.8402851), wk =   0.0025641
        k(   27) = (   0.3648817   0.3709014   1.0083422), wk =   0.0025641
        k(   28) = (  -0.3650944   0.3709013  -1.0083422), wk =   0.0025641
        k(   29) = (  -0.3042631   0.3709013  -0.8402851), wk =   0.0025641
        k(   30) = (  -0.2434317   0.3709013  -0.6722281), wk =   0.0025641
        k(   31) = (  -0.1826004   0.3709013  -0.5041711), wk =   0.0025641
        k(   32) = (  -0.1217690   0.3709013  -0.3361141), wk =   0.0025641
        k(   33) = (  -0.0609377   0.3709014  -0.1680570), wk =   0.0025641
        k(   34) = (  -0.0001595   0.5563520   0.0000000), wk =   0.0025641
        k(   35) = (   0.0606718   0.5563520   0.1680570), wk =   0.0025641
        k(   36) = (   0.1215032   0.5563520   0.3361141), wk =   0.0025641
        k(   37) = (   0.1823345   0.5563521   0.5041711), wk =   0.0025641
        k(   38) = (   0.2431659   0.5563521   0.6722281), wk =   0.0025641
        k(   39) = (   0.3039972   0.5563521   0.8402851), wk =   0.0025641
        k(   40) = (   0.3648286   0.5563521   1.0083422), wk =   0.0025641
        k(   41) = (  -0.3651476   0.5563520  -1.0083422), wk =   0.0025641
        k(   42) = (  -0.3043163   0.5563520  -0.8402851), wk =   0.0025641
        k(   43) = (  -0.2434849   0.5563520  -0.6722281), wk =   0.0025641
        k(   44) = (  -0.1826536   0.5563520  -0.5041711), wk =   0.0025641
        k(   45) = (  -0.1218222   0.5563520  -0.3361141), wk =   0.0025641
        k(   46) = (  -0.0609909   0.5563520  -0.1680570), wk =   0.0025641
        k(   47) = (  -0.0002127   0.7418027   0.0000000), wk =   0.0025641
        k(   48) = (   0.0606187   0.7418027   0.1680570), wk =   0.0025641
        k(   49) = (   0.1214500   0.7418027   0.3361141), wk =   0.0025641
        k(   50) = (   0.1822814   0.7418027   0.5041711), wk =   0.0025641
        k(   51) = (   0.2431127   0.7418027   0.6722281), wk =   0.0025641
        k(   52) = (   0.3039441   0.7418027   0.8402851), wk =   0.0025641
        k(   53) = (   0.3647754   0.7418027   1.0083422), wk =   0.0025641
        k(   54) = (  -0.3652008   0.7418027  -1.0083422), wk =   0.0025641
        k(   55) = (  -0.3043694   0.7418027  -0.8402851), wk =   0.0025641
        k(   56) = (  -0.2435381   0.7418027  -0.6722281), wk =   0.0025641
        k(   57) = (  -0.1827067   0.7418027  -0.5041711), wk =   0.0025641
        k(   58) = (  -0.1218754   0.7418027  -0.3361141), wk =   0.0025641
        k(   59) = (  -0.0610440   0.7418027  -0.1680570), wk =   0.0025641
        k(   60) = (  -0.0002659   0.9272534   0.0000000), wk =   0.0025641
        k(   61) = (   0.0605655   0.9272534   0.1680570), wk =   0.0025641
        k(   62) = (   0.1213968   0.9272534   0.3361141), wk =   0.0025641
        k(   63) = (   0.1822282   0.9272534   0.5041711), wk =   0.0025641
        k(   64) = (   0.2430595   0.9272534   0.6722281), wk =   0.0025641
        k(   65) = (   0.3038909   0.9272534   0.8402851), wk =   0.0025641
        k(   66) = (   0.3647222   0.9272534   1.0083422), wk =   0.0025641
        k(   67) = (  -0.3652540   0.9272534  -1.0083422), wk =   0.0025641
        k(   68) = (  -0.3044226   0.9272534  -0.8402851), wk =   0.0025641
        k(   69) = (  -0.2435913   0.9272534  -0.6722281), wk =   0.0025641
        k(   70) = (  -0.1827599   0.9272534  -0.5041711), wk =   0.0025641
        k(   71) = (  -0.1219286   0.9272534  -0.3361141), wk =   0.0025641
        k(   72) = (  -0.0610972   0.9272534  -0.1680570), wk =   0.0025641
        k(   73) = (  -0.0003190   1.1127041   0.0000000), wk =   0.0025641
        k(   74) = (   0.0605123   1.1127041   0.1680570), wk =   0.0025641
        k(   75) = (   0.1213437   1.1127041   0.3361141), wk =   0.0025641
        k(   76) = (   0.1821750   1.1127041   0.5041711), wk =   0.0025641
        k(   77) = (   0.2430064   1.1127041   0.6722281), wk =   0.0025641
        k(   78) = (   0.3038377   1.1127041   0.8402851), wk =   0.0025641
        k(   79) = (   0.3646691   1.1127041   1.0083422), wk =   0.0025641
        k(   80) = (  -0.3653071   1.1127040  -1.0083422), wk =   0.0025641
        k(   81) = (  -0.3044758   1.1127041  -0.8402851), wk =   0.0025641
        k(   82) = (  -0.2436444   1.1127041  -0.6722281), wk =   0.0025641
        k(   83) = (  -0.1828131   1.1127041  -0.5041711), wk =   0.0025641
        k(   84) = (  -0.1219817   1.1127041  -0.3361141), wk =   0.0025641
        k(   85) = (  -0.0611504   1.1127041  -0.1680570), wk =   0.0025641
        k(   86) = (  -0.0003722   1.2981548   0.0000000), wk =   0.0025641
        k(   87) = (   0.0604591   1.2981548   0.1680570), wk =   0.0025641
        k(   88) = (   0.1212905   1.2981548   0.3361141), wk =   0.0025641
        k(   89) = (   0.1821218   1.2981548   0.5041711), wk =   0.0025641
        k(   90) = (   0.2429532   1.2981548   0.6722281), wk =   0.0025641
        k(   91) = (   0.3037845   1.2981548   0.8402851), wk =   0.0025641
        k(   92) = (   0.3646159   1.2981548   1.0083422), wk =   0.0025641
        k(   93) = (  -0.3653603   1.2981547  -1.0083422), wk =   0.0025641
        k(   94) = (  -0.3045290   1.2981547  -0.8402851), wk =   0.0025641
        k(   95) = (  -0.2436976   1.2981547  -0.6722281), wk =   0.0025641
        k(   96) = (  -0.1828663   1.2981547  -0.5041711), wk =   0.0025641
        k(   97) = (  -0.1220349   1.2981547  -0.3361141), wk =   0.0025641
        k(   98) = (  -0.0612036   1.2981548  -0.1680570), wk =   0.0025641
        k(   99) = (  -0.0004254   1.4836054   0.0000000), wk =   0.0025641
        k(  100) = (   0.0604060   1.4836054   0.1680570), wk =   0.0025641
        k(  101) = (   0.1212373   1.4836054   0.3361141), wk =   0.0025641
        k(  102) = (   0.1820687   1.4836055   0.5041711), wk =   0.0025641
        k(  103) = (   0.2429000   1.4836055   0.6722281), wk =   0.0025641
        k(  104) = (   0.3037314   1.4836055   0.8402851), wk =   0.0025641
        k(  105) = (   0.3645627   1.4836055   1.0083422), wk =   0.0025641
        k(  106) = (  -0.3654135   1.4836054  -1.0083422), wk =   0.0025641
        k(  107) = (  -0.3045821   1.4836054  -0.8402851), wk =   0.0025641
        k(  108) = (  -0.2437508   1.4836054  -0.6722281), wk =   0.0025641
        k(  109) = (  -0.1829194   1.4836054  -0.5041711), wk =   0.0025641
        k(  110) = (  -0.1220881   1.4836054  -0.3361141), wk =   0.0025641
        k(  111) = (  -0.0612567   1.4836054  -0.1680570), wk =   0.0025641
        k(  112) = (  -0.0004786   1.6690561   0.0000000), wk =   0.0025641
        k(  113) = (   0.0603528   1.6690561   0.1680570), wk =   0.0025641
        k(  114) = (   0.1211841   1.6690561   0.3361141), wk =   0.0025641
        k(  115) = (   0.1820155   1.6690561   0.5041711), wk =   0.0025641
        k(  116) = (   0.2428468   1.6690561   0.6722281), wk =   0.0025641
        k(  117) = (   0.3036782   1.6690561   0.8402851), wk =   0.0025641
        k(  118) = (   0.3645095   1.6690561   1.0083422), wk =   0.0025641
        k(  119) = (  -0.3654666   1.6690561  -1.0083422), wk =   0.0025641
        k(  120) = (  -0.3046353   1.6690561  -0.8402851), wk =   0.0025641
        k(  121) = (  -0.2438040   1.6690561  -0.6722281), wk =   0.0025641
        k(  122) = (  -0.1829726   1.6690561  -0.5041711), wk =   0.0025641
        k(  123) = (  -0.1221413   1.6690561  -0.3361141), wk =   0.0025641
        k(  124) = (  -0.0613099   1.6690561  -0.1680570), wk =   0.0025641
        k(  125) = (   0.0005317  -1.8545068   0.0000000), wk =   0.0012821
        k(  126) = (   0.0613631  -1.8545068   0.1680570), wk =   0.0025641
        k(  127) = (   0.1221944  -1.8545068   0.3361141), wk =   0.0025641
        k(  128) = (   0.1830258  -1.8545068   0.5041711), wk =   0.0025641
        k(  129) = (   0.2438571  -1.8545068   0.6722281), wk =   0.0025641
        k(  130) = (   0.3046885  -1.8545068   0.8402851), wk =   0.0025641
        k(  131) = (   0.3655198  -1.8545068   1.0083422), wk =   0.0025641
        k(  132) = (   0.1772493  -0.0006182   0.0000000), wk =   0.0025641
        k(  133) = (   0.2380807  -0.0006182   0.1680570), wk =   0.0025641
        k(  134) = (   0.2989120  -0.0006182   0.3361141), wk =   0.0025641
        k(  135) = (   0.3597434  -0.0006182   0.5041711), wk =   0.0025641
        k(  136) = (   0.4205747  -0.0006182   0.6722281), wk =   0.0025641
        k(  137) = (   0.4814061  -0.0006182   0.8402851), wk =   0.0025641
        k(  138) = (   0.5422374  -0.0006181   1.0083422), wk =   0.0025641
        k(  139) = (  -0.1877388  -0.0006182  -1.0083422), wk =   0.0025641
        k(  140) = (  -0.1269074  -0.0006182  -0.8402851), wk =   0.0025641
        k(  141) = (  -0.0660761  -0.0006182  -0.6722281), wk =   0.0025641
        k(  142) = (  -0.0052447  -0.0006182  -0.5041711), wk =   0.0025641
        k(  143) = (   0.0555866  -0.0006182  -0.3361141), wk =   0.0025641
        k(  144) = (   0.1164180  -0.0006182  -0.1680570), wk =   0.0025641
        k(  145) = (   0.1771961   0.1848325   0.0000000), wk =   0.0025641
        k(  146) = (   0.2380275   0.1848325   0.1680570), wk =   0.0025641
        k(  147) = (   0.2988588   0.1848325   0.3361141), wk =   0.0025641
        k(  148) = (   0.3596902   0.1848325   0.5041711), wk =   0.0025641
        k(  149) = (   0.4205215   0.1848325   0.6722281), wk =   0.0025641
        k(  150) = (   0.4813529   0.1848325   0.8402851), wk =   0.0025641
        k(  151) = (   0.5421842   0.1848325   1.0083422), wk =   0.0025641
        k(  152) = (  -0.1877919   0.1848325  -1.0083422), wk =   0.0025641
        k(  153) = (  -0.1269606   0.1848325  -0.8402851), wk =   0.0025641
        k(  154) = (  -0.0661293   0.1848325  -0.6722281), wk =   0.0025641
        k(  155) = (  -0.0052979   0.1848325  -0.5041711), wk =   0.0025641
        k(  156) = (   0.0555334   0.1848325  -0.3361141), wk =   0.0025641
        k(  157) = (   0.1163648   0.1848325  -0.1680570), wk =   0.0025641
        k(  158) = (   0.1771430   0.3702832   0.0000000), wk =   0.0025641
        k(  159) = (   0.2379743   0.3702832   0.1680570), wk =   0.0025641
        k(  160) = (   0.2988057   0.3702832   0.3361141), wk =   0.0025641
        k(  161) = (   0.3596370   0.3702832   0.5041711), wk =   0.0025641
        k(  162) = (   0.4204684   0.3702832   0.6722281), wk =   0.0025641
        k(  163) = (   0.4812997   0.3702832   0.8402851), wk =   0.0025641
        k(  164) = (   0.5421311   0.3702832   1.0083422), wk =   0.0025641
        k(  165) = (  -0.1878451   0.3702832  -1.0083422), wk =   0.0025641
        k(  166) = (  -0.1270138   0.3702832  -0.8402851), wk =   0.0025641
        k(  167) = (  -0.0661824   0.3702832  -0.6722281), wk =   0.0025641
        k(  168) = (  -0.0053511   0.3702832  -0.5041711), wk =   0.0025641
        k(  169) = (   0.0554803   0.3702832  -0.3361141), wk =   0.0025641
        k(  170) = (   0.1163116   0.3702832  -0.1680570), wk =   0.0025641
        k(  171) = (   0.1770898   0.5557339   0.0000000), wk =   0.0025641
        k(  172) = (   0.2379211   0.5557339   0.1680570), wk =   0.0025641
        k(  173) = (   0.2987525   0.5557339   0.3361141), wk =   0.0025641
        k(  174) = (   0.3595838   0.5557339   0.5041711), wk =   0.0025641
        k(  175) = (   0.4204152   0.5557339   0.6722281), wk =   0.0025641
        k(  176) = (   0.4812465   0.5557339   0.8402851), wk =   0.0025641
        k(  177) = (   0.5420779   0.5557339   1.0083422), wk =   0.0025641
        k(  178) = (  -0.1878983   0.5557338  -1.0083422), wk =   0.0025641
        k(  179) = (  -0.1270669   0.5557338  -0.8402851), wk =   0.0025641
        k(  180) = (  -0.0662356   0.5557338  -0.6722281), wk =   0.0025641
        k(  181) = (  -0.0054042   0.5557338  -0.5041711), wk =   0.0025641
        k(  182) = (   0.0554271   0.5557339  -0.3361141), wk =   0.0025641
        k(  183) = (   0.1162584   0.5557339  -0.1680570), wk =   0.0025641
        k(  184) = (   0.1770366   0.7411845   0.0000000), wk =   0.0025641
        k(  185) = (   0.2378680   0.7411845   0.1680570), wk =   0.0025641
        k(  186) = (   0.2986993   0.7411845   0.3361141), wk =   0.0025641
        k(  187) = (   0.3595307   0.7411846   0.5041711), wk =   0.0025641
        k(  188) = (   0.4203620   0.7411846   0.6722281), wk =   0.0025641
        k(  189) = (   0.4811934   0.7411846   0.8402851), wk =   0.0025641
        k(  190) = (   0.5420247   0.7411846   1.0083422), wk =   0.0025641
        k(  191) = (  -0.1879515   0.7411845  -1.0083422), wk =   0.0025641
        k(  192) = (  -0.1271201   0.7411845  -0.8402851), wk =   0.0025641
        k(  193) = (  -0.0662888   0.7411845  -0.6722281), wk =   0.0025641
        k(  194) = (  -0.0054574   0.7411845  -0.5041711), wk =   0.0025641
        k(  195) = (   0.0553739   0.7411845  -0.3361141), wk =   0.0025641
        k(  196) = (   0.1162053   0.7411845  -0.1680570), wk =   0.0025641
        k(  197) = (   0.1769835   0.9266352   0.0000000), wk =   0.0025641
        k(  198) = (   0.2378148   0.9266352   0.1680570), wk =   0.0025641
        k(  199) = (   0.2986462   0.9266352   0.3361141), wk =   0.0025641
        k(  200) = (   0.3594775   0.9266352   0.5041711), wk =   0.0025641
        k(  201) = (   0.4203088   0.9266352   0.6722281), wk =   0.0025641
        k(  202) = (   0.4811402   0.9266352   0.8402851), wk =   0.0025641
        k(  203) = (   0.5419715   0.9266352   1.0083422), wk =   0.0025641
        k(  204) = (  -0.1880046   0.9266352  -1.0083422), wk =   0.0025641
        k(  205) = (  -0.1271733   0.9266352  -0.8402851), wk =   0.0025641
        k(  206) = (  -0.0663419   0.9266352  -0.6722281), wk =   0.0025641
        k(  207) = (  -0.0055106   0.9266352  -0.5041711), wk =   0.0025641
        k(  208) = (   0.0553208   0.9266352  -0.3361141), wk =   0.0025641
        k(  209) = (   0.1161521   0.9266352  -0.1680570), wk =   0.0025641
        k(  210) = (   0.1769303   1.1120859   0.0000000), wk =   0.0025641
        k(  211) = (   0.2377616   1.1120859   0.1680570), wk =   0.0025641
        k(  212) = (   0.2985930   1.1120859   0.3361141), wk =   0.0025641
        k(  213) = (   0.3594243   1.1120859   0.5041711), wk =   0.0025641
        k(  214) = (   0.4202557   1.1120859   0.6722281), wk =   0.0025641
        k(  215) = (   0.4810870   1.1120859   0.8402851), wk =   0.0025641
        k(  216) = (   0.5419184   1.1120859   1.0083422), wk =   0.0025641
        k(  217) = (  -0.1880578   1.1120859  -1.0083422), wk =   0.0025641
        k(  218) = (  -0.1272265   1.1120859  -0.8402851), wk =   0.0025641
        k(  219) = (  -0.0663951   1.1120859  -0.6722281), wk =   0.0025641
        k(  220) = (  -0.0055638   1.1120859  -0.5041711), wk =   0.0025641
        k(  221) = (   0.0552676   1.1120859  -0.3361141), wk =   0.0025641
        k(  222) = (   0.1160989   1.1120859  -0.1680570), wk =   0.0025641
        k(  223) = (   0.1768771   1.2975366   0.0000000), wk =   0.0025641
        k(  224) = (   0.2377085   1.2975366   0.1680570), wk =   0.0025641
        k(  225) = (   0.2985398   1.2975366   0.3361141), wk =   0.0025641
        k(  226) = (   0.3593712   1.2975366   0.5041711), wk =   0.0025641
        k(  227) = (   0.4202025   1.2975366   0.6722281), wk =   0.0025641
        k(  228) = (   0.4810339   1.2975366   0.8402851), wk =   0.0025641
        k(  229) = (   0.5418652   1.2975366   1.0083422), wk =   0.0025641
        k(  230) = (  -0.1881110   1.2975365  -1.0083422), wk =   0.0025641
        k(  231) = (  -0.1272796   1.2975366  -0.8402851), wk =   0.0025641
        k(  232) = (  -0.0664483   1.2975366  -0.6722281), wk =   0.0025641
        k(  233) = (  -0.0056169   1.2975366  -0.5041711), wk =   0.0025641
        k(  234) = (   0.0552144   1.2975366  -0.3361141), wk =   0.0025641
        k(  235) = (   0.1160458   1.2975366  -0.1680570), wk =   0.0025641
        k(  236) = (   0.1768239   1.4829873   0.0000000), wk =   0.0025641
        k(  237) = (   0.2376553   1.4829873   0.1680570), wk =   0.0025641
        k(  238) = (   0.2984866   1.4829873   0.3361141), wk =   0.0025641
        k(  239) = (   0.3593180   1.4829873   0.5041711), wk =   0.0025641
        k(  240) = (   0.4201493   1.4829873   0.6722281), wk =   0.0025641
        k(  241) = (   0.4809807   1.4829873   0.8402851), wk =   0.0025641
        k(  242) = (   0.5418120   1.4829873   1.0083422), wk =   0.0025641
        k(  243) = (  -0.1881642   1.4829872  -1.0083422), wk =   0.0025641
        k(  244) = (  -0.1273328   1.4829872  -0.8402851), wk =   0.0025641
        k(  245) = (  -0.0665015   1.4829872  -0.6722281), wk =   0.0025641
        k(  246) = (  -0.0056701   1.4829872  -0.5041711), wk =   0.0025641
        k(  247) = (   0.0551612   1.4829872  -0.3361141), wk =   0.0025641
        k(  248) = (   0.1159926   1.4829873  -0.1680570), wk =   0.0025641
        k(  249) = (   0.1767708   1.6684379   0.0000000), wk =   0.0025641
        k(  250) = (   0.2376021   1.6684379   0.1680570), wk =   0.0025641
        k(  251) = (   0.2984335   1.6684379   0.3361141), wk =   0.0025641
        k(  252) = (   0.3592648   1.6684380   0.5041711), wk =   0.0025641
        k(  253) = (   0.4200962   1.6684380   0.6722281), wk =   0.0025641
        k(  254) = (   0.4809275   1.6684380   0.8402851), wk =   0.0025641
        k(  255) = (   0.5417589   1.6684380   1.0083422), wk =   0.0025641
        k(  256) = (  -0.1882173   1.6684379  -1.0083422), wk =   0.0025641
        k(  257) = (  -0.1273860   1.6684379  -0.8402851), wk =   0.0025641
        k(  258) = (  -0.0665546   1.6684379  -0.6722281), wk =   0.0025641
        k(  259) = (  -0.0057233   1.6684379  -0.5041711), wk =   0.0025641
        k(  260) = (   0.0551081   1.6684379  -0.3361141), wk =   0.0025641
        k(  261) = (   0.1159394   1.6684379  -0.1680570), wk =   0.0025641
        k(  262) = (   0.1777810  -1.8551250   0.0000000), wk =   0.0025641
        k(  263) = (   0.2386124  -1.8551250   0.1680570), wk =   0.0025641
        k(  264) = (   0.2994437  -1.8551250   0.3361141), wk =   0.0025641
        k(  265) = (   0.3602751  -1.8551250   0.5041711), wk =   0.0025641
        k(  266) = (   0.4211064  -1.8551250   0.6722281), wk =   0.0025641
        k(  267) = (   0.4819378  -1.8551249   0.8402851), wk =   0.0025641
        k(  268) = (   0.5427691  -1.8551249   1.0083422), wk =   0.0025641
        k(  269) = (  -0.1872070  -1.8551250  -1.0083422), wk =   0.0025641
        k(  270) = (  -0.1263757  -1.8551250  -0.8402851), wk =   0.0025641
        k(  271) = (  -0.0655443  -1.8551250  -0.6722281), wk =   0.0025641
        k(  272) = (  -0.0047130  -1.8551250  -0.5041711), wk =   0.0025641
        k(  273) = (   0.0561183  -1.8551250  -0.3361141), wk =   0.0025641
        k(  274) = (   0.1169497  -1.8551250  -0.1680570), wk =   0.0025641
        k(  275) = (   0.1777279  -1.6696743   0.0000000), wk =   0.0025641
        k(  276) = (   0.2385592  -1.6696743   0.1680570), wk =   0.0025641
        k(  277) = (   0.2993906  -1.6696743   0.3361141), wk =   0.0025641
        k(  278) = (   0.3602219  -1.6696743   0.5041711), wk =   0.0025641
        k(  279) = (   0.4210533  -1.6696743   0.6722281), wk =   0.0025641
        k(  280) = (   0.4818846  -1.6696743   0.8402851), wk =   0.0025641
        k(  281) = (   0.5427160  -1.6696743   1.0083422), wk =   0.0025641
        k(  282) = (  -0.1872602  -1.6696743  -1.0083422), wk =   0.0025641
        k(  283) = (  -0.1264289  -1.6696743  -0.8402851), wk =   0.0025641
        k(  284) = (  -0.0655975  -1.6696743  -0.6722281), wk =   0.0025641
        k(  285) = (  -0.0047662  -1.6696743  -0.5041711), wk =   0.0025641
        k(  286) = (   0.0560652  -1.6696743  -0.3361141), wk =   0.0025641
        k(  287) = (   0.1168965  -1.6696743  -0.1680570), wk =   0.0025641
        k(  288) = (   0.1776747  -1.4842236   0.0000000), wk =   0.0025641
        k(  289) = (   0.2385060  -1.4842236   0.1680570), wk =   0.0025641
        k(  290) = (   0.2993374  -1.4842236   0.3361141), wk =   0.0025641
        k(  291) = (   0.3601687  -1.4842236   0.5041711), wk =   0.0025641
        k(  292) = (   0.4210001  -1.4842236   0.6722281), wk =   0.0025641
        k(  293) = (   0.4818314  -1.4842236   0.8402851), wk =   0.0025641
        k(  294) = (   0.5426628  -1.4842236   1.0083422), wk =   0.0025641
        k(  295) = (  -0.1873134  -1.4842236  -1.0083422), wk =   0.0025641
        k(  296) = (  -0.1264820  -1.4842236  -0.8402851), wk =   0.0025641
        k(  297) = (  -0.0656507  -1.4842236  -0.6722281), wk =   0.0025641
        k(  298) = (  -0.0048193  -1.4842236  -0.5041711), wk =   0.0025641
        k(  299) = (   0.0560120  -1.4842236  -0.3361141), wk =   0.0025641
        k(  300) = (   0.1168434  -1.4842236  -0.1680570), wk =   0.0025641
        k(  301) = (   0.1776215  -1.2987729   0.0000000), wk =   0.0025641
        k(  302) = (   0.2384529  -1.2987729   0.1680570), wk =   0.0025641
        k(  303) = (   0.2992842  -1.2987729   0.3361141), wk =   0.0025641
        k(  304) = (   0.3601156  -1.2987729   0.5041711), wk =   0.0025641
        k(  305) = (   0.4209469  -1.2987729   0.6722281), wk =   0.0025641
        k(  306) = (   0.4817783  -1.2987729   0.8402851), wk =   0.0025641
        k(  307) = (   0.5426096  -1.2987729   1.0083422), wk =   0.0025641
        k(  308) = (  -0.1873666  -1.2987730  -1.0083422), wk =   0.0025641
        k(  309) = (  -0.1265352  -1.2987730  -0.8402851), wk =   0.0025641
        k(  310) = (  -0.0657039  -1.2987730  -0.6722281), wk =   0.0025641
        k(  311) = (  -0.0048725  -1.2987729  -0.5041711), wk =   0.0025641
        k(  312) = (   0.0559588  -1.2987729  -0.3361141), wk =   0.0025641
        k(  313) = (   0.1167902  -1.2987729  -0.1680570), wk =   0.0025641
        k(  314) = (   0.1775684  -1.1133223   0.0000000), wk =   0.0025641
        k(  315) = (   0.2383997  -1.1133223   0.1680570), wk =   0.0025641
        k(  316) = (   0.2992311  -1.1133222   0.3361141), wk =   0.0025641
        k(  317) = (   0.3600624  -1.1133222   0.5041711), wk =   0.0025641
        k(  318) = (   0.4208938  -1.1133222   0.6722281), wk =   0.0025641
        k(  319) = (   0.4817251  -1.1133222   0.8402851), wk =   0.0025641
        k(  320) = (   0.5425564  -1.1133222   1.0083422), wk =   0.0025641
        k(  321) = (  -0.1874197  -1.1133223  -1.0083422), wk =   0.0025641
        k(  322) = (  -0.1265884  -1.1133223  -0.8402851), wk =   0.0025641
        k(  323) = (  -0.0657570  -1.1133223  -0.6722281), wk =   0.0025641
        k(  324) = (  -0.0049257  -1.1133223  -0.5041711), wk =   0.0025641
        k(  325) = (   0.0559057  -1.1133223  -0.3361141), wk =   0.0025641
        k(  326) = (   0.1167370  -1.1133223  -0.1680570), wk =   0.0025641
        k(  327) = (   0.1775152  -0.9278716   0.0000000), wk =   0.0025641
        k(  328) = (   0.2383465  -0.9278716   0.1680570), wk =   0.0025641
        k(  329) = (   0.2991779  -0.9278716   0.3361141), wk =   0.0025641
        k(  330) = (   0.3600092  -0.9278716   0.5041711), wk =   0.0025641
        k(  331) = (   0.4208406  -0.9278716   0.6722281), wk =   0.0025641
        k(  332) = (   0.4816719  -0.9278716   0.8402851), wk =   0.0025641
        k(  333) = (   0.5425033  -0.9278715   1.0083422), wk =   0.0025641
        k(  334) = (  -0.1874729  -0.9278716  -1.0083422), wk =   0.0025641
        k(  335) = (  -0.1266416  -0.9278716  -0.8402851), wk =   0.0025641
        k(  336) = (  -0.0658102  -0.9278716  -0.6722281), wk =   0.0025641
        k(  337) = (  -0.0049789  -0.9278716  -0.5041711), wk =   0.0025641
        k(  338) = (   0.0558525  -0.9278716  -0.3361141), wk =   0.0025641
        k(  339) = (   0.1166838  -0.9278716  -0.1680570), wk =   0.0025641
        k(  340) = (   0.1774620  -0.7424209   0.0000000), wk =   0.0025641
        k(  341) = (   0.2382934  -0.7424209   0.1680570), wk =   0.0025641
        k(  342) = (   0.2991247  -0.7424209   0.3361141), wk =   0.0025641
        k(  343) = (   0.3599561  -0.7424209   0.5041711), wk =   0.0025641
        k(  344) = (   0.4207874  -0.7424209   0.6722281), wk =   0.0025641
        k(  345) = (   0.4816188  -0.7424209   0.8402851), wk =   0.0025641
        k(  346) = (   0.5424501  -0.7424209   1.0083422), wk =   0.0025641
        k(  347) = (  -0.1875261  -0.7424209  -1.0083422), wk =   0.0025641
        k(  348) = (  -0.1266947  -0.7424209  -0.8402851), wk =   0.0025641
        k(  349) = (  -0.0658634  -0.7424209  -0.6722281), wk =   0.0025641
        k(  350) = (  -0.0050320  -0.7424209  -0.5041711), wk =   0.0025641
        k(  351) = (   0.0557993  -0.7424209  -0.3361141), wk =   0.0025641
        k(  352) = (   0.1166307  -0.7424209  -0.1680570), wk =   0.0025641
        k(  353) = (   0.1774088  -0.5569702   0.0000000), wk =   0.0025641
        k(  354) = (   0.2382402  -0.5569702   0.1680570), wk =   0.0025641
        k(  355) = (   0.2990715  -0.5569702   0.3361141), wk =   0.0025641
        k(  356) = (   0.3599029  -0.5569702   0.5041711), wk =   0.0025641
        k(  357) = (   0.4207342  -0.5569702   0.6722281), wk =   0.0025641
        k(  358) = (   0.4815656  -0.5569702   0.8402851), wk =   0.0025641
        k(  359) = (   0.5423969  -0.5569702   1.0083422), wk =   0.0025641
        k(  360) = (  -0.1875793  -0.5569702  -1.0083422), wk =   0.0025641
        k(  361) = (  -0.1267479  -0.5569702  -0.8402851), wk =   0.0025641
        k(  362) = (  -0.0659166  -0.5569702  -0.6722281), wk =   0.0025641
        k(  363) = (  -0.0050852  -0.5569702  -0.5041711), wk =   0.0025641
        k(  364) = (   0.0557461  -0.5569702  -0.3361141), wk =   0.0025641
        k(  365) = (   0.1165775  -0.5569702  -0.1680570), wk =   0.0025641
        k(  366) = (   0.1773557  -0.3715195   0.0000000), wk =   0.0025641
        k(  367) = (   0.2381870  -0.3715195   0.1680570), wk =   0.0025641
        k(  368) = (   0.2990184  -0.3715195   0.3361141), wk =   0.0025641
        k(  369) = (   0.3598497  -0.3715195   0.5041711), wk =   0.0025641
        k(  370) = (   0.4206811  -0.3715195   0.6722281), wk =   0.0025641
        k(  371) = (   0.4815124  -0.3715195   0.8402851), wk =   0.0025641
        k(  372) = (   0.5423438  -0.3715195   1.0083422), wk =   0.0025641
        k(  373) = (  -0.1876324  -0.3715196  -1.0083422), wk =   0.0025641
        k(  374) = (  -0.1268011  -0.3715196  -0.8402851), wk =   0.0025641
        k(  375) = (  -0.0659697  -0.3715196  -0.6722281), wk =   0.0025641
        k(  376) = (  -0.0051384  -0.3715196  -0.5041711), wk =   0.0025641
        k(  377) = (   0.0556930  -0.3715195  -0.3361141), wk =   0.0025641
        k(  378) = (   0.1165243  -0.3715195  -0.1680570), wk =   0.0025641
        k(  379) = (   0.1773025  -0.1860689   0.0000000), wk =   0.0025641
        k(  380) = (   0.2381338  -0.1860689   0.1680570), wk =   0.0025641
        k(  381) = (   0.2989652  -0.1860688   0.3361141), wk =   0.0025641
        k(  382) = (   0.3597965  -0.1860688   0.5041711), wk =   0.0025641
        k(  383) = (   0.4206279  -0.1860688   0.6722281), wk =   0.0025641
        k(  384) = (   0.4814592  -0.1860688   0.8402851), wk =   0.0025641
        k(  385) = (   0.5422906  -0.1860688   1.0083422), wk =   0.0025641
        k(  386) = (  -0.1876856  -0.1860689  -1.0083422), wk =   0.0025641
        k(  387) = (  -0.1268543  -0.1860689  -0.8402851), wk =   0.0025641
        k(  388) = (  -0.0660229  -0.1860689  -0.6722281), wk =   0.0025641
        k(  389) = (  -0.0051916  -0.1860689  -0.5041711), wk =   0.0025641
        k(  390) = (   0.0556398  -0.1860689  -0.3361141), wk =   0.0025641
        k(  391) = (   0.1164711  -0.1860689  -0.1680570), wk =   0.0025641
        k(  392) = (   0.3544986  -0.0012364   0.0000000), wk =   0.0025641
        k(  393) = (   0.4153300  -0.0012364   0.1680570), wk =   0.0025641
        k(  394) = (   0.4761613  -0.0012363   0.3361141), wk =   0.0025641
        k(  395) = (   0.5369927  -0.0012363   0.5041711), wk =   0.0025641
        k(  396) = (   0.5978240  -0.0012363   0.6722281), wk =   0.0025641
        k(  397) = (   0.6586554  -0.0012363   0.8402851), wk =   0.0025641
        k(  398) = (   0.7194867  -0.0012363   1.0083422), wk =   0.0025641
        k(  399) = (  -0.0104895  -0.0012364  -1.0083422), wk =   0.0025641
        k(  400) = (   0.0503419  -0.0012364  -0.8402851), wk =   0.0025641
        k(  401) = (   0.1111732  -0.0012364  -0.6722281), wk =   0.0025641
        k(  402) = (   0.1720046  -0.0012364  -0.5041711), wk =   0.0025641
        k(  403) = (   0.2328359  -0.0012364  -0.3361141), wk =   0.0025641
        k(  404) = (   0.2936673  -0.0012364  -0.1680570), wk =   0.0025641
        k(  405) = (   0.3544455   0.1842143   0.0000000), wk =   0.0025641
        k(  406) = (   0.4152768   0.1842143   0.1680570), wk =   0.0025641
        k(  407) = (   0.4761082   0.1842143   0.3361141), wk =   0.0025641
        k(  408) = (   0.5369395   0.1842143   0.5041711), wk =   0.0025641
        k(  409) = (   0.5977709   0.1842143   0.6722281), wk =   0.0025641
        k(  410) = (   0.6586022   0.1842143   0.8402851), wk =   0.0025641
        k(  411) = (   0.7194336   0.1842144   1.0083422), wk =   0.0025641
        k(  412) = (  -0.0105426   0.1842143  -1.0083422), wk =   0.0025641
        k(  413) = (   0.0502887   0.1842143  -0.8402851), wk =   0.0025641
        k(  414) = (   0.1111201   0.1842143  -0.6722281), wk =   0.0025641
        k(  415) = (   0.1719514   0.1842143  -0.5041711), wk =   0.0025641
        k(  416) = (   0.2327828   0.1842143  -0.3361141), wk =   0.0025641
        k(  417) = (   0.2936141   0.1842143  -0.1680570), wk =   0.0025641
        k(  418) = (   0.3543923   0.3696650   0.0000000), wk =   0.0025641
        k(  419) = (   0.4152236   0.3696650   0.1680570), wk =   0.0025641
        k(  420) = (   0.4760550   0.3696650   0.3361141), wk =   0.0025641
        k(  421) = (   0.5368863   0.3696650   0.5041711), wk =   0.0025641
        k(  422) = (   0.5977177   0.3696650   0.6722281), wk =   0.0025641
        k(  423) = (   0.6585490   0.3696650   0.8402851), wk =   0.0025641
        k(  424) = (   0.7193804   0.3696650   1.0083422), wk =   0.0025641
        k(  425) = (  -0.0105958   0.3696650  -1.0083422), wk =   0.0025641
        k(  426) = (   0.0502355   0.3696650  -0.8402851), wk =   0.0025641
        k(  427) = (   0.1110669   0.3696650  -0.6722281), wk =   0.0025641
        k(  428) = (   0.1718982   0.3696650  -0.5041711), wk =   0.0025641
        k(  429) = (   0.2327296   0.3696650  -0.3361141), wk =   0.0025641
        k(  430) = (   0.2935609   0.3696650  -0.1680570), wk =   0.0025641
        k(  431) = (   0.3543391   0.5551157   0.0000000), wk =   0.0025641
        k(  432) = (   0.4151705   0.5551157   0.1680570), wk =   0.0025641
        k(  433) = (   0.4760018   0.5551157   0.3361141), wk =   0.0025641
        k(  434) = (   0.5368332   0.5551157   0.5041711), wk =   0.0025641
        k(  435) = (   0.5976645   0.5551157   0.6722281), wk =   0.0025641
        k(  436) = (   0.6584959   0.5551157   0.8402851), wk =   0.0025641
        k(  437) = (   0.7193272   0.5551157   1.0083422), wk =   0.0025641
        k(  438) = (  -0.0106490   0.5551157  -1.0083422), wk =   0.0025641
        k(  439) = (   0.0501824   0.5551157  -0.8402851), wk =   0.0025641
        k(  440) = (   0.1110137   0.5551157  -0.6722281), wk =   0.0025641
        k(  441) = (   0.1718451   0.5551157  -0.5041711), wk =   0.0025641
        k(  442) = (   0.2326764   0.5551157  -0.3361141), wk =   0.0025641
        k(  443) = (   0.2935078   0.5551157  -0.1680570), wk =   0.0025641
        k(  444) = (   0.3542859   0.7405664   0.0000000), wk =   0.0025641
        k(  445) = (   0.4151173   0.7405664   0.1680570), wk =   0.0025641
        k(  446) = (   0.4759486   0.7405664   0.3361141), wk =   0.0025641
        k(  447) = (   0.5367800   0.7405664   0.5041711), wk =   0.0025641
        k(  448) = (   0.5976113   0.7405664   0.6722281), wk =   0.0025641
        k(  449) = (   0.6584427   0.7405664   0.8402851), wk =   0.0025641
        k(  450) = (   0.7192740   0.7405664   1.0083422), wk =   0.0025641
        k(  451) = (  -0.0107022   0.7405663  -1.0083422), wk =   0.0025641
        k(  452) = (   0.0501292   0.7405663  -0.8402851), wk =   0.0025641
        k(  453) = (   0.1109605   0.7405663  -0.6722281), wk =   0.0025641
        k(  454) = (   0.1717919   0.7405663  -0.5041711), wk =   0.0025641
        k(  455) = (   0.2326232   0.7405664  -0.3361141), wk =   0.0025641
        k(  456) = (   0.2934546   0.7405664  -0.1680570), wk =   0.0025641
        k(  457) = (   0.3542328   0.9260170   0.0000000), wk =   0.0025641
        k(  458) = (   0.4150641   0.9260170   0.1680570), wk =   0.0025641
        k(  459) = (   0.4758955   0.9260171   0.3361141), wk =   0.0025641
        k(  460) = (   0.5367268   0.9260171   0.5041711), wk =   0.0025641
        k(  461) = (   0.5975582   0.9260171   0.6722281), wk =   0.0025641
        k(  462) = (   0.6583895   0.9260171   0.8402851), wk =   0.0025641
        k(  463) = (   0.7192209   0.9260171   1.0083422), wk =   0.0025641
        k(  464) = (  -0.0107553   0.9260170  -1.0083422), wk =   0.0025641
        k(  465) = (   0.0500760   0.9260170  -0.8402851), wk =   0.0025641
        k(  466) = (   0.1109074   0.9260170  -0.6722281), wk =   0.0025641
        k(  467) = (   0.1717387   0.9260170  -0.5041711), wk =   0.0025641
        k(  468) = (   0.2325701   0.9260170  -0.3361141), wk =   0.0025641
        k(  469) = (   0.2934014   0.9260170  -0.1680570), wk =   0.0025641
        k(  470) = (   0.3541796   1.1114677   0.0000000), wk =   0.0025641
        k(  471) = (   0.4150109   1.1114677   0.1680570), wk =   0.0025641
        k(  472) = (   0.4758423   1.1114677   0.3361141), wk =   0.0025641
        k(  473) = (   0.5366736   1.1114677   0.5041711), wk =   0.0025641
        k(  474) = (   0.5975050   1.1114677   0.6722281), wk =   0.0025641
        k(  475) = (   0.6583363   1.1114677   0.8402851), wk =   0.0025641
        k(  476) = (   0.7191677   1.1114677   1.0083422), wk =   0.0025641
        k(  477) = (  -0.0108085   1.1114677  -1.0083422), wk =   0.0025641
        k(  478) = (   0.0500229   1.1114677  -0.8402851), wk =   0.0025641
        k(  479) = (   0.1108542   1.1114677  -0.6722281), wk =   0.0025641
        k(  480) = (   0.1716855   1.1114677  -0.5041711), wk =   0.0025641
        k(  481) = (   0.2325169   1.1114677  -0.3361141), wk =   0.0025641
        k(  482) = (   0.2933482   1.1114677  -0.1680570), wk =   0.0025641
        k(  483) = (   0.3541264   1.2969184   0.0000000), wk =   0.0025641
        k(  484) = (   0.4149578   1.2969184   0.1680570), wk =   0.0025641
        k(  485) = (   0.4757891   1.2969184   0.3361141), wk =   0.0025641
        k(  486) = (   0.5366205   1.2969184   0.5041711), wk =   0.0025641
        k(  487) = (   0.5974518   1.2969184   0.6722281), wk =   0.0025641
        k(  488) = (   0.6582832   1.2969184   0.8402851), wk =   0.0025641
        k(  489) = (   0.7191145   1.2969184   1.0083422), wk =   0.0025641
        k(  490) = (  -0.0108617   1.2969184  -1.0083422), wk =   0.0025641
        k(  491) = (   0.0499697   1.2969184  -0.8402851), wk =   0.0025641
        k(  492) = (   0.1108010   1.2969184  -0.6722281), wk =   0.0025641
        k(  493) = (   0.1716324   1.2969184  -0.5041711), wk =   0.0025641
        k(  494) = (   0.2324637   1.2969184  -0.3361141), wk =   0.0025641
        k(  495) = (   0.2932951   1.2969184  -0.1680570), wk =   0.0025641
        k(  496) = (   0.3540733   1.4823691   0.0000000), wk =   0.0025641
        k(  497) = (   0.4149046   1.4823691   0.1680570), wk =   0.0025641
        k(  498) = (   0.4757359   1.4823691   0.3361141), wk =   0.0025641
        k(  499) = (   0.5365673   1.4823691   0.5041711), wk =   0.0025641
        k(  500) = (   0.5973986   1.4823691   0.6722281), wk =   0.0025641
        k(  501) = (   0.6582300   1.4823691   0.8402851), wk =   0.0025641
        k(  502) = (   0.7190613   1.4823691   1.0083422), wk =   0.0025641
        k(  503) = (  -0.0109148   1.4823691  -1.0083422), wk =   0.0025641
        k(  504) = (   0.0499165   1.4823691  -0.8402851), wk =   0.0025641
        k(  505) = (   0.1107479   1.4823691  -0.6722281), wk =   0.0025641
        k(  506) = (   0.1715792   1.4823691  -0.5041711), wk =   0.0025641
        k(  507) = (   0.2324106   1.4823691  -0.3361141), wk =   0.0025641
        k(  508) = (   0.2932419   1.4823691  -0.1680570), wk =   0.0025641
        k(  509) = (   0.3540201   1.6678198   0.0000000), wk =   0.0025641
        k(  510) = (   0.4148514   1.6678198   0.1680570), wk =   0.0025641
        k(  511) = (   0.4756828   1.6678198   0.3361141), wk =   0.0025641
        k(  512) = (   0.5365141   1.6678198   0.5041711), wk =   0.0025641
        k(  513) = (   0.5973455   1.6678198   0.6722281), wk =   0.0025641
        k(  514) = (   0.6581768   1.6678198   0.8402851), wk =   0.0025641
        k(  515) = (   0.7190082   1.6678198   1.0083422), wk =   0.0025641
        k(  516) = (  -0.0109680   1.6678197  -1.0083422), wk =   0.0025641
        k(  517) = (   0.0498633   1.6678197  -0.8402851), wk =   0.0025641
        k(  518) = (   0.1106947   1.6678197  -0.6722281), wk =   0.0025641
        k(  519) = (   0.1715260   1.6678197  -0.5041711), wk =   0.0025641
        k(  520) = (   0.2323574   1.6678197  -0.3361141), wk =   0.0025641
        k(  521) = (   0.2931887   1.6678198  -0.1680570), wk =   0.0025641
        k(  522) = (   0.3550304  -1.8557432   0.0000000), wk =   0.0025641
        k(  523) = (   0.4158617  -1.8557431   0.1680570), wk =   0.0025641
        k(  524) = (   0.4766931  -1.8557431   0.3361141), wk =   0.0025641
        k(  525) = (   0.5375244  -1.8557431   0.5041711), wk =   0.0025641
        k(  526) = (   0.5983558  -1.8557431   0.6722281), wk =   0.0025641
        k(  527) = (   0.6591871  -1.8557431   0.8402851), wk =   0.0025641
        k(  528) = (   0.7200185  -1.8557431   1.0083422), wk =   0.0025641
        k(  529) = (  -0.0099577  -1.8557432  -1.0083422), wk =   0.0025641
        k(  530) = (   0.0508736  -1.8557432  -0.8402851), wk =   0.0025641
        k(  531) = (   0.1117050  -1.8557432  -0.6722281), wk =   0.0025641
        k(  532) = (   0.1725363  -1.8557432  -0.5041711), wk =   0.0025641
        k(  533) = (   0.2333677  -1.8557432  -0.3361141), wk =   0.0025641
        k(  534) = (   0.2941990  -1.8557432  -0.1680570), wk =   0.0025641
        k(  535) = (   0.3549772  -1.6702925   0.0000000), wk =   0.0025641
        k(  536) = (   0.4158085  -1.6702925   0.1680570), wk =   0.0025641
        k(  537) = (   0.4766399  -1.6702925   0.3361141), wk =   0.0025641
        k(  538) = (   0.5374712  -1.6702925   0.5041711), wk =   0.0025641
        k(  539) = (   0.5983026  -1.6702925   0.6722281), wk =   0.0025641
        k(  540) = (   0.6591339  -1.6702924   0.8402851), wk =   0.0025641
        k(  541) = (   0.7199653  -1.6702924   1.0083422), wk =   0.0025641
        k(  542) = (  -0.0100109  -1.6702925  -1.0083422), wk =   0.0025641
        k(  543) = (   0.0508204  -1.6702925  -0.8402851), wk =   0.0025641
        k(  544) = (   0.1116518  -1.6702925  -0.6722281), wk =   0.0025641
        k(  545) = (   0.1724831  -1.6702925  -0.5041711), wk =   0.0025641
        k(  546) = (   0.2333145  -1.6702925  -0.3361141), wk =   0.0025641
        k(  547) = (   0.2941458  -1.6702925  -0.1680570), wk =   0.0025641
        k(  548) = (   0.3549240  -1.4848418   0.0000000), wk =   0.0025641
        k(  549) = (   0.4157554  -1.4848418   0.1680570), wk =   0.0025641
        k(  550) = (   0.4765867  -1.4848418   0.3361141), wk =   0.0025641
        k(  551) = (   0.5374181  -1.4848418   0.5041711), wk =   0.0025641
        k(  552) = (   0.5982494  -1.4848418   0.6722281), wk =   0.0025641
        k(  553) = (   0.6590808  -1.4848418   0.8402851), wk =   0.0025641
        k(  554) = (   0.7199121  -1.4848418   1.0083422), wk =   0.0025641
        k(  555) = (  -0.0100641  -1.4848418  -1.0083422), wk =   0.0025641
        k(  556) = (   0.0507673  -1.4848418  -0.8402851), wk =   0.0025641
        k(  557) = (   0.1115986  -1.4848418  -0.6722281), wk =   0.0025641
        k(  558) = (   0.1724300  -1.4848418  -0.5041711), wk =   0.0025641
        k(  559) = (   0.2332613  -1.4848418  -0.3361141), wk =   0.0025641
        k(  560) = (   0.2940927  -1.4848418  -0.1680570), wk =   0.0025641
        k(  561) = (   0.3548708  -1.2993911   0.0000000), wk =   0.0025641
        k(  562) = (   0.4157022  -1.2993911   0.1680570), wk =   0.0025641
        k(  563) = (   0.4765335  -1.2993911   0.3361141), wk =   0.0025641
        k(  564) = (   0.5373649  -1.2993911   0.5041711), wk =   0.0025641
        k(  565) = (   0.5981962  -1.2993911   0.6722281), wk =   0.0025641
        k(  566) = (   0.6590276  -1.2993911   0.8402851), wk =   0.0025641
        k(  567) = (   0.7198589  -1.2993911   1.0083422), wk =   0.0025641
        k(  568) = (  -0.0101172  -1.2993911  -1.0083422), wk =   0.0025641
        k(  569) = (   0.0507141  -1.2993911  -0.8402851), wk =   0.0025641
        k(  570) = (   0.1115454  -1.2993911  -0.6722281), wk =   0.0025641
        k(  571) = (   0.1723768  -1.2993911  -0.5041711), wk =   0.0025641
        k(  572) = (   0.2332081  -1.2993911  -0.3361141), wk =   0.0025641
        k(  573) = (   0.2940395  -1.2993911  -0.1680570), wk =   0.0025641
        k(  574) = (   0.3548177  -1.1139404   0.0000000), wk =   0.0025641
        k(  575) = (   0.4156490  -1.1139404   0.1680570), wk =   0.0025641
        k(  576) = (   0.4764804  -1.1139404   0.3361141), wk =   0.0025641
        k(  577) = (   0.5373117  -1.1139404   0.5041711), wk =   0.0025641
        k(  578) = (   0.5981431  -1.1139404   0.6722281), wk =   0.0025641
        k(  579) = (   0.6589744  -1.1139404   0.8402851), wk =   0.0025641
        k(  580) = (   0.7198058  -1.1139404   1.0083422), wk =   0.0025641
        k(  581) = (  -0.0101704  -1.1139405  -1.0083422), wk =   0.0025641
        k(  582) = (   0.0506609  -1.1139405  -0.8402851), wk =   0.0025641
        k(  583) = (   0.1114923  -1.1139405  -0.6722281), wk =   0.0025641
        k(  584) = (   0.1723236  -1.1139404  -0.5041711), wk =   0.0025641
        k(  585) = (   0.2331550  -1.1139404  -0.3361141), wk =   0.0025641
        k(  586) = (   0.2939863  -1.1139404  -0.1680570), wk =   0.0025641
        k(  587) = (   0.3547645  -0.9284898   0.0000000), wk =   0.0025641
        k(  588) = (   0.4155958  -0.9284897   0.1680570), wk =   0.0025641
        k(  589) = (   0.4764272  -0.9284897   0.3361141), wk =   0.0025641
        k(  590) = (   0.5372585  -0.9284897   0.5041711), wk =   0.0025641
        k(  591) = (   0.5980899  -0.9284897   0.6722281), wk =   0.0025641
        k(  592) = (   0.6589212  -0.9284897   0.8402851), wk =   0.0025641
        k(  593) = (   0.7197526  -0.9284897   1.0083422), wk =   0.0025641
        k(  594) = (  -0.0102236  -0.9284898  -1.0083422), wk =   0.0025641
        k(  595) = (   0.0506078  -0.9284898  -0.8402851), wk =   0.0025641
        k(  596) = (   0.1114391  -0.9284898  -0.6722281), wk =   0.0025641
        k(  597) = (   0.1722705  -0.9284898  -0.5041711), wk =   0.0025641
        k(  598) = (   0.2331018  -0.9284898  -0.3361141), wk =   0.0025641
        k(  599) = (   0.2939331  -0.9284898  -0.1680570), wk =   0.0025641
        k(  600) = (   0.3547113  -0.7430391   0.0000000), wk =   0.0025641
        k(  601) = (   0.4155427  -0.7430391   0.1680570), wk =   0.0025641
        k(  602) = (   0.4763740  -0.7430391   0.3361141), wk =   0.0025641
        k(  603) = (   0.5372054  -0.7430391   0.5041711), wk =   0.0025641
        k(  604) = (   0.5980367  -0.7430391   0.6722281), wk =   0.0025641
        k(  605) = (   0.6588681  -0.7430391   0.8402851), wk =   0.0025641
        k(  606) = (   0.7196994  -0.7430390   1.0083422), wk =   0.0025641
        k(  607) = (  -0.0102768  -0.7430391  -1.0083422), wk =   0.0025641
        k(  608) = (   0.0505546  -0.7430391  -0.8402851), wk =   0.0025641
        k(  609) = (   0.1113859  -0.7430391  -0.6722281), wk =   0.0025641
        k(  610) = (   0.1722173  -0.7430391  -0.5041711), wk =   0.0025641
        k(  611) = (   0.2330486  -0.7430391  -0.3361141), wk =   0.0025641
        k(  612) = (   0.2938800  -0.7430391  -0.1680570), wk =   0.0025641
        k(  613) = (   0.3546582  -0.5575884   0.0000000), wk =   0.0025641
        k(  614) = (   0.4154895  -0.5575884   0.1680570), wk =   0.0025641
        k(  615) = (   0.4763209  -0.5575884   0.3361141), wk =   0.0025641
        k(  616) = (   0.5371522  -0.5575884   0.5041711), wk =   0.0025641
        k(  617) = (   0.5979835  -0.5575884   0.6722281), wk =   0.0025641
        k(  618) = (   0.6588149  -0.5575884   0.8402851), wk =   0.0025641
        k(  619) = (   0.7196462  -0.5575884   1.0083422), wk =   0.0025641
        k(  620) = (  -0.0103299  -0.5575884  -1.0083422), wk =   0.0025641
        k(  621) = (   0.0505014  -0.5575884  -0.8402851), wk =   0.0025641
        k(  622) = (   0.1113328  -0.5575884  -0.6722281), wk =   0.0025641
        k(  623) = (   0.1721641  -0.5575884  -0.5041711), wk =   0.0025641
        k(  624) = (   0.2329955  -0.5575884  -0.3361141), wk =   0.0025641
        k(  625) = (   0.2938268  -0.5575884  -0.1680570), wk =   0.0025641
        k(  626) = (   0.3546050  -0.3721377   0.0000000), wk =   0.0025641
        k(  627) = (   0.4154363  -0.3721377   0.1680570), wk =   0.0025641
        k(  628) = (   0.4762677  -0.3721377   0.3361141), wk =   0.0025641
        k(  629) = (   0.5370990  -0.3721377   0.5041711), wk =   0.0025641
        k(  630) = (   0.5979304  -0.3721377   0.6722281), wk =   0.0025641
        k(  631) = (   0.6587617  -0.3721377   0.8402851), wk =   0.0025641
        k(  632) = (   0.7195931  -0.3721377   1.0083422), wk =   0.0025641
        k(  633) = (  -0.0103831  -0.3721377  -1.0083422), wk =   0.0025641
        k(  634) = (   0.0504482  -0.3721377  -0.8402851), wk =   0.0025641
        k(  635) = (   0.1112796  -0.3721377  -0.6722281), wk =   0.0025641
        k(  636) = (   0.1721109  -0.3721377  -0.5041711), wk =   0.0025641
        k(  637) = (   0.2329423  -0.3721377  -0.3361141), wk =   0.0025641
        k(  638) = (   0.2937736  -0.3721377  -0.1680570), wk =   0.0025641
        k(  639) = (   0.3545518  -0.1866870   0.0000000), wk =   0.0025641
        k(  640) = (   0.4153832  -0.1866870   0.1680570), wk =   0.0025641
        k(  641) = (   0.4762145  -0.1866870   0.3361141), wk =   0.0025641
        k(  642) = (   0.5370459  -0.1866870   0.5041711), wk =   0.0025641
        k(  643) = (   0.5978772  -0.1866870   0.6722281), wk =   0.0025641
        k(  644) = (   0.6587086  -0.1866870   0.8402851), wk =   0.0025641
        k(  645) = (   0.7195399  -0.1866870   1.0083422), wk =   0.0025641
        k(  646) = (  -0.0104363  -0.1866871  -1.0083422), wk =   0.0025641
        k(  647) = (   0.0503951  -0.1866871  -0.8402851), wk =   0.0025641
        k(  648) = (   0.1112264  -0.1866871  -0.6722281), wk =   0.0025641
        k(  649) = (   0.1720578  -0.1866871  -0.5041711), wk =   0.0025641
        k(  650) = (   0.2328891  -0.1866870  -0.3361141), wk =   0.0025641
        k(  651) = (   0.2937205  -0.1866870  -0.1680570), wk =   0.0025641
        k(  652) = (  -0.5317480   0.0018545   0.0000000), wk =   0.0012821
        k(  653) = (  -0.4709166   0.0018545   0.1680570), wk =   0.0025641
        k(  654) = (  -0.4100853   0.0018545   0.3361141), wk =   0.0025641
        k(  655) = (  -0.3492539   0.0018545   0.5041711), wk =   0.0025641
        k(  656) = (  -0.2884226   0.0018546   0.6722281), wk =   0.0025641
        k(  657) = (  -0.2275912   0.0018546   0.8402851), wk =   0.0025641
        k(  658) = (  -0.1667599   0.0018546   1.0083422), wk =   0.0025641
        k(  659) = (  -0.5318011   0.1873052   0.0000000), wk =   0.0025641
        k(  660) = (  -0.4709698   0.1873052   0.1680570), wk =   0.0025641
        k(  661) = (  -0.4101384   0.1873052   0.3361141), wk =   0.0025641
        k(  662) = (  -0.3493071   0.1873052   0.5041711), wk =   0.0025641
        k(  663) = (  -0.2884757   0.1873052   0.6722281), wk =   0.0025641
        k(  664) = (  -0.2276444   0.1873052   0.8402851), wk =   0.0025641
        k(  665) = (  -0.1668130   0.1873052   1.0083422), wk =   0.0025641
        k(  666) = (  -0.8967892   0.1873052  -1.0083422), wk =   0.0025641
        k(  667) = (  -0.8359579   0.1873052  -0.8402851), wk =   0.0025641
        k(  668) = (  -0.7751265   0.1873052  -0.6722281), wk =   0.0025641
        k(  669) = (  -0.7142952   0.1873052  -0.5041711), wk =   0.0025641
        k(  670) = (  -0.6534638   0.1873052  -0.3361141), wk =   0.0025641
        k(  671) = (  -0.5926325   0.1873052  -0.1680570), wk =   0.0025641
        k(  672) = (  -0.5318543   0.3727559   0.0000000), wk =   0.0025641
        k(  673) = (  -0.4710229   0.3727559   0.1680570), wk =   0.0025641
        k(  674) = (  -0.4101916   0.3727559   0.3361141), wk =   0.0025641
        k(  675) = (  -0.3493602   0.3727559   0.5041711), wk =   0.0025641
        k(  676) = (  -0.2885289   0.3727559   0.6722281), wk =   0.0025641
        k(  677) = (  -0.2276976   0.3727559   0.8402851), wk =   0.0025641
        k(  678) = (  -0.1668662   0.3727559   1.0083422), wk =   0.0025641
        k(  679) = (  -0.8968424   0.3727559  -1.0083422), wk =   0.0025641
        k(  680) = (  -0.8360110   0.3727559  -0.8402851), wk =   0.0025641
        k(  681) = (  -0.7751797   0.3727559  -0.6722281), wk =   0.0025641
        k(  682) = (  -0.7143483   0.3727559  -0.5041711), wk =   0.0025641
        k(  683) = (  -0.6535170   0.3727559  -0.3361141), wk =   0.0025641
        k(  684) = (  -0.5926856   0.3727559  -0.1680570), wk =   0.0025641
        k(  685) = (  -0.5319075   0.5582066   0.0000000), wk =   0.0025641
        k(  686) = (  -0.4710761   0.5582066   0.1680570), wk =   0.0025641
        k(  687) = (  -0.4102448   0.5582066   0.3361141), wk =   0.0025641
        k(  688) = (  -0.3494134   0.5582066   0.5041711), wk =   0.0025641
        k(  689) = (  -0.2885821   0.5582066   0.6722281), wk =   0.0025641
        k(  690) = (  -0.2277507   0.5582066   0.8402851), wk =   0.0025641
        k(  691) = (  -0.1669194   0.5582066   1.0083422), wk =   0.0025641
        k(  692) = (  -0.8968956   0.5582065  -1.0083422), wk =   0.0025641
        k(  693) = (  -0.8360642   0.5582066  -0.8402851), wk =   0.0025641
        k(  694) = (  -0.7752329   0.5582066  -0.6722281), wk =   0.0025641
        k(  695) = (  -0.7144015   0.5582066  -0.5041711), wk =   0.0025641
        k(  696) = (  -0.6535702   0.5582066  -0.3361141), wk =   0.0025641
        k(  697) = (  -0.5927388   0.5582066  -0.1680570), wk =   0.0025641
        k(  698) = (  -0.5319606   0.7436573   0.0000000), wk =   0.0025641
        k(  699) = (  -0.4711293   0.7436573   0.1680570), wk =   0.0025641
        k(  700) = (  -0.4102979   0.7436573   0.3361141), wk =   0.0025641
        k(  701) = (  -0.3494666   0.7436573   0.5041711), wk =   0.0025641
        k(  702) = (  -0.2886352   0.7436573   0.6722281), wk =   0.0025641
        k(  703) = (  -0.2278039   0.7436573   0.8402851), wk =   0.0025641
        k(  704) = (  -0.1669725   0.7436573   1.0083422), wk =   0.0025641
        k(  705) = (  -0.8969487   0.7436572  -1.0083422), wk =   0.0025641
        k(  706) = (  -0.8361174   0.7436572  -0.8402851), wk =   0.0025641
        k(  707) = (  -0.7752860   0.7436572  -0.6722281), wk =   0.0025641
        k(  708) = (  -0.7144547   0.7436572  -0.5041711), wk =   0.0025641
        k(  709) = (  -0.6536233   0.7436572  -0.3361141), wk =   0.0025641
        k(  710) = (  -0.5927920   0.7436572  -0.1680570), wk =   0.0025641
        k(  711) = (  -0.5320138   0.9291079   0.0000000), wk =   0.0025641
        k(  712) = (  -0.4711825   0.9291079   0.1680570), wk =   0.0025641
        k(  713) = (  -0.4103511   0.9291079   0.3361141), wk =   0.0025641
        k(  714) = (  -0.3495198   0.9291079   0.5041711), wk =   0.0025641
        k(  715) = (  -0.2886884   0.9291080   0.6722281), wk =   0.0025641
        k(  716) = (  -0.2278571   0.9291080   0.8402851), wk =   0.0025641
        k(  717) = (  -0.1670257   0.9291080   1.0083422), wk =   0.0025641
        k(  718) = (  -0.8970019   0.9291079  -1.0083422), wk =   0.0025641
        k(  719) = (  -0.8361706   0.9291079  -0.8402851), wk =   0.0025641
        k(  720) = (  -0.7753392   0.9291079  -0.6722281), wk =   0.0025641
        k(  721) = (  -0.7145079   0.9291079  -0.5041711), wk =   0.0025641
        k(  722) = (  -0.6536765   0.9291079  -0.3361141), wk =   0.0025641
        k(  723) = (  -0.5928452   0.9291079  -0.1680570), wk =   0.0025641
        k(  724) = (  -0.5320670   1.1145586   0.0000000), wk =   0.0025641
        k(  725) = (  -0.4712356   1.1145586   0.1680570), wk =   0.0025641
        k(  726) = (  -0.4104043   1.1145586   0.3361141), wk =   0.0025641
        k(  727) = (  -0.3495729   1.1145586   0.5041711), wk =   0.0025641
        k(  728) = (  -0.2887416   1.1145586   0.6722281), wk =   0.0025641
        k(  729) = (  -0.2279102   1.1145586   0.8402851), wk =   0.0025641
        k(  730) = (  -0.1670789   1.1145586   1.0083422), wk =   0.0025641
        k(  731) = (  -0.8970551   1.1145586  -1.0083422), wk =   0.0025641
        k(  732) = (  -0.8362237   1.1145586  -0.8402851), wk =   0.0025641
        k(  733) = (  -0.7753924   1.1145586  -0.6722281), wk =   0.0025641
        k(  734) = (  -0.7145610   1.1145586  -0.5041711), wk =   0.0025641
        k(  735) = (  -0.6537297   1.1145586  -0.3361141), wk =   0.0025641
        k(  736) = (  -0.5928983   1.1145586  -0.1680570), wk =   0.0025641
        k(  737) = (  -0.5321202   1.3000093   0.0000000), wk =   0.0025641
        k(  738) = (  -0.4712888   1.3000093   0.1680570), wk =   0.0025641
        k(  739) = (  -0.4104575   1.3000093   0.3361141), wk =   0.0025641
        k(  740) = (  -0.3496261   1.3000093   0.5041711), wk =   0.0025641
        k(  741) = (  -0.2887948   1.3000093   0.6722281), wk =   0.0025641
        k(  742) = (  -0.2279634   1.3000093   0.8402851), wk =   0.0025641
        k(  743) = (  -0.1671321   1.3000093   1.0083422), wk =   0.0025641
        k(  744) = (  -0.8971083   1.3000093  -1.0083422), wk =   0.0025641
        k(  745) = (  -0.8362769   1.3000093  -0.8402851), wk =   0.0025641
        k(  746) = (  -0.7754456   1.3000093  -0.6722281), wk =   0.0025641
        k(  747) = (  -0.7146142   1.3000093  -0.5041711), wk =   0.0025641
        k(  748) = (  -0.6537829   1.3000093  -0.3361141), wk =   0.0025641
        k(  749) = (  -0.5929515   1.3000093  -0.1680570), wk =   0.0025641
        k(  750) = (  -0.5321733   1.4854600   0.0000000), wk =   0.0025641
        k(  751) = (  -0.4713420   1.4854600   0.1680570), wk =   0.0025641
        k(  752) = (  -0.4105106   1.4854600   0.3361141), wk =   0.0025641
        k(  753) = (  -0.3496793   1.4854600   0.5041711), wk =   0.0025641
        k(  754) = (  -0.2888479   1.4854600   0.6722281), wk =   0.0025641
        k(  755) = (  -0.2280166   1.4854600   0.8402851), wk =   0.0025641
        k(  756) = (  -0.1671852   1.4854600   1.0083422), wk =   0.0025641
        k(  757) = (  -0.8971614   1.4854599  -1.0083422), wk =   0.0025641
        k(  758) = (  -0.8363301   1.4854599  -0.8402851), wk =   0.0025641
        k(  759) = (  -0.7754987   1.4854600  -0.6722281), wk =   0.0025641
        k(  760) = (  -0.7146674   1.4854600  -0.5041711), wk =   0.0025641
        k(  761) = (  -0.6538360   1.4854600  -0.3361141), wk =   0.0025641
        k(  762) = (  -0.5930047   1.4854600  -0.1680570), wk =   0.0025641
        k(  763) = (  -0.5322265   1.6709107   0.0000000), wk =   0.0025641
        k(  764) = (  -0.4713952   1.6709107   0.1680570), wk =   0.0025641
        k(  765) = (  -0.4105638   1.6709107   0.3361141), wk =   0.0025641
        k(  766) = (  -0.3497325   1.6709107   0.5041711), wk =   0.0025641
        k(  767) = (  -0.2889011   1.6709107   0.6722281), wk =   0.0025641
        k(  768) = (  -0.2280698   1.6709107   0.8402851), wk =   0.0025641
        k(  769) = (  -0.1672384   1.6709107   1.0083422), wk =   0.0025641
        k(  770) = (  -0.8972146   1.6709106  -1.0083422), wk =   0.0025641
        k(  771) = (  -0.8363833   1.6709106  -0.8402851), wk =   0.0025641
        k(  772) = (  -0.7755519   1.6709106  -0.6722281), wk =   0.0025641
        k(  773) = (  -0.7147206   1.6709106  -0.5041711), wk =   0.0025641
        k(  774) = (  -0.6538892   1.6709106  -0.3361141), wk =   0.0025641
        k(  775) = (  -0.5930579   1.6709106  -0.1680570), wk =   0.0025641
        k(  776) = (  -0.5312162  -1.8526523   0.0000000), wk =   0.0012821
        k(  777) = (  -0.4703849  -1.8526523   0.1680570), wk =   0.0025641
        k(  778) = (  -0.4095535  -1.8526523   0.3361141), wk =   0.0025641
        k(  779) = (  -0.3487222  -1.8526522   0.5041711), wk =   0.0025641
        k(  780) = (  -0.2878908  -1.8526522   0.6722281), wk =   0.0025641
        k(  781) = (  -0.2270595  -1.8526522   0.8402851), wk =   0.0025641
        k(  782) = (  -0.1662281  -1.8526522   1.0083422), wk =   0.0025641

                       cryst. coord.
        k(    1) = (   0.0000000   0.0000000   0.0000000), wk =   0.0012821
        k(    2) = (  -0.0000000  -0.0000000   0.0769231), wk =   0.0025641
        k(    3) = (  -0.0000000  -0.0000000   0.1538462), wk =   0.0025641
        k(    4) = (  -0.0000000  -0.0000000   0.2307692), wk =   0.0025641
        k(    5) = (  -0.0000000  -0.0000000   0.3076923), wk =   0.0025641
        k(    6) = (  -0.0000000  -0.0000000   0.3846154), wk =   0.0025641
        k(    7) = (  -0.0000000  -0.0000000   0.4615385), wk =   0.0025641
        k(    8) = (  -0.0000000   0.0500000   0.0000000), wk =   0.0025641
        k(    9) = (  -0.0000000   0.0500000   0.0769231), wk =   0.0025641
        k(   10) = (  -0.0000000   0.0500000   0.1538462), wk =   0.0025641
        k(   11) = (   0.0000000   0.0500000   0.2307692), wk =   0.0025641
        k(   12) = (  -0.0000000   0.0500000   0.3076923), wk =   0.0025641
        k(   13) = (  -0.0000000   0.0500000   0.3846154), wk =   0.0025641
        k(   14) = (  -0.0000000   0.0500000   0.4615385), wk =   0.0025641
        k(   15) = (  -0.0000000   0.0500000  -0.4615385), wk =   0.0025641
        k(   16) = (   0.0000000   0.0500000  -0.3846154), wk =   0.0025641
        k(   17) = (   0.0000000   0.0500000  -0.3076923), wk =   0.0025641
        k(   18) = (   0.0000000   0.0500000  -0.2307692), wk =   0.0025641
        k(   19) = (   0.0000000   0.0500000  -0.1538462), wk =   0.0025641
        k(   20) = (   0.0000000   0.0500000  -0.0769231), wk =   0.0025641
        k(   21) = (  -0.0000000   0.1000000   0.0000000), wk =   0.0025641
        k(   22) = (  -0.0000000   0.1000000   0.0769231), wk =   0.0025641
        k(   23) = (  -0.0000000   0.1000000   0.1538462), wk =   0.0025641
        k(   24) = (  -0.0000000   0.1000000   0.2307692), wk =   0.0025641
        k(   25) = (  -0.0000000   0.1000000   0.3076923), wk =   0.0025641
        k(   26) = (  -0.0000000   0.1000000   0.3846154), wk =   0.0025641
        k(   27) = (   0.0000000   0.1000000   0.4615385), wk =   0.0025641
        k(   28) = (   0.0000000   0.1000000  -0.4615385), wk =   0.0025641
        k(   29) = (   0.0000000   0.1000000  -0.3846154), wk =   0.0025641
        k(   30) = (   0.0000000   0.1000000  -0.3076923), wk =   0.0025641
        k(   31) = (   0.0000000   0.1000000  -0.2307692), wk =   0.0025641
        k(   32) = (   0.0000000   0.1000000  -0.1538462), wk =   0.0025641
        k(   33) = (   0.0000000   0.1000000  -0.0769231), wk =   0.0025641
        k(   34) = (   0.0000000   0.1500000   0.0000000), wk =   0.0025641
        k(   35) = (  -0.0000000   0.1500000   0.0769231), wk =   0.0025641
        k(   36) = (  -0.0000000   0.1500000   0.1538462), wk =   0.0025641
        k(   37) = (  -0.0000000   0.1500000   0.2307692), wk =   0.0025641
        k(   38) = (  -0.0000000   0.1500000   0.3076923), wk =   0.0025641
        k(   39) = (  -0.0000000   0.1500000   0.3846154), wk =   0.0025641
        k(   40) = (  -0.0000000   0.1500000   0.4615385), wk =   0.0025641
        k(   41) = (   0.0000000   0.1500000  -0.4615385), wk =   0.0025641
        k(   42) = (   0.0000000   0.1500000  -0.3846154), wk =   0.0025641
        k(   43) = (   0.0000000   0.1500000  -0.3076923), wk =   0.0025641
        k(   44) = (   0.0000000   0.1500000  -0.2307692), wk =   0.0025641
        k(   45) = (   0.0000000   0.1500000  -0.1538462), wk =   0.0025641
        k(   46) = (   0.0000000   0.1500000  -0.0769231), wk =   0.0025641
        k(   47) = (  -0.0000000   0.2000000   0.0000000), wk =   0.0025641
        k(   48) = (  -0.0000000   0.2000000   0.0769231), wk =   0.0025641
        k(   49) = (  -0.0000000   0.2000000   0.1538462), wk =   0.0025641
        k(   50) = (  -0.0000000   0.2000000   0.2307692), wk =   0.0025641
        k(   51) = (  -0.0000000   0.2000000   0.3076923), wk =   0.0025641
        k(   52) = (  -0.0000000   0.2000000   0.3846154), wk =   0.0025641
        k(   53) = (  -0.0000000   0.2000000   0.4615385), wk =   0.0025641
        k(   54) = (  -0.0000000   0.2000000  -0.4615385), wk =   0.0025641
        k(   55) = (   0.0000000   0.2000000  -0.3846154), wk =   0.0025641
        k(   56) = (   0.0000000   0.2000000  -0.3076923), wk =   0.0025641
        k(   57) = (   0.0000000   0.2000000  -0.2307692), wk =   0.0025641
        k(   58) = (   0.0000000   0.2000000  -0.1538462), wk =   0.0025641
        k(   59) = (   0.0000000   0.2000000  -0.0769231), wk =   0.0025641
        k(   60) = (  -0.0000000   0.2500000   0.0000000), wk =   0.0025641
        k(   61) = (  -0.0000000   0.2500000   0.0769231), wk =   0.0025641
        k(   62) = (  -0.0000000   0.2500000   0.1538462), wk =   0.0025641
        k(   63) = (   0.0000000   0.2500000   0.2307692), wk =   0.0025641
        k(   64) = (  -0.0000000   0.2500000   0.3076923), wk =   0.0025641
        k(   65) = (  -0.0000000   0.2500000   0.3846154), wk =   0.0025641
        k(   66) = (  -0.0000000   0.2500000   0.4615385), wk =   0.0025641
        k(   67) = (   0.0000000   0.2500000  -0.4615385), wk =   0.0025641
        k(   68) = (   0.0000000   0.2500000  -0.3846154), wk =   0.0025641
        k(   69) = (   0.0000000   0.2500000  -0.3076923), wk =   0.0025641
        k(   70) = (   0.0000000   0.2500000  -0.2307692), wk =   0.0025641
        k(   71) = (   0.0000000   0.2500000  -0.1538462), wk =   0.0025641
        k(   72) = (   0.0000000   0.2500000  -0.0769231), wk =   0.0025641
        k(   73) = (   0.0000000   0.3000000   0.0000000), wk =   0.0025641
        k(   74) = (  -0.0000000   0.3000000   0.0769231), wk =   0.0025641
        k(   75) = (  -0.0000000   0.3000000   0.1538462), wk =   0.0025641
        k(   76) = (  -0.0000000   0.3000000   0.2307692), wk =   0.0025641
        k(   77) = (  -0.0000000   0.3000000   0.3076923), wk =   0.0025641
        k(   78) = (  -0.0000000   0.3000000   0.3846154), wk =   0.0025641
        k(   79) = (  -0.0000000   0.3000000   0.4615385), wk =   0.0025641
        k(   80) = (   0.0000000   0.3000000  -0.4615385), wk =   0.0025641
        k(   81) = (   0.0000000   0.3000000  -0.3846154), wk =   0.0025641
        k(   82) = (   0.0000000   0.3000000  -0.3076923), wk =   0.0025641
        k(   83) = (   0.0000000   0.3000000  -0.2307692), wk =   0.0025641
        k(   84) = (   0.0000000   0.3000000  -0.1538462), wk =   0.0025641
        k(   85) = (   0.0000000   0.3000000  -0.0769231), wk =   0.0025641
        k(   86) = (  -0.0000000   0.3500000   0.0000000), wk =   0.0025641
        k(   87) = (  -0.0000000   0.3500000   0.0769231), wk =   0.0025641
        k(   88) = (  -0.0000000   0.3500000   0.1538462), wk =   0.0025641
        k(   89) = (  -0.0000000   0.3500000   0.2307692), wk =   0.0025641
        k(   90) = (  -0.0000000   0.3500000   0.3076923), wk =   0.0025641
        k(   91) = (  -0.0000000   0.3500000   0.3846154), wk =   0.0025641
        k(   92) = (   0.0000000   0.3500000   0.4615385), wk =   0.0025641
        k(   93) = (   0.0000000   0.3500000  -0.4615385), wk =   0.0025641
        k(   94) = (   0.0000000   0.3500000  -0.3846154), wk =   0.0025641
        k(   95) = (   0.0000000   0.3500000  -0.3076923), wk =   0.0025641
        k(   96) = (   0.0000000   0.3500000  -0.2307692), wk =   0.0025641
        k(   97) = (   0.0000000   0.3500000  -0.1538462), wk =   0.0025641
        k(   98) = (   0.0000000   0.3500000  -0.0769231), wk =   0.0025641
        k(   99) = (  -0.0000000   0.4000000   0.0000000), wk =   0.0025641
        k(  100) = (  -0.0000000   0.4000000   0.0769231), wk =   0.0025641
        k(  101) = (  -0.0000000   0.4000000   0.1538462), wk =   0.0025641
        k(  102) = (  -0.0000000   0.4000000   0.2307692), wk =   0.0025641
        k(  103) = (  -0.0000000   0.4000000   0.3076923), wk =   0.0025641
        k(  104) = (  -0.0000000   0.4000000   0.3846154), wk =   0.0025641
        k(  105) = (  -0.0000000   0.4000000   0.4615385), wk =   0.0025641
        k(  106) = (   0.0000000   0.4000000  -0.4615385), wk =   0.0025641
        k(  107) = (   0.0000000   0.4000000  -0.3846154), wk =   0.0025641
        k(  108) = (   0.0000000   0.4000000  -0.3076923), wk =   0.0025641
        k(  109) = (   0.0000000   0.4000000  -0.2307692), wk =   0.0025641
        k(  110) = (   0.0000000   0.4000000  -0.1538462), wk =   0.0025641
        k(  111) = (  -0.0000000   0.4000000  -0.0769231), wk =   0.0025641
        k(  112) = (  -0.0000000   0.4500000   0.0000000), wk =   0.0025641
        k(  113) = (  -0.0000000   0.4500000   0.0769231), wk =   0.0025641
        k(  114) = (  -0.0000000   0.4500000   0.1538462), wk =   0.0025641
        k(  115) = (  -0.0000000   0.4500000   0.2307692), wk =   0.0025641
        k(  116) = (  -0.0000000   0.4500000   0.3076923), wk =   0.0025641
        k(  117) = (  -0.0000000   0.4500000   0.3846154), wk =   0.0025641
        k(  118) = (  -0.0000000   0.4500000   0.4615385), wk =   0.0025641
        k(  119) = (  -0.0000000   0.4500000  -0.4615385), wk =   0.0025641
        k(  120) = (   0.0000000   0.4500000  -0.3846154), wk =   0.0025641
        k(  121) = (   0.0000000   0.4500000  -0.3076923), wk =   0.0025641
        k(  122) = (   0.0000000   0.4500000  -0.2307692), wk =   0.0025641
        k(  123) = (   0.0000000   0.4500000  -0.1538462), wk =   0.0025641
        k(  124) = (   0.0000000   0.4500000  -0.0769231), wk =   0.0025641
        k(  125) = (   0.0000000  -0.5000000   0.0000000), wk =   0.0012821
        k(  126) = (  -0.0000000  -0.5000000   0.0769231), wk =   0.0025641
        k(  127) = (  -0.0000000  -0.5000000   0.1538462), wk =   0.0025641
        k(  128) = (   0.0000000  -0.5000000   0.2307692), wk =   0.0025641
        k(  129) = (  -0.0000000  -0.5000000   0.3076923), wk =   0.0025641
        k(  130) = (  -0.0000000  -0.5000000   0.3846154), wk =   0.0025641
        k(  131) = (  -0.0000000  -0.5000000   0.4615385), wk =   0.0025641
        k(  132) = (   0.1666667  -0.0000000   0.0000000), wk =   0.0025641
        k(  133) = (   0.1666667  -0.0000000   0.0769231), wk =   0.0025641
        k(  134) = (   0.1666667  -0.0000000   0.1538462), wk =   0.0025641
        k(  135) = (   0.1666667   0.0000000   0.2307692), wk =   0.0025641
        k(  136) = (   0.1666667  -0.0000000   0.3076923), wk =   0.0025641
        k(  137) = (   0.1666667  -0.0000000   0.3846154), wk =   0.0025641
        k(  138) = (   0.1666667  -0.0000000   0.4615385), wk =   0.0025641
        k(  139) = (   0.1666667   0.0000000  -0.4615385), wk =   0.0025641
        k(  140) = (   0.1666667   0.0000000  -0.3846154), wk =   0.0025641
        k(  141) = (   0.1666667   0.0000000  -0.3076923), wk =   0.0025641
        k(  142) = (   0.1666667   0.0000000  -0.2307692), wk =   0.0025641
        k(  143) = (   0.1666667   0.0000000  -0.1538462), wk =   0.0025641
        k(  144) = (   0.1666667  -0.0000000  -0.0769231), wk =   0.0025641
        k(  145) = (   0.1666667   0.0500000   0.0000000), wk =   0.0025641
        k(  146) = (   0.1666667   0.0500000   0.0769231), wk =   0.0025641
        k(  147) = (   0.1666667   0.0500000   0.1538462), wk =   0.0025641
        k(  148) = (   0.1666667   0.0500000   0.2307692), wk =   0.0025641
        k(  149) = (   0.1666667   0.0500000   0.3076923), wk =   0.0025641
        k(  150) = (   0.1666667   0.0500000   0.3846154), wk =   0.0025641
        k(  151) = (   0.1666667   0.0500000   0.4615385), wk =   0.0025641
        k(  152) = (   0.1666667   0.0500000  -0.4615385), wk =   0.0025641
        k(  153) = (   0.1666667   0.0500000  -0.3846154), wk =   0.0025641
        k(  154) = (   0.1666667   0.0500000  -0.3076923), wk =   0.0025641
[...]
    -0.0107

          k =-0.1662-1.8527 1.0083 ( 11596 PWs)   bands (ev):

    -3.6550  -3.6477  -3.1028  -3.0932  -2.2125  -2.2058  -1.7087  -1.6983
    -0.7813  -0.7810   0.5526   0.5685   0.8511   0.8563   1.8625   1.8851
     2.2550   2.2728   2.3558   2.3630   3.4999   3.5006   3.8035   3.8071
     3.9452   3.9480   4.4561   4.4683   4.6441   4.6492   5.6384   5.6600
     5.7148   5.7403   6.0647   6.0711   6.8070   6.8274   7.5042   7.5131
     7.7571

     occupation numbers 
     1.0000   1.0000   1.0000   1.0000   1.0000   1.0000   1.0000   1.0000
     1.0000   1.0000   1.0000   1.0000   1.0000   1.0000   1.0000   1.0000
     1.0000   1.0000   1.0000   1.0000   1.0000   1.0000   1.0000   1.0000
     1.0000   1.0000   1.0000   1.0000   1.0000   1.0000   1.0156   1.0171
     1.0211   1.0231   1.0302   1.0295   0.3522   0.3252  -0.0337  -0.0333
    -0.0160

     the Fermi energy is     6.7004 ev

!    total energy              =    -473.15919379 Ry
     Harris-Foulkes estimate   =    -473.15919379 Ry
     estimated scf accuracy    <          2.4E-13 Ry

     The total energy is the sum of the following terms:

     one-electron contribution =      36.47194603 Ry
     hartree contribution      =      13.19734365 Ry
     xc contribution           =     -90.17200771 Ry
     ewald contribution        =    -119.78393699 Ry
     one-center paw contrib.   =    -312.87118714 Ry
      -> PAW hartree energy AE =       0.81658937 Ry
      -> PAW hartree energy PS =      -0.81473313 Ry
      -> PAW xc energy AE      =     -32.62106818 Ry
      -> PAW xc energy PS      =       1.32492042 Ry
      -> total E_H with PAW    =      13.19919989 Ry
      -> total E_XC with PAW   =    -121.46815547 Ry
     smearing contrib. (-TS)   =      -0.00135163 Ry

     convergence has been achieved in  26 iterations

     Forces acting on atoms (cartesian axes, Ry/au):

     atom    1 type  1   force =    -0.00000747   -0.00000360    0.00000910
     atom    2 type  1   force =    -0.00044231    0.00001632    0.00001372
     atom    3 type  1   force =    -0.00063443    0.00001346   -0.00011171
     atom    4 type  1   force =     0.00063428   -0.00001331    0.00011143
     atom    5 type  1   force =     0.00044283   -0.00001607   -0.00001362
     atom    6 type  2   force =     0.00005844   -0.00002510    0.00042678
     atom    7 type  2   force =    -0.00009267   -0.00004247    0.00104084
     atom    8 type  2   force =    -0.00059183   -0.00006105   -0.00060622
     atom    9 type  2   force =     0.00059171    0.00006102    0.00060598
     atom   10 type  2   force =     0.00009335    0.00004227   -0.00104077
     atom   11 type  2   force =    -0.00005761    0.00002510   -0.00042719
     atom   12 type  1   force =     0.00000322    0.00000361   -0.00000839
     atom   13 type  1   force =    -0.00044181    0.00001909    0.00002246
     atom   14 type  1   force =    -0.00062593    0.00001530   -0.00011145
     atom   15 type  1   force =     0.00062606   -0.00001508    0.00011090
     atom   16 type  1   force =     0.00044205   -0.00001890   -0.00002223
     atom   17 type  2   force =     0.00006953   -0.00001623    0.00041453
     atom   18 type  2   force =    -0.00010515   -0.00004230    0.00104258
     atom   19 type  2   force =    -0.00059183   -0.00005316   -0.00060433
     atom   20 type  2   force =     0.00059320    0.00005306    0.00060445
     atom   21 type  2   force =     0.00010530    0.00004213   -0.00104292
     atom   22 type  2   force =    -0.00006895    0.00001593   -0.00041395
     The non-local contrib.  to forces
     atom    1 type  1   force =    -0.00003112   -0.00000885    0.00001730
     atom    2 type  1   force =     0.00733747   -0.00049809    0.01098582
     atom    3 type  1   force =     0.01703128    0.00002115    0.00316842
     atom    4 type  1   force =    -0.01704724   -0.00002301   -0.00316923
     atom    5 type  1   force =    -0.00734710    0.00049688   -0.01099030
     atom    6 type  2   force =     0.00001023    0.00034915   -0.06320522
     atom    7 type  2   force =     0.04420229    0.00005864    0.01445149
     atom    8 type  2   force =    -0.01374319    0.00001725    0.02667104
     atom    9 type  2   force =     0.01374159   -0.00001629   -0.02666836
     atom   10 type  2   force =    -0.04420282   -0.00005775   -0.01445189
     atom   11 type  2   force =    -0.00000730   -0.00034860    0.06320561
     atom   12 type  1   force =     0.00000581    0.00000744   -0.00001678
     atom   13 type  1   force =     0.00733626   -0.00048789    0.01101368
     atom   14 type  1   force =     0.01706602    0.00003581    0.00316032
     atom   15 type  1   force =    -0.01708146   -0.00003745   -0.00316208
     atom   16 type  1   force =    -0.00734681    0.00048639   -0.01101722
     atom   17 type  2   force =     0.00002463    0.00036469   -0.06322999
     atom   18 type  2   force =     0.04418041    0.00005546    0.01446326
     atom   19 type  2   force =    -0.01374074    0.00002001    0.02667860
     atom   20 type  2   force =     0.01374050   -0.00001941   -0.02667682
     atom   21 type  2   force =    -0.04418234   -0.00005418   -0.01446289
     atom   22 type  2   force =    -0.00002201   -0.00036446    0.06323143
     The ionic contribution  to forces
     atom    1 type  1   force =    -0.00013427    0.00001488   -0.00000439
     atom    2 type  1   force =    -0.41778055    0.00067812   -0.38964804
     atom    3 type  1   force =    -0.25427296    0.00141972    0.19904719
     atom    4 type  1   force =     0.25426868   -0.00142422   -0.19903548
     atom    5 type  1   force =     0.41775369   -0.00068292    0.38965407
     atom    6 type  2   force =    -0.24440152   -0.00081773    1.18110122
     atom    7 type  2   force =    -1.16212056    0.00500250   -1.24666527
     atom    8 type  2   force =    -0.10076381    0.00706153    0.73677465
     atom    9 type  2   force =     0.10077562   -0.00706048   -0.73676868
     atom   10 type  2   force =     1.16215814   -0.00500117    1.24664998
     atom   11 type  2   force =     0.24441399    0.00082304   -1.18110450
     atom   12 type  1   force =     0.00007137   -0.00001173   -0.00000700
     atom   13 type  1   force =    -0.41769268    0.00072335   -0.38967031
     atom   14 type  1   force =    -0.25418979    0.00144143    0.19898047
     atom   15 type  1   force =     0.25418475   -0.00144590   -0.19897065
     atom   16 type  1   force =     0.41766485   -0.00072838    0.38967646
     atom   17 type  2   force =    -0.24402211   -0.00085691    1.18105205
     atom   18 type  2   force =    -1.16197042    0.00508379   -1.24662355
     atom   19 type  2   force =    -0.10085969    0.00722025    0.73667031
     atom   20 type  2   force =     0.10087420   -0.00721944   -0.73666301
     atom   21 type  2   force =     1.16200822   -0.00508230    1.24660774
     atom   22 type  2   force =     0.24403487    0.00086257   -1.18105324
     The local contribution  to forces
     atom    1 type  1   force =     0.00015229   -0.00001078   -0.00000232
     atom    2 type  1   force =     0.41098935   -0.00021763    0.37918587
     atom    3 type  1   force =     0.23851468   -0.00142195   -0.20176630
     atom    4 type  1   force =    -0.23850029    0.00142759    0.20175452
     atom    5 type  1   force =    -0.41095743    0.00022308   -0.37918839
     atom    6 type  2   force =     0.24429984    0.00048013   -1.12359038
     atom    7 type  2   force =     1.12209413   -0.00508811    1.23433900
     atom    8 type  2   force =     0.11250220   -0.00712764   -0.76109634
     atom    9 type  2   force =    -0.11251241    0.00712682    0.76108899
     atom   10 type  2   force =    -1.12213051    0.00508698   -1.23432313
     atom   11 type  2   force =    -0.24431246   -0.00048486    1.12359351
     atom   12 type  1   force =    -0.00007515    0.00000827    0.00001339
     atom   13 type  1   force =     0.41090291   -0.00026877    0.37919202
     atom   14 type  1   force =     0.23840912   -0.00145470   -0.20169253
     atom   15 type  1   force =    -0.23839414    0.00146019    0.20168322
     atom   16 type  1   force =    -0.41086946    0.00027466   -0.37919539
     atom   17 type  2   force =     0.24391880    0.00051450   -1.12353137
     atom   18 type  2   force =     1.12195106   -0.00516609    1.23428848
     atom   19 type  2   force =     0.11259576   -0.00728055   -0.76099690
     atom   20 type  2   force =    -0.11260831    0.00728022    0.76098937
     atom   21 type  2   force =    -1.12198695    0.00516448   -1.23427319
     atom   22 type  2   force =    -0.24393165   -0.00051960    1.12353243
     The core correction contribution to forces
     atom    1 type  1   force =     0.00000367    0.00000083   -0.00000178
     atom    2 type  1   force =    -0.00099054    0.00005360   -0.00051021
     atom    3 type  1   force =    -0.00190935   -0.00000579   -0.00056132
     atom    4 type  1   force =     0.00191111    0.00000601    0.00056133
     atom    5 type  1   force =     0.00099170   -0.00005344    0.00051070
     atom    6 type  2   force =     0.00014799   -0.00003698    0.00612085
     atom    7 type  2   force =    -0.00427047   -0.00001583   -0.00108480
     atom    8 type  2   force =     0.00141101   -0.00001254   -0.00295575
     atom    9 type  2   force =    -0.00141507    0.00001068    0.00295363
     atom   10 type  2   force =     0.00426656    0.00001392    0.00108410
     atom   11 type  2   force =    -0.00015387    0.00003520   -0.00612210
     atom   12 type  1   force =    -0.00000077   -0.00000070    0.00000170
     atom   13 type  1   force =    -0.00099027    0.00005209   -0.00051322
     atom   14 type  1   force =    -0.00191320   -0.00000756   -0.00056000
     atom   15 type  1   force =     0.00191492    0.00000777    0.00056012
     atom   16 type  1   force =     0.00099152   -0.00005190    0.00051362
     atom   17 type  2   force =     0.00014629   -0.00003883    0.00612355
     atom   18 type  2   force =    -0.00426814   -0.00001580   -0.00108605
     atom   19 type  2   force =     0.00141088   -0.00001321   -0.00295652
     atom   20 type  2   force =    -0.00141515    0.00001139    0.00295449
     atom   21 type  2   force =     0.00426440    0.00001383    0.00108526
     atom   22 type  2   force =    -0.00015217    0.00003708   -0.00612487
     The Hubbard contrib.    to forces
     atom    1 type  1   force =     0.00000000    0.00000000    0.00000000
     atom    2 type  1   force =     0.00000000    0.00000000    0.00000000
     atom    3 type  1   force =     0.00000000    0.00000000    0.00000000
     atom    4 type  1   force =     0.00000000    0.00000000    0.00000000
     atom    5 type  1   force =     0.00000000    0.00000000    0.00000000
     atom    6 type  2   force =     0.00000000    0.00000000    0.00000000
     atom    7 type  2   force =     0.00000000    0.00000000    0.00000000
     atom    8 type  2   force =     0.00000000    0.00000000    0.00000000
     atom    9 type  2   force =     0.00000000    0.00000000    0.00000000
     atom   10 type  2   force =     0.00000000    0.00000000    0.00000000
     atom   11 type  2   force =     0.00000000    0.00000000    0.00000000
     atom   12 type  1   force =     0.00000000    0.00000000    0.00000000
     atom   13 type  1   force =     0.00000000    0.00000000    0.00000000
     atom   14 type  1   force =     0.00000000    0.00000000    0.00000000
     atom   15 type  1   force =     0.00000000    0.00000000    0.00000000
     atom   16 type  1   force =     0.00000000    0.00000000    0.00000000
     atom   17 type  2   force =     0.00000000    0.00000000    0.00000000
     atom   18 type  2   force =     0.00000000    0.00000000    0.00000000
     atom   19 type  2   force =     0.00000000    0.00000000    0.00000000
     atom   20 type  2   force =     0.00000000    0.00000000    0.00000000
     atom   21 type  2   force =     0.00000000    0.00000000    0.00000000
     atom   22 type  2   force =     0.00000000    0.00000000    0.00000000
     The SCF correction term to forces
     atom    1 type  1   force =    -0.00000001   -0.00000000   -0.00000000
     atom    2 type  1   force =    -0.00000000   -0.00000001   -0.00000001
     atom    3 type  1   force =    -0.00000005   -0.00000000    0.00000000
     atom    4 type  1   force =     0.00000005    0.00000000    0.00000000
     atom    5 type  1   force =     0.00000001    0.00000001    0.00000001
     atom    6 type  2   force =    -0.00000007   -0.00000000    0.00000001
     atom    7 type  2   force =    -0.00000001    0.00000002    0.00000013
     atom    8 type  2   force =    -0.00000001    0.00000003   -0.00000012
     atom    9 type  2   force =     0.00000001   -0.00000002    0.00000011
     atom   10 type  2   force =     0.00000002   -0.00000002   -0.00000013
     atom   11 type  2   force =     0.00000006    0.00000000   -0.00000001
     atom   12 type  1   force =     0.00000001    0.00000000    0.00000000
     atom   13 type  1   force =     0.00000000   -0.00000001   -0.00000001
     atom   14 type  1   force =    -0.00000004   -0.00000000    0.00000000
     atom   15 type  1   force =     0.00000004    0.00000000   -0.00000000
     atom   16 type  1   force =    -0.00000001    0.00000001    0.00000001
     atom   17 type  2   force =    -0.00000004   -0.00000001   -0.00000000
     atom   18 type  2   force =    -0.00000002    0.00000002    0.00000013
     atom   19 type  2   force =    -0.00000001    0.00000002   -0.00000011
     atom   20 type  2   force =    -0.00000000   -0.00000002    0.00000012
     atom   21 type  2   force =     0.00000001   -0.00000002   -0.00000014
     atom   22 type  2   force =     0.00000005    0.00000000   -0.00000000

     Total force =     0.003228     Total SCF correction =     0.000000


     Computing stress (Cartesian axis) and pressure

          total   stress  (Ry/bohr**3)                   (kbar)     P=   -3.48
  -0.00002532  -0.00000749  -0.00000818         -3.72     -1.10     -1.20
  -0.00000749  -0.00002270   0.00000127         -1.10     -3.34      0.19
  -0.00000818   0.00000127  -0.00002295         -1.20      0.19     -3.38

     kinetic stress (kbar)   1569.33     -0.26      0.14
                               -0.26   1592.32      0.21
                                0.14      0.21   1590.03

     local   stress (kbar)   -145.93      0.12    279.34
                                0.12   -380.84      1.13
                              279.34      1.13    184.13

     nonloc. stress (kbar)   1240.89     -0.98      2.61
                               -0.98   1225.57     -0.02
                                2.61     -0.02   1225.82

     hartree stress (kbar)    215.85      1.13   -125.49
                                1.13    386.29     -0.33
                             -125.49     -0.33    112.94

     exc-cor stress (kbar)   1971.91     -0.04      0.09
                               -0.04   1971.25     -0.00
                                0.09     -0.00   1971.28

     corecor stress (kbar)  -2751.52      0.15     -0.40
                                0.15  -2749.68     -0.00
                               -0.40     -0.00  -2749.74

     ewald   stress (kbar)  -2104.27     -1.22   -157.49
                               -1.22  -2048.24     -0.79
                             -157.49     -0.79  -2337.84

     hubbard stress (kbar)      0.00      0.00      0.00
                                0.00      0.00      0.00
                                0.00      0.00      0.00

     london  stress (kbar)      0.00      0.00      0.00
                                0.00      0.00      0.00
                                0.00      0.00      0.00

     DFT-D3  stress (kbar)      0.00      0.00      0.00
                                0.00      0.00      0.00
                                0.00      0.00      0.00

     XDM     stress (kbar)      0.00      0.00      0.00
                                0.00      0.00      0.00
                                0.00      0.00      0.00

     dft-nl  stress (kbar)      0.00      0.00      0.00
                                0.00      0.00      0.00
                                0.00      0.00      0.00

     TS-vdW  stress (kbar)      0.00      0.00      0.00
                                0.00      0.00      0.00
                                0.00      0.00      0.00



     Writing output data file aiida.save/
 
     init_run     :     22.70s CPU     23.16s WALL (       1 calls)
     electrons    :   1110.40s CPU   1129.25s WALL (       1 calls)
     forces       :      9.05s CPU      9.14s WALL (       1 calls)
     stress       :     68.81s CPU     68.94s WALL (       1 calls)

     Called by init_run:
     wfcinit      :     20.92s CPU     21.29s WALL (       1 calls)
     wfcinit:atom :      0.18s CPU      0.19s WALL (     196 calls)
     wfcinit:wfcr :     19.38s CPU     19.69s WALL (     196 calls)
     potinit      :      0.60s CPU      0.62s WALL (       1 calls)
     hinit0       :      1.05s CPU      1.07s WALL (       1 calls)

     Called by electrons:
     c_bands      :    981.15s CPU    996.48s WALL (      27 calls)
     sum_band     :    123.45s CPU    126.00s WALL (      27 calls)
     v_of_rho     :      2.38s CPU      2.53s WALL (      27 calls)
     v_h          :      0.19s CPU      0.19s WALL (      27 calls)
     v_xc         :      2.34s CPU      2.49s WALL (      29 calls)
     newd         :      1.32s CPU      2.08s WALL (      27 calls)
     PAW_pot      :      0.92s CPU      0.93s WALL (      27 calls)
     mix_rho      :      0.90s CPU      0.94s WALL (      27 calls)

     Called by c_bands:
     init_us_2    :     35.13s CPU     35.57s WALL (   11172 calls)
     cegterg      :    755.49s CPU    765.42s WALL (    5292 calls)

     Called by sum_band:
     sum_band:bec :      0.73s CPU      0.73s WALL (    5292 calls)
     addusdens    :      1.27s CPU      2.04s WALL (      27 calls)

     Called by *egterg:
     h_psi        :    525.06s CPU    533.49s WALL (   20580 calls)
     s_psi        :     75.21s CPU     75.42s WALL (   20580 calls)
     g_psi        :      3.50s CPU      3.52s WALL (   15092 calls)
     cdiaghg      :     75.05s CPU     76.12s WALL (   20188 calls)
     cegterg:over :     36.45s CPU     36.65s WALL (   15092 calls)
     cegterg:upda :     28.38s CPU     28.62s WALL (   15092 calls)
     cegterg:last :     12.42s CPU     12.49s WALL (    5675 calls)
     cdiaghg:chol :      4.87s CPU      4.91s WALL (   20188 calls)
     cdiaghg:inve :      1.00s CPU      1.01s WALL (   20188 calls)
     cdiaghg:para :      9.54s CPU      9.60s WALL (   40376 calls)

     Called by h_psi:
     h_psi:pot    :    522.49s CPU    530.91s WALL (   20580 calls)
     h_psi:calbec :     73.44s CPU     74.29s WALL (   20580 calls)
     vloc_psi     :    373.59s CPU    380.98s WALL (   20580 calls)
     add_vuspsi   :     75.26s CPU     75.49s WALL (   20580 calls)

     General routines
     calbec       :    105.60s CPU    106.76s WALL (   26852 calls)
     fft          :      2.00s CPU      2.08s WALL (     376 calls)
     ffts         :      0.29s CPU      0.30s WALL (     417 calls)
     fftw         :    403.31s CPU    411.07s WALL ( 1343794 calls)
     interpolate  :      0.21s CPU      0.21s WALL (      27 calls)
 
     Parallel routines
     fft_scatt_xy :     52.29s CPU     53.35s WALL ( 1344587 calls)
     fft_scatt_yz :    153.84s CPU    156.99s WALL ( 1344587 calls)

     PAW routines
     PAW_pot      :      0.92s CPU      0.93s WALL (      27 calls)
 
     PWSCF        :  20m35.06s CPU  21m11.70s WALL

 
   This run was terminated on:  14:33:54  22Feb2020            

=------------------------------------------------------------------------------=
   JOB DONE.
=------------------------------------------------------------------------------=
