begin
comment uuid: 0c72cd5b-7aca-4c70-b30e-f3753f8a699b 
lattice 7.6331962444 0.0076331962 0.0000000000
lattice 0.0076331962 7.6331962444 0.0000000000
lattice 0.0000000000 0.0000000000 7.6332038776
atom   0.000000    0.000000   0.000000 Al  0.0   0.0  -0.0000000050  -0.0000000050  0.0000000000
atom   0.003817    3.816598   3.816602 Al  0.0   0.0  0.0000000050  -0.0000000050  0.0000000050
atom   3.816598    0.003817   3.816602 Al  0.0   0.0  0.0000000000  0.0000000050  -0.0000000050
atom   3.820415    3.820415   0.000000 Al  0.0   0.0  -0.0000000000  0.0000000000  0.0000000000
energy -79.005549730000013
charge 0.000000000000000
end
