begin
comment 4 atoms, species Al4
lattice      7.6331962444     0.0076331962     0.0000000000
lattice      0.0076331962     7.6331962444     0.0000000000
lattice      0.0000000000     0.0000000000     7.6332038776
atom      0.0000000000     0.0000000000     0.0000000000   Al  0.0 0.0   -5.26194190e-14 -1.83710180e-13  2.29266492e-15
atom      0.0038165981     3.8165981222     3.8166019388   Al  0.0 0.0   -5.62052276e-14  1.84587312e-13 -2.30150150e-15
atom      3.8165981222     0.0038165981     3.8166019388   Al  0.0 0.0    5.62007040e-14 -1.84651653e-13 -2.33422867e-15
atom      3.8204147203     3.8204147203     0.0000000000   Al  0.0 0.0    5.26158525e-14  1.83768287e-13  2.25494036e-15
energy -7.900482057712323e+01
charge 0.0000
end
