
     Program PWSCF v.6.3 starts on 22Feb2020 at 14:12:19 

     This program is part of the open-source Quantum ESPRESSO suite
     for quantum simulation of materials; please cite
         "P. Giannozzi et al., J. Phys.:Condens. Matter 21 395502 (2009);
         "P. Giannozzi et al., J. Phys.:Condens. Matter 29 465901 (2017);
          URL http://www.quantum-espresso.org", 
     in publications or presentations arising from this work. More details at
     http://www.quantum-espresso.org/quote

 *** WARNING: using old-style file format, will disappear from next version ***

     Parallel version (MPI & OpenMP), running on      36 processor cores
     Number of MPI processes:                36
     Threads/MPI process:                     1

     MPI processes distributed on     1 nodes
     K-points division:     npool     =       4
     R & G space division:  proc/nbgrp/npool/nimage =       9
     Reading input from aiida.in
Warning: card &IONS ignored
Warning: card   !PRESS_CONV_THR = 0.05                 ! JUST FOR VOLUME RELAXATIONS ignored
Warning: card / ignored

     Current dimensions of program PWSCF are:
     Max number of different atomic species (ntypx) = 10
     Max number of k-points (npk) =  40000
     Max angular momentum in pseudopotentials (lmaxx) =  3
               file Mg.pbe-n-kjpaw_psl.0.3.0.UPF: wavefunction(s)  3S renormalized
               file Al.pbe-n-kjpaw_psl.1.0.0.UPF: wavefunction(s)  3S 3P renormalized

     Subspace diagonalization in iterative solution of the eigenvalue problem:
     one sub-group per band group will be used
     scalapack distributed-memory algorithm (size of sub-group:  2*  2 procs)

 
     Parallelization info
     --------------------
     sticks:   dense  smooth     PW     G-vecs:    dense   smooth      PW
     Min         751     300     88                40377    10222    1614
     Max         751     301     89                40378    10223    1616
     Sum        6759    2705    797               363395    92001   14535
 


     bravais-lattice index     =            0
     lattice parameter (alat)  =      27.6424  a.u.
     unit-cell volume          =    2689.1038 (a.u.)^3
     number of atoms/cell      =           22
     number of atomic types    =            3
     number of electrons       =        64.00
     number of Kohn-Sham states=           38
     kinetic-energy cutoff     =      40.0000  Ry
     charge density cutoff     =     400.0000  Ry
     convergence threshold     =      1.0E-12
     mixing beta               =       0.4000
     number of iterations used =            8  local-TF  mixing
     Exchange-correlation      = SLA PW PBX PBC ( 1  4  3  4 0 0)

     celldm(1)=  27.642385  celldm(2)=   0.000000  celldm(3)=   0.000000
     celldm(4)=   0.000000  celldm(5)=   0.000000  celldm(6)=   0.000000

     crystal axes: (cart. coord. in units of alat)
               a(1) = (   0.964764   0.000000  -0.263117 )  
               a(2) = (   0.000000   0.277352   0.000000 )  
               a(3) = (   0.000000   0.000000   0.475804 )  

     reciprocal axes: (cart. coord. in units 2 pi/alat)
               b(1) = (  1.036523  0.000000  0.000000 )  
               b(2) = (  0.000000  3.605521  0.000000 )  
               b(3) = (  0.573193  0.000000  2.101706 )  


     PseudoPot. # 1 for Mg read from file:
     /users/aglensk/Dropbox/Albert/scripts/dotfiles/scripts/potentials/quantum_espresso/pseudo_SSSPefV1.1_alalloy/Mg.pbe-n-kjpaw_psl.0.3.0.UPF
     MD5 check sum: 24ecedc7f3e3cbe212e682f4413594e4
     Pseudo is Projector augmented-wave + core cor, Zval =  2.0
     Generated using "atomic" code by A. Dal Corso v.5.0.99 svn rev. 10869
     Shape of augmentation charge: PSQ
     Using radial grid of 1129 points,  4 beta functions with: 
                l(1) =   0
                l(2) =   0
                l(3) =   1
                l(4) =   1
     Q(r) pseudized with 0 coefficients 


     PseudoPot. # 2 for Si read from file:
     /users/aglensk/Dropbox/Albert/scripts/dotfiles/scripts/potentials/quantum_espresso/pseudo_SSSPefV1.1_alalloy/Si.pbe-n-rrkjus_psl.1.0.0.UPF
     MD5 check sum: 0b0bb1205258b0d07b9f9672cf965d36
     Pseudo is Ultrasoft + core correction, Zval =  4.0
     Generated using "atomic" code by A. Dal Corso v.5.1
     Using radial grid of 1141 points,  6 beta functions with: 
                l(1) =   0
                l(2) =   0
                l(3) =   1
                l(4) =   1
                l(5) =   2
                l(6) =   2
     Q(r) pseudized with 0 coefficients 


     PseudoPot. # 3 for Al read from file:
     /users/aglensk/Dropbox/Albert/scripts/dotfiles/scripts/potentials/quantum_espresso/pseudo_SSSPefV1.1_alalloy/Al.pbe-n-kjpaw_psl.1.0.0.UPF
     MD5 check sum: cfc449ca30b5f3223ec38ddd88ac046d
     Pseudo is Projector augmented-wave + core cor, Zval =  3.0
     Generated using "atomic" code by A. Dal Corso v.5.1
     Shape of augmentation charge: PSQ
     Using radial grid of 1135 points,  6 beta functions with: 
                l(1) =   0
                l(2) =   0
                l(3) =   1
                l(4) =   1
                l(5) =   2
                l(6) =   2
     Q(r) pseudized with 0 coefficients 


     atomic species   valence    mass     pseudopotential
        Mg             2.00    24.30500     Mg( 1.00)
        Si             4.00    28.08500     Si( 1.00)
        Al             3.00    26.98154     Al( 1.00)

     No symmetry found


                                    s                        frac. trans.

      isym =  1     identity                                     

 cryst.   s( 1) = (     1          0          0      )
                  (     0          1          0      )
                  (     0          0          1      )

 cart.    s( 1) = (  1.0000000  0.0000000  0.0000000 )
                  (  0.0000000  1.0000000  0.0000000 )
                  ( -0.0000000  0.0000000  1.0000000 )


   Cartesian axes

     site n.     atom                  positions (alat units)
         1           Mg  tau(   1) = (   0.0013570   0.0000000   0.3223592  )
         2           Mg  tau(   2) = (   0.0718030   0.1386762  -0.0033184  )
         3           Mg  tau(   3) = (   0.1498930   0.1386762   0.2409264  )
         4           Mg  tau(   4) = (   0.3352135   0.0000000   0.2722021  )
         5           Mg  tau(   5) = (   0.4133000   0.0000000   0.0406453  )
         6           Si  tau(   6) = (   0.0571145   0.0000000   0.1440075  )
         7           Si  tau(   7) = (   0.1794538   0.0000000   0.3788037  )
         8           Al  tau(   8) = (   0.2129499   0.0000000   0.0806357  )
         9           Al  tau(   9) = (   0.2721526   0.1386762  -0.0433094  )
        10           Si  tau(  10) = (   0.3056509   0.1386762   0.1343247  )
        11           Si  tau(  11) = (   0.4279856   0.1386762  -0.1066837  )
        12           Mg  tau(  12) = (   0.4837490   0.1386762   0.1907702  )
        13           Mg  tau(  13) = (   0.5541839   0.0000000  -0.1349172  )
        14           Mg  tau(  14) = (   0.6322675   0.0000000   0.1093509  )
        15           Mg  tau(  15) = (   0.8176027   0.1386762   0.1406606  )
        16           Mg  tau(  16) = (   0.8956828   0.1386762  -0.0908731  )
        17           Si  tau(  17) = (   0.5394909   0.1386762   0.0124253  )
        18           Si  tau(  18) = (   0.6618383   0.1386762   0.2472398  )
        19           Al  tau(  19) = (   0.6953291   0.1386762  -0.0509319  )
        20           Al  tau(  20) = (   0.7545374   0.0000000  -0.1748587  )
        21           Si  tau(  21) = (   0.7880301   0.0000000   0.0027718  )
        22           Si  tau(  22) = (   0.9103730   0.0000000  -0.2382189  )

   Crystallographic axes

     site n.     atom                  positions (cryst. coord.)
         1           Mg  tau(   1) = (  0.0014066  0.0000000  0.6782821  )
         2           Mg  tau(   2) = (  0.0744254  0.5000000  0.0341826  )
         3           Mg  tau(   3) = (  0.1553676  0.5000000  0.5922739  )
         4           Mg  tau(   4) = (  0.3474566  0.0000000  0.7642305  )
         5           Mg  tau(   5) = (  0.4283950  0.0000000  0.3223249  )
         6           Si  tau(   6) = (  0.0592005  0.0000000  0.3353990  )
         7           Si  tau(   7) = (  0.1860080  0.0000000  0.8989956  )
         8           Al  tau(   8) = (  0.2207275  0.0000000  0.2915337  )
         9           Al  tau(   9) = (  0.2820925  0.5000000  0.0649722  )
        10           Si  tau(  10) = (  0.3168142  0.5000000  0.4575077  )
        11           Si  tau(  11) = (  0.4436169  0.5000000  0.0211003  )
        12           Mg  tau(  12) = (  0.5014170  0.5000000  0.6782241  )
        13           Mg  tau(  13) = (  0.5744245  0.0000000  0.0340978  )
        14           Mg  tau(  14) = (  0.6553599  0.0000000  0.5922344  )
        15           Mg  tau(  15) = (  0.8474641  0.5000000  0.7642710  )
        16           Mg  tau(  16) = (  0.9283959  0.5000000  0.3224101  )
        17           Si  tau(  17) = (  0.5591948  0.5000000  0.3353465  )
        18           Si  tau(  18) = (  0.6860107  0.5000000  0.8989860  )
        19           Al  tau(  19) = (  0.7207247  0.5000000  0.2915136  )
        20           Al  tau(  20) = (  0.7820954  0.0000000  0.0649936  )
        21           Si  tau(  21) = (  0.8168114  0.0000000  0.4575184  )
        22           Si  tau(  22) = (  0.9436227  0.0000000  0.0211530  )

     number of k points=   724  Methfessel-Paxton smearing, width (Ry)=  0.0441
                       cart. coord. in units 2pi/alat
        k(    1) = (   0.0000000   0.0000000   0.0000000), wk =   0.0013889
        k(    2) = (   0.0477660   0.0000000   0.1751422), wk =   0.0027778
        k(    3) = (   0.0955321   0.0000000   0.3502843), wk =   0.0027778
        k(    4) = (   0.1432981   0.0000000   0.5254265), wk =   0.0027778
        k(    5) = (   0.1910642   0.0000000   0.7005686), wk =   0.0027778
        k(    6) = (   0.2388302   0.0000000   0.8757108), wk =   0.0027778
        k(    7) = (  -0.2865963   0.0000000  -1.0508529), wk =   0.0013889
        k(    8) = (   0.0000000   0.1802761   0.0000000), wk =   0.0027778
        k(    9) = (   0.0477660   0.1802761   0.1751422), wk =   0.0027778
        k(   10) = (   0.0955321   0.1802761   0.3502843), wk =   0.0027778
        k(   11) = (   0.1432981   0.1802761   0.5254265), wk =   0.0027778
        k(   12) = (   0.1910642   0.1802761   0.7005686), wk =   0.0027778
        k(   13) = (   0.2388302   0.1802761   0.8757108), wk =   0.0027778
        k(   14) = (  -0.2865963   0.1802761  -1.0508529), wk =   0.0027778
        k(   15) = (  -0.2388302   0.1802761  -0.8757108), wk =   0.0027778
        k(   16) = (  -0.1910642   0.1802761  -0.7005686), wk =   0.0027778
        k(   17) = (  -0.1432981   0.1802761  -0.5254265), wk =   0.0027778
        k(   18) = (  -0.0955321   0.1802761  -0.3502843), wk =   0.0027778
        k(   19) = (  -0.0477660   0.1802761  -0.1751422), wk =   0.0027778
        k(   20) = (   0.0000000   0.3605521   0.0000000), wk =   0.0027778
        k(   21) = (   0.0477660   0.3605521   0.1751422), wk =   0.0027778
        k(   22) = (   0.0955321   0.3605521   0.3502843), wk =   0.0027778
        k(   23) = (   0.1432981   0.3605521   0.5254265), wk =   0.0027778
        k(   24) = (   0.1910642   0.3605521   0.7005686), wk =   0.0027778
        k(   25) = (   0.2388302   0.3605521   0.8757108), wk =   0.0027778
        k(   26) = (  -0.2865963   0.3605521  -1.0508529), wk =   0.0027778
        k(   27) = (  -0.2388302   0.3605521  -0.8757108), wk =   0.0027778
        k(   28) = (  -0.1910642   0.3605521  -0.7005686), wk =   0.0027778
        k(   29) = (  -0.1432981   0.3605521  -0.5254265), wk =   0.0027778
        k(   30) = (  -0.0955321   0.3605521  -0.3502843), wk =   0.0027778
        k(   31) = (  -0.0477660   0.3605521  -0.1751422), wk =   0.0027778
        k(   32) = (   0.0000000   0.5408282   0.0000000), wk =   0.0027778
        k(   33) = (   0.0477660   0.5408282   0.1751422), wk =   0.0027778
        k(   34) = (   0.0955321   0.5408282   0.3502843), wk =   0.0027778
        k(   35) = (   0.1432981   0.5408282   0.5254265), wk =   0.0027778
        k(   36) = (   0.1910642   0.5408282   0.7005686), wk =   0.0027778
        k(   37) = (   0.2388302   0.5408282   0.8757108), wk =   0.0027778
        k(   38) = (  -0.2865963   0.5408282  -1.0508529), wk =   0.0027778
        k(   39) = (  -0.2388302   0.5408282  -0.8757108), wk =   0.0027778
        k(   40) = (  -0.1910642   0.5408282  -0.7005686), wk =   0.0027778
        k(   41) = (  -0.1432981   0.5408282  -0.5254265), wk =   0.0027778
        k(   42) = (  -0.0955321   0.5408282  -0.3502843), wk =   0.0027778
        k(   43) = (  -0.0477660   0.5408282  -0.1751422), wk =   0.0027778
        k(   44) = (   0.0000000   0.7211043   0.0000000), wk =   0.0027778
        k(   45) = (   0.0477660   0.7211043   0.1751422), wk =   0.0027778
        k(   46) = (   0.0955321   0.7211043   0.3502843), wk =   0.0027778
        k(   47) = (   0.1432981   0.7211043   0.5254265), wk =   0.0027778
        k(   48) = (   0.1910642   0.7211043   0.7005686), wk =   0.0027778
        k(   49) = (   0.2388302   0.7211043   0.8757108), wk =   0.0027778
        k(   50) = (  -0.2865963   0.7211043  -1.0508529), wk =   0.0027778
        k(   51) = (  -0.2388302   0.7211043  -0.8757108), wk =   0.0027778
        k(   52) = (  -0.1910642   0.7211043  -0.7005686), wk =   0.0027778
        k(   53) = (  -0.1432981   0.7211043  -0.5254265), wk =   0.0027778
        k(   54) = (  -0.0955321   0.7211043  -0.3502843), wk =   0.0027778
        k(   55) = (  -0.0477660   0.7211043  -0.1751422), wk =   0.0027778
        k(   56) = (   0.0000000   0.9013803   0.0000000), wk =   0.0027778
        k(   57) = (   0.0477660   0.9013803   0.1751422), wk =   0.0027778
        k(   58) = (   0.0955321   0.9013803   0.3502843), wk =   0.0027778
        k(   59) = (   0.1432981   0.9013803   0.5254265), wk =   0.0027778
        k(   60) = (   0.1910642   0.9013803   0.7005686), wk =   0.0027778
        k(   61) = (   0.2388302   0.9013803   0.8757108), wk =   0.0027778
        k(   62) = (  -0.2865963   0.9013803  -1.0508529), wk =   0.0027778
        k(   63) = (  -0.2388302   0.9013803  -0.8757108), wk =   0.0027778
        k(   64) = (  -0.1910642   0.9013803  -0.7005686), wk =   0.0027778
        k(   65) = (  -0.1432981   0.9013803  -0.5254265), wk =   0.0027778
        k(   66) = (  -0.0955321   0.9013803  -0.3502843), wk =   0.0027778
        k(   67) = (  -0.0477660   0.9013803  -0.1751422), wk =   0.0027778
        k(   68) = (   0.0000000   1.0816564   0.0000000), wk =   0.0027778
        k(   69) = (   0.0477660   1.0816564   0.1751422), wk =   0.0027778
        k(   70) = (   0.0955321   1.0816564   0.3502843), wk =   0.0027778
        k(   71) = (   0.1432981   1.0816564   0.5254265), wk =   0.0027778
        k(   72) = (   0.1910642   1.0816564   0.7005686), wk =   0.0027778
        k(   73) = (   0.2388302   1.0816564   0.8757108), wk =   0.0027778
        k(   74) = (  -0.2865963   1.0816564  -1.0508529), wk =   0.0027778
        k(   75) = (  -0.2388302   1.0816564  -0.8757108), wk =   0.0027778
        k(   76) = (  -0.1910642   1.0816564  -0.7005686), wk =   0.0027778
        k(   77) = (  -0.1432981   1.0816564  -0.5254265), wk =   0.0027778
        k(   78) = (  -0.0955321   1.0816564  -0.3502843), wk =   0.0027778
        k(   79) = (  -0.0477660   1.0816564  -0.1751422), wk =   0.0027778
        k(   80) = (   0.0000000   1.2619324   0.0000000), wk =   0.0027778
        k(   81) = (   0.0477660   1.2619324   0.1751422), wk =   0.0027778
        k(   82) = (   0.0955321   1.2619324   0.3502843), wk =   0.0027778
        k(   83) = (   0.1432981   1.2619324   0.5254265), wk =   0.0027778
        k(   84) = (   0.1910642   1.2619324   0.7005686), wk =   0.0027778
        k(   85) = (   0.2388302   1.2619324   0.8757108), wk =   0.0027778
        k(   86) = (  -0.2865963   1.2619324  -1.0508529), wk =   0.0027778
        k(   87) = (  -0.2388302   1.2619324  -0.8757108), wk =   0.0027778
        k(   88) = (  -0.1910642   1.2619324  -0.7005686), wk =   0.0027778
        k(   89) = (  -0.1432981   1.2619324  -0.5254265), wk =   0.0027778
        k(   90) = (  -0.0955321   1.2619324  -0.3502843), wk =   0.0027778
        k(   91) = (  -0.0477660   1.2619324  -0.1751422), wk =   0.0027778
        k(   92) = (   0.0000000   1.4422085   0.0000000), wk =   0.0027778
        k(   93) = (   0.0477660   1.4422085   0.1751422), wk =   0.0027778
        k(   94) = (   0.0955321   1.4422085   0.3502843), wk =   0.0027778
        k(   95) = (   0.1432981   1.4422085   0.5254265), wk =   0.0027778
        k(   96) = (   0.1910642   1.4422085   0.7005686), wk =   0.0027778
        k(   97) = (   0.2388302   1.4422085   0.8757108), wk =   0.0027778
        k(   98) = (  -0.2865963   1.4422085  -1.0508529), wk =   0.0027778
        k(   99) = (  -0.2388302   1.4422085  -0.8757108), wk =   0.0027778
        k(  100) = (  -0.1910642   1.4422085  -0.7005686), wk =   0.0027778
        k(  101) = (  -0.1432981   1.4422085  -0.5254265), wk =   0.0027778
        k(  102) = (  -0.0955321   1.4422085  -0.3502843), wk =   0.0027778
        k(  103) = (  -0.0477660   1.4422085  -0.1751422), wk =   0.0027778
        k(  104) = (   0.0000000   1.6224846   0.0000000), wk =   0.0027778
        k(  105) = (   0.0477660   1.6224846   0.1751422), wk =   0.0027778
        k(  106) = (   0.0955321   1.6224846   0.3502843), wk =   0.0027778
        k(  107) = (   0.1432981   1.6224846   0.5254265), wk =   0.0027778
        k(  108) = (   0.1910642   1.6224846   0.7005686), wk =   0.0027778
        k(  109) = (   0.2388302   1.6224846   0.8757108), wk =   0.0027778
        k(  110) = (  -0.2865963   1.6224846  -1.0508529), wk =   0.0027778
        k(  111) = (  -0.2388302   1.6224846  -0.8757108), wk =   0.0027778
        k(  112) = (  -0.1910642   1.6224846  -0.7005686), wk =   0.0027778
        k(  113) = (  -0.1432981   1.6224846  -0.5254265), wk =   0.0027778
        k(  114) = (  -0.0955321   1.6224846  -0.3502843), wk =   0.0027778
        k(  115) = (  -0.0477660   1.6224846  -0.1751422), wk =   0.0027778
        k(  116) = (   0.0000000  -1.8027606   0.0000000), wk =   0.0013889
        k(  117) = (   0.0477660  -1.8027606   0.1751422), wk =   0.0027778
        k(  118) = (   0.0955321  -1.8027606   0.3502843), wk =   0.0027778
        k(  119) = (   0.1432981  -1.8027606   0.5254265), wk =   0.0027778
        k(  120) = (   0.1910642  -1.8027606   0.7005686), wk =   0.0027778
        k(  121) = (   0.2388302  -1.8027606   0.8757108), wk =   0.0027778
        k(  122) = (  -0.2865963  -1.8027606  -1.0508529), wk =   0.0013889
        k(  123) = (   0.1727539   0.0000000   0.0000000), wk =   0.0027778
        k(  124) = (   0.2205199   0.0000000   0.1751422), wk =   0.0027778
        k(  125) = (   0.2682859   0.0000000   0.3502843), wk =   0.0027778
        k(  126) = (   0.3160520   0.0000000   0.5254265), wk =   0.0027778
        k(  127) = (   0.3638180   0.0000000   0.7005686), wk =   0.0027778
        k(  128) = (   0.4115841   0.0000000   0.8757108), wk =   0.0027778
        k(  129) = (  -0.1138424   0.0000000  -1.0508529), wk =   0.0027778
        k(  130) = (  -0.0660764   0.0000000  -0.8757108), wk =   0.0027778
        k(  131) = (  -0.0183103   0.0000000  -0.7005686), wk =   0.0027778
        k(  132) = (   0.0294557   0.0000000  -0.5254265), wk =   0.0027778
        k(  133) = (   0.0772218   0.0000000  -0.3502843), wk =   0.0027778
        k(  134) = (   0.1249878   0.0000000  -0.1751422), wk =   0.0027778
        k(  135) = (   0.1727539   0.1802761   0.0000000), wk =   0.0027778
        k(  136) = (   0.2205199   0.1802761   0.1751422), wk =   0.0027778
        k(  137) = (   0.2682859   0.1802761   0.3502843), wk =   0.0027778
        k(  138) = (   0.3160520   0.1802761   0.5254265), wk =   0.0027778
        k(  139) = (   0.3638180   0.1802761   0.7005686), wk =   0.0027778
        k(  140) = (   0.4115841   0.1802761   0.8757108), wk =   0.0027778
        k(  141) = (  -0.1138424   0.1802761  -1.0508529), wk =   0.0027778
        k(  142) = (  -0.0660764   0.1802761  -0.8757108), wk =   0.0027778
        k(  143) = (  -0.0183103   0.1802761  -0.7005686), wk =   0.0027778
        k(  144) = (   0.0294557   0.1802761  -0.5254265), wk =   0.0027778
        k(  145) = (   0.0772218   0.1802761  -0.3502843), wk =   0.0027778
        k(  146) = (   0.1249878   0.1802761  -0.1751422), wk =   0.0027778
        k(  147) = (   0.1727539   0.3605521   0.0000000), wk =   0.0027778
        k(  148) = (   0.2205199   0.3605521   0.1751422), wk =   0.0027778
        k(  149) = (   0.2682859   0.3605521   0.3502843), wk =   0.0027778
        k(  150) = (   0.3160520   0.3605521   0.5254265), wk =   0.0027778
        k(  151) = (   0.3638180   0.3605521   0.7005686), wk =   0.0027778
        k(  152) = (   0.4115841   0.3605521   0.8757108), wk =   0.0027778
        k(  153) = (  -0.1138424   0.3605521  -1.0508529), wk =   0.0027778
        k(  154) = (  -0.0660764   0.3605521  -0.8757108), wk =   0.0027778
        k(  155) = (  -0.0183103   0.3605521  -0.7005686), wk =   0.0027778
        k(  156) = (   0.0294557   0.3605521  -0.5254265), wk =   0.0027778
        k(  157) = (   0.0772218   0.3605521  -0.3502843), wk =   0.0027778
        k(  158) = (   0.1249878   0.3605521  -0.1751422), wk =   0.0027778
        k(  159) = (   0.1727539   0.5408282   0.0000000), wk =   0.0027778
        k(  160) = (   0.2205199   0.5408282   0.1751422), wk =   0.0027778
        k(  161) = (   0.2682859   0.5408282   0.3502843), wk =   0.0027778
        k(  162) = (   0.3160520   0.5408282   0.5254265), wk =   0.0027778
        k(  163) = (   0.3638180   0.5408282   0.7005686), wk =   0.0027778
        k(  164) = (   0.4115841   0.5408282   0.8757108), wk =   0.0027778
        k(  165) = (  -0.1138424   0.5408282  -1.0508529), wk =   0.0027778
        k(  166) = (  -0.0660764   0.5408282  -0.8757108), wk =   0.0027778
        k(  167) = (  -0.0183103   0.5408282  -0.7005686), wk =   0.0027778
        k(  168) = (   0.0294557   0.5408282  -0.5254265), wk =   0.0027778
        k(  169) = (   0.0772218   0.5408282  -0.3502843), wk =   0.0027778
        k(  170) = (   0.1249878   0.5408282  -0.1751422), wk =   0.0027778
        k(  171) = (   0.1727539   0.7211043   0.0000000), wk =   0.0027778
        k(  172) = (   0.2205199   0.7211043   0.1751422), wk =   0.0027778
        k(  173) = (   0.2682859   0.7211043   0.3502843), wk =   0.0027778
        k(  174) = (   0.3160520   0.7211043   0.5254265), wk =   0.0027778
        k(  175) = (   0.3638180   0.7211043   0.7005686), wk =   0.0027778
        k(  176) = (   0.4115841   0.7211043   0.8757108), wk =   0.0027778
        k(  177) = (  -0.1138424   0.7211043  -1.0508529), wk =   0.0027778
        k(  178) = (  -0.0660764   0.7211043  -0.8757108), wk =   0.0027778
        k(  179) = (  -0.0183103   0.7211043  -0.7005686), wk =   0.0027778
        k(  180) = (   0.0294557   0.7211043  -0.5254265), wk =   0.0027778
        k(  181) = (   0.0772218   0.7211043  -0.3502843), wk =   0.0027778
        k(  182) = (   0.1249878   0.7211043  -0.1751422), wk =   0.0027778
        k(  183) = (   0.1727539   0.9013803   0.0000000), wk =   0.0027778
        k(  184) = (   0.2205199   0.9013803   0.1751422), wk =   0.0027778
        k(  185) = (   0.2682859   0.9013803   0.3502843), wk =   0.0027778
        k(  186) = (   0.3160520   0.9013803   0.5254265), wk =   0.0027778
        k(  187) = (   0.3638180   0.9013803   0.7005686), wk =   0.0027778
        k(  188) = (   0.4115841   0.9013803   0.8757108), wk =   0.0027778
        k(  189) = (  -0.1138424   0.9013803  -1.0508529), wk =   0.0027778
        k(  190) = (  -0.0660764   0.9013803  -0.8757108), wk =   0.0027778
        k(  191) = (  -0.0183103   0.9013803  -0.7005686), wk =   0.0027778
        k(  192) = (   0.0294557   0.9013803  -0.5254265), wk =   0.0027778
        k(  193) = (   0.0772218   0.9013803  -0.3502843), wk =   0.0027778
        k(  194) = (   0.1249878   0.9013803  -0.1751422), wk =   0.0027778
        k(  195) = (   0.1727539   1.0816564   0.0000000), wk =   0.0027778
        k(  196) = (   0.2205199   1.0816564   0.1751422), wk =   0.0027778
        k(  197) = (   0.2682859   1.0816564   0.3502843), wk =   0.0027778
        k(  198) = (   0.3160520   1.0816564   0.5254265), wk =   0.0027778
        k(  199) = (   0.3638180   1.0816564   0.7005686), wk =   0.0027778
        k(  200) = (   0.4115841   1.0816564   0.8757108), wk =   0.0027778
        k(  201) = (  -0.1138424   1.0816564  -1.0508529), wk =   0.0027778
        k(  202) = (  -0.0660764   1.0816564  -0.8757108), wk =   0.0027778
        k(  203) = (  -0.0183103   1.0816564  -0.7005686), wk =   0.0027778
        k(  204) = (   0.0294557   1.0816564  -0.5254265), wk =   0.0027778
        k(  205) = (   0.0772218   1.0816564  -0.3502843), wk =   0.0027778
        k(  206) = (   0.1249878   1.0816564  -0.1751422), wk =   0.0027778
        k(  207) = (   0.1727539   1.2619324   0.0000000), wk =   0.0027778
        k(  208) = (   0.2205199   1.2619324   0.1751422), wk =   0.0027778
        k(  209) = (   0.2682859   1.2619324   0.3502843), wk =   0.0027778
        k(  210) = (   0.3160520   1.2619324   0.5254265), wk =   0.0027778
        k(  211) = (   0.3638180   1.2619324   0.7005686), wk =   0.0027778
        k(  212) = (   0.4115841   1.2619324   0.8757108), wk =   0.0027778
        k(  213) = (  -0.1138424   1.2619324  -1.0508529), wk =   0.0027778
        k(  214) = (  -0.0660764   1.2619324  -0.8757108), wk =   0.0027778
        k(  215) = (  -0.0183103   1.2619324  -0.7005686), wk =   0.0027778
        k(  216) = (   0.0294557   1.2619324  -0.5254265), wk =   0.0027778
        k(  217) = (   0.0772218   1.2619324  -0.3502843), wk =   0.0027778
        k(  218) = (   0.1249878   1.2619324  -0.1751422), wk =   0.0027778
        k(  219) = (   0.1727539   1.4422085   0.0000000), wk =   0.0027778
        k(  220) = (   0.2205199   1.4422085   0.1751422), wk =   0.0027778
        k(  221) = (   0.2682859   1.4422085   0.3502843), wk =   0.0027778
        k(  222) = (   0.3160520   1.4422085   0.5254265), wk =   0.0027778
        k(  223) = (   0.3638180   1.4422085   0.7005686), wk =   0.0027778
        k(  224) = (   0.4115841   1.4422085   0.8757108), wk =   0.0027778
        k(  225) = (  -0.1138424   1.4422085  -1.0508529), wk =   0.0027778
        k(  226) = (  -0.0660764   1.4422085  -0.8757108), wk =   0.0027778
        k(  227) = (  -0.0183103   1.4422085  -0.7005686), wk =   0.0027778
        k(  228) = (   0.0294557   1.4422085  -0.5254265), wk =   0.0027778
        k(  229) = (   0.0772218   1.4422085  -0.3502843), wk =   0.0027778
        k(  230) = (   0.1249878   1.4422085  -0.1751422), wk =   0.0027778
        k(  231) = (   0.1727539   1.6224846   0.0000000), wk =   0.0027778
        k(  232) = (   0.2205199   1.6224846   0.1751422), wk =   0.0027778
        k(  233) = (   0.2682859   1.6224846   0.3502843), wk =   0.0027778
        k(  234) = (   0.3160520   1.6224846   0.5254265), wk =   0.0027778
        k(  235) = (   0.3638180   1.6224846   0.7005686), wk =   0.0027778
        k(  236) = (   0.4115841   1.6224846   0.8757108), wk =   0.0027778
        k(  237) = (  -0.1138424   1.6224846  -1.0508529), wk =   0.0027778
        k(  238) = (  -0.0660764   1.6224846  -0.8757108), wk =   0.0027778
        k(  239) = (  -0.0183103   1.6224846  -0.7005686), wk =   0.0027778
        k(  240) = (   0.0294557   1.6224846  -0.5254265), wk =   0.0027778
        k(  241) = (   0.0772218   1.6224846  -0.3502843), wk =   0.0027778
        k(  242) = (   0.1249878   1.6224846  -0.1751422), wk =   0.0027778
        k(  243) = (   0.1727539  -1.8027606   0.0000000), wk =   0.0027778
        k(  244) = (   0.2205199  -1.8027606   0.1751422), wk =   0.0027778
        k(  245) = (   0.2682859  -1.8027606   0.3502843), wk =   0.0027778
        k(  246) = (   0.3160520  -1.8027606   0.5254265), wk =   0.0027778
        k(  247) = (   0.3638180  -1.8027606   0.7005686), wk =   0.0027778
        k(  248) = (   0.4115841  -1.8027606   0.8757108), wk =   0.0027778
        k(  249) = (  -0.1138424  -1.8027606  -1.0508529), wk =   0.0027778
        k(  250) = (  -0.0660764  -1.8027606  -0.8757108), wk =   0.0027778
        k(  251) = (  -0.0183103  -1.8027606  -0.7005686), wk =   0.0027778
        k(  252) = (   0.0294557  -1.8027606  -0.5254265), wk =   0.0027778
        k(  253) = (   0.0772218  -1.8027606  -0.3502843), wk =   0.0027778
        k(  254) = (   0.1249878  -1.8027606  -0.1751422), wk =   0.0027778
        k(  255) = (   0.1727539  -1.6224846   0.0000000), wk =   0.0027778
        k(  256) = (   0.2205199  -1.6224846   0.1751422), wk =   0.0027778
        k(  257) = (   0.2682859  -1.6224846   0.3502843), wk =   0.0027778
        k(  258) = (   0.3160520  -1.6224846   0.5254265), wk =   0.0027778
        k(  259) = (   0.3638180  -1.6224846   0.7005686), wk =   0.0027778
        k(  260) = (   0.4115841  -1.6224846   0.8757108), wk =   0.0027778
        k(  261) = (  -0.1138424  -1.6224846  -1.0508529), wk =   0.0027778
        k(  262) = (  -0.0660764  -1.6224846  -0.8757108), wk =   0.0027778
        k(  263) = (  -0.0183103  -1.6224846  -0.7005686), wk =   0.0027778
        k(  264) = (   0.0294557  -1.6224846  -0.5254265), wk =   0.0027778
        k(  265) = (   0.0772218  -1.6224846  -0.3502843), wk =   0.0027778
        k(  266) = (   0.1249878  -1.6224846  -0.1751422), wk =   0.0027778
        k(  267) = (   0.1727539  -1.4422085   0.0000000), wk =   0.0027778
        k(  268) = (   0.2205199  -1.4422085   0.1751422), wk =   0.0027778
        k(  269) = (   0.2682859  -1.4422085   0.3502843), wk =   0.0027778
        k(  270) = (   0.3160520  -1.4422085   0.5254265), wk =   0.0027778
        k(  271) = (   0.3638180  -1.4422085   0.7005686), wk =   0.0027778
        k(  272) = (   0.4115841  -1.4422085   0.8757108), wk =   0.0027778
        k(  273) = (  -0.1138424  -1.4422085  -1.0508529), wk =   0.0027778
        k(  274) = (  -0.0660764  -1.4422085  -0.8757108), wk =   0.0027778
        k(  275) = (  -0.0183103  -1.4422085  -0.7005686), wk =   0.0027778
        k(  276) = (   0.0294557  -1.4422085  -0.5254265), wk =   0.0027778
        k(  277) = (   0.0772218  -1.4422085  -0.3502843), wk =   0.0027778
        k(  278) = (   0.1249878  -1.4422085  -0.1751422), wk =   0.0027778
        k(  279) = (   0.1727539  -1.2619324   0.0000000), wk =   0.0027778
        k(  280) = (   0.2205199  -1.2619324   0.1751422), wk =   0.0027778
        k(  281) = (   0.2682859  -1.2619324   0.3502843), wk =   0.0027778
        k(  282) = (   0.3160520  -1.2619324   0.5254265), wk =   0.0027778
        k(  283) = (   0.3638180  -1.2619324   0.7005686), wk =   0.0027778
        k(  284) = (   0.4115841  -1.2619324   0.8757108), wk =   0.0027778
        k(  285) = (  -0.1138424  -1.2619324  -1.0508529), wk =   0.0027778
        k(  286) = (  -0.0660764  -1.2619324  -0.8757108), wk =   0.0027778
        k(  287) = (  -0.0183103  -1.2619324  -0.7005686), wk =   0.0027778
        k(  288) = (   0.0294557  -1.2619324  -0.5254265), wk =   0.0027778
        k(  289) = (   0.0772218  -1.2619324  -0.3502843), wk =   0.0027778
        k(  290) = (   0.1249878  -1.2619324  -0.1751422), wk =   0.0027778
        k(  291) = (   0.1727539  -1.0816564   0.0000000), wk =   0.0027778
        k(  292) = (   0.2205199  -1.0816564   0.1751422), wk =   0.0027778
        k(  293) = (   0.2682859  -1.0816564   0.3502843), wk =   0.0027778
        k(  294) = (   0.3160520  -1.0816564   0.5254265), wk =   0.0027778
        k(  295) = (   0.3638180  -1.0816564   0.7005686), wk =   0.0027778
        k(  296) = (   0.4115841  -1.0816564   0.8757108), wk =   0.0027778
        k(  297) = (  -0.1138424  -1.0816564  -1.0508529), wk =   0.0027778
        k(  298) = (  -0.0660764  -1.0816564  -0.8757108), wk =   0.0027778
        k(  299) = (  -0.0183103  -1.0816564  -0.7005686), wk =   0.0027778
        k(  300) = (   0.0294557  -1.0816564  -0.5254265), wk =   0.0027778
        k(  301) = (   0.0772218  -1.0816564  -0.3502843), wk =   0.0027778
        k(  302) = (   0.1249878  -1.0816564  -0.1751422), wk =   0.0027778
        k(  303) = (   0.1727539  -0.9013803   0.0000000), wk =   0.0027778
        k(  304) = (   0.2205199  -0.9013803   0.1751422), wk =   0.0027778
        k(  305) = (   0.2682859  -0.9013803   0.3502843), wk =   0.0027778
        k(  306) = (   0.3160520  -0.9013803   0.5254265), wk =   0.0027778
        k(  307) = (   0.3638180  -0.9013803   0.7005686), wk =   0.0027778
        k(  308) = (   0.4115841  -0.9013803   0.8757108), wk =   0.0027778
        k(  309) = (  -0.1138424  -0.9013803  -1.0508529), wk =   0.0027778
        k(  310) = (  -0.0660764  -0.9013803  -0.8757108), wk =   0.0027778
        k(  311) = (  -0.0183103  -0.9013803  -0.7005686), wk =   0.0027778
        k(  312) = (   0.0294557  -0.9013803  -0.5254265), wk =   0.0027778
        k(  313) = (   0.0772218  -0.9013803  -0.3502843), wk =   0.0027778
        k(  314) = (   0.1249878  -0.9013803  -0.1751422), wk =   0.0027778
        k(  315) = (   0.1727539  -0.7211043   0.0000000), wk =   0.0027778
        k(  316) = (   0.2205199  -0.7211043   0.1751422), wk =   0.0027778
        k(  317) = (   0.2682859  -0.7211043   0.3502843), wk =   0.0027778
        k(  318) = (   0.3160520  -0.7211043   0.5254265), wk =   0.0027778
        k(  319) = (   0.3638180  -0.7211043   0.7005686), wk =   0.0027778
        k(  320) = (   0.4115841  -0.7211043   0.8757108), wk =   0.0027778
        k(  321) = (  -0.1138424  -0.7211043  -1.0508529), wk =   0.0027778
        k(  322) = (  -0.0660764  -0.7211043  -0.8757108), wk =   0.0027778
        k(  323) = (  -0.0183103  -0.7211043  -0.7005686), wk =   0.0027778
        k(  324) = (   0.0294557  -0.7211043  -0.5254265), wk =   0.0027778
        k(  325) = (   0.0772218  -0.7211043  -0.3502843), wk =   0.0027778
        k(  326) = (   0.1249878  -0.7211043  -0.1751422), wk =   0.0027778
        k(  327) = (   0.1727539  -0.5408282   0.0000000), wk =   0.0027778
        k(  328) = (   0.2205199  -0.5408282   0.1751422), wk =   0.0027778
        k(  329) = (   0.2682859  -0.5408282   0.3502843), wk =   0.0027778
        k(  330) = (   0.3160520  -0.5408282   0.5254265), wk =   0.0027778
        k(  331) = (   0.3638180  -0.5408282   0.7005686), wk =   0.0027778
        k(  332) = (   0.4115841  -0.5408282   0.8757108), wk =   0.0027778
        k(  333) = (  -0.1138424  -0.5408282  -1.0508529), wk =   0.0027778
        k(  334) = (  -0.0660764  -0.5408282  -0.8757108), wk =   0.0027778
        k(  335) = (  -0.0183103  -0.5408282  -0.7005686), wk =   0.0027778
        k(  336) = (   0.0294557  -0.5408282  -0.5254265), wk =   0.0027778
        k(  337) = (   0.0772218  -0.5408282  -0.3502843), wk =   0.0027778
        k(  338) = (   0.1249878  -0.5408282  -0.1751422), wk =   0.0027778
        k(  339) = (   0.1727539  -0.3605521   0.0000000), wk =   0.0027778
        k(  340) = (   0.2205199  -0.3605521   0.1751422), wk =   0.0027778
        k(  341) = (   0.2682859  -0.3605521   0.3502843), wk =   0.0027778
        k(  342) = (   0.3160520  -0.3605521   0.5254265), wk =   0.0027778
        k(  343) = (   0.3638180  -0.3605521   0.7005686), wk =   0.0027778
        k(  344) = (   0.4115841  -0.3605521   0.8757108), wk =   0.0027778
        k(  345) = (  -0.1138424  -0.3605521  -1.0508529), wk =   0.0027778
        k(  346) = (  -0.0660764  -0.3605521  -0.8757108), wk =   0.0027778
        k(  347) = (  -0.0183103  -0.3605521  -0.7005686), wk =   0.0027778
        k(  348) = (   0.0294557  -0.3605521  -0.5254265), wk =   0.0027778
        k(  349) = (   0.0772218  -0.3605521  -0.3502843), wk =   0.0027778
        k(  350) = (   0.1249878  -0.3605521  -0.1751422), wk =   0.0027778
        k(  351) = (   0.1727539  -0.1802761   0.0000000), wk =   0.0027778
        k(  352) = (   0.2205199  -0.1802761   0.1751422), wk =   0.0027778
        k(  353) = (   0.2682859  -0.1802761   0.3502843), wk =   0.0027778
        k(  354) = (   0.3160520  -0.1802761   0.5254265), wk =   0.0027778
        k(  355) = (   0.3638180  -0.1802761   0.7005686), wk =   0.0027778
        k(  356) = (   0.4115841  -0.1802761   0.8757108), wk =   0.0027778
        k(  357) = (  -0.1138424  -0.1802761  -1.0508529), wk =   0.0027778
        k(  358) = (  -0.0660764  -0.1802761  -0.8757108), wk =   0.0027778
        k(  359) = (  -0.0183103  -0.1802761  -0.7005686), wk =   0.0027778
        k(  360) = (   0.0294557  -0.1802761  -0.5254265), wk =   0.0027778
        k(  361) = (   0.0772218  -0.1802761  -0.3502843), wk =   0.0027778
        k(  362) = (   0.1249878  -0.1802761  -0.1751422), wk =   0.0027778
        k(  363) = (   0.3455077   0.0000000   0.0000000), wk =   0.0027778
        k(  364) = (   0.3932737   0.0000000   0.1751422), wk =   0.0027778
        k(  365) = (   0.4410398   0.0000000   0.3502843), wk =   0.0027778
        k(  366) = (   0.4888058   0.0000000   0.5254265), wk =   0.0027778
        k(  367) = (   0.5365719   0.0000000   0.7005686), wk =   0.0027778
        k(  368) = (   0.5843379   0.0000000   0.8757108), wk =   0.0027778
        k(  369) = (   0.0589114   0.0000000  -1.0508529), wk =   0.0027778
        k(  370) = (   0.1066775   0.0000000  -0.8757108), wk =   0.0027778
        k(  371) = (   0.1544435   0.0000000  -0.7005686), wk =   0.0027778
        k(  372) = (   0.2022096   0.0000000  -0.5254265), wk =   0.0027778
        k(  373) = (   0.2499756   0.0000000  -0.3502843), wk =   0.0027778
        k(  374) = (   0.2977417   0.0000000  -0.1751422), wk =   0.0027778
        k(  375) = (   0.3455077   0.1802761   0.0000000), wk =   0.0027778
        k(  376) = (   0.3932737   0.1802761   0.1751422), wk =   0.0027778
        k(  377) = (   0.4410398   0.1802761   0.3502843), wk =   0.0027778
        k(  378) = (   0.4888058   0.1802761   0.5254265), wk =   0.0027778
        k(  379) = (   0.5365719   0.1802761   0.7005686), wk =   0.0027778
        k(  380) = (   0.5843379   0.1802761   0.8757108), wk =   0.0027778
        k(  381) = (   0.0589114   0.1802761  -1.0508529), wk =   0.0027778
        k(  382) = (   0.1066775   0.1802761  -0.8757108), wk =   0.0027778
        k(  383) = (   0.1544435   0.1802761  -0.7005686), wk =   0.0027778
        k(  384) = (   0.2022096   0.1802761  -0.5254265), wk =   0.0027778
        k(  385) = (   0.2499756   0.1802761  -0.3502843), wk =   0.0027778
        k(  386) = (   0.2977417   0.1802761  -0.1751422), wk =   0.0027778
        k(  387) = (   0.3455077   0.3605521   0.0000000), wk =   0.0027778
        k(  388) = (   0.3932737   0.3605521   0.1751422), wk =   0.0027778
        k(  389) = (   0.4410398   0.3605521   0.3502843), wk =   0.0027778
        k(  390) = (   0.4888058   0.3605521   0.5254265), wk =   0.0027778
        k(  391) = (   0.5365719   0.3605521   0.7005686), wk =   0.0027778
        k(  392) = (   0.5843379   0.3605521   0.8757108), wk =   0.0027778
        k(  393) = (   0.0589114   0.3605521  -1.0508529), wk =   0.0027778
        k(  394) = (   0.1066775   0.3605521  -0.8757108), wk =   0.0027778
        k(  395) = (   0.1544435   0.3605521  -0.7005686), wk =   0.0027778
        k(  396) = (   0.2022096   0.3605521  -0.5254265), wk =   0.0027778
        k(  397) = (   0.2499756   0.3605521  -0.3502843), wk =   0.0027778
        k(  398) = (   0.2977417   0.3605521  -0.1751422), wk =   0.0027778
        k(  399) = (   0.3455077   0.5408282   0.0000000), wk =   0.0027778
        k(  400) = (   0.3932737   0.5408282   0.1751422), wk =   0.0027778
        k(  401) = (   0.4410398   0.5408282   0.3502843), wk =   0.0027778
        k(  402) = (   0.4888058   0.5408282   0.5254265), wk =   0.0027778
        k(  403) = (   0.5365719   0.5408282   0.7005686), wk =   0.0027778
        k(  404) = (   0.5843379   0.5408282   0.8757108), wk =   0.0027778
        k(  405) = (   0.0589114   0.5408282  -1.0508529), wk =   0.0027778
        k(  406) = (   0.1066775   0.5408282  -0.8757108), wk =   0.0027778
        k(  407) = (   0.1544435   0.5408282  -0.7005686), wk =   0.0027778
        k(  408) = (   0.2022096   0.5408282  -0.5254265), wk =   0.0027778
        k(  409) = (   0.2499756   0.5408282  -0.3502843), wk =   0.0027778
        k(  410) = (   0.2977417   0.5408282  -0.1751422), wk =   0.0027778
        k(  411) = (   0.3455077   0.7211043   0.0000000), wk =   0.0027778
        k(  412) = (   0.3932737   0.7211043   0.1751422), wk =   0.0027778
        k(  413) = (   0.4410398   0.7211043   0.3502843), wk =   0.0027778
        k(  414) = (   0.4888058   0.7211043   0.5254265), wk =   0.0027778
        k(  415) = (   0.5365719   0.7211043   0.7005686), wk =   0.0027778
        k(  416) = (   0.5843379   0.7211043   0.8757108), wk =   0.0027778
        k(  417) = (   0.0589114   0.7211043  -1.0508529), wk =   0.0027778
        k(  418) = (   0.1066775   0.7211043  -0.8757108), wk =   0.0027778
        k(  419) = (   0.1544435   0.7211043  -0.7005686), wk =   0.0027778
        k(  420) = (   0.2022096   0.7211043  -0.5254265), wk =   0.0027778
        k(  421) = (   0.2499756   0.7211043  -0.3502843), wk =   0.0027778
        k(  422) = (   0.2977417   0.7211043  -0.1751422), wk =   0.0027778
        k(  423) = (   0.3455077   0.9013803   0.0000000), wk =   0.0027778
        k(  424) = (   0.3932737   0.9013803   0.1751422), wk =   0.0027778
        k(  425) = (   0.4410398   0.9013803   0.3502843), wk =   0.0027778
        k(  426) = (   0.4888058   0.9013803   0.5254265), wk =   0.0027778
        k(  427) = (   0.5365719   0.9013803   0.7005686), wk =   0.0027778
        k(  428) = (   0.5843379   0.9013803   0.8757108), wk =   0.0027778
        k(  429) = (   0.0589114   0.9013803  -1.0508529), wk =   0.0027778
        k(  430) = (   0.1066775   0.9013803  -0.8757108), wk =   0.0027778
        k(  431) = (   0.1544435   0.9013803  -0.7005686), wk =   0.0027778
        k(  432) = (   0.2022096   0.9013803  -0.5254265), wk =   0.0027778
        k(  433) = (   0.2499756   0.9013803  -0.3502843), wk =   0.0027778
        k(  434) = (   0.2977417   0.9013803  -0.1751422), wk =   0.0027778
        k(  435) = (   0.3455077   1.0816564   0.0000000), wk =   0.0027778
        k(  436) = (   0.3932737   1.0816564   0.1751422), wk =   0.0027778
        k(  437) = (   0.4410398   1.0816564   0.3502843), wk =   0.0027778
        k(  438) = (   0.4888058   1.0816564   0.5254265), wk =   0.0027778
        k(  439) = (   0.5365719   1.0816564   0.7005686), wk =   0.0027778
        k(  440) = (   0.5843379   1.0816564   0.8757108), wk =   0.0027778
        k(  441) = (   0.0589114   1.0816564  -1.0508529), wk =   0.0027778
        k(  442) = (   0.1066775   1.0816564  -0.8757108), wk =   0.0027778
        k(  443) = (   0.1544435   1.0816564  -0.7005686), wk =   0.0027778
        k(  444) = (   0.2022096   1.0816564  -0.5254265), wk =   0.0027778
        k(  445) = (   0.2499756   1.0816564  -0.3502843), wk =   0.0027778
        k(  446) = (   0.2977417   1.0816564  -0.1751422), wk =   0.0027778
        k(  447) = (   0.3455077   1.2619324   0.0000000), wk =   0.0027778
        k(  448) = (   0.3932737   1.2619324   0.1751422), wk =   0.0027778
        k(  449) = (   0.4410398   1.2619324   0.3502843), wk =   0.0027778
        k(  450) = (   0.4888058   1.2619324   0.5254265), wk =   0.0027778
        k(  451) = (   0.5365719   1.2619324   0.7005686), wk =   0.0027778
        k(  452) = (   0.5843379   1.2619324   0.8757108), wk =   0.0027778
        k(  453) = (   0.0589114   1.2619324  -1.0508529), wk =   0.0027778
        k(  454) = (   0.1066775   1.2619324  -0.8757108), wk =   0.0027778
        k(  455) = (   0.1544435   1.2619324  -0.7005686), wk =   0.0027778
        k(  456) = (   0.2022096   1.2619324  -0.5254265), wk =   0.0027778
        k(  457) = (   0.2499756   1.2619324  -0.3502843), wk =   0.0027778
        k(  458) = (   0.2977417   1.2619324  -0.1751422), wk =   0.0027778
        k(  459) = (   0.3455077   1.4422085   0.0000000), wk =   0.0027778
        k(  460) = (   0.3932737   1.4422085   0.1751422), wk =   0.0027778
        k(  461) = (   0.4410398   1.4422085   0.3502843), wk =   0.0027778
        k(  462) = (   0.4888058   1.4422085   0.5254265), wk =   0.0027778
        k(  463) = (   0.5365719   1.4422085   0.7005686), wk =   0.0027778
        k(  464) = (   0.5843379   1.4422085   0.8757108), wk =   0.0027778
        k(  465) = (   0.0589114   1.4422085  -1.0508529), wk =   0.0027778
        k(  466) = (   0.1066775   1.4422085  -0.8757108), wk =   0.0027778
        k(  467) = (   0.1544435   1.4422085  -0.7005686), wk =   0.0027778
        k(  468) = (   0.2022096   1.4422085  -0.5254265), wk =   0.0027778
        k(  469) = (   0.2499756   1.4422085  -0.3502843), wk =   0.0027778
        k(  470) = (   0.2977417   1.4422085  -0.1751422), wk =   0.0027778
        k(  471) = (   0.3455077   1.6224846   0.0000000), wk =   0.0027778
        k(  472) = (   0.3932737   1.6224846   0.1751422), wk =   0.0027778
        k(  473) = (   0.4410398   1.6224846   0.3502843), wk =   0.0027778
        k(  474) = (   0.4888058   1.6224846   0.5254265), wk =   0.0027778
        k(  475) = (   0.5365719   1.6224846   0.7005686), wk =   0.0027778
        k(  476) = (   0.5843379   1.6224846   0.8757108), wk =   0.0027778
        k(  477) = (   0.0589114   1.6224846  -1.0508529), wk =   0.0027778
        k(  478) = (   0.1066775   1.6224846  -0.8757108), wk =   0.0027778
        k(  479) = (   0.1544435   1.6224846  -0.7005686), wk =   0.0027778
        k(  480) = (   0.2022096   1.6224846  -0.5254265), wk =   0.0027778
        k(  481) = (   0.2499756   1.6224846  -0.3502843), wk =   0.0027778
        k(  482) = (   0.2977417   1.6224846  -0.1751422), wk =   0.0027778
        k(  483) = (   0.3455077  -1.8027606   0.0000000), wk =   0.0027778
        k(  484) = (   0.3932737  -1.8027606   0.1751422), wk =   0.0027778
        k(  485) = (   0.4410398  -1.8027606   0.3502843), wk =   0.0027778
        k(  486) = (   0.4888058  -1.8027606   0.5254265), wk =   0.0027778
        k(  487) = (   0.5365719  -1.8027606   0.7005686), wk =   0.0027778
        k(  488) = (   0.5843379  -1.8027606   0.8757108), wk =   0.0027778
        k(  489) = (   0.0589114  -1.8027606  -1.0508529), wk =   0.0027778
        k(  490) = (   0.1066775  -1.8027606  -0.8757108), wk =   0.0027778
        k(  491) = (   0.1544435  -1.8027606  -0.7005686), wk =   0.0027778
        k(  492) = (   0.2022096  -1.8027606  -0.5254265), wk =   0.0027778
        k(  493) = (   0.2499756  -1.8027606  -0.3502843), wk =   0.0027778
        k(  494) = (   0.2977417  -1.8027606  -0.1751422), wk =   0.0027778
        k(  495) = (   0.3455077  -1.6224846   0.0000000), wk =   0.0027778
        k(  496) = (   0.3932737  -1.6224846   0.1751422), wk =   0.0027778
        k(  497) = (   0.4410398  -1.6224846   0.3502843), wk =   0.0027778
        k(  498) = (   0.4888058  -1.6224846   0.5254265), wk =   0.0027778
        k(  499) = (   0.5365719  -1.6224846   0.7005686), wk =   0.0027778
        k(  500) = (   0.5843379  -1.6224846   0.8757108), wk =   0.0027778
        k(  501) = (   0.0589114  -1.6224846  -1.0508529), wk =   0.0027778
        k(  502) = (   0.1066775  -1.6224846  -0.8757108), wk =   0.0027778
        k(  503) = (   0.1544435  -1.6224846  -0.7005686), wk =   0.0027778
        k(  504) = (   0.2022096  -1.6224846  -0.5254265), wk =   0.0027778
        k(  505) = (   0.2499756  -1.6224846  -0.3502843), wk =   0.0027778
        k(  506) = (   0.2977417  -1.6224846  -0.1751422), wk =   0.0027778
        k(  507) = (   0.3455077  -1.4422085   0.0000000), wk =   0.0027778
        k(  508) = (   0.3932737  -1.4422085   0.1751422), wk =   0.0027778
        k(  509) = (   0.4410398  -1.4422085   0.3502843), wk =   0.0027778
        k(  510) = (   0.4888058  -1.4422085   0.5254265), wk =   0.0027778
        k(  511) = (   0.5365719  -1.4422085   0.7005686), wk =   0.0027778
        k(  512) = (   0.5843379  -1.4422085   0.8757108), wk =   0.0027778
        k(  513) = (   0.0589114  -1.4422085  -1.0508529), wk =   0.0027778
        k(  514) = (   0.1066775  -1.4422085  -0.8757108), wk =   0.0027778
        k(  515) = (   0.1544435  -1.4422085  -0.7005686), wk =   0.0027778
        k(  516) = (   0.2022096  -1.4422085  -0.5254265), wk =   0.0027778
        k(  517) = (   0.2499756  -1.4422085  -0.3502843), wk =   0.0027778
        k(  518) = (   0.2977417  -1.4422085  -0.1751422), wk =   0.0027778
        k(  519) = (   0.3455077  -1.2619324   0.0000000), wk =   0.0027778
        k(  520) = (   0.3932737  -1.2619324   0.1751422), wk =   0.0027778
        k(  521) = (   0.4410398  -1.2619324   0.3502843), wk =   0.0027778
        k(  522) = (   0.4888058  -1.2619324   0.5254265), wk =   0.0027778
        k(  523) = (   0.5365719  -1.2619324   0.7005686), wk =   0.0027778
        k(  524) = (   0.5843379  -1.2619324   0.8757108), wk =   0.0027778
        k(  525) = (   0.0589114  -1.2619324  -1.0508529), wk =   0.0027778
        k(  526) = (   0.1066775  -1.2619324  -0.8757108), wk =   0.0027778
        k(  527) = (   0.1544435  -1.2619324  -0.7005686), wk =   0.0027778
        k(  528) = (   0.2022096  -1.2619324  -0.5254265), wk =   0.0027778
        k(  529) = (   0.2499756  -1.2619324  -0.3502843), wk =   0.0027778
        k(  530) = (   0.2977417  -1.2619324  -0.1751422), wk =   0.0027778
        k(  531) = (   0.3455077  -1.0816564   0.0000000), wk =   0.0027778
        k(  532) = (   0.3932737  -1.0816564   0.1751422), wk =   0.0027778
        k(  533) = (   0.4410398  -1.0816564   0.3502843), wk =   0.0027778
        k(  534) = (   0.4888058  -1.0816564   0.5254265), wk =   0.0027778
        k(  535) = (   0.5365719  -1.0816564   0.7005686), wk =   0.0027778
        k(  536) = (   0.5843379  -1.0816564   0.8757108), wk =   0.0027778
        k(  537) = (   0.0589114  -1.0816564  -1.0508529), wk =   0.0027778
        k(  538) = (   0.1066775  -1.0816564  -0.8757108), wk =   0.0027778
        k(  539) = (   0.1544435  -1.0816564  -0.7005686), wk =   0.0027778
        k(  540) = (   0.2022096  -1.0816564  -0.5254265), wk =   0.0027778
        k(  541) = (   0.2499756  -1.0816564  -0.3502843), wk =   0.0027778
        k(  542) = (   0.2977417  -1.0816564  -0.1751422), wk =   0.0027778
        k(  543) = (   0.3455077  -0.9013803   0.0000000), wk =   0.0027778
        k(  544) = (   0.3932737  -0.9013803   0.1751422), wk =   0.0027778
        k(  545) = (   0.4410398  -0.9013803   0.3502843), wk =   0.0027778
        k(  546) = (   0.4888058  -0.9013803   0.5254265), wk =   0.0027778
        k(  547) = (   0.5365719  -0.9013803   0.7005686), wk =   0.0027778
        k(  548) = (   0.5843379  -0.9013803   0.8757108), wk =   0.0027778
        k(  549) = (   0.0589114  -0.9013803  -1.0508529), wk =   0.0027778
        k(  550) = (   0.1066775  -0.9013803  -0.8757108), wk =   0.0027778
        k(  551) = (   0.1544435  -0.9013803  -0.7005686), wk =   0.0027778
        k(  552) = (   0.2022096  -0.9013803  -0.5254265), wk =   0.0027778
        k(  553) = (   0.2499756  -0.9013803  -0.3502843), wk =   0.0027778
        k(  554) = (   0.2977417  -0.9013803  -0.1751422), wk =   0.0027778
        k(  555) = (   0.3455077  -0.7211043   0.0000000), wk =   0.0027778
        k(  556) = (   0.3932737  -0.7211043   0.1751422), wk =   0.0027778
        k(  557) = (   0.4410398  -0.7211043   0.3502843), wk =   0.0027778
        k(  558) = (   0.4888058  -0.7211043   0.5254265), wk =   0.0027778
        k(  559) = (   0.5365719  -0.7211043   0.7005686), wk =   0.0027778
        k(  560) = (   0.5843379  -0.7211043   0.8757108), wk =   0.0027778
        k(  561) = (   0.0589114  -0.7211043  -1.0508529), wk =   0.0027778
        k(  562) = (   0.1066775  -0.7211043  -0.8757108), wk =   0.0027778
        k(  563) = (   0.1544435  -0.7211043  -0.7005686), wk =   0.0027778
        k(  564) = (   0.2022096  -0.7211043  -0.5254265), wk =   0.0027778
        k(  565) = (   0.2499756  -0.7211043  -0.3502843), wk =   0.0027778
        k(  566) = (   0.2977417  -0.7211043  -0.1751422), wk =   0.0027778
        k(  567) = (   0.3455077  -0.5408282   0.0000000), wk =   0.0027778
        k(  568) = (   0.3932737  -0.5408282   0.1751422), wk =   0.0027778
        k(  569) = (   0.4410398  -0.5408282   0.3502843), wk =   0.0027778
        k(  570) = (   0.4888058  -0.5408282   0.5254265), wk =   0.0027778
        k(  571) = (   0.5365719  -0.5408282   0.7005686), wk =   0.0027778
        k(  572) = (   0.5843379  -0.5408282   0.8757108), wk =   0.0027778
        k(  573) = (   0.0589114  -0.5408282  -1.0508529), wk =   0.0027778
        k(  574) = (   0.1066775  -0.5408282  -0.8757108), wk =   0.0027778
        k(  575) = (   0.1544435  -0.5408282  -0.7005686), wk =   0.0027778
        k(  576) = (   0.2022096  -0.5408282  -0.5254265), wk =   0.0027778
        k(  577) = (   0.2499756  -0.5408282  -0.3502843), wk =   0.0027778
        k(  578) = (   0.2977417  -0.5408282  -0.1751422), wk =   0.0027778
        k(  579) = (   0.3455077  -0.3605521   0.0000000), wk =   0.0027778
        k(  580) = (   0.3932737  -0.3605521   0.1751422), wk =   0.0027778
        k(  581) = (   0.4410398  -0.3605521   0.3502843), wk =   0.0027778
        k(  582) = (   0.4888058  -0.3605521   0.5254265), wk =   0.0027778
        k(  583) = (   0.5365719  -0.3605521   0.7005686), wk =   0.0027778
        k(  584) = (   0.5843379  -0.3605521   0.8757108), wk =   0.0027778
        k(  585) = (   0.0589114  -0.3605521  -1.0508529), wk =   0.0027778
        k(  586) = (   0.1066775  -0.3605521  -0.8757108), wk =   0.0027778
        k(  587) = (   0.1544435  -0.3605521  -0.7005686), wk =   0.0027778
        k(  588) = (   0.2022096  -0.3605521  -0.5254265), wk =   0.0027778
        k(  589) = (   0.2499756  -0.3605521  -0.3502843), wk =   0.0027778
        k(  590) = (   0.2977417  -0.3605521  -0.1751422), wk =   0.0027778
        k(  591) = (   0.3455077  -0.1802761   0.0000000), wk =   0.0027778
        k(  592) = (   0.3932737  -0.1802761   0.1751422), wk =   0.0027778
        k(  593) = (   0.4410398  -0.1802761   0.3502843), wk =   0.0027778
        k(  594) = (   0.4888058  -0.1802761   0.5254265), wk =   0.0027778
        k(  595) = (   0.5365719  -0.1802761   0.7005686), wk =   0.0027778
        k(  596) = (   0.5843379  -0.1802761   0.8757108), wk =   0.0027778
        k(  597) = (   0.0589114  -0.1802761  -1.0508529), wk =   0.0027778
        k(  598) = (   0.1066775  -0.1802761  -0.8757108), wk =   0.0027778
        k(  599) = (   0.1544435  -0.1802761  -0.7005686), wk =   0.0027778
        k(  600) = (   0.2022096  -0.1802761  -0.5254265), wk =   0.0027778
        k(  601) = (   0.2499756  -0.1802761  -0.3502843), wk =   0.0027778
        k(  602) = (   0.2977417  -0.1802761  -0.1751422), wk =   0.0027778
        k(  603) = (  -0.5182616   0.0000000   0.0000000), wk =   0.0013889
        k(  604) = (  -0.4704955   0.0000000   0.1751422), wk =   0.0027778
        k(  605) = (  -0.4227295   0.0000000   0.3502843), wk =   0.0027778
        k(  606) = (  -0.3749634   0.0000000   0.5254265), wk =   0.0027778
        k(  607) = (  -0.3271974   0.0000000   0.7005686), wk =   0.0027778
        k(  608) = (  -0.2794313   0.0000000   0.8757108), wk =   0.0027778
        k(  609) = (  -0.8048578   0.0000000  -1.0508529), wk =   0.0013889
        k(  610) = (  -0.5182616   0.1802761   0.0000000), wk =   0.0027778
        k(  611) = (  -0.4704955   0.1802761   0.1751422), wk =   0.0027778
        k(  612) = (  -0.4227295   0.1802761   0.3502843), wk =   0.0027778
        k(  613) = (  -0.3749634   0.1802761   0.5254265), wk =   0.0027778
        k(  614) = (  -0.3271974   0.1802761   0.7005686), wk =   0.0027778
        k(  615) = (  -0.2794313   0.1802761   0.8757108), wk =   0.0027778
        k(  616) = (  -0.8048578   0.1802761  -1.0508529), wk =   0.0027778
        k(  617) = (  -0.7570918   0.1802761  -0.8757108), wk =   0.0027778
        k(  618) = (  -0.7093257   0.1802761  -0.7005686), wk =   0.0027778
        k(  619) = (  -0.6615597   0.1802761  -0.5254265), wk =   0.0027778
        k(  620) = (  -0.6137936   0.1802761  -0.3502843), wk =   0.0027778
        k(  621) = (  -0.5660276   0.1802761  -0.1751422), wk =   0.0027778
        k(  622) = (  -0.5182616   0.3605521   0.0000000), wk =   0.0027778
        k(  623) = (  -0.4704955   0.3605521   0.1751422), wk =   0.0027778
        k(  624) = (  -0.4227295   0.3605521   0.3502843), wk =   0.0027778
        k(  625) = (  -0.3749634   0.3605521   0.5254265), wk =   0.0027778
        k(  626) = (  -0.3271974   0.3605521   0.7005686), wk =   0.0027778
        k(  627) = (  -0.2794313   0.3605521   0.8757108), wk =   0.0027778
        k(  628) = (  -0.8048578   0.3605521  -1.0508529), wk =   0.0027778
        k(  629) = (  -0.7570918   0.3605521  -0.8757108), wk =   0.0027778
        k(  630) = (  -0.7093257   0.3605521  -0.7005686), wk =   0.0027778
        k(  631) = (  -0.6615597   0.3605521  -0.5254265), wk =   0.0027778
        k(  632) = (  -0.6137936   0.3605521  -0.3502843), wk =   0.0027778
        k(  633) = (  -0.5660276   0.3605521  -0.1751422), wk =   0.0027778
        k(  634) = (  -0.5182616   0.5408282   0.0000000), wk =   0.0027778
        k(  635) = (  -0.4704955   0.5408282   0.1751422), wk =   0.0027778
        k(  636) = (  -0.4227295   0.5408282   0.3502843), wk =   0.0027778
        k(  637) = (  -0.3749634   0.5408282   0.5254265), wk =   0.0027778
        k(  638) = (  -0.3271974   0.5408282   0.7005686), wk =   0.0027778
        k(  639) = (  -0.2794313   0.5408282   0.8757108), wk =   0.0027778
        k(  640) = (  -0.8048578   0.5408282  -1.0508529), wk =   0.0027778
        k(  641) = (  -0.7570918   0.5408282  -0.8757108), wk =   0.0027778
        k(  642) = (  -0.7093257   0.5408282  -0.7005686), wk =   0.0027778
        k(  643) = (  -0.6615597   0.5408282  -0.5254265), wk =   0.0027778
        k(  644) = (  -0.6137936   0.5408282  -0.3502843), wk =   0.0027778
        k(  645) = (  -0.5660276   0.5408282  -0.1751422), wk =   0.0027778
        k(  646) = (  -0.5182616   0.7211043   0.0000000), wk =   0.0027778
        k(  647) = (  -0.4704955   0.7211043   0.1751422), wk =   0.0027778
        k(  648) = (  -0.4227295   0.7211043   0.3502843), wk =   0.0027778
        k(  649) = (  -0.3749634   0.7211043   0.5254265), wk =   0.0027778
        k(  650) = (  -0.3271974   0.7211043   0.7005686), wk =   0.0027778
        k(  651) = (  -0.2794313   0.7211043   0.8757108), wk =   0.0027778
        k(  652) = (  -0.8048578   0.7211043  -1.0508529), wk =   0.0027778
        k(  653) = (  -0.7570918   0.7211043  -0.8757108), wk =   0.0027778
        k(  654) = (  -0.7093257   0.7211043  -0.7005686), wk =   0.0027778
        k(  655) = (  -0.6615597   0.7211043  -0.5254265), wk =   0.0027778
        k(  656) = (  -0.6137936   0.7211043  -0.3502843), wk =   0.0027778
        k(  657) = (  -0.5660276   0.7211043  -0.1751422), wk =   0.0027778
        k(  658) = (  -0.5182616   0.9013803   0.0000000), wk =   0.0027778
        k(  659) = (  -0.4704955   0.9013803   0.1751422), wk =   0.0027778
        k(  660) = (  -0.4227295   0.9013803   0.3502843), wk =   0.0027778
        k(  661) = (  -0.3749634   0.9013803   0.5254265), wk =   0.0027778
        k(  662) = (  -0.3271974   0.9013803   0.7005686), wk =   0.0027778
        k(  663) = (  -0.2794313   0.9013803   0.8757108), wk =   0.0027778
        k(  664) = (  -0.8048578   0.9013803  -1.0508529), wk =   0.0027778
        k(  665) = (  -0.7570918   0.9013803  -0.8757108), wk =   0.0027778
        k(  666) = (  -0.7093257   0.9013803  -0.7005686), wk =   0.0027778
        k(  667) = (  -0.6615597   0.9013803  -0.5254265), wk =   0.0027778
        k(  668) = (  -0.6137936   0.9013803  -0.3502843), wk =   0.0027778
        k(  669) = (  -0.5660276   0.9013803  -0.1751422), wk =   0.0027778
        k(  670) = (  -0.5182616   1.0816564   0.0000000), wk =   0.0027778
        k(  671) = (  -0.4704955   1.0816564   0.1751422), wk =   0.0027778
        k(  672) = (  -0.4227295   1.0816564   0.3502843), wk =   0.0027778
        k(  673) = (  -0.3749634   1.0816564   0.5254265), wk =   0.0027778
        k(  674) = (  -0.3271974   1.0816564   0.7005686), wk =   0.0027778
        k(  675) = (  -0.2794313   1.0816564   0.8757108), wk =   0.0027778
        k(  676) = (  -0.8048578   1.0816564  -1.0508529), wk =   0.0027778
        k(  677) = (  -0.7570918   1.0816564  -0.8757108), wk =   0.0027778
        k(  678) = (  -0.7093257   1.0816564  -0.7005686), wk =   0.0027778
        k(  679) = (  -0.6615597   1.0816564  -0.5254265), wk =   0.0027778
        k(  680) = (  -0.6137936   1.0816564  -0.3502843), wk =   0.0027778
        k(  681) = (  -0.5660276   1.0816564  -0.1751422), wk =   0.0027778
        k(  682) = (  -0.5182616   1.2619324   0.0000000), wk =   0.0027778
        k(  683) = (  -0.4704955   1.2619324   0.1751422), wk =   0.0027778
        k(  684) = (  -0.4227295   1.2619324   0.3502843), wk =   0.0027778
        k(  685) = (  -0.3749634   1.2619324   0.5254265), wk =   0.0027778
        k(  686) = (  -0.3271974   1.2619324   0.7005686), wk =   0.0027778
        k(  687) = (  -0.2794313   1.2619324   0.8757108), wk =   0.0027778
        k(  688) = (  -0.8048578   1.2619324  -1.0508529), wk =   0.0027778
        k(  689) = (  -0.7570918   1.2619324  -0.8757108), wk =   0.0027778
        k(  690) = (  -0.7093257   1.2619324  -0.7005686), wk =   0.0027778
        k(  691) = (  -0.6615597   1.2619324  -0.5254265), wk =   0.0027778
        k(  692) = (  -0.6137936   1.2619324  -0.3502843), wk =   0.0027778
        k(  693) = (  -0.5660276   1.2619324  -0.1751422), wk =   0.0027778
        k(  694) = (  -0.5182616   1.4422085   0.0000000), wk =   0.0027778
        k(  695) = (  -0.4704955   1.4422085   0.1751422), wk =   0.0027778
        k(  696) = (  -0.4227295   1.4422085   0.3502843), wk =   0.0027778
        k(  697) = (  -0.3749634   1.4422085   0.5254265), wk =   0.0027778
        k(  698) = (  -0.3271974   1.4422085   0.7005686), wk =   0.0027778
        k(  699) = (  -0.2794313   1.4422085   0.8757108), wk =   0.0027778
        k(  700) = (  -0.8048578   1.4422085  -1.0508529), wk =   0.0027778
        k(  701) = (  -0.7570918   1.4422085  -0.8757108), wk =   0.0027778
        k(  702) = (  -0.7093257   1.4422085  -0.7005686), wk =   0.0027778
        k(  703) = (  -0.6615597   1.4422085  -0.5254265), wk =   0.0027778
        k(  704) = (  -0.6137936   1.4422085  -0.3502843), wk =   0.0027778
        k(  705) = (  -0.5660276   1.4422085  -0.1751422), wk =   0.0027778
        k(  706) = (  -0.5182616   1.6224846   0.0000000), wk =   0.0027778
        k(  707) = (  -0.4704955   1.6224846   0.1751422), wk =   0.0027778
        k(  708) = (  -0.4227295   1.6224846   0.3502843), wk =   0.0027778
        k(  709) = (  -0.3749634   1.6224846   0.5254265), wk =   0.0027778
        k(  710) = (  -0.3271974   1.6224846   0.7005686), wk =   0.0027778
        k(  711) = (  -0.2794313   1.6224846   0.8757108), wk =   0.0027778
        k(  712) = (  -0.8048578   1.6224846  -1.0508529), wk =   0.0027778
        k(  713) = (  -0.7570918   1.6224846  -0.8757108), wk =   0.0027778
        k(  714) = (  -0.7093257   1.6224846  -0.7005686), wk =   0.0027778
        k(  715) = (  -0.6615597   1.6224846  -0.5254265), wk =   0.0027778
        k(  716) = (  -0.6137936   1.6224846  -0.3502843), wk =   0.0027778
        k(  717) = (  -0.5660276   1.6224846  -0.1751422), wk =   0.0027778
        k(  718) = (  -0.5182616  -1.8027606   0.0000000), wk =   0.0013889
        k(  719) = (  -0.4704955  -1.8027606   0.1751422), wk =   0.0027778
        k(  720) = (  -0.4227295  -1.8027606   0.3502843), wk =   0.0027778
        k(  721) = (  -0.3749634  -1.8027606   0.5254265), wk =   0.0027778
        k(  722) = (  -0.3271974  -1.8027606   0.7005686), wk =   0.0027778
        k(  723) = (  -0.2794313  -1.8027606   0.8757108), wk =   0.0027778
        k(  724) = (  -0.8048578  -1.8027606  -1.0508529), wk =   0.0013889

                       cryst. coord.
        k(    1) = (   0.0000000   0.0000000   0.0000000), wk =   0.0013889
        k(    2) = (  -0.0000000   0.0000000   0.0833333), wk =   0.0027778
        k(    3) = (  -0.0000000   0.0000000   0.1666667), wk =   0.0027778
        k(    4) = (  -0.0000000   0.0000000   0.2500000), wk =   0.0027778
        k(    5) = (  -0.0000000   0.0000000   0.3333333), wk =   0.0027778
        k(    6) = (   0.0000000   0.0000000   0.4166667), wk =   0.0027778
        k(    7) = (   0.0000000   0.0000000  -0.5000000), wk =   0.0013889
        k(    8) = (   0.0000000   0.0500000   0.0000000), wk =   0.0027778
        k(    9) = (  -0.0000000   0.0500000   0.0833333), wk =   0.0027778
        k(   10) = (  -0.0000000   0.0500000   0.1666667), wk =   0.0027778
        k(   11) = (  -0.0000000   0.0500000   0.2500000), wk =   0.0027778
        k(   12) = (  -0.0000000   0.0500000   0.3333333), wk =   0.0027778
        k(   13) = (   0.0000000   0.0500000   0.4166667), wk =   0.0027778
        k(   14) = (   0.0000000   0.0500000  -0.5000000), wk =   0.0027778
        k(   15) = (  -0.0000000   0.0500000  -0.4166667), wk =   0.0027778
        k(   16) = (   0.0000000   0.0500000  -0.3333333), wk =   0.0027778
        k(   17) = (   0.0000000   0.0500000  -0.2500000), wk =   0.0027778
        k(   18) = (   0.0000000   0.0500000  -0.1666667), wk =   0.0027778
        k(   19) = (   0.0000000   0.0500000  -0.0833333), wk =   0.0027778
        k(   20) = (   0.0000000   0.1000000   0.0000000), wk =   0.0027778
        k(   21) = (  -0.0000000   0.1000000   0.0833333), wk =   0.0027778
        k(   22) = (  -0.0000000   0.1000000   0.1666667), wk =   0.0027778
        k(   23) = (  -0.0000000   0.1000000   0.2500000), wk =   0.0027778
        k(   24) = (  -0.0000000   0.1000000   0.3333333), wk =   0.0027778
        k(   25) = (   0.0000000   0.1000000   0.4166667), wk =   0.0027778
        k(   26) = (   0.0000000   0.1000000  -0.5000000), wk =   0.0027778
        k(   27) = (  -0.0000000   0.1000000  -0.4166667), wk =   0.0027778
        k(   28) = (   0.0000000   0.1000000  -0.3333333), wk =   0.0027778
        k(   29) = (   0.0000000   0.1000000  -0.2500000), wk =   0.0027778
        k(   30) = (   0.0000000   0.1000000  -0.1666667), wk =   0.0027778
        k(   31) = (   0.0000000   0.1000000  -0.0833333), wk =   0.0027778
        k(   32) = (   0.0000000   0.1500000   0.0000000), wk =   0.0027778
        k(   33) = (  -0.0000000   0.1500000   0.0833333), wk =   0.0027778
        k(   34) = (  -0.0000000   0.1500000   0.1666667), wk =   0.0027778
        k(   35) = (  -0.0000000   0.1500000   0.2500000), wk =   0.0027778
        k(   36) = (  -0.0000000   0.1500000   0.3333333), wk =   0.0027778
        k(   37) = (   0.0000000   0.1500000   0.4166667), wk =   0.0027778
        k(   38) = (   0.0000000   0.1500000  -0.5000000), wk =   0.0027778
        k(   39) = (  -0.0000000   0.1500000  -0.4166667), wk =   0.0027778
        k(   40) = (   0.0000000   0.1500000  -0.3333333), wk =   0.0027778
        k(   41) = (   0.0000000   0.1500000  -0.2500000), wk =   0.0027778
        k(   42) = (   0.0000000   0.1500000  -0.1666667), wk =   0.0027778
        k(   43) = (   0.0000000   0.1500000  -0.0833333), wk =   0.0027778
        k(   44) = (   0.0000000   0.2000000   0.0000000), wk =   0.0027778
        k(   45) = (  -0.0000000   0.2000000   0.0833333), wk =   0.0027778
        k(   46) = (  -0.0000000   0.2000000   0.1666667), wk =   0.0027778
        k(   47) = (  -0.0000000   0.2000000   0.2500000), wk =   0.0027778
        k(   48) = (  -0.0000000   0.2000000   0.3333333), wk =   0.0027778
        k(   49) = (   0.0000000   0.2000000   0.4166667), wk =   0.0027778
        k(   50) = (   0.0000000   0.2000000  -0.5000000), wk =   0.0027778
        k(   51) = (  -0.0000000   0.2000000  -0.4166667), wk =   0.0027778
        k(   52) = (   0.0000000   0.2000000  -0.3333333), wk =   0.0027778
        k(   53) = (   0.0000000   0.2000000  -0.2500000), wk =   0.0027778
        k(   54) = (   0.0000000   0.2000000  -0.1666667), wk =   0.0027778
        k(   55) = (   0.0000000   0.2000000  -0.0833333), wk =   0.0027778
        k(   56) = (   0.0000000   0.2500000   0.0000000), wk =   0.0027778
        k(   57) = (  -0.0000000   0.2500000   0.0833333), wk =   0.0027778
        k(   58) = (  -0.0000000   0.2500000   0.1666667), wk =   0.0027778
        k(   59) = (  -0.0000000   0.2500000   0.2500000), wk =   0.0027778
        k(   60) = (  -0.0000000   0.2500000   0.3333333), wk =   0.0027778
        k(   61) = (   0.0000000   0.2500000   0.4166667), wk =   0.0027778
        k(   62) = (   0.0000000   0.2500000  -0.5000000), wk =   0.0027778
        k(   63) = (  -0.0000000   0.2500000  -0.4166667), wk =   0.0027778
        k(   64) = (   0.0000000   0.2500000  -0.3333333), wk =   0.0027778
        k(   65) = (   0.0000000   0.2500000  -0.2500000), wk =   0.0027778
        k(   66) = (   0.0000000   0.2500000  -0.1666667), wk =   0.0027778
        k(   67) = (   0.0000000   0.2500000  -0.0833333), wk =   0.0027778
        k(   68) = (   0.0000000   0.3000000   0.0000000), wk =   0.0027778
        k(   69) = (  -0.0000000   0.3000000   0.0833333), wk =   0.0027778
        k(   70) = (  -0.0000000   0.3000000   0.1666667), wk =   0.0027778
        k(   71) = (  -0.0000000   0.3000000   0.2500000), wk =   0.0027778
        k(   72) = (  -0.0000000   0.3000000   0.3333333), wk =   0.0027778
        k(   73) = (   0.0000000   0.3000000   0.4166667), wk =   0.0027778
        k(   74) = (   0.0000000   0.3000000  -0.5000000), wk =   0.0027778
        k(   75) = (  -0.0000000   0.3000000  -0.4166667), wk =   0.0027778
        k(   76) = (   0.0000000   0.3000000  -0.3333333), wk =   0.0027778
        k(   77) = (   0.0000000   0.3000000  -0.2500000), wk =   0.0027778
        k(   78) = (   0.0000000   0.3000000  -0.1666667), wk =   0.0027778
        k(   79) = (   0.0000000   0.3000000  -0.0833333), wk =   0.0027778
        k(   80) = (   0.0000000   0.3500000   0.0000000), wk =   0.0027778
        k(   81) = (  -0.0000000   0.3500000   0.0833333), wk =   0.0027778
        k(   82) = (  -0.0000000   0.3500000   0.1666667), wk =   0.0027778
        k(   83) = (  -0.0000000   0.3500000   0.2500000), wk =   0.0027778
        k(   84) = (  -0.0000000   0.3500000   0.3333333), wk =   0.0027778
        k(   85) = (   0.0000000   0.3500000   0.4166667), wk =   0.0027778
        k(   86) = (   0.0000000   0.3500000  -0.5000000), wk =   0.0027778
        k(   87) = (  -0.0000000   0.3500000  -0.4166667), wk =   0.0027778
        k(   88) = (   0.0000000   0.3500000  -0.3333333), wk =   0.0027778
        k(   89) = (   0.0000000   0.3500000  -0.2500000), wk =   0.0027778
        k(   90) = (   0.0000000   0.3500000  -0.1666667), wk =   0.0027778
        k(   91) = (   0.0000000   0.3500000  -0.0833333), wk =   0.0027778
        k(   92) = (   0.0000000   0.4000000   0.0000000), wk =   0.0027778
        k(   93) = (  -0.0000000   0.4000000   0.0833333), wk =   0.0027778
        k(   94) = (  -0.0000000   0.4000000   0.1666667), wk =   0.0027778
        k(   95) = (  -0.0000000   0.4000000   0.2500000), wk =   0.0027778
        k(   96) = (  -0.0000000   0.4000000   0.3333333), wk =   0.0027778
        k(   97) = (   0.0000000   0.4000000   0.4166667), wk =   0.0027778
        k(   98) = (   0.0000000   0.4000000  -0.5000000), wk =   0.0027778
        k(   99) = (  -0.0000000   0.4000000  -0.4166667), wk =   0.0027778
        k(  100) = (   0.0000000   0.4000000  -0.3333333), wk =   0.0027778
        k(  101) = (   0.0000000   0.4000000  -0.2500000), wk =   0.0027778
        k(  102) = (   0.0000000   0.4000000  -0.1666667), wk =   0.0027778
        k(  103) = (   0.0000000   0.4000000  -0.0833333), wk =   0.0027778
        k(  104) = (   0.0000000   0.4500000   0.0000000), wk =   0.0027778
        k(  105) = (  -0.0000000   0.4500000   0.0833333), wk =   0.0027778
        k(  106) = (  -0.0000000   0.4500000   0.1666667), wk =   0.0027778
        k(  107) = (  -0.0000000   0.4500000   0.2500000), wk =   0.0027778
        k(  108) = (  -0.0000000   0.4500000   0.3333333), wk =   0.0027778
        k(  109) = (   0.0000000   0.4500000   0.4166667), wk =   0.0027778
        k(  110) = (   0.0000000   0.4500000  -0.5000000), wk =   0.0027778
        k(  111) = (  -0.0000000   0.4500000  -0.4166667), wk =   0.0027778
        k(  112) = (   0.0000000   0.4500000  -0.3333333), wk =   0.0027778
        k(  113) = (   0.0000000   0.4500000  -0.2500000), wk =   0.0027778
        k(  114) = (   0.0000000   0.4500000  -0.1666667), wk =   0.0027778
        k(  115) = (   0.0000000   0.4500000  -0.0833333), wk =   0.0027778
        k(  116) = (   0.0000000  -0.5000000   0.0000000), wk =   0.0013889
        k(  117) = (  -0.0000000  -0.5000000   0.0833333), wk =   0.0027778
        k(  118) = (  -0.0000000  -0.5000000   0.1666667), wk =   0.0027778
        k(  119) = (  -0.0000000  -0.5000000   0.2500000), wk =   0.0027778
        k(  120) = (  -0.0000000  -0.5000000   0.3333333), wk =   0.0027778
        k(  121) = (   0.0000000  -0.5000000   0.4166667), wk =   0.0027778
        k(  122) = (   0.0000000  -0.5000000  -0.5000000), wk =   0.0013889
        k(  123) = (   0.1666667   0.0000000   0.0000000), wk =   0.0027778
        k(  124) = (   0.1666667   0.0000000   0.0833333), wk =   0.0027778
        k(  125) = (   0.1666667   0.0000000   0.1666667), wk =   0.0027778
        k(  126) = (   0.1666667   0.0000000   0.2500000), wk =   0.0027778
        k(  127) = (   0.1666667   0.0000000   0.3333333), wk =   0.0027778
        k(  128) = (   0.1666667   0.0000000   0.4166667), wk =   0.0027778
        k(  129) = (   0.1666667   0.0000000  -0.5000000), wk =   0.0027778
        k(  130) = (   0.1666667   0.0000000  -0.4166667), wk =   0.0027778
        k(  131) = (   0.1666667   0.0000000  -0.3333333), wk =   0.0027778
        k(  132) = (   0.1666667   0.0000000  -0.2500000), wk =   0.0027778
        k(  133) = (   0.1666667   0.0000000  -0.1666667), wk =   0.0027778
        k(  134) = (   0.1666667   0.0000000  -0.0833333), wk =   0.0027778
        k(  135) = (   0.1666667   0.0500000   0.0000000), wk =   0.0027778
        k(  136) = (   0.1666667   0.0500000   0.0833333), wk =   0.0027778
        k(  137) = (   0.1666667   0.0500000   0.1666667), wk =   0.0027778
        k(  138) = (   0.1666667   0.0500000   0.2500000), wk =   0.0027778
        k(  139) = (   0.1666667   0.0500000   0.3333333), wk =   0.0027778
        k(  140) = (   0.1666667   0.0500000   0.4166667), wk =   0.0027778
        k(  141) = (   0.1666667   0.0500000  -0.5000000), wk =   0.0027778
        k(  142) = (   0.1666667   0.0500000  -0.4166667), wk =   0.0027778
        k(  143) = (   0.1666667   0.0500000  -0.3333333), wk =   0.0027778
        k(  144) = (   0.1666667   0.0500000  -0.2500000), wk =   0.0027778
        k(  145) = (   0.1666667   0.0500000  -0.1666667), wk =   0.0027778
        k(  146) = (   0.1666667   0.0500000  -0.0833333), wk =   0.0027778
        k(  147) = (   0.1666667   0.1000000   0.0000000), wk =   0.0027778
        k(  148) = (   0.1666667   0.1000000   0.0833333), wk =   0.0027778
        k(  149) = (   0.1666667   0.1000000   0.1666667), wk =   0.0027778
        k(  150) = (   0.1666667   0.1000000   0.2500000), wk =   0.0027778
        k(  151) = (   0.1666667   0.1000000   0.3333333), wk =   0.0027778
        k(  152) = (   0.1666667   0.1000000   0.4166667), wk =   0.0027778
        k(  153) = (   0.1666667   0.1000000  -0.5000000), wk =   0.0027778
        k(  154) = (   0.1666667   0.1000000  -0.4166667), wk =   0.0027778
        k(  155) = (   0.1666667   0.1000000  -0.3333333), wk =   0.0027778
        k(  156) = (   0.1666667   0.1000000  -0.2500000), wk =   0.0027778
        k(  157) = (   0.1666667   0.1000000  -0.1666667), wk =   0.0027778
        k(  158) = (   0.1666667   0.1000000  -0.0833333), wk =   0.0027778
        k(  159) = (   0.1666667   0.1500000   0.0000000), wk =   0.0027778
        k(  160) = (   0.1666667   0.1500000   0.0833333), wk =   0.0027778
        k(  161) = (   0.1666667   0.1500000   0.1666667), wk =   0.0027778
        k(  162) = (   0.1666667   0.1500000   0.2500000), wk =   0.0027778
        k(  163) = (   0.1666667   0.1500000   0.3333333), wk =   0.0027778
        k(  164) = (   0.1666667   0.1500000   0.4166667), wk =   0.0027778
        k(  165) = (   0.1666667   0.1500000  -0.5000000), wk =   0.0027778
        k(  166) = (   0.1666667   0.1500000  -0.4166667), wk =   0.0027778
        k(  167) = (   0.1666667   0.1500000  -0.3333333), wk =   0.0027778
        k(  168) = (   0.1666667   0.1500000  -0.2500000), wk =   0.0027778
        k(  169) = (   0.1666667   0.1500000  -0.1666667), wk =   0.0027778
        k(  170) = (   0.1666667   0.1500000  -0.0833333), wk =   0.0027778
        k(  171) = (   0.1666667   0.2000000   0.0000000), wk =   0.0027778
        k(  172) = (   0.1666667   0.2000000   0.0833333), wk =   0.0027778
        k(  173) = (   0.1666667   0.2000000   0.1666667), wk =   0.0027778
        k(  174) = (   0.1666667   0.2000000   0.2500000), wk =   0.0027778
        k(  175) = (   0.1666667   0.2000000   0.3333333), wk =   0.0027778
        k(  176) = (   0.1666667   0.2000000   0.4166667), wk =   0.0027778
        k(  177) = (   0.1666667   0.2000000  -0.5000000), wk =   0.0027778
        k(  178) = (   0.1666667   0.2000000  -0.4166667), wk =   0.0027778
        k(  179) = (   0.1666667   0.2000000  -0.3333333), wk =   0.0027778
        k(  180) = (   0.1666667   0.2000000  -0.2500000), wk =   0.0027778
        k(  181) = (   0.1666667   0.2000000  -0.1666667), wk =   0.0027778
        k(  182) = (   0.1666667   0.2000000  -0.0833333), wk =   0.0027778
        k(  183) = (   0.1666667   0.2500000   0.0000000), wk =   0.0027778
        k(  184) = (   0.1666667   0.2500000   0.0833333), wk =   0.0027778
        k(  185) = (   0.1666667   0.2500000   0.1666667), wk =   0.0027778
        k(  186) = (   0.1666667   0.2500000   0.2500000), wk =   0.0027778
        k(  187) = (   0.1666667   0.2500000   0.3333333), wk =   0.0027778
        k(  188) = (   0.1666667   0.2500000   0.4166667), wk =   0.0027778
        k(  189) = (   0.1666667   0.2500000  -0.5000000), wk =   0.0027778
        k(  190) = (   0.1666667   0.2500000  -0.4166667), wk =   0.0027778
        k(  191) = (   0.1666667   0.2500000  -0.3333333), wk =   0.0027778
        k(  192) = (   0.1666667   0.2500000  -0.2500000), wk =   0.0027778
        k(  193) = (   0.1666667   0.2500000  -0.1666667), wk =   0.0027778
        k(  194) = (   0.1666667   0.2500000  -0.0833333), wk =   0.0027778
        k(  195) = (   0.1666667   0.3000000   0.0000000), wk =   0.0027778
        k(  196) = (   0.1666667   0.3000000   0.0833333), wk =   0.0027778
        k(  197) = (   0.1666667   0.3000000   0.1666667), wk =   0.0027778
        k(  198) = (   0.1666667   0.3000000   0.2500000), wk =   0.0027778
        k(  199) = (   0.1666667   0.3000000   0.3333333), wk =   0.0027778
        k(  200) = (   0.1666667   0.3000000   0.4166667), wk =   0.0027778
        k(  201) = (   0.1666667   0.3000000  -0.5000000), wk =   0.0027778
[...]
     0.7358   0.7358   0.3579   0.3579   0.2645   0.2645

          k =-0.8049-1.8028-1.0509 ( 11508 PWs)   bands (ev):

    -3.0480  -3.0480  -2.0663  -2.0663  -1.7784  -1.7784  -1.0762  -1.0762
     0.1095   0.1095   0.8763   0.8763   1.0411   1.0411   2.1944   2.1944
     2.2761   2.2761   3.0836   3.0836   3.6868   3.6868   3.8906   3.8906
     4.2617   4.2617   4.6505   4.6505   5.0940   5.0940   6.1405   6.1405
     6.3975   6.3975   6.6676   6.6676   6.7305   6.7305

     occupation numbers 
     1.0000   1.0000   1.0000   1.0000   1.0000   1.0000   1.0000   1.0000
     1.0000   1.0000   1.0000   1.0000   1.0000   1.0000   1.0000   1.0000
     1.0000   1.0000   1.0000   1.0000   1.0000   1.0000   1.0000   1.0000
     1.0000   1.0000   1.0000   1.0000   1.0015   1.0015   0.9612   0.9612
     0.7237   0.7237   0.3547   0.3547   0.2735   0.2735

     the Fermi energy is     6.5629 ev

!    total energy              =    -585.62558211 Ry
     Harris-Foulkes estimate   =    -585.62558211 Ry
     estimated scf accuracy    <          5.3E-13 Ry

     The total energy is the sum of the following terms:

     one-electron contribution =      43.05845153 Ry
     hartree contribution      =       8.21592252 Ry
     xc contribution           =     -76.12982645 Ry
     ewald contribution        =    -109.13379076 Ry
     one-center paw contrib.   =    -451.63470721 Ry
      -> PAW hartree energy AE =       0.90391698 Ry
      -> PAW hartree energy PS =      -0.90189282 Ry
      -> PAW xc energy AE      =     -32.67024423 Ry
      -> PAW xc energy PS      =       1.36821190 Ry
      -> total E_H with PAW    =       8.21794668 Ry
      -> total E_XC with PAW   =    -107.43185878 Ry
     smearing contrib. (-TS)   =      -0.00163175 Ry

     convergence has been achieved in  21 iterations

     Forces acting on atoms (cartesian axes, Ry/au):

     atom    1 type  1   force =     0.00001414   -0.00000000   -0.00000979
     atom    2 type  1   force =    -0.00062653   -0.00000005    0.00022250
     atom    3 type  1   force =    -0.00077350   -0.00000003   -0.00060084
     atom    4 type  1   force =     0.00077131    0.00000003    0.00060103
     atom    5 type  1   force =     0.00062928    0.00000004   -0.00022286
     atom    6 type  2   force =    -0.00019744    0.00000001   -0.00121881
     atom    7 type  2   force =    -0.00023406    0.00000008   -0.00018943
     atom    8 type  3   force =    -0.00012170    0.00000005   -0.00064207
     atom    9 type  3   force =     0.00012150   -0.00000002    0.00064223
     atom   10 type  2   force =     0.00023380   -0.00000018    0.00018977
     atom   11 type  2   force =     0.00019725    0.00000002    0.00121921
     atom   12 type  1   force =    -0.00001391   -0.00000000    0.00000935
     atom   13 type  1   force =    -0.00063448   -0.00000006    0.00024245
     atom   14 type  1   force =    -0.00076601   -0.00000002   -0.00059316
     atom   15 type  1   force =     0.00076390    0.00000002    0.00059327
     atom   16 type  1   force =     0.00063726    0.00000007   -0.00024295
     atom   17 type  2   force =    -0.00018508   -0.00000002   -0.00122430
     atom   18 type  2   force =    -0.00022528    0.00000014   -0.00020373
     atom   19 type  3   force =    -0.00011941    0.00000004   -0.00063123
     atom   20 type  3   force =     0.00011923   -0.00000006    0.00063089
     atom   21 type  2   force =     0.00022512   -0.00000005    0.00020387
     atom   22 type  2   force =     0.00018461    0.00000001    0.00122459
     The non-local contrib.  to forces
     atom    1 type  1   force =     0.00001692    0.00000002   -0.00003039
     atom    2 type  1   force =     0.01572285   -0.00000009    0.00227819
     atom    3 type  1   force =     0.00171392    0.00000019    0.01469242
     atom    4 type  1   force =    -0.00172907   -0.00000019   -0.01469577
     atom    5 type  1   force =    -0.01572479    0.00000002   -0.00228460
     atom    6 type  2   force =    -0.02259636    0.00000010   -0.05156703
     atom    7 type  2   force =     0.01321941    0.00000015    0.02793612
     atom    8 type  3   force =     0.01456521   -0.00000018   -0.01600374
     atom    9 type  3   force =    -0.01456784    0.00000014    0.01600358
     atom   10 type  2   force =    -0.01322453   -0.00000007   -0.02793343
     atom   11 type  2   force =     0.02260432   -0.00000019    0.05156684
     atom   12 type  1   force =    -0.00002561   -0.00000003    0.00002821
     atom   13 type  1   force =     0.01569574   -0.00000002    0.00234411
     atom   14 type  1   force =     0.00172302    0.00000020    0.01471468
     atom   15 type  1   force =    -0.00173768   -0.00000024   -0.01471870
     atom   16 type  1   force =    -0.01569763    0.00000010   -0.00235032
     atom   17 type  2   force =    -0.02258337    0.00000013   -0.05156877
     atom   18 type  2   force =     0.01320980    0.00000010    0.02792748
     atom   19 type  3   force =     0.01457676   -0.00000009   -0.01598368
     atom   20 type  3   force =    -0.01457939    0.00000014    0.01598274
     atom   21 type  2   force =    -0.01321459   -0.00000019   -0.02792540
     atom   22 type  2   force =     0.02259120   -0.00000005    0.05156844
     The ionic contribution  to forces
     atom    1 type  1   force =     0.00000239   -0.00000000   -0.00003792
     atom    2 type  1   force =    -0.16235177    0.00000000   -0.30480573
     atom    3 type  1   force =    -0.14978509    0.00000000    0.20564982
     atom    4 type  1   force =     0.14976350   -0.00000000   -0.20566179
     atom    5 type  1   force =     0.16237130   -0.00000000    0.30480306
     atom    6 type  2   force =     0.14553980   -0.00000000    0.91321241
     atom    7 type  2   force =    -0.56188460   -0.00000000   -0.84609225
     atom    8 type  3   force =    -0.00199266   -0.00000000    0.32353274
     atom    9 type  3   force =     0.00194505    0.00000000   -0.32351514
     atom   10 type  2   force =     0.56186199    0.00000000    0.84609745
     atom   11 type  2   force =    -0.14547699    0.00000000   -0.91321748
     atom   12 type  1   force =     0.00001065    0.00000000    0.00003231
     atom   13 type  1   force =    -0.16240764   -0.00000000   -0.30477822
     atom   14 type  1   force =    -0.14974487   -0.00000000    0.20574732
     atom   15 type  1   force =     0.14972305    0.00000000   -0.20575982
     atom   16 type  1   force =     0.16242812    0.00000000    0.30477603
     atom   17 type  2   force =     0.14564472    0.00000000    0.91315501
     atom   18 type  2   force =    -0.56166692    0.00000000   -0.84634168
     atom   19 type  3   force =    -0.00198590    0.00000000    0.32366255
     atom   20 type  3   force =     0.00194094   -0.00000000   -0.32364441
     atom   21 type  2   force =     0.56164786   -0.00000000    0.84634587
     atom   22 type  2   force =    -0.14558293   -0.00000000   -0.91316014
     The local contribution  to forces
     atom    1 type  1   force =    -0.00000465   -0.00000002    0.00005479
     atom    2 type  1   force =     0.14786542    0.00000002    0.30269412
     atom    3 type  1   force =     0.14730944   -0.00000020   -0.21883467
     atom    4 type  1   force =    -0.14727939    0.00000020    0.21884897
     atom    5 type  1   force =    -0.14788323    0.00000003   -0.30268693
     atom    6 type  2   force =    -0.12538327   -0.00000009   -0.86784983
     atom    7 type  2   force =     0.54967705   -0.00000005    0.82071160
     atom    8 type  3   force =    -0.01101549    0.00000021   -0.30984115
     atom    9 type  3   force =     0.01106239   -0.00000016    0.30982309
     atom   10 type  2   force =    -0.54965257   -0.00000013   -0.82071757
     atom   11 type  2   force =     0.12532110    0.00000020    0.86785698
     atom   12 type  1   force =    -0.00000317    0.00000002   -0.00004843
     atom   13 type  1   force =     0.14793686   -0.00000004    0.30262821
     atom   14 type  1   force =     0.14726853   -0.00000019   -0.21894395
     atom   15 type  1   force =    -0.14723864    0.00000023    0.21895930
     atom   16 type  1   force =    -0.14795564   -0.00000002   -0.30262182
     atom   17 type  2   force =    -0.12548738   -0.00000015   -0.86779646
     atom   18 type  2   force =     0.54947682    0.00000006    0.82095437
     atom   19 type  3   force =    -0.01102997    0.00000012   -0.30997767
     atom   20 type  3   force =     0.01107418   -0.00000019    0.30995925
     atom   21 type  2   force =    -0.54945612    0.00000012   -0.82095897
     atom   22 type  2   force =     0.12542600    0.00000006    0.86780374
     The core correction contribution to forces
     atom    1 type  1   force =    -0.00000198   -0.00000000    0.00000335
     atom    2 type  1   force =    -0.00186450    0.00000001    0.00005551
     atom    3 type  1   force =    -0.00001330   -0.00000002   -0.00210879
     atom    4 type  1   force =     0.00001500    0.00000002    0.00210920
     atom    5 type  1   force =     0.00186466   -0.00000000   -0.00005477
     atom    6 type  2   force =     0.00224071   -0.00000001    0.00498524
     atom    7 type  2   force =    -0.00124751   -0.00000002   -0.00274514
     atom    8 type  3   force =    -0.00168012    0.00000002    0.00166956
     atom    9 type  3   force =     0.00168048   -0.00000001   -0.00166957
     atom   10 type  2   force =     0.00124772    0.00000001    0.00274274
     atom   11 type  2   force =    -0.00225230    0.00000002   -0.00498753
     atom   12 type  1   force =     0.00000284    0.00000000   -0.00000314
     atom   13 type  1   force =    -0.00186086    0.00000000    0.00004793
     atom   14 type  1   force =    -0.00001419   -0.00000002   -0.00211160
     atom   15 type  1   force =     0.00001585    0.00000002    0.00211208
     atom   16 type  1   force =     0.00186100   -0.00000001   -0.00004722
     atom   17 type  2   force =     0.00223941   -0.00000001    0.00498553
     atom   18 type  2   force =    -0.00124653   -0.00000001   -0.00274414
     atom   19 type  3   force =    -0.00168169    0.00000001    0.00166704
     atom   20 type  3   force =     0.00168204   -0.00000001   -0.00166697
     atom   21 type  2   force =     0.00124668    0.00000002    0.00274181
     atom   22 type  2   force =    -0.00225094    0.00000001   -0.00498786
     The Hubbard contrib.    to forces
     atom    1 type  1   force =     0.00000000    0.00000000    0.00000000
     atom    2 type  1   force =     0.00000000    0.00000000    0.00000000
     atom    3 type  1   force =     0.00000000    0.00000000    0.00000000
     atom    4 type  1   force =     0.00000000    0.00000000    0.00000000
     atom    5 type  1   force =     0.00000000    0.00000000    0.00000000
     atom    6 type  2   force =     0.00000000    0.00000000    0.00000000
     atom    7 type  2   force =     0.00000000    0.00000000    0.00000000
     atom    8 type  3   force =     0.00000000    0.00000000    0.00000000
     atom    9 type  3   force =     0.00000000    0.00000000    0.00000000
     atom   10 type  2   force =     0.00000000    0.00000000    0.00000000
     atom   11 type  2   force =     0.00000000    0.00000000    0.00000000
     atom   12 type  1   force =     0.00000000    0.00000000    0.00000000
     atom   13 type  1   force =     0.00000000    0.00000000    0.00000000
     atom   14 type  1   force =     0.00000000    0.00000000    0.00000000
     atom   15 type  1   force =     0.00000000    0.00000000    0.00000000
     atom   16 type  1   force =     0.00000000    0.00000000    0.00000000
     atom   17 type  2   force =     0.00000000    0.00000000    0.00000000
     atom   18 type  2   force =     0.00000000    0.00000000    0.00000000
     atom   19 type  3   force =     0.00000000    0.00000000    0.00000000
     atom   20 type  3   force =     0.00000000    0.00000000    0.00000000
     atom   21 type  2   force =     0.00000000    0.00000000    0.00000000
     atom   22 type  2   force =     0.00000000    0.00000000    0.00000000
     The SCF correction term to forces
     atom    1 type  1   force =     0.00000003    0.00000000   -0.00000000
     atom    2 type  1   force =     0.00000006    0.00000001    0.00000002
     atom    3 type  1   force =     0.00000012   -0.00000000   -0.00000001
     atom    4 type  1   force =    -0.00000014    0.00000000    0.00000002
     atom    5 type  1   force =    -0.00000007   -0.00000000   -0.00000002
     atom    6 type  2   force =     0.00000027    0.00000001    0.00000000
     atom    7 type  2   force =     0.00000018   -0.00000001   -0.00000018
     atom    8 type  3   force =    -0.00000004   -0.00000001    0.00000013
     atom    9 type  3   force =     0.00000001    0.00000001   -0.00000013
     atom   10 type  2   force =    -0.00000021    0.00000001    0.00000017
     atom   11 type  2   force =    -0.00000028   -0.00000001    0.00000000
     atom   12 type  1   force =    -0.00000003   -0.00000000    0.00000000
     atom   13 type  1   force =     0.00000000    0.00000000    0.00000001
     atom   14 type  1   force =     0.00000010   -0.00000000   -0.00000001
     atom   15 type  1   force =    -0.00000008    0.00000000    0.00000001
     atom   16 type  1   force =     0.00000000   -0.00000000   -0.00000001
     atom   17 type  2   force =     0.00000013    0.00000001   -0.00000001
     atom   18 type  2   force =     0.00000014   -0.00000001   -0.00000016
     atom   19 type  3   force =    -0.00000003   -0.00000001    0.00000012
     atom   20 type  3   force =     0.00000005    0.00000001   -0.00000012
     atom   21 type  2   force =    -0.00000011    0.00000000    0.00000017
     atom   22 type  2   force =    -0.00000012   -0.00000001    0.00000001

     Total force =     0.003710     Total SCF correction =     0.000001


     Computing stress (Cartesian axis) and pressure

          total   stress  (Ry/bohr**3)                   (kbar)     P=   16.73
   0.00027516   0.00000000  -0.00007512         40.48      0.00    -11.05
   0.00000000   0.00006223  -0.00000000          0.00      9.15     -0.00
  -0.00007512  -0.00000000   0.00000382        -11.05     -0.00      0.56

     kinetic stress (kbar)   1416.68      0.00    -21.63
                                0.00   1418.14     -0.00
                              -21.63     -0.00   1404.34

     local   stress (kbar)   -148.61     -0.00    -10.95
                               -0.00     81.22     -0.00
                              -10.95     -0.00    225.31

     nonloc. stress (kbar)   1134.29     -0.00     -7.75
                               -0.00   1100.15      0.00
                               -7.75      0.00   1098.77

     hartree stress (kbar)    200.98      0.00     -9.88
                                0.00    168.63     -0.00
                               -9.88     -0.00     79.84

     exc-cor stress (kbar)   1480.86     -0.00     -0.19
                               -0.00   1479.53     -0.00
                               -0.19     -0.00   1479.48

     corecor stress (kbar)  -2203.23      0.00      1.49
                                0.00  -2198.25     -0.00
                                1.49     -0.00  -2197.87

     ewald   stress (kbar)  -1840.49     -0.00     37.85
                               -0.00  -2040.26      0.00
                               37.85      0.00  -2089.32

     hubbard stress (kbar)      0.00      0.00      0.00
                                0.00      0.00      0.00
                                0.00      0.00      0.00

     london  stress (kbar)      0.00      0.00      0.00
                                0.00      0.00      0.00
                                0.00      0.00      0.00

     DFT-D3  stress (kbar)      0.00      0.00      0.00
                                0.00      0.00      0.00
                                0.00      0.00      0.00

     XDM     stress (kbar)      0.00      0.00      0.00
                                0.00      0.00      0.00
                                0.00      0.00      0.00

     dft-nl  stress (kbar)      0.00      0.00      0.00
                                0.00      0.00      0.00
                                0.00      0.00      0.00

     TS-vdW  stress (kbar)      0.00      0.00      0.00
                                0.00      0.00      0.00
                                0.00      0.00      0.00



     Writing output data file aiida.save/
 
     init_run     :     21.63s CPU     22.05s WALL (       1 calls)
     electrons    :    800.28s CPU    813.54s WALL (       1 calls)
     forces       :      8.19s CPU      8.28s WALL (       1 calls)
     stress       :     53.56s CPU     53.68s WALL (       1 calls)

     Called by init_run:
     wfcinit      :     19.14s CPU     19.46s WALL (       1 calls)
     wfcinit:atom :      0.15s CPU      0.16s WALL (     181 calls)
     wfcinit:wfcr :     17.81s CPU     18.07s WALL (     181 calls)
     potinit      :      0.85s CPU      0.87s WALL (       1 calls)
     hinit0       :      1.46s CPU      1.50s WALL (       1 calls)

     Called by electrons:
     c_bands      :    711.00s CPU    720.75s WALL (      21 calls)
     sum_band     :     82.44s CPU     84.40s WALL (      21 calls)
     v_of_rho     :      1.69s CPU      1.85s WALL (      22 calls)
     v_h          :      0.11s CPU      0.13s WALL (      22 calls)
     v_xc         :      1.70s CPU      1.87s WALL (      24 calls)
     newd         :      1.69s CPU      2.62s WALL (      22 calls)
     PAW_pot      :      2.79s CPU      2.81s WALL (      22 calls)
     mix_rho      :      0.65s CPU      0.70s WALL (      21 calls)

     Called by c_bands:
     init_us_2    :     23.64s CPU     24.02s WALL (    8145 calls)
     cegterg      :    555.10s CPU    561.92s WALL (    3801 calls)

     Called by sum_band:
     sum_band:bec :      0.50s CPU      0.50s WALL (    3801 calls)
     addusdens    :      1.67s CPU      2.67s WALL (      21 calls)

     Called by *egterg:
     h_psi        :    386.52s CPU    392.24s WALL (   16359 calls)
     s_psi        :     55.44s CPU     55.56s WALL (   16359 calls)
     g_psi        :      2.68s CPU      2.70s WALL (   12377 calls)
     cdiaghg      :     57.72s CPU     58.53s WALL (   16178 calls)
     cegterg:over :     26.66s CPU     26.83s WALL (   12377 calls)
     cegterg:upda :     21.52s CPU     21.70s WALL (   12377 calls)
     cegterg:last :      9.30s CPU      9.37s WALL (    4261 calls)
     cdiaghg:chol :      3.56s CPU      3.59s WALL (   16178 calls)
     cdiaghg:inve :      0.78s CPU      0.79s WALL (   16178 calls)
     cdiaghg:para :      7.29s CPU      7.34s WALL (   32356 calls)

     Called by h_psi:
     h_psi:pot    :    384.62s CPU    390.33s WALL (   16359 calls)
     h_psi:calbec :     54.25s CPU     54.83s WALL (   16359 calls)
     vloc_psi     :    274.24s CPU    279.26s WALL (   16359 calls)
     add_vuspsi   :     55.97s CPU     56.11s WALL (   16359 calls)

     General routines
     calbec       :     76.71s CPU     77.48s WALL (   21065 calls)
     fft          :      1.36s CPU      1.48s WALL (     310 calls)
     ffts         :      0.23s CPU      0.24s WALL (     329 calls)
     fftw         :    291.38s CPU    296.51s WALL (  968254 calls)
     interpolate  :      0.14s CPU      0.15s WALL (      22 calls)
 
     Parallel routines
     fft_scatt_xy :     37.21s CPU     37.88s WALL (  968893 calls)
     fft_scatt_yz :    110.80s CPU    112.91s WALL (  968893 calls)

     PAW routines
     PAW_pot      :      2.79s CPU      2.81s WALL (      22 calls)
 
     PWSCF        :  15m 5.44s CPU  15m36.37s WALL

 
   This run was terminated on:  14:27:55  22Feb2020            

=------------------------------------------------------------------------------=
   JOB DONE.
=------------------------------------------------------------------------------=
