
     Program PWSCF v.6.3 starts on 27Feb2020 at  0:25:33 

     This program is part of the open-source Quantum ESPRESSO suite
     for quantum simulation of materials; please cite
         "P. Giannozzi et al., J. Phys.:Condens. Matter 21 395502 (2009);
         "P. Giannozzi et al., J. Phys.:Condens. Matter 29 465901 (2017);
          URL http://www.quantum-espresso.org", 
     in publications or presentations arising from this work. More details at
     http://www.quantum-espresso.org/quote

 *** WARNING: using old-style file format, will disappear from next version ***

     Parallel version (MPI & OpenMP), running on     288 processor cores
     Number of MPI processes:               288
     Threads/MPI process:                     1

     MPI processes distributed on     8 nodes
     K-points division:     npool     =      36
     R & G space division:  proc/nbgrp/npool/nimage =       8
     Reading input from aiida.in
Warning: card &IONS ignored
Warning: card   !PRESS_CONV_THR = 0.05                 ! JUST FOR VOLUME RELAXATIONS ignored
Warning: card / ignored

     Current dimensions of program PWSCF are:
     Max number of different atomic species (ntypx) = 10
     Max number of k-points (npk) =  40000
     Max angular momentum in pseudopotentials (lmaxx) =  3
               file Mg.pbe-n-kjpaw_psl.0.3.0.UPF: wavefunction(s)  3S renormalized
               file Al.pbe-n-kjpaw_psl.1.0.0.UPF: wavefunction(s)  3S 3P renormalized

     Subspace diagonalization in iterative solution of the eigenvalue problem:
     one sub-group per band group will be used
     scalapack distributed-memory algorithm (size of sub-group:  2*  2 procs)

 
     Parallelization info
     --------------------
     sticks:   dense  smooth     PW     G-vecs:    dense   smooth      PW
     Min        3740    1497    390               486920   123201   16474
     Max        3741    1498    391               486925   123204   16481
     Sum       29921   11977   3125              3895379   985619  131827
 


     bravais-lattice index     =            0
     lattice parameter (alat)  =      30.6665  a.u.
     unit-cell volume          =   28839.7575 (a.u.)^3
     number of atoms/cell      =          256
     number of atomic types    =            2
     number of electrons       =       767.00
     number of Kohn-Sham states=          461
     kinetic-energy cutoff     =      40.0000  Ry
     charge density cutoff     =     400.0000  Ry
     convergence threshold     =      1.0E-12
     mixing beta               =       0.4000
     number of iterations used =            8  local-TF  mixing
     Exchange-correlation      = SLA PW PBX PBC ( 1  4  3  4 0 0)

     celldm(1)=  30.666476  celldm(2)=   0.000000  celldm(3)=   0.000000
     celldm(4)=   0.000000  celldm(5)=   0.000000  celldm(6)=   0.000000

     crystal axes: (cart. coord. in units of alat)
               a(1) = (   1.000000   0.000000   0.000000 )  
               a(2) = (   0.000000   1.000000   0.000000 )  
               a(3) = (   0.000000   0.000000   1.000000 )  

     reciprocal axes: (cart. coord. in units 2 pi/alat)
               b(1) = (  1.000000  0.000000  0.000000 )  
               b(2) = (  0.000000  1.000000  0.000000 )  
               b(3) = (  0.000000  0.000000  1.000000 )  


     PseudoPot. # 1 for Mg read from file:
     /users/aglensk/Dropbox/Albert/scripts/dotfiles/scripts/potentials/quantum_espresso/pseudo_SSSPefV1.1_alalloy/Mg.pbe-n-kjpaw_psl.0.3.0.UPF
     MD5 check sum: 24ecedc7f3e3cbe212e682f4413594e4
     Pseudo is Projector augmented-wave + core cor, Zval =  2.0
     Generated using "atomic" code by A. Dal Corso v.5.0.99 svn rev. 10869
     Shape of augmentation charge: PSQ
     Using radial grid of 1129 points,  4 beta functions with: 
                l(1) =   0
                l(2) =   0
                l(3) =   1
                l(4) =   1
     Q(r) pseudized with 0 coefficients 


     PseudoPot. # 2 for Al read from file:
     /users/aglensk/Dropbox/Albert/scripts/dotfiles/scripts/potentials/quantum_espresso/pseudo_SSSPefV1.1_alalloy/Al.pbe-n-kjpaw_psl.1.0.0.UPF
     MD5 check sum: cfc449ca30b5f3223ec38ddd88ac046d
     Pseudo is Projector augmented-wave + core cor, Zval =  3.0
     Generated using "atomic" code by A. Dal Corso v.5.1
     Shape of augmentation charge: PSQ
     Using radial grid of 1135 points,  6 beta functions with: 
                l(1) =   0
                l(2) =   0
                l(3) =   1
                l(4) =   1
                l(5) =   2
                l(6) =   2
     Q(r) pseudized with 0 coefficients 


     atomic species   valence    mass     pseudopotential
        Mg             2.00    24.30500     Mg( 1.00)
        Al             3.00    26.98154     Al( 1.00)

     No symmetry found


                                    s                        frac. trans.

      isym =  1     identity                                     

 cryst.   s( 1) = (     1          0          0      )
                  (     0          1          0      )
                  (     0          0          1      )

 cart.    s( 1) = (  1.0000000  0.0000000  0.0000000 )
                  (  0.0000000  1.0000000  0.0000000 )
                  (  0.0000000  0.0000000  1.0000000 )


   Cartesian axes

     site n.     atom                  positions (alat units)
         1           Mg  tau(   1) = (   0.0000000   0.0000000   0.0000000  )
         2           Al  tau(   2) = (   0.1250000   0.1250000   0.0000000  )
         3           Al  tau(   3) = (   0.1250000   0.0000000   0.1250000  )
         4           Al  tau(   4) = (   0.0000000   0.1250000   0.1250000  )
         5           Al  tau(   5) = (   0.0000000   0.0000000   0.2500000  )
         6           Al  tau(   6) = (   0.1250000   0.1250000   0.2500000  )
         7           Al  tau(   7) = (   0.1250000   0.0000000   0.3750000  )
         8           Al  tau(   8) = (   0.0000000   0.1250000   0.3750000  )
         9           Al  tau(   9) = (   0.0000000   0.0000000   0.5000000  )
        10           Al  tau(  10) = (   0.1250000   0.1250000   0.5000000  )
        11           Al  tau(  11) = (   0.1250000   0.0000000   0.6250000  )
        12           Al  tau(  12) = (   0.0000000   0.1250000   0.6250000  )
        13           Al  tau(  13) = (   0.0000000   0.0000000   0.7500000  )
        14           Al  tau(  14) = (   0.1250000   0.1250000   0.7500000  )
        15           Al  tau(  15) = (   0.1250000   0.0000000   0.8750000  )
        16           Al  tau(  16) = (   0.0000000   0.1250000   0.8750000  )
        17           Al  tau(  17) = (   0.0000000   0.2500000   0.0000000  )
        18           Al  tau(  18) = (   0.1250000   0.3750000   0.0000000  )
        19           Al  tau(  19) = (   0.1250000   0.2500000   0.1250000  )
        20           Al  tau(  20) = (   0.0000000   0.3750000   0.1250000  )
        21           Al  tau(  21) = (   0.0000000   0.2500000   0.2500000  )
        22           Al  tau(  22) = (   0.1250000   0.3750000   0.2500000  )
        23           Al  tau(  23) = (   0.1250000   0.2500000   0.3750000  )
        24           Al  tau(  24) = (   0.0000000   0.3750000   0.3750000  )
        25           Al  tau(  25) = (   0.0000000   0.2500000   0.5000000  )
        26           Al  tau(  26) = (   0.1250000   0.3750000   0.5000000  )
        27           Al  tau(  27) = (   0.1250000   0.2500000   0.6250000  )
        28           Al  tau(  28) = (   0.0000000   0.3750000   0.6250000  )
        29           Al  tau(  29) = (   0.0000000   0.2500000   0.7500000  )
        30           Al  tau(  30) = (   0.1250000   0.3750000   0.7500000  )
        31           Al  tau(  31) = (   0.1250000   0.2500000   0.8750000  )
        32           Al  tau(  32) = (   0.0000000   0.3750000   0.8750000  )
        33           Al  tau(  33) = (   0.0000000   0.5000000   0.0000000  )
        34           Al  tau(  34) = (   0.1250000   0.6250000   0.0000000  )
        35           Al  tau(  35) = (   0.1250000   0.5000000   0.1250000  )
        36           Al  tau(  36) = (   0.0000000   0.6250000   0.1250000  )
        37           Al  tau(  37) = (   0.0000000   0.5000000   0.2500000  )
        38           Al  tau(  38) = (   0.1250000   0.6250000   0.2500000  )
        39           Al  tau(  39) = (   0.1250000   0.5000000   0.3750000  )
        40           Al  tau(  40) = (   0.0000000   0.6250000   0.3750000  )
        41           Al  tau(  41) = (   0.0000000   0.5000000   0.5000000  )
        42           Al  tau(  42) = (   0.1250000   0.6250000   0.5000000  )
        43           Al  tau(  43) = (   0.1250000   0.5000000   0.6250000  )
        44           Al  tau(  44) = (   0.0000000   0.6250000   0.6250000  )
        45           Al  tau(  45) = (   0.0000000   0.5000000   0.7500000  )
        46           Al  tau(  46) = (   0.1250000   0.6250000   0.7500000  )
        47           Al  tau(  47) = (   0.1250000   0.5000000   0.8750000  )
        48           Al  tau(  48) = (   0.0000000   0.6250000   0.8750000  )
        49           Al  tau(  49) = (   0.0000000   0.7500000   0.0000000  )
        50           Al  tau(  50) = (   0.1250000   0.8750000   0.0000000  )
        51           Al  tau(  51) = (   0.1250000   0.7500000   0.1250000  )
        52           Al  tau(  52) = (   0.0000000   0.8750000   0.1250000  )
        53           Al  tau(  53) = (   0.0000000   0.7500000   0.2500000  )
        54           Al  tau(  54) = (   0.1250000   0.8750000   0.2500000  )
        55           Al  tau(  55) = (   0.1250000   0.7500000   0.3750000  )
        56           Al  tau(  56) = (   0.0000000   0.8750000   0.3750000  )
        57           Al  tau(  57) = (   0.0000000   0.7500000   0.5000000  )
        58           Al  tau(  58) = (   0.1250000   0.8750000   0.5000000  )
        59           Al  tau(  59) = (   0.1250000   0.7500000   0.6250000  )
        60           Al  tau(  60) = (   0.0000000   0.8750000   0.6250000  )
        61           Al  tau(  61) = (   0.0000000   0.7500000   0.7500000  )
        62           Al  tau(  62) = (   0.1250000   0.8750000   0.7500000  )
        63           Al  tau(  63) = (   0.1250000   0.7500000   0.8750000  )
        64           Al  tau(  64) = (   0.0000000   0.8750000   0.8750000  )
        65           Al  tau(  65) = (   0.2500000   0.0000000   0.0000000  )
        66           Al  tau(  66) = (   0.3750000   0.1250000   0.0000000  )
        67           Al  tau(  67) = (   0.3750000   0.0000000   0.1250000  )
        68           Al  tau(  68) = (   0.2500000   0.1250000   0.1250000  )
        69           Al  tau(  69) = (   0.2500000   0.0000000   0.2500000  )
        70           Al  tau(  70) = (   0.3750000   0.1250000   0.2500000  )
        71           Al  tau(  71) = (   0.3750000   0.0000000   0.3750000  )
        72           Al  tau(  72) = (   0.2500000   0.1250000   0.3750000  )
        73           Al  tau(  73) = (   0.2500000   0.0000000   0.5000000  )
        74           Al  tau(  74) = (   0.3750000   0.1250000   0.5000000  )
        75           Al  tau(  75) = (   0.3750000   0.0000000   0.6250000  )
        76           Al  tau(  76) = (   0.2500000   0.1250000   0.6250000  )
        77           Al  tau(  77) = (   0.2500000   0.0000000   0.7500000  )
        78           Al  tau(  78) = (   0.3750000   0.1250000   0.7500000  )
        79           Al  tau(  79) = (   0.3750000   0.0000000   0.8750000  )
        80           Al  tau(  80) = (   0.2500000   0.1250000   0.8750000  )
        81           Al  tau(  81) = (   0.2500000   0.2500000   0.0000000  )
        82           Al  tau(  82) = (   0.3750000   0.3750000   0.0000000  )
        83           Al  tau(  83) = (   0.3750000   0.2500000   0.1250000  )
        84           Al  tau(  84) = (   0.2500000   0.3750000   0.1250000  )
        85           Al  tau(  85) = (   0.2500000   0.2500000   0.2500000  )
        86           Al  tau(  86) = (   0.3750000   0.3750000   0.2500000  )
        87           Al  tau(  87) = (   0.3750000   0.2500000   0.3750000  )
        88           Al  tau(  88) = (   0.2500000   0.3750000   0.3750000  )
        89           Al  tau(  89) = (   0.2500000   0.2500000   0.5000000  )
        90           Al  tau(  90) = (   0.3750000   0.3750000   0.5000000  )
        91           Al  tau(  91) = (   0.3750000   0.2500000   0.6250000  )
        92           Al  tau(  92) = (   0.2500000   0.3750000   0.6250000  )
        93           Al  tau(  93) = (   0.2500000   0.2500000   0.7500000  )
        94           Al  tau(  94) = (   0.3750000   0.3750000   0.7500000  )
        95           Al  tau(  95) = (   0.3750000   0.2500000   0.8750000  )
        96           Al  tau(  96) = (   0.2500000   0.3750000   0.8750000  )
        97           Al  tau(  97) = (   0.2500000   0.5000000   0.0000000  )
        98           Al  tau(  98) = (   0.3750000   0.6250000   0.0000000  )
        99           Al  tau(  99) = (   0.3750000   0.5000000   0.1250000  )
       100           Al  tau( 100) = (   0.2500000   0.6250000   0.1250000  )
       101           Al  tau( 101) = (   0.2500000   0.5000000   0.2500000  )
       102           Al  tau( 102) = (   0.3750000   0.6250000   0.2500000  )
       103           Al  tau( 103) = (   0.3750000   0.5000000   0.3750000  )
       104           Al  tau( 104) = (   0.2500000   0.6250000   0.3750000  )
       105           Al  tau( 105) = (   0.2500000   0.5000000   0.5000000  )
       106           Al  tau( 106) = (   0.3750000   0.6250000   0.5000000  )
       107           Al  tau( 107) = (   0.3750000   0.5000000   0.6250000  )
       108           Al  tau( 108) = (   0.2500000   0.6250000   0.6250000  )
       109           Al  tau( 109) = (   0.2500000   0.5000000   0.7500000  )
       110           Al  tau( 110) = (   0.3750000   0.6250000   0.7500000  )
       111           Al  tau( 111) = (   0.3750000   0.5000000   0.8750000  )
       112           Al  tau( 112) = (   0.2500000   0.6250000   0.8750000  )
       113           Al  tau( 113) = (   0.2500000   0.7500000   0.0000000  )
       114           Al  tau( 114) = (   0.3750000   0.8750000   0.0000000  )
       115           Al  tau( 115) = (   0.3750000   0.7500000   0.1250000  )
       116           Al  tau( 116) = (   0.2500000   0.8750000   0.1250000  )
       117           Al  tau( 117) = (   0.2500000   0.7500000   0.2500000  )
       118           Al  tau( 118) = (   0.3750000   0.8750000   0.2500000  )
       119           Al  tau( 119) = (   0.3750000   0.7500000   0.3750000  )
       120           Al  tau( 120) = (   0.2500000   0.8750000   0.3750000  )
       121           Al  tau( 121) = (   0.2500000   0.7500000   0.5000000  )
       122           Al  tau( 122) = (   0.3750000   0.8750000   0.5000000  )
       123           Al  tau( 123) = (   0.3750000   0.7500000   0.6250000  )
       124           Al  tau( 124) = (   0.2500000   0.8750000   0.6250000  )
       125           Al  tau( 125) = (   0.2500000   0.7500000   0.7500000  )
       126           Al  tau( 126) = (   0.3750000   0.8750000   0.7500000  )
       127           Al  tau( 127) = (   0.3750000   0.7500000   0.8750000  )
       128           Al  tau( 128) = (   0.2500000   0.8750000   0.8750000  )
       129           Al  tau( 129) = (   0.5000000   0.0000000   0.0000000  )
       130           Al  tau( 130) = (   0.6250000   0.1250000   0.0000000  )
       131           Al  tau( 131) = (   0.6250000   0.0000000   0.1250000  )
       132           Al  tau( 132) = (   0.5000000   0.1250000   0.1250000  )
       133           Al  tau( 133) = (   0.5000000   0.0000000   0.2500000  )
       134           Al  tau( 134) = (   0.6250000   0.1250000   0.2500000  )
       135           Al  tau( 135) = (   0.6250000   0.0000000   0.3750000  )
       136           Al  tau( 136) = (   0.5000000   0.1250000   0.3750000  )
       137           Al  tau( 137) = (   0.5000000   0.0000000   0.5000000  )
       138           Al  tau( 138) = (   0.6250000   0.1250000   0.5000000  )
       139           Al  tau( 139) = (   0.6250000   0.0000000   0.6250000  )
       140           Al  tau( 140) = (   0.5000000   0.1250000   0.6250000  )
       141           Al  tau( 141) = (   0.5000000   0.0000000   0.7500000  )
       142           Al  tau( 142) = (   0.6250000   0.1250000   0.7500000  )
       143           Al  tau( 143) = (   0.6250000   0.0000000   0.8750000  )
       144           Al  tau( 144) = (   0.5000000   0.1250000   0.8750000  )
       145           Al  tau( 145) = (   0.5000000   0.2500000   0.0000000  )
       146           Al  tau( 146) = (   0.6250000   0.3750000   0.0000000  )
       147           Al  tau( 147) = (   0.6250000   0.2500000   0.1250000  )
       148           Al  tau( 148) = (   0.5000000   0.3750000   0.1250000  )
       149           Al  tau( 149) = (   0.5000000   0.2500000   0.2500000  )
       150           Al  tau( 150) = (   0.6250000   0.3750000   0.2500000  )
       151           Al  tau( 151) = (   0.6250000   0.2500000   0.3750000  )
       152           Al  tau( 152) = (   0.5000000   0.3750000   0.3750000  )
       153           Al  tau( 153) = (   0.5000000   0.2500000   0.5000000  )
       154           Al  tau( 154) = (   0.6250000   0.3750000   0.5000000  )
       155           Al  tau( 155) = (   0.6250000   0.2500000   0.6250000  )
       156           Al  tau( 156) = (   0.5000000   0.3750000   0.6250000  )
       157           Al  tau( 157) = (   0.5000000   0.2500000   0.7500000  )
       158           Al  tau( 158) = (   0.6250000   0.3750000   0.7500000  )
       159           Al  tau( 159) = (   0.6250000   0.2500000   0.8750000  )
       160           Al  tau( 160) = (   0.5000000   0.3750000   0.8750000  )
       161           Al  tau( 161) = (   0.5000000   0.5000000   0.0000000  )
       162           Al  tau( 162) = (   0.6250000   0.6250000   0.0000000  )
       163           Al  tau( 163) = (   0.6250000   0.5000000   0.1250000  )
       164           Al  tau( 164) = (   0.5000000   0.6250000   0.1250000  )
       165           Al  tau( 165) = (   0.5000000   0.5000000   0.2500000  )
       166           Al  tau( 166) = (   0.6250000   0.6250000   0.2500000  )
       167           Al  tau( 167) = (   0.6250000   0.5000000   0.3750000  )
       168           Al  tau( 168) = (   0.5000000   0.6250000   0.3750000  )
       169           Al  tau( 169) = (   0.5000000   0.5000000   0.5000000  )
       170           Al  tau( 170) = (   0.6250000   0.6250000   0.5000000  )
       171           Al  tau( 171) = (   0.6250000   0.5000000   0.6250000  )
       172           Al  tau( 172) = (   0.5000000   0.6250000   0.6250000  )
       173           Al  tau( 173) = (   0.5000000   0.5000000   0.7500000  )
       174           Al  tau( 174) = (   0.6250000   0.6250000   0.7500000  )
       175           Al  tau( 175) = (   0.6250000   0.5000000   0.8750000  )
       176           Al  tau( 176) = (   0.5000000   0.6250000   0.8750000  )
       177           Al  tau( 177) = (   0.5000000   0.7500000   0.0000000  )
       178           Al  tau( 178) = (   0.6250000   0.8750000   0.0000000  )
       179           Al  tau( 179) = (   0.6250000   0.7500000   0.1250000  )
       180           Al  tau( 180) = (   0.5000000   0.8750000   0.1250000  )
       181           Al  tau( 181) = (   0.5000000   0.7500000   0.2500000  )
       182           Al  tau( 182) = (   0.6250000   0.8750000   0.2500000  )
       183           Al  tau( 183) = (   0.6250000   0.7500000   0.3750000  )
       184           Al  tau( 184) = (   0.5000000   0.8750000   0.3750000  )
       185           Al  tau( 185) = (   0.5000000   0.7500000   0.5000000  )
       186           Al  tau( 186) = (   0.6250000   0.8750000   0.5000000  )
       187           Al  tau( 187) = (   0.6250000   0.7500000   0.6250000  )
       188           Al  tau( 188) = (   0.5000000   0.8750000   0.6250000  )
       189           Al  tau( 189) = (   0.5000000   0.7500000   0.7500000  )
       190           Al  tau( 190) = (   0.6250000   0.8750000   0.7500000  )
       191           Al  tau( 191) = (   0.6250000   0.7500000   0.8750000  )
       192           Al  tau( 192) = (   0.5000000   0.8750000   0.8750000  )
       193           Al  tau( 193) = (   0.7500000   0.0000000   0.0000000  )
       194           Al  tau( 194) = (   0.8750000   0.1250000   0.0000000  )
       195           Al  tau( 195) = (   0.8750000   0.0000000   0.1250000  )
       196           Al  tau( 196) = (   0.7500000   0.1250000   0.1250000  )
       197           Al  tau( 197) = (   0.7500000   0.0000000   0.2500000  )
       198           Al  tau( 198) = (   0.8750000   0.1250000   0.2500000  )
       199           Al  tau( 199) = (   0.8750000   0.0000000   0.3750000  )
       200           Al  tau( 200) = (   0.7500000   0.1250000   0.3750000  )
       201           Al  tau( 201) = (   0.7500000   0.0000000   0.5000000  )
       202           Al  tau( 202) = (   0.8750000   0.1250000   0.5000000  )
       203           Al  tau( 203) = (   0.8750000   0.0000000   0.6250000  )
       204           Al  tau( 204) = (   0.7500000   0.1250000   0.6250000  )
       205           Al  tau( 205) = (   0.7500000   0.0000000   0.7500000  )
       206           Al  tau( 206) = (   0.8750000   0.1250000   0.7500000  )
       207           Al  tau( 207) = (   0.8750000   0.0000000   0.8750000  )
       208           Al  tau( 208) = (   0.7500000   0.1250000   0.8750000  )
       209           Al  tau( 209) = (   0.7500000   0.2500000   0.0000000  )
       210           Al  tau( 210) = (   0.8750000   0.3750000   0.0000000  )
       211           Al  tau( 211) = (   0.8750000   0.2500000   0.1250000  )
       212           Al  tau( 212) = (   0.7500000   0.3750000   0.1250000  )
       213           Al  tau( 213) = (   0.7500000   0.2500000   0.2500000  )
       214           Al  tau( 214) = (   0.8750000   0.3750000   0.2500000  )
       215           Al  tau( 215) = (   0.8750000   0.2500000   0.3750000  )
       216           Al  tau( 216) = (   0.7500000   0.3750000   0.3750000  )
       217           Al  tau( 217) = (   0.7500000   0.2500000   0.5000000  )
       218           Al  tau( 218) = (   0.8750000   0.3750000   0.5000000  )
       219           Al  tau( 219) = (   0.8750000   0.2500000   0.6250000  )
       220           Al  tau( 220) = (   0.7500000   0.3750000   0.6250000  )
       221           Al  tau( 221) = (   0.7500000   0.2500000   0.7500000  )
       222           Al  tau( 222) = (   0.8750000   0.3750000   0.7500000  )
       223           Al  tau( 223) = (   0.8750000   0.2500000   0.8750000  )
       224           Al  tau( 224) = (   0.7500000   0.3750000   0.8750000  )
       225           Al  tau( 225) = (   0.7500000   0.5000000   0.0000000  )
       226           Al  tau( 226) = (   0.8750000   0.6250000   0.0000000  )
       227           Al  tau( 227) = (   0.8750000   0.5000000   0.1250000  )
       228           Al  tau( 228) = (   0.7500000   0.6250000   0.1250000  )
       229           Al  tau( 229) = (   0.7500000   0.5000000   0.2500000  )
       230           Al  tau( 230) = (   0.8750000   0.6250000   0.2500000  )
       231           Al  tau( 231) = (   0.8750000   0.5000000   0.3750000  )
       232           Al  tau( 232) = (   0.7500000   0.6250000   0.3750000  )
       233           Al  tau( 233) = (   0.7500000   0.5000000   0.5000000  )
       234           Al  tau( 234) = (   0.8750000   0.6250000   0.5000000  )
       235           Al  tau( 235) = (   0.8750000   0.5000000   0.6250000  )
       236           Al  tau( 236) = (   0.7500000   0.6250000   0.6250000  )
       237           Al  tau( 237) = (   0.7500000   0.5000000   0.7500000  )
       238           Al  tau( 238) = (   0.8750000   0.6250000   0.7500000  )
       239           Al  tau( 239) = (   0.8750000   0.5000000   0.8750000  )
       240           Al  tau( 240) = (   0.7500000   0.6250000   0.8750000  )
       241           Al  tau( 241) = (   0.7500000   0.7500000   0.0000000  )
       242           Al  tau( 242) = (   0.8750000   0.8750000   0.0000000  )
       243           Al  tau( 243) = (   0.8750000   0.7500000   0.1250000  )
       244           Al  tau( 244) = (   0.7500000   0.8750000   0.1250000  )
       245           Al  tau( 245) = (   0.7500000   0.7500000   0.2500000  )
       246           Al  tau( 246) = (   0.8750000   0.8750000   0.2500000  )
       247           Al  tau( 247) = (   0.8750000   0.7500000   0.3750000  )
       248           Al  tau( 248) = (   0.7500000   0.8750000   0.3750000  )
       249           Al  tau( 249) = (   0.7500000   0.7500000   0.5000000  )
       250           Al  tau( 250) = (   0.8750000   0.8750000   0.5000000  )
       251           Al  tau( 251) = (   0.8750000   0.7500000   0.6250000  )
       252           Al  tau( 252) = (   0.7500000   0.8750000   0.6250000  )
       253           Al  tau( 253) = (   0.7500000   0.7500000   0.7500000  )
       254           Al  tau( 254) = (   0.8750000   0.8750000   0.7500000  )
       255           Al  tau( 255) = (   0.8750000   0.7500000   0.8750000  )
       256           Al  tau( 256) = (   0.7500000   0.8750000   0.8750000  )

   Crystallographic axes

     site n.     atom                  positions (cryst. coord.)
         1           Mg  tau(   1) = (  0.0000000  0.0000000  0.0000000  )
         2           Al  tau(   2) = (  0.1250000  0.1250000  0.0000000  )
         3           Al  tau(   3) = (  0.1250000  0.0000000  0.1250000  )
         4           Al  tau(   4) = (  0.0000000  0.1250000  0.1250000  )
         5           Al  tau(   5) = (  0.0000000  0.0000000  0.2500000  )
         6           Al  tau(   6) = (  0.1250000  0.1250000  0.2500000  )
         7           Al  tau(   7) = (  0.1250000  0.0000000  0.3750000  )
         8           Al  tau(   8) = (  0.0000000  0.1250000  0.3750000  )
         9           Al  tau(   9) = (  0.0000000  0.0000000  0.5000000  )
        10           Al  tau(  10) = (  0.1250000  0.1250000  0.5000000  )
        11           Al  tau(  11) = (  0.1250000  0.0000000  0.6250000  )
        12           Al  tau(  12) = (  0.0000000  0.1250000  0.6250000  )
        13           Al  tau(  13) = (  0.0000000  0.0000000  0.7500000  )
        14           Al  tau(  14) = (  0.1250000  0.1250000  0.7500000  )
        15           Al  tau(  15) = (  0.1250000  0.0000000  0.8750000  )
        16           Al  tau(  16) = (  0.0000000  0.1250000  0.8750000  )
        17           Al  tau(  17) = (  0.0000000  0.2500000  0.0000000  )
        18           Al  tau(  18) = (  0.1250000  0.3750000  0.0000000  )
        19           Al  tau(  19) = (  0.1250000  0.2500000  0.1250000  )
        20           Al  tau(  20) = (  0.0000000  0.3750000  0.1250000  )
        21           Al  tau(  21) = (  0.0000000  0.2500000  0.2500000  )
        22           Al  tau(  22) = (  0.1250000  0.3750000  0.2500000  )
        23           Al  tau(  23) = (  0.1250000  0.2500000  0.3750000  )
        24           Al  tau(  24) = (  0.0000000  0.3750000  0.3750000  )
        25           Al  tau(  25) = (  0.0000000  0.2500000  0.5000000  )
        26           Al  tau(  26) = (  0.1250000  0.3750000  0.5000000  )
        27           Al  tau(  27) = (  0.1250000  0.2500000  0.6250000  )
        28           Al  tau(  28) = (  0.0000000  0.3750000  0.6250000  )
        29           Al  tau(  29) = (  0.0000000  0.2500000  0.7500000  )
        30           Al  tau(  30) = (  0.1250000  0.3750000  0.7500000  )
        31           Al  tau(  31) = (  0.1250000  0.2500000  0.8750000  )
        32           Al  tau(  32) = (  0.0000000  0.3750000  0.8750000  )
        33           Al  tau(  33) = (  0.0000000  0.5000000  0.0000000  )
        34           Al  tau(  34) = (  0.1250000  0.6250000  0.0000000  )
        35           Al  tau(  35) = (  0.1250000  0.5000000  0.1250000  )
        36           Al  tau(  36) = (  0.0000000  0.6250000  0.1250000  )
        37           Al  tau(  37) = (  0.0000000  0.5000000  0.2500000  )
        38           Al  tau(  38) = (  0.1250000  0.6250000  0.2500000  )
        39           Al  tau(  39) = (  0.1250000  0.5000000  0.3750000  )
        40           Al  tau(  40) = (  0.0000000  0.6250000  0.3750000  )
        41           Al  tau(  41) = (  0.0000000  0.5000000  0.5000000  )
        42           Al  tau(  42) = (  0.1250000  0.6250000  0.5000000  )
        43           Al  tau(  43) = (  0.1250000  0.5000000  0.6250000  )
        44           Al  tau(  44) = (  0.0000000  0.6250000  0.6250000  )
        45           Al  tau(  45) = (  0.0000000  0.5000000  0.7500000  )
        46           Al  tau(  46) = (  0.1250000  0.6250000  0.7500000  )
        47           Al  tau(  47) = (  0.1250000  0.5000000  0.8750000  )
        48           Al  tau(  48) = (  0.0000000  0.6250000  0.8750000  )
        49           Al  tau(  49) = (  0.0000000  0.7500000  0.0000000  )
        50           Al  tau(  50) = (  0.1250000  0.8750000  0.0000000  )
        51           Al  tau(  51) = (  0.1250000  0.7500000  0.1250000  )
        52           Al  tau(  52) = (  0.0000000  0.8750000  0.1250000  )
        53           Al  tau(  53) = (  0.0000000  0.7500000  0.2500000  )
        54           Al  tau(  54) = (  0.1250000  0.8750000  0.2500000  )
        55           Al  tau(  55) = (  0.1250000  0.7500000  0.3750000  )
        56           Al  tau(  56) = (  0.0000000  0.8750000  0.3750000  )
        57           Al  tau(  57) = (  0.0000000  0.7500000  0.5000000  )
        58           Al  tau(  58) = (  0.1250000  0.8750000  0.5000000  )
        59           Al  tau(  59) = (  0.1250000  0.7500000  0.6250000  )
        60           Al  tau(  60) = (  0.0000000  0.8750000  0.6250000  )
        61           Al  tau(  61) = (  0.0000000  0.7500000  0.7500000  )
        62           Al  tau(  62) = (  0.1250000  0.8750000  0.7500000  )
        63           Al  tau(  63) = (  0.1250000  0.7500000  0.8750000  )
        64           Al  tau(  64) = (  0.0000000  0.8750000  0.8750000  )
        65           Al  tau(  65) = (  0.2500000  0.0000000  0.0000000  )
        66           Al  tau(  66) = (  0.3750000  0.1250000  0.0000000  )
        67           Al  tau(  67) = (  0.3750000  0.0000000  0.1250000  )
        68           Al  tau(  68) = (  0.2500000  0.1250000  0.1250000  )
        69           Al  tau(  69) = (  0.2500000  0.0000000  0.2500000  )
        70           Al  tau(  70) = (  0.3750000  0.1250000  0.2500000  )
        71           Al  tau(  71) = (  0.3750000  0.0000000  0.3750000  )
        72           Al  tau(  72) = (  0.2500000  0.1250000  0.3750000  )
        73           Al  tau(  73) = (  0.2500000  0.0000000  0.5000000  )
        74           Al  tau(  74) = (  0.3750000  0.1250000  0.5000000  )
        75           Al  tau(  75) = (  0.3750000  0.0000000  0.6250000  )
        76           Al  tau(  76) = (  0.2500000  0.1250000  0.6250000  )
        77           Al  tau(  77) = (  0.2500000  0.0000000  0.7500000  )
        78           Al  tau(  78) = (  0.3750000  0.1250000  0.7500000  )
        79           Al  tau(  79) = (  0.3750000  0.0000000  0.8750000  )
        80           Al  tau(  80) = (  0.2500000  0.1250000  0.8750000  )
        81           Al  tau(  81) = (  0.2500000  0.2500000  0.0000000  )
        82           Al  tau(  82) = (  0.3750000  0.3750000  0.0000000  )
        83           Al  tau(  83) = (  0.3750000  0.2500000  0.1250000  )
        84           Al  tau(  84) = (  0.2500000  0.3750000  0.1250000  )
        85           Al  tau(  85) = (  0.2500000  0.2500000  0.2500000  )
        86           Al  tau(  86) = (  0.3750000  0.3750000  0.2500000  )
        87           Al  tau(  87) = (  0.3750000  0.2500000  0.3750000  )
        88           Al  tau(  88) = (  0.2500000  0.3750000  0.3750000  )
        89           Al  tau(  89) = (  0.2500000  0.2500000  0.5000000  )
        90           Al  tau(  90) = (  0.3750000  0.3750000  0.5000000  )
        91           Al  tau(  91) = (  0.3750000  0.2500000  0.6250000  )
        92           Al  tau(  92) = (  0.2500000  0.3750000  0.6250000  )
        93           Al  tau(  93) = (  0.2500000  0.2500000  0.7500000  )
        94           Al  tau(  94) = (  0.3750000  0.3750000  0.7500000  )
        95           Al  tau(  95) = (  0.3750000  0.2500000  0.8750000  )
        96           Al  tau(  96) = (  0.2500000  0.3750000  0.8750000  )
        97           Al  tau(  97) = (  0.2500000  0.5000000  0.0000000  )
        98           Al  tau(  98) = (  0.3750000  0.6250000  0.0000000  )
        99           Al  tau(  99) = (  0.3750000  0.5000000  0.1250000  )
       100           Al  tau( 100) = (  0.2500000  0.6250000  0.1250000  )
       101           Al  tau( 101) = (  0.2500000  0.5000000  0.2500000  )
       102           Al  tau( 102) = (  0.3750000  0.6250000  0.2500000  )
       103           Al  tau( 103) = (  0.3750000  0.5000000  0.3750000  )
       104           Al  tau( 104) = (  0.2500000  0.6250000  0.3750000  )
       105           Al  tau( 105) = (  0.2500000  0.5000000  0.5000000  )
       106           Al  tau( 106) = (  0.3750000  0.6250000  0.5000000  )
       107           Al  tau( 107) = (  0.3750000  0.5000000  0.6250000  )
       108           Al  tau( 108) = (  0.2500000  0.6250000  0.6250000  )
       109           Al  tau( 109) = (  0.2500000  0.5000000  0.7500000  )
       110           Al  tau( 110) = (  0.3750000  0.6250000  0.7500000  )
       111           Al  tau( 111) = (  0.3750000  0.5000000  0.8750000  )
       112           Al  tau( 112) = (  0.2500000  0.6250000  0.8750000  )
       113           Al  tau( 113) = (  0.2500000  0.7500000  0.0000000  )
       114           Al  tau( 114) = (  0.3750000  0.8750000  0.0000000  )
       115           Al  tau( 115) = (  0.3750000  0.7500000  0.1250000  )
       116           Al  tau( 116) = (  0.2500000  0.8750000  0.1250000  )
       117           Al  tau( 117) = (  0.2500000  0.7500000  0.2500000  )
       118           Al  tau( 118) = (  0.3750000  0.8750000  0.2500000  )
       119           Al  tau( 119) = (  0.3750000  0.7500000  0.3750000  )
       120           Al  tau( 120) = (  0.2500000  0.8750000  0.3750000  )
       121           Al  tau( 121) = (  0.2500000  0.7500000  0.5000000  )
       122           Al  tau( 122) = (  0.3750000  0.8750000  0.5000000  )
       123           Al  tau( 123) = (  0.3750000  0.7500000  0.6250000  )
       124           Al  tau( 124) = (  0.2500000  0.8750000  0.6250000  )
       125           Al  tau( 125) = (  0.2500000  0.7500000  0.7500000  )
       126           Al  tau( 126) = (  0.3750000  0.8750000  0.7500000  )
       127           Al  tau( 127) = (  0.3750000  0.7500000  0.8750000  )
       128           Al  tau( 128) = (  0.2500000  0.8750000  0.8750000  )
       129           Al  tau( 129) = (  0.5000000  0.0000000  0.0000000  )
       130           Al  tau( 130) = (  0.6250000  0.1250000  0.0000000  )
       131           Al  tau( 131) = (  0.6250000  0.0000000  0.1250000  )
       132           Al  tau( 132) = (  0.5000000  0.1250000  0.1250000  )
       133           Al  tau( 133) = (  0.5000000  0.0000000  0.2500000  )
       134           Al  tau( 134) = (  0.6250000  0.1250000  0.2500000  )
       135           Al  tau( 135) = (  0.6250000  0.0000000  0.3750000  )
       136           Al  tau( 136) = (  0.5000000  0.1250000  0.3750000  )
       137           Al  tau( 137) = (  0.5000000  0.0000000  0.5000000  )
       138           Al  tau( 138) = (  0.6250000  0.1250000  0.5000000  )
       139           Al  tau( 139) = (  0.6250000  0.0000000  0.6250000  )
       140           Al  tau( 140) = (  0.5000000  0.1250000  0.6250000  )
       141           Al  tau( 141) = (  0.5000000  0.0000000  0.7500000  )
       142           Al  tau( 142) = (  0.6250000  0.1250000  0.7500000  )
       143           Al  tau( 143) = (  0.6250000  0.0000000  0.8750000  )
       144           Al  tau( 144) = (  0.5000000  0.1250000  0.8750000  )
       145           Al  tau( 145) = (  0.5000000  0.2500000  0.0000000  )
       146           Al  tau( 146) = (  0.6250000  0.3750000  0.0000000  )
       147           Al  tau( 147) = (  0.6250000  0.2500000  0.1250000  )
       148           Al  tau( 148) = (  0.5000000  0.3750000  0.1250000  )
       149           Al  tau( 149) = (  0.5000000  0.2500000  0.2500000  )
       150           Al  tau( 150) = (  0.6250000  0.3750000  0.2500000  )
       151           Al  tau( 151) = (  0.6250000  0.2500000  0.3750000  )
       152           Al  tau( 152) = (  0.5000000  0.3750000  0.3750000  )
       153           Al  tau( 153) = (  0.5000000  0.2500000  0.5000000  )
       154           Al  tau( 154) = (  0.6250000  0.3750000  0.5000000  )
       155           Al  tau( 155) = (  0.6250000  0.2500000  0.6250000  )
       156           Al  tau( 156) = (  0.5000000  0.3750000  0.6250000  )
       157           Al  tau( 157) = (  0.5000000  0.2500000  0.7500000  )
       158           Al  tau( 158) = (  0.6250000  0.3750000  0.7500000  )
       159           Al  tau( 159) = (  0.6250000  0.2500000  0.8750000  )
       160           Al  tau( 160) = (  0.5000000  0.3750000  0.8750000  )
       161           Al  tau( 161) = (  0.5000000  0.5000000  0.0000000  )
       162           Al  tau( 162) = (  0.6250000  0.6250000  0.0000000  )
       163           Al  tau( 163) = (  0.6250000  0.5000000  0.1250000  )
       164           Al  tau( 164) = (  0.5000000  0.6250000  0.1250000  )
       165           Al  tau( 165) = (  0.5000000  0.5000000  0.2500000  )
       166           Al  tau( 166) = (  0.6250000  0.6250000  0.2500000  )
       167           Al  tau( 167) = (  0.6250000  0.5000000  0.3750000  )
       168           Al  tau( 168) = (  0.5000000  0.6250000  0.3750000  )
       169           Al  tau( 169) = (  0.5000000  0.5000000  0.5000000  )
       170           Al  tau( 170) = (  0.6250000  0.6250000  0.5000000  )
       171           Al  tau( 171) = (  0.6250000  0.5000000  0.6250000  )
       172           Al  tau( 172) = (  0.5000000  0.6250000  0.6250000  )
       173           Al  tau( 173) = (  0.5000000  0.5000000  0.7500000  )
       174           Al  tau( 174) = (  0.6250000  0.6250000  0.7500000  )
       175           Al  tau( 175) = (  0.6250000  0.5000000  0.8750000  )
       176           Al  tau( 176) = (  0.5000000  0.6250000  0.8750000  )
       177           Al  tau( 177) = (  0.5000000  0.7500000  0.0000000  )
       178           Al  tau( 178) = (  0.6250000  0.8750000  0.0000000  )
       179           Al  tau( 179) = (  0.6250000  0.7500000  0.1250000  )
       180           Al  tau( 180) = (  0.5000000  0.8750000  0.1250000  )
       181           Al  tau( 181) = (  0.5000000  0.7500000  0.2500000  )
       182           Al  tau( 182) = (  0.6250000  0.8750000  0.2500000  )
       183           Al  tau( 183) = (  0.6250000  0.7500000  0.3750000  )
       184           Al  tau( 184) = (  0.5000000  0.8750000  0.3750000  )
       185           Al  tau( 185) = (  0.5000000  0.7500000  0.5000000  )
       186           Al  tau( 186) = (  0.6250000  0.8750000  0.5000000  )
       187           Al  tau( 187) = (  0.6250000  0.7500000  0.6250000  )
       188           Al  tau( 188) = (  0.5000000  0.8750000  0.6250000  )
       189           Al  tau( 189) = (  0.5000000  0.7500000  0.7500000  )
       190           Al  tau( 190) = (  0.6250000  0.8750000  0.7500000  )
       191           Al  tau( 191) = (  0.6250000  0.7500000  0.8750000  )
       192           Al  tau( 192) = (  0.5000000  0.8750000  0.8750000  )
       193           Al  tau( 193) = (  0.7500000  0.0000000  0.0000000  )
       194           Al  tau( 194) = (  0.8750000  0.1250000  0.0000000  )
       195           Al  tau( 195) = (  0.8750000  0.0000000  0.1250000  )
       196           Al  tau( 196) = (  0.7500000  0.1250000  0.1250000  )
       197           Al  tau( 197) = (  0.7500000  0.0000000  0.2500000  )
       198           Al  tau( 198) = (  0.8750000  0.1250000  0.2500000  )
       199           Al  tau( 199) = (  0.8750000  0.0000000  0.3750000  )
       200           Al  tau( 200) = (  0.7500000  0.1250000  0.3750000  )
       201           Al  tau( 201) = (  0.7500000  0.0000000  0.5000000  )
       202           Al  tau( 202) = (  0.8750000  0.1250000  0.5000000  )
       203           Al  tau( 203) = (  0.8750000  0.0000000  0.6250000  )
       204           Al  tau( 204) = (  0.7500000  0.1250000  0.6250000  )
       205           Al  tau( 205) = (  0.7500000  0.0000000  0.7500000  )
       206           Al  tau( 206) = (  0.8750000  0.1250000  0.7500000  )
       207           Al  tau( 207) = (  0.8750000  0.0000000  0.8750000  )
       208           Al  tau( 208) = (  0.7500000  0.1250000  0.8750000  )
       209           Al  tau( 209) = (  0.7500000  0.2500000  0.0000000  )
       210           Al  tau( 210) = (  0.8750000  0.3750000  0.0000000  )
       211           Al  tau( 211) = (  0.8750000  0.2500000  0.1250000  )
       212           Al  tau( 212) = (  0.7500000  0.3750000  0.1250000  )
       213           Al  tau( 213) = (  0.7500000  0.2500000  0.2500000  )
       214           Al  tau( 214) = (  0.8750000  0.3750000  0.2500000  )
       215           Al  tau( 215) = (  0.8750000  0.2500000  0.3750000  )
       216           Al  tau( 216) = (  0.7500000  0.3750000  0.3750000  )
       217           Al  tau( 217) = (  0.7500000  0.2500000  0.5000000  )
       218           Al  tau( 218) = (  0.8750000  0.3750000  0.5000000  )
       219           Al  tau( 219) = (  0.8750000  0.2500000  0.6250000  )
       220           Al  tau( 220) = (  0.7500000  0.3750000  0.6250000  )
       221           Al  tau( 221) = (  0.7500000  0.2500000  0.7500000  )
       222           Al  tau( 222) = (  0.8750000  0.3750000  0.7500000  )
       223           Al  tau( 223) = (  0.8750000  0.2500000  0.8750000  )
       224           Al  tau( 224) = (  0.7500000  0.3750000  0.8750000  )
       225           Al  tau( 225) = (  0.7500000  0.5000000  0.0000000  )
       226           Al  tau( 226) = (  0.8750000  0.6250000  0.0000000  )
       227           Al  tau( 227) = (  0.8750000  0.5000000  0.1250000  )
       228           Al  tau( 228) = (  0.7500000  0.6250000  0.1250000  )
       229           Al  tau( 229) = (  0.7500000  0.5000000  0.2500000  )
       230           Al  tau( 230) = (  0.8750000  0.6250000  0.2500000  )
       231           Al  tau( 231) = (  0.8750000  0.5000000  0.3750000  )
       232           Al  tau( 232) = (  0.7500000  0.6250000  0.3750000  )
       233           Al  tau( 233) = (  0.7500000  0.5000000  0.5000000  )
       234           Al  tau( 234) = (  0.8750000  0.6250000  0.5000000  )
       235           Al  tau( 235) = (  0.8750000  0.5000000  0.6250000  )
       236           Al  tau( 236) = (  0.7500000  0.6250000  0.6250000  )
       237           Al  tau( 237) = (  0.7500000  0.5000000  0.7500000  )
       238           Al  tau( 238) = (  0.8750000  0.6250000  0.7500000  )
       239           Al  tau( 239) = (  0.8750000  0.5000000  0.8750000  )
       240           Al  tau( 240) = (  0.7500000  0.6250000  0.8750000  )
       241           Al  tau( 241) = (  0.7500000  0.7500000  0.0000000  )
       242           Al  tau( 242) = (  0.8750000  0.8750000  0.0000000  )
       243           Al  tau( 243) = (  0.8750000  0.7500000  0.1250000  )
       244           Al  tau( 244) = (  0.7500000  0.8750000  0.1250000  )
       245           Al  tau( 245) = (  0.7500000  0.7500000  0.2500000  )
       246           Al  tau( 246) = (  0.8750000  0.8750000  0.2500000  )
       247           Al  tau( 247) = (  0.8750000  0.7500000  0.3750000  )
       248           Al  tau( 248) = (  0.7500000  0.8750000  0.3750000  )
       249           Al  tau( 249) = (  0.7500000  0.7500000  0.5000000  )
       250           Al  tau( 250) = (  0.8750000  0.8750000  0.5000000  )
       251           Al  tau( 251) = (  0.8750000  0.7500000  0.6250000  )
       252           Al  tau( 252) = (  0.7500000  0.8750000  0.6250000  )
       253           Al  tau( 253) = (  0.7500000  0.7500000  0.7500000  )
       254           Al  tau( 254) = (  0.8750000  0.8750000  0.7500000  )
       255           Al  tau( 255) = (  0.8750000  0.7500000  0.8750000  )
       256           Al  tau( 256) = (  0.7500000  0.8750000  0.8750000  )

     number of k points=    63  Methfessel-Paxton smearing, width (Ry)=  0.0441
                       cart. coord. in units 2pi/alat
        k(    1) = (   0.0000000   0.0000000   0.0000000), wk =   0.0160000
        k(    2) = (   0.0000000   0.0000000   0.2000000), wk =   0.0320000
        k(    3) = (   0.0000000   0.0000000   0.4000000), wk =   0.0320000
        k(    4) = (   0.0000000   0.2000000   0.0000000), wk =   0.0320000
        k(    5) = (   0.0000000   0.2000000   0.2000000), wk =   0.0320000
        k(    6) = (   0.0000000   0.2000000   0.4000000), wk =   0.0320000
        k(    7) = (   0.0000000   0.2000000  -0.4000000), wk =   0.0320000
        k(    8) = (   0.0000000   0.2000000  -0.2000000), wk =   0.0320000
        k(    9) = (   0.0000000   0.4000000   0.0000000), wk =   0.0320000
        k(   10) = (   0.0000000   0.4000000   0.2000000), wk =   0.0320000
        k(   11) = (   0.0000000   0.4000000   0.4000000), wk =   0.0320000
        k(   12) = (   0.0000000   0.4000000  -0.4000000), wk =   0.0320000
        k(   13) = (   0.0000000   0.4000000  -0.2000000), wk =   0.0320000
        k(   14) = (   0.2000000   0.0000000   0.0000000), wk =   0.0320000
        k(   15) = (   0.2000000   0.0000000   0.2000000), wk =   0.0320000
        k(   16) = (   0.2000000   0.0000000   0.4000000), wk =   0.0320000
        k(   17) = (   0.2000000   0.0000000  -0.4000000), wk =   0.0320000
        k(   18) = (   0.2000000   0.0000000  -0.2000000), wk =   0.0320000
        k(   19) = (   0.2000000   0.2000000   0.0000000), wk =   0.0320000
        k(   20) = (   0.2000000   0.2000000   0.2000000), wk =   0.0320000
        k(   21) = (   0.2000000   0.2000000   0.4000000), wk =   0.0320000
        k(   22) = (   0.2000000   0.2000000  -0.4000000), wk =   0.0320000
        k(   23) = (   0.2000000   0.2000000  -0.2000000), wk =   0.0320000
        k(   24) = (   0.2000000   0.4000000   0.0000000), wk =   0.0320000
        k(   25) = (   0.2000000   0.4000000   0.2000000), wk =   0.0320000
        k(   26) = (   0.2000000   0.4000000   0.4000000), wk =   0.0320000
        k(   27) = (   0.2000000   0.4000000  -0.4000000), wk =   0.0320000
        k(   28) = (   0.2000000   0.4000000  -0.2000000), wk =   0.0320000
        k(   29) = (   0.2000000  -0.4000000   0.0000000), wk =   0.0320000
        k(   30) = (   0.2000000  -0.4000000   0.2000000), wk =   0.0320000
        k(   31) = (   0.2000000  -0.4000000   0.4000000), wk =   0.0320000
        k(   32) = (   0.2000000  -0.4000000  -0.4000000), wk =   0.0320000
        k(   33) = (   0.2000000  -0.4000000  -0.2000000), wk =   0.0320000
        k(   34) = (   0.2000000  -0.2000000   0.0000000), wk =   0.0320000
        k(   35) = (   0.2000000  -0.2000000   0.2000000), wk =   0.0320000
        k(   36) = (   0.2000000  -0.2000000   0.4000000), wk =   0.0320000
        k(   37) = (   0.2000000  -0.2000000  -0.4000000), wk =   0.0320000
        k(   38) = (   0.2000000  -0.2000000  -0.2000000), wk =   0.0320000
        k(   39) = (   0.4000000   0.0000000   0.0000000), wk =   0.0320000
        k(   40) = (   0.4000000   0.0000000   0.2000000), wk =   0.0320000
        k(   41) = (   0.4000000   0.0000000   0.4000000), wk =   0.0320000
        k(   42) = (   0.4000000   0.0000000  -0.4000000), wk =   0.0320000
        k(   43) = (   0.4000000   0.0000000  -0.2000000), wk =   0.0320000
        k(   44) = (   0.4000000   0.2000000   0.0000000), wk =   0.0320000
        k(   45) = (   0.4000000   0.2000000   0.2000000), wk =   0.0320000
        k(   46) = (   0.4000000   0.2000000   0.4000000), wk =   0.0320000
        k(   47) = (   0.4000000   0.2000000  -0.4000000), wk =   0.0320000
        k(   48) = (   0.4000000   0.2000000  -0.2000000), wk =   0.0320000
        k(   49) = (   0.4000000   0.4000000   0.0000000), wk =   0.0320000
        k(   50) = (   0.4000000   0.4000000   0.2000000), wk =   0.0320000
        k(   51) = (   0.4000000   0.4000000   0.4000000), wk =   0.0320000
        k(   52) = (   0.4000000   0.4000000  -0.4000000), wk =   0.0320000
        k(   53) = (   0.4000000   0.4000000  -0.2000000), wk =   0.0320000
        k(   54) = (   0.4000000  -0.4000000   0.0000000), wk =   0.0320000
        k(   55) = (   0.4000000  -0.4000000   0.2000000), wk =   0.0320000
        k(   56) = (   0.4000000  -0.4000000   0.4000000), wk =   0.0320000
        k(   57) = (   0.4000000  -0.4000000  -0.4000000), wk =   0.0320000
        k(   58) = (   0.4000000  -0.4000000  -0.2000000), wk =   0.0320000
        k(   59) = (   0.4000000  -0.2000000   0.0000000), wk =   0.0320000
        k(   60) = (   0.4000000  -0.2000000   0.2000000), wk =   0.0320000
        k(   61) = (   0.4000000  -0.2000000   0.4000000), wk =   0.0320000
        k(   62) = (   0.4000000  -0.2000000  -0.4000000), wk =   0.0320000
        k(   63) = (   0.4000000  -0.2000000  -0.2000000), wk =   0.0320000

                       cryst. coord.
        k(    1) = (   0.0000000   0.0000000   0.0000000), wk =   0.0160000
        k(    2) = (   0.0000000   0.0000000   0.2000000), wk =   0.0320000
        k(    3) = (   0.0000000   0.0000000   0.4000000), wk =   0.0320000
        k(    4) = (   0.0000000   0.2000000   0.0000000), wk =   0.0320000
        k(    5) = (   0.0000000   0.2000000   0.2000000), wk =   0.0320000
        k(    6) = (   0.0000000   0.2000000   0.4000000), wk =   0.0320000
        k(    7) = (   0.0000000   0.2000000  -0.4000000), wk =   0.0320000
        k(    8) = (   0.0000000   0.2000000  -0.2000000), wk =   0.0320000
        k(    9) = (   0.0000000   0.4000000   0.0000000), wk =   0.0320000
        k(   10) = (   0.0000000   0.4000000   0.2000000), wk =   0.0320000
        k(   11) = (   0.0000000   0.4000000   0.4000000), wk =   0.0320000
        k(   12) = (   0.0000000   0.4000000  -0.4000000), wk =   0.0320000
        k(   13) = (   0.0000000   0.4000000  -0.2000000), wk =   0.0320000
        k(   14) = (   0.2000000   0.0000000   0.0000000), wk =   0.0320000
        k(   15) = (   0.2000000   0.0000000   0.2000000), wk =   0.0320000
        k(   16) = (   0.2000000   0.0000000   0.4000000), wk =   0.0320000
        k(   17) = (   0.2000000   0.0000000  -0.4000000), wk =   0.0320000
        k(   18) = (   0.2000000   0.0000000  -0.2000000), wk =   0.0320000
        k(   19) = (   0.2000000   0.2000000   0.0000000), wk =   0.0320000
        k(   20) = (   0.2000000   0.2000000   0.2000000), wk =   0.0320000
        k(   21) = (   0.2000000   0.2000000   0.4000000), wk =   0.0320000
        k(   22) = (   0.2000000   0.2000000  -0.4000000), wk =   0.0320000
        k(   23) = (   0.2000000   0.2000000  -0.2000000), wk =   0.0320000
        k(   24) = (   0.2000000   0.4000000   0.0000000), wk =   0.0320000
        k(   25) = (   0.2000000   0.4000000   0.2000000), wk =   0.0320000
        k(   26) = (   0.2000000   0.4000000   0.4000000), wk =   0.0320000
        k(   27) = (   0.2000000   0.4000000  -0.4000000), wk =   0.0320000
        k(   28) = (   0.2000000   0.4000000  -0.2000000), wk =   0.0320000
        k(   29) = (   0.2000000  -0.4000000   0.0000000), wk =   0.0320000
        k(   30) = (   0.2000000  -0.4000000   0.2000000), wk =   0.0320000
        k(   31) = (   0.2000000  -0.4000000   0.4000000), wk =   0.0320000
        k(   32) = (   0.2000000  -0.4000000  -0.4000000), wk =   0.0320000
        k(   33) = (   0.2000000  -0.4000000  -0.2000000), wk =   0.0320000
        k(   34) = (   0.2000000  -0.2000000   0.0000000), wk =   0.0320000
        k(   35) = (   0.2000000  -0.2000000   0.2000000), wk =   0.0320000
        k(   36) = (   0.2000000  -0.2000000   0.4000000), wk =   0.0320000
        k(   37) = (   0.2000000  -0.2000000  -0.4000000), wk =   0.0320000
        k(   38) = (   0.2000000  -0.2000000  -0.2000000), wk =   0.0320000
        k(   39) = (   0.4000000   0.0000000   0.0000000), wk =   0.0320000
        k(   40) = (   0.4000000   0.0000000   0.2000000), wk =   0.0320000
        k(   41) = (   0.4000000   0.0000000   0.4000000), wk =   0.0320000
        k(   42) = (   0.4000000   0.0000000  -0.4000000), wk =   0.0320000
        k(   43) = (   0.4000000   0.0000000  -0.2000000), wk =   0.0320000
        k(   44) = (   0.4000000   0.2000000   0.0000000), wk =   0.0320000
        k(   45) = (   0.4000000   0.2000000   0.2000000), wk =   0.0320000
        k(   46) = (   0.4000000   0.2000000   0.4000000), wk =   0.0320000
        k(   47) = (   0.4000000   0.2000000  -0.4000000), wk =   0.0320000
        k(   48) = (   0.4000000   0.2000000  -0.2000000), wk =   0.0320000
        k(   49) = (   0.4000000   0.4000000   0.0000000), wk =   0.0320000
        k(   50) = (   0.4000000   0.4000000   0.2000000), wk =   0.0320000
        k(   51) = (   0.4000000   0.4000000   0.4000000), wk =   0.0320000
        k(   52) = (   0.4000000   0.4000000  -0.4000000), wk =   0.0320000
        k(   53) = (   0.4000000   0.4000000  -0.2000000), wk =   0.0320000
        k(   54) = (   0.4000000  -0.4000000   0.0000000), wk =   0.0320000
        k(   55) = (   0.4000000  -0.4000000   0.2000000), wk =   0.0320000
        k(   56) = (   0.4000000  -0.4000000   0.4000000), wk =   0.0320000
        k(   57) = (   0.4000000  -0.4000000  -0.4000000), wk =   0.0320000
        k(   58) = (   0.4000000  -0.4000000  -0.2000000), wk =   0.0320000
        k(   59) = (   0.4000000  -0.2000000   0.0000000), wk =   0.0320000
        k(   60) = (   0.4000000  -0.2000000   0.2000000), wk =   0.0320000
        k(   61) = (   0.4000000  -0.2000000   0.4000000), wk =   0.0320000
        k(   62) = (   0.4000000  -0.2000000  -0.4000000), wk =   0.0320000
        k(   63) = (   0.4000000  -0.2000000  -0.2000000), wk =   0.0320000

     Dense  grid:  3895379 G-vectors     FFT dimensions: ( 200, 200, 200)

     Smooth grid:   985619 G-vectors     FFT dimensions: ( 125, 125, 125)

     Dynamical RAM for                 wfc:     108.33 MB

     Dynamical RAM for     wfc (w. buffer):     324.98 MB

     Dynamical RAM for           str. fact:      14.86 MB

     Dynamical RAM for           local pot:       0.00 MB

     Dynamical RAM for          nlocal pot:    1080.46 MB

     Dynamical RAM for                qrad:      15.65 MB

     Dynamical RAM for          rho,v,vnew:      45.18 MB

     Dynamical RAM for               rhoin:      15.06 MB

     Dynamical RAM for            rho*nmix:     118.88 MB

     Dynamical RAM for           G-vectors:      28.80 MB

     Dynamical RAM for          h,s,v(r/c):      38.91 MB

     Dynamical RAM for          <psi|beta>:      32.34 MB

     Dynamical RAM for                 psi:     433.31 MB

     Dynamical RAM for                hpsi:     433.31 MB

     Dynamical RAM for                spsi:     433.31 MB

     Dynamical RAM for      wfcinit/wfcrot:     505.26 MB

     Dynamical RAM for           addusdens:      98.23 MB

     Dynamical RAM for          addusforce:     201.19 MB

     Dynamical RAM for         addusstress:      45.09 MB

     Estimated static dynamical RAM per process >       1.66 GB

     Estimated max dynamical RAM per process >       3.00 GB

     Estimated total dynamical RAM >     864.99 GB

     Initial potential from superposition of free atoms

     starting charge  766.41507, renormalised to  767.00000
     Starting wfcs are 1024 randomized atomic wfcs
     Checking if some PAW data can be deallocated... 
       PAW data deallocated on  286 nodes for type:  1
       PAW data deallocated on    2 nodes for type:  2

     total cpu time spent up to now is      200.0 secs

     Self-consistent Calculation

     iteration #  1     ecut=    40.00 Ry     beta= 0.40
     Davidson diagonalization with overlap
     ethr =  1.00E-02,  avg # of iterations =  3.0

     Threshold (ethr) on eigenvalues was too large:
     Diagonalizing with lowered threshold

     Davidson diagonalization with overlap
     ethr =  1.82E-04,  avg # of iterations =  8.0

     total cpu time spent up to now is      986.3 secs

     total energy              =  -10106.99390634 Ry
     Harris-Foulkes estimate   =  -10107.15721462 Ry
     estimated scf accuracy    <       1.41014612 Ry

     iteration #  2     ecut=    40.00 Ry     beta= 0.40
     Davidson diagonalization with overlap
     ethr =  1.84E-04,  avg # of iterations =  1.2

     total cpu time spent up to now is     1213.2 secs

     total energy              =  -10106.79148832 Ry
     Harris-Foulkes estimate   =  -10106.99987596 Ry
     estimated scf accuracy    <       0.73528423 Ry

     iteration #  3     ecut=    40.00 Ry     beta= 0.40
     Davidson diagonalization with overlap
     ethr =  9.59E-05,  avg # of iterations =  1.0

     total cpu time spent up to now is     1438.7 secs

     total energy              =  -10106.80230977 Ry
     Harris-Foulkes estimate   =  -10106.80498210 Ry
     estimated scf accuracy    <       0.00319145 Ry

     iteration #  4     ecut=    40.00 Ry     beta= 0.40
     Davidson diagonalization with overlap
     c_bands:  1 eigenvalues not converged
     ethr =  4.16E-07,  avg # of iterations = 20.4

     total cpu time spent up to now is     2136.4 secs

     total energy              =  -10106.80502840 Ry
     Harris-Foulkes estimate   =  -10106.80501176 Ry
     estimated scf accuracy    <       0.00125197 Ry

     iteration #  5     ecut=    40.00 Ry     beta= 0.40
     Davidson diagonalization with overlap
     ethr =  1.63E-07,  avg # of iterations =  9.1

     total cpu time spent up to now is     2435.6 secs

     total energy              =  -10106.80460413 Ry
     Harris-Foulkes estimate   =  -10106.80502764 Ry
     estimated scf accuracy    <       0.00130563 Ry

     iteration #  6     ecut=    40.00 Ry     beta= 0.40
     Davidson diagonalization with overlap
     ethr =  1.63E-07,  avg # of iterations =  5.1

     total cpu time spent up to now is     2743.1 secs

     total energy              =  -10106.80471558 Ry
     Harris-Foulkes estimate   =  -10106.80471901 Ry
     estimated scf accuracy    <       0.00001811 Ry

     iteration #  7     ecut=    40.00 Ry     beta= 0.40
     Davidson diagonalization with overlap
     ethr =  2.36E-09,  avg # of iterations =  8.3

     total cpu time spent up to now is     3300.5 secs

     total energy              =  -10106.80471476 Ry
     Harris-Foulkes estimate   =  -10106.80471596 Ry
     estimated scf accuracy    <       0.00002034 Ry

     iteration #  8     ecut=    40.00 Ry     beta= 0.40
     Davidson diagonalization with overlap
     ethr =  2.36E-09,  avg # of iterations =  1.0

     total cpu time spent up to now is     3526.7 secs

     total energy              =  -10106.80471123 Ry
     Harris-Foulkes estimate   =  -10106.80471472 Ry
     estimated scf accuracy    <       0.00001189 Ry

     iteration #  9     ecut=    40.00 Ry     beta= 0.40
     Davidson diagonalization with overlap
     ethr =  1.55E-09,  avg # of iterations =  2.7

     total cpu time spent up to now is     3798.4 secs

     total energy              =  -10106.80471317 Ry
     Harris-Foulkes estimate   =  -10106.80471336 Ry
     estimated scf accuracy    <       0.00000305 Ry

     iteration # 10     ecut=    40.00 Ry     beta= 0.40
     Davidson diagonalization with overlap
     ethr =  3.98E-10,  avg # of iterations =  1.7

     total cpu time spent up to now is     4027.3 secs

     total energy              =  -10106.80471303 Ry
     Harris-Foulkes estimate   =  -10106.80471318 Ry
     estimated scf accuracy    <       0.00000174 Ry

     iteration # 11     ecut=    40.00 Ry     beta= 0.40
     Davidson diagonalization with overlap
     ethr =  2.27E-10,  avg # of iterations =  2.0

     total cpu time spent up to now is     4258.1 secs

     total energy              =  -10106.80471299 Ry
     Harris-Foulkes estimate   =  -10106.80471306 Ry
     estimated scf accuracy    <       0.00000044 Ry

     iteration # 12     ecut=    40.00 Ry     beta= 0.40
     Davidson diagonalization with overlap
     ethr =  5.76E-11,  avg # of iterations =  3.0

     total cpu time spent up to now is     4524.5 secs

     total energy              =  -10106.80471302 Ry
     Harris-Foulkes estimate   =  -10106.80471302 Ry
     estimated scf accuracy    <          3.0E-09 Ry

     iteration # 13     ecut=    40.00 Ry     beta= 0.40
     Davidson diagonalization with overlap
     ethr =  3.90E-13,  avg # of iterations =  5.3

     total cpu time spent up to now is     5018.1 secs

     total energy              =  -10106.80471293 Ry
     Harris-Foulkes estimate   =  -10106.80471293 Ry
     estimated scf accuracy    <          4.4E-10 Ry

     iteration # 14     ecut=    40.00 Ry     beta= 0.40
     Davidson diagonalization with overlap
     ethr =  1.00E-13,  avg # of iterations =  2.9

     total cpu time spent up to now is     5255.3 secs

     total energy              =  -10106.80471292 Ry
     Harris-Foulkes estimate   =  -10106.80471292 Ry
     estimated scf accuracy    <          1.6E-10 Ry

     iteration # 15     ecut=    40.00 Ry     beta= 0.40
     Davidson diagonalization with overlap
     ethr =  1.00E-13,  avg # of iterations =  1.7

     total cpu time spent up to now is     5486.2 secs

     total energy              =  -10106.80471292 Ry
     Harris-Foulkes estimate   =  -10106.80471292 Ry
     estimated scf accuracy    <          2.7E-11 Ry

     iteration # 16     ecut=    40.00 Ry     beta= 0.40
     Davidson diagonalization with overlap
     ethr =  1.00E-13,  avg # of iterations =  1.0

     total cpu time spent up to now is     5712.8 secs

     total energy              =  -10106.80471292 Ry
     Harris-Foulkes estimate   =  -10106.80471292 Ry
     estimated scf accuracy    <          4.2E-11 Ry

     iteration # 17     ecut=    40.00 Ry     beta= 0.40
     Davidson diagonalization with overlap
     ethr =  1.00E-13,  avg # of iterations =  1.0

     total cpu time spent up to now is     5938.8 secs

     total energy              =  -10106.80471292 Ry
     Harris-Foulkes estimate   =  -10106.80471292 Ry
     estimated scf accuracy    <          1.4E-11 Ry

     iteration # 18     ecut=    40.00 Ry     beta= 0.40
     Davidson diagonalization with overlap
     ethr =  1.00E-13,  avg # of iterations =  1.0

     total cpu time spent up to now is     6163.9 secs

     End of self-consistent calculation

          k = 0.0000 0.0000 0.0000 (123065 PWs)   bands (ev):

    -3.2737  -2.7188  -2.7188  -2.7178  -2.7178  -2.7178  -2.6831  -2.1598
    -2.1598  -2.1598  -2.1597  -2.1597  -2.1597  -2.1596  -2.1596  -2.1554
    -2.1554  -2.1554  -2.0871  -1.6030  -1.6026  -1.6026  -1.6026  -1.5987
    -1.5987  -1.5987  -1.5535  -1.0477  -1.0477  -1.0443  -1.0443  -1.0443
    -1.0172  -0.4956  -0.4956  -0.4956  -0.4955  -0.4955  -0.4955  -0.4955
    -0.4955  -0.4955  -0.4954  -0.4954  -0.4954  -0.4953  -0.4953  -0.4953
    -0.4947  -0.4947  -0.4947  -0.4942  -0.4942  -0.4780  -0.4780  -0.4780
    -0.3777   0.0550   0.0550   0.0550   0.0550   0.0550   0.0551   0.0551
     0.0551   0.0552   0.0553   0.0553   0.0553   0.0554   0.0554   0.0554
     0.0557   0.0557   0.0569   0.0569   0.0569   0.0757   0.0757   0.0757
     0.2146   1.1502   1.1502   1.1502   1.1502   1.1502   1.1511   1.1511
     1.1511   1.1613   1.1613   1.1613   1.2026   1.6885   1.6885   1.6891
     1.6893   1.6893   1.6893   1.6943   1.6943   1.6943   1.6943   1.6943
     1.6944   1.6944   1.6944   1.6944   1.6944   1.6944   1.6946   1.6946
     1.6946   1.6946   1.6946   1.6952   1.6976   1.6976   1.6976   1.7252
     1.7252   1.7252   1.8236   2.2293   2.2293   2.2293   2.2294   2.2294
     2.2295   2.2295   2.2295   2.2295   2.2295   2.2295   2.2295   2.2297
     2.2297   2.2297   2.2306   2.2306   2.2306   2.2327   2.2327   2.2596
     2.2596   2.2596   2.3478   2.7688   2.7688   2.7689   2.7689   2.7689
     2.7694   2.7694   2.7694   2.7694   2.7694   2.7694   2.7695   2.7695
     2.7695   2.7696   2.7712   2.7712   2.7712   2.7719   2.7719   2.8014
     2.8014   2.8014   2.8977   3.2297   3.2389   3.2389   3.2389   3.4146
     3.4146   3.4146   3.4506   3.8419   3.8419   3.8419   3.8421   3.8421
     3.8421   3.8421   3.8422   3.8422   3.8422   3.8422   3.8422   3.8429
     3.8429   3.8429   3.8440   3.8440   3.8461   3.8461   3.8461   3.8733
     3.8733   3.8733   3.9341   4.2681   4.2681   4.2681   4.2681   4.2681
     4.2682   4.2682   4.2682   4.2682   4.2683   4.2683   4.2683   4.2685
     4.2685   4.2685   4.2702   4.2702   4.2702   4.2703   4.2713   4.2713
     4.3240   4.3240   4.3240   4.4990   4.4992   4.4992   4.4992   4.4993
     4.4993   4.4993   4.4993   4.4993   4.4993   4.4993   4.4993   4.4996
     4.4996   4.5006   4.5006   4.5006   4.5075   4.5075   4.5075   4.5153
     4.5153   4.5153   4.7359   4.8900   4.8900   4.8900   5.3963   5.3963
     5.3963   5.3964   5.3964   5.3964   5.3974   5.3974   5.3974   5.4276
     5.4276   5.4276   5.9121   5.9121   5.9124   5.9126   5.9126   5.9126
     5.9142   5.9142   5.9142   5.9321   5.9321   5.9321   5.9848   5.9848
     5.9848   5.9848   5.9848   5.9848   5.9849   5.9849   5.9850   5.9850
     5.9850   5.9851   5.9851   5.9851   5.9854   5.9854   5.9877   5.9929
     5.9929   5.9929   6.0313   6.0313   6.0313   6.0562   6.1808   6.1808
     6.2098   6.4368   6.4368   6.4368   6.4389   6.4389   6.4395   6.4395
     6.4395   6.4470   6.4601   6.4601   6.4601   6.7182   6.7182   6.7182
     6.7185   6.7185   6.7185   6.7213   6.7213   6.7213   6.7284   6.7284
     6.7906   6.9459   6.9459   6.9459   6.9461   6.9461   6.9461   6.9493
     6.9493   6.9493   6.9643   6.9643   6.9643   7.0275   7.0275   7.0275
     7.0275   7.0275   7.0275   7.0276   7.0276   7.0279   7.0279   7.0279
     7.0285   7.0287   7.0287   7.0287   7.0293   7.0293   7.0360   7.0360
     7.0360   7.0759   7.0759   7.0759   7.0967   7.3607   7.3607   7.3607
     7.3608   7.3608   7.3608   7.3609   7.3609   7.3609   7.3670   7.3670
     7.4627   7.4628   7.4628   7.4628   7.4628   7.4628   7.4629   7.4629
     7.4629   7.4629   7.4629   7.4629   7.4632   7.4632   7.4639   7.4639
     7.4639   7.4639   7.4725   7.4725   7.4725   7.5272   7.5300   7.5300
     7.5300   7.9675   7.9729   7.9729   7.9776   7.9776   7.9776   8.6058
     8.6058   8.6058   8.6058   8.6058   8.6058   8.6058   8.6058   8.6060
     8.6060   8.6060   8.6060   8.6060   8.6060   8.6063   8.6063   8.6092
     8.6171   8.6171   8.6171   8.6405   8.6433   8.6433   8.6433   8.8232
     8.8232   8.8234   8.8234   8.8234   8.8499   8.9088   8.9088   8.9088
     8.9089   8.9089   8.9089   8.9090   8.9090   8.9090   8.9090   8.9090
     8.9090   8.9104   8.9104   8.9104   8.9107   8.9107   8.9107   8.9222
     8.9223   8.9271   8.9271   8.9271   9.0173

     occupation numbers 
     1.0000   1.0000   1.0000   1.0000   1.0000   1.0000   1.0000   1.0000
     1.0000   1.0000   1.0000   1.0000   1.0000   1.0000   1.0000   1.0000
     1.0000   1.0000   1.0000   1.0000   1.0000   1.0000   1.0000   1.0000
     1.0000   1.0000   1.0000   1.0000   1.0000   1.0000   1.0000   1.0000
     1.0000   1.0000   1.0000   1.0000   1.0000   1.0000   1.0000   1.0000
     1.0000   1.0000   1.0000   1.0000   1.0000   1.0000   1.0000   1.0000
     1.0000   1.0000   1.0000   1.0000   1.0000   1.0000   1.0000   1.0000
     1.0000   1.0000   1.0000   1.0000   1.0000   1.0000   1.0000   1.0000
     1.0000   1.0000   1.0000   1.0000   1.0000   1.0000   1.0000   1.0000
     1.0000   1.0000   1.0000   1.0000   1.0000   1.0000   1.0000   1.0000
     1.0000   1.0000   1.0000   1.0000   1.0000   1.0000   1.0000   1.0000
     1.0000   1.0000   1.0000   1.0000   1.0000   1.0000   1.0000   1.0000
     1.0000   1.0000   1.0000   1.0000   1.0000   1.0000   1.0000   1.0000
     1.0000   1.0000   1.0000   1.0000   1.0000   1.0000   1.0000   1.0000
     1.0000   1.0000   1.0000   1.0000   1.0000   1.0000   1.0000   1.0000
     1.0000   1.0000   1.0000   1.0000   1.0000   1.0000   1.0000   1.0000
     1.0000   1.0000   1.0000   1.0000   1.0000   1.0000   1.0000   1.0000
     1.0000   1.0000   1.0000   1.0000   1.0000   1.0000   1.0000   1.0000
     1.0000   1.0000   1.0000   1.0000   1.0000   1.0000   1.0000   1.0000
     1.0000   1.0000   1.0000   1.0000   1.0000   1.0000   1.0000   1.0000
     1.0000   1.0000   1.0000   1.0000   1.0000   1.0000   1.0000   1.0000
     1.0000   1.0000   1.0000   1.0000   1.0000   1.0000   1.0000   1.0000
     1.0000   1.0000   1.0000   1.0000   1.0000   1.0000   1.0000   1.0000
     1.0000   1.0000   1.0000   1.0000   1.0000   1.0000   1.0000   1.0000
     1.0000   1.0000   1.0000   1.0000   1.0000   1.0000   1.0000   1.0000
     1.0000   1.0000   1.0000   1.0000   1.0000   1.0000   1.0000   1.0000
     1.0000   1.0000   1.0000   1.0000   1.0000   1.0000   1.0000   1.0000
     1.0000   1.0000   1.0000   1.0000   1.0000   1.0000   1.0000   1.0000
     1.0000   1.0000   1.0000   1.0000   1.0000   1.0000   1.0000   1.0000
     1.0000   1.0000   1.0000   1.0000   1.0000   1.0000   1.0000   1.0000
     1.0000   1.0000   1.0000   1.0000   1.0000   1.0000   1.0000   1.0000
     1.0000   1.0000   1.0000   1.0000   1.0000   1.0000   1.0000   1.0000
     1.0000   1.0000   1.0000   1.0000   1.0000   1.0000   1.0000   1.0000
     1.0000   1.0000   1.0000   1.0000   1.0000   1.0000   1.0000   1.0000
     1.0000   1.0000   1.0000   1.0001   1.0001   1.0001   1.0001   1.0001
     1.0001   1.0001   1.0001   1.0001   1.0001   1.0001   1.0001   1.0001
     1.0001   1.0001   1.0001   1.0001   1.0001   1.0001   1.0001   1.0001
     1.0001   1.0001   1.0001   1.0001   1.0001   1.0002   1.0005   1.0005
     1.0007   1.0034   1.0034   1.0034   1.0034   1.0034   1.0034   1.0034
     1.0034   1.0036   1.0039   1.0039   1.0039   1.0155   1.0155   1.0155
     1.0155   1.0155   1.0155   1.0157   1.0157   1.0157   1.0162   1.0162
     1.0206   1.0320   1.0320   1.0320   1.0320   1.0320   1.0320   1.0322
     1.0322   1.0322   1.0330   1.0330   1.0330   1.0353   1.0353   1.0353
     1.0353   1.0353   1.0353   1.0353   1.0353   1.0353   1.0353   1.0353
     1.0353   1.0353   1.0353   1.0353   1.0353   1.0353   1.0354   1.0354
     1.0354   1.0351   1.0351   1.0351   1.0343   0.9608   0.9608   0.9608
     0.9608   0.9608   0.9608   0.9607   0.9607   0.9607   0.9571   0.9571
     0.8875   0.8875   0.8875   0.8875   0.8874   0.8874   0.8874   0.8874
     0.8874   0.8873   0.8873   0.8873   0.8872   0.8872   0.8865   0.8865
     0.8865   0.8865   0.8790   0.8790   0.8790   0.8264   0.8234   0.8234
     0.8234   0.2522   0.2457   0.2457   0.2401   0.2401   0.2401  -0.0327
    -0.0327  -0.0327  -0.0327  -0.0327  -0.0327  -0.0327  -0.0327  -0.0327
    -0.0327  -0.0327  -0.0327  -0.0327  -0.0327  -0.0327  -0.0327  -0.0325
    -0.0321  -0.0321  -0.0321  -0.0306  -0.0304  -0.0304  -0.0304  -0.0171
    -0.0171  -0.0171  -0.0171  -0.0171  -0.0152  -0.0116  -0.0116  -0.0116
    -0.0116  -0.0116  -0.0116  -0.0116  -0.0116  -0.0116  -0.0116  -0.0116
    -0.0116  -0.0116  -0.0116  -0.0116  -0.0115  -0.0115  -0.0115  -0.0109
    -0.0109  -0.0106  -0.0106  -0.0106  -0.0066

          k = 0.0000 0.0000 0.2000 (123202 PWs)   bands (ev):

    -3.2512  -2.9146  -2.6964  -2.6954  -2.6954  -2.6731  -2.4664  -2.3607
    -2.3597  -2.3597  -2.3359  -2.1374  -2.1353  -2.1353  -2.1136  -1.9144
    -1.9134  -1.9134  -1.8893  -1.8030  -1.8009  -1.8009  -1.7722  -1.4623
    -1.3584  -1.3563  -1.3563  -1.3323  -1.0256  -1.0222  -1.0222  -1.0077
    -0.9151  -0.9141  -0.9141  -0.8876  -0.6938  -0.6905  -0.6905  -0.6742
    -0.5777  -0.4734  -0.4734  -0.4734  -0.4732  -0.4726  -0.4647  -0.4647
    -0.4392  -0.3630  -0.3609  -0.3609  -0.3348  -0.2526  -0.2492  -0.2492
    -0.2322  -0.1428  -0.1428  -0.1428  -0.1426  -0.1421  -0.1335  -0.1335
    -0.0909  -0.0330  -0.0320  -0.0320   0.0098   0.2968   0.2968   0.2968
     0.2970   0.2975   0.3058   0.3058   0.3485   0.5158   0.5179   0.5179
     0.5549   0.7352   0.7386   0.7386   0.7617   1.0661   1.1730   1.1773
     1.1773   1.1867   1.2810   1.2810   1.2810   1.2812   1.2817   1.2896
     1.2896   1.3270   1.4999   1.5045   1.5045   1.5150   1.6038   1.6046
     1.6046   1.6073   1.6106   1.6106   1.6236   1.6432   1.7102   1.7165
     1.7165   1.7346   1.9345   1.9388   1.9388   1.9494   2.0355   2.0413
     2.0413   2.0496   2.1461   2.1477   2.1477   2.1495   2.1496   2.1496
     2.1498   2.1503   2.1581   2.1581   2.1716   2.1915   2.2511   2.2512
     2.2512   2.2522   2.2526   2.2669   2.2669   2.3032   2.3657   2.4681
     2.4742   2.4742   2.4894   2.5751   2.5752   2.5752   2.5762   2.5767
     2.5914   2.5914   2.6265   2.8922   2.8929   2.8929   2.9025   2.9077
     2.9077   2.9151   2.9255   3.0058   3.0058   3.0058   3.0069   3.0073
     3.0220   3.0220   3.0598   3.2248   3.2281   3.2281   3.2528   3.4284
     3.4301   3.4301   3.4364   3.4429   3.4429   3.4493   3.4701   3.7524
     3.7524   3.7524   3.7526   3.7530   3.7606   3.7606   3.7836   3.7866
     3.7866   3.7895   3.8050   3.8633   3.8633   3.8633   3.8637   3.8674
     3.8791   3.8791   3.8980   3.9618   3.9619   3.9619   3.9628   3.9634
     3.9796   3.9796   4.0120   4.1745   4.1745   4.1745   4.1749   4.1784
     4.1942   4.1942   4.2121   4.2904   4.2977   4.2977   4.3112   4.4826
     4.4957   4.4989   4.4989   4.5196   4.6338   4.6339   4.6339   4.6342
     4.6381   4.6486   4.6486   4.6762   4.8472   4.8474   4.8474   4.8485
     4.8485   4.8590   4.8590   4.8960   4.9117   4.9117   4.9970   4.9977
     4.9977   5.0289   5.0528   5.0529   5.0529   5.0529   5.0539   5.0596
     5.0596   5.1461   5.2186   5.2186   5.3755   5.3784   5.3784   5.3955
     5.4171   5.4180   5.4325   5.4325   5.5141   5.5159   5.5159   5.5403
     5.5821   5.5822   5.5822   5.5825   5.5863   5.5958   5.5958   5.6319
     5.6334   5.6334   5.7266   5.7276   5.7454   5.7454   5.8623   5.8698
     5.8698   5.8830   6.1395   6.1404   6.1553   6.1553   6.2026   6.2136
     6.4223   6.4224   6.4224   6.4234   6.4237   6.4291   6.4291   6.4291
     6.4294   6.4305   6.4305   6.4332   6.4450   6.4461   6.4461   6.4600
     6.4992   6.5033   6.5075   6.5075   6.5280   6.5429   6.5563   6.5563
     6.5567   6.5671   6.5671   6.5947   6.6281   6.6324   6.6371   6.6371
     6.6605   6.7398   6.7398   6.7427   6.7701   6.8400   6.8451   6.8451
     6.8512   6.8824   6.8844   6.8844   6.8959   6.9541   6.9668   6.9704
     6.9704   6.9805   6.9805   7.0698   7.0707   7.0841   7.0841   7.0938
     7.0938   7.0938   7.0939   7.0945   7.1037   7.1037   7.1554   7.1572
     7.1572   7.1629   7.1851   7.2633   7.2656   7.2656   7.2715   7.2771
     7.2814   7.2982   7.2982   7.3660   7.3663   7.3663   7.3916   7.3916
     7.4068   7.5672   7.5672   7.5706   7.6007   7.6681   7.6681   7.6681
     7.6691   7.6695   7.6763   7.6763   7.6910   7.6947   7.7063   7.7115
     7.7115   7.7592   7.7603   7.7603   7.8126   7.8191   7.8405   7.8979
     7.8988   7.9161   7.9161   8.0037   8.0038   8.0038   8.0041   8.0078
     8.0211   8.0211   8.0436   8.1901   8.1938   8.1938   8.1952   8.2112
     8.2223   8.2223   8.2287   8.5120   8.5120   8.5157   8.5440   8.6231
     8.6266   8.6357   8.6357   8.6584   8.6626   8.6626   8.6820   8.7114
     8.7154   8.7154   8.7429   8.9426   8.9426   9.0206   9.0267   9.0470
     9.0482   9.0513   9.0513   9.0514   9.0545   9.0545   9.0959   9.1502
     9.1523   9.1523   9.1762   9.1859   9.1903   9.1903   9.2145   9.2431
     9.2431   9.2433   9.2468   9.2563   9.2566

     occupation numbers 
     1.0000   1.0000   1.0000   1.0000   1.0000   1.0000   1.0000   1.0000
     1.0000   1.0000   1.0000   1.0000   1.0000   1.0000   1.0000   1.0000
     1.0000   1.0000   1.0000   1.0000   1.0000   1.0000   1.0000   1.0000
     1.0000   1.0000   1.0000   1.0000   1.0000   1.0000   1.0000   1.0000
     1.0000   1.0000   1.0000   1.0000   1.0000   1.0000   1.0000   1.0000
     1.0000   1.0000   1.0000   1.0000   1.0000   1.0000   1.0000   1.0000
     1.0000   1.0000   1.0000   1.0000   1.0000   1.0000   1.0000   1.0000
     1.0000   1.0000   1.0000   1.0000   1.0000   1.0000   1.0000   1.0000
     1.0000   1.0000   1.0000   1.0000   1.0000   1.0000   1.0000   1.0000
     1.0000   1.0000   1.0000   1.0000   1.0000   1.0000   1.0000   1.0000
     1.0000   1.0000   1.0000   1.0000   1.0000   1.0000   1.0000   1.0000
     1.0000   1.0000   1.0000   1.0000   1.0000   1.0000   1.0000   1.0000
     1.0000   1.0000   1.0000   1.0000   1.0000   1.0000   1.0000   1.0000
     1.0000   1.0000   1.0000   1.0000   1.0000   1.0000   1.0000   1.0000
     1.0000   1.0000   1.0000   1.0000   1.0000   1.0000   1.0000   1.0000
     1.0000   1.0000   1.0000   1.0000   1.0000   1.0000   1.0000   1.0000
     1.0000   1.0000   1.0000   1.0000   1.0000   1.0000   1.0000   1.0000
     1.0000   1.0000   1.0000   1.0000   1.0000   1.0000   1.0000   1.0000
     1.0000   1.0000   1.0000   1.0000   1.0000   1.0000   1.0000   1.0000
     1.0000   1.0000   1.0000   1.0000   1.0000   1.0000   1.0000   1.0000
     1.0000   1.0000   1.0000   1.0000   1.0000   1.0000   1.0000   1.0000
     1.0000   1.0000   1.0000   1.0000   1.0000   1.0000   1.0000   1.0000
     1.0000   1.0000   1.0000   1.0000   1.0000   1.0000   1.0000   1.0000
     1.0000   1.0000   1.0000   1.0000   1.0000   1.0000   1.0000   1.0000
     1.0000   1.0000   1.0000   1.0000   1.0000   1.0000   1.0000   1.0000
     1.0000   1.0000   1.0000   1.0000   1.0000   1.0000   1.0000   1.0000
     1.0000   1.0000   1.0000   1.0000   1.0000   1.0000   1.0000   1.0000
     1.0000   1.0000   1.0000   1.0000   1.0000   1.0000   1.0000   1.0000
     1.0000   1.0000   1.0000   1.0000   1.0000   1.0000   1.0000   1.0000
     1.0000   1.0000   1.0000   1.0000   1.0000   1.0000   1.0000   1.0000
     1.0000   1.0000   1.0000   1.0000   1.0000   1.0000   1.0000   1.0000
     1.0000   1.0000   1.0000   1.0000   1.0000   1.0000   1.0000   1.0000
     1.0000   1.0000   1.0000   1.0000   1.0000   1.0000   1.0000   1.0000
     1.0000   1.0000   1.0000   1.0000   1.0000   1.0000   1.0000   1.0000
     1.0000   1.0000   1.0000   1.0000   1.0000   1.0000   1.0000   1.0000
     1.0000   1.0000   1.0000   1.0000   1.0000   1.0000   1.0000   1.0000
     1.0000   1.0000   1.0004   1.0004   1.0004   1.0004   1.0006   1.0007
     1.0031   1.0031   1.0031   1.0031   1.0031   1.0032   1.0032   1.0032
     1.0032   1.0032   1.0032   1.0033   1.0036   1.0036   1.0036   1.0039
     1.0050   1.0051   1.0052   1.0052   1.0059   1.0064   1.0069   1.0069
     1.0069   1.0074   1.0074   1.0085   1.0102   1.0104   1.0106   1.0106
     1.0119   1.0169   1.0169   1.0171   1.0191   1.0244   1.0248   1.0248
     1.0253   1.0277   1.0278   1.0278   1.0286   1.0325   1.0331   1.0333
     1.0333   1.0338   1.0338   1.0352   1.0352   1.0348   1.0348   1.0344
     1.0344   1.0344   1.0344   1.0344   1.0339   1.0339   1.0292   1.0290
     1.0290   1.0282   1.0246   1.0049   1.0041   1.0041   1.0020   1.0001
     0.9985   0.9918   0.9918   0.9577   0.9575   0.9575   0.9417   0.9417
     0.9313   0.7829   0.7829   0.7790   0.7436   0.6580   0.6579   0.6579
     0.6567   0.6561   0.6471   0.6471   0.6272   0.6222   0.6064   0.5992
     0.5992   0.5327   0.5312   0.5312   0.4575   0.4482   0.4185   0.3404
     0.3391   0.3165   0.3165   0.2101   0.2100   0.2100   0.2097   0.2056
[...]
     atom   75 type  2   force =    -0.00000004   -0.00000001    0.00000004
     atom   76 type  2   force =    -0.00000003   -0.00000002    0.00000004
     atom   77 type  2   force =    -0.00000009   -0.00000001    0.00000010
     atom   78 type  2   force =    -0.00000003   -0.00000001    0.00000007
     atom   79 type  2   force =    -0.00000007    0.00000002    0.00000004
     atom   80 type  2   force =    -0.00000011   -0.00000006    0.00000008
     atom   81 type  2   force =    -0.00000006   -0.00000009    0.00000000
     atom   82 type  2   force =    -0.00000003   -0.00000006   -0.00000001
     atom   83 type  2   force =    -0.00000003   -0.00000004   -0.00000003
     atom   84 type  2   force =    -0.00000003   -0.00000005   -0.00000002
     atom   85 type  2   force =    -0.00000002   -0.00000004   -0.00000005
     atom   86 type  2   force =    -0.00000001   -0.00000004   -0.00000000
     atom   87 type  2   force =    -0.00000000    0.00000000   -0.00000003
     atom   88 type  2   force =     0.00000002   -0.00000002   -0.00000003
     atom   89 type  2   force =     0.00000001   -0.00000001   -0.00000002
     atom   90 type  2   force =     0.00000002   -0.00000000   -0.00000001
     atom   91 type  2   force =     0.00000000    0.00000001    0.00000002
     atom   92 type  2   force =     0.00000002   -0.00000001    0.00000001
     atom   93 type  2   force =    -0.00000003   -0.00000004    0.00000006
     atom   94 type  2   force =     0.00000001   -0.00000001    0.00000002
     atom   95 type  2   force =    -0.00000002   -0.00000004    0.00000004
     atom   96 type  2   force =    -0.00000001   -0.00000005    0.00000003
     atom   97 type  2   force =    -0.00000004   -0.00000002    0.00000000
     atom   98 type  2   force =    -0.00000005    0.00000001   -0.00000002
     atom   99 type  2   force =    -0.00000003   -0.00000004    0.00000000
     atom  100 type  2   force =    -0.00000007    0.00000003   -0.00000001
     atom  101 type  2   force =    -0.00000002   -0.00000001   -0.00000002
     atom  102 type  2   force =    -0.00000003    0.00000000    0.00000001
     atom  103 type  2   force =     0.00000001   -0.00000002    0.00000001
     atom  104 type  2   force =    -0.00000001    0.00000002   -0.00000002
     atom  105 type  2   force =     0.00000003   -0.00000000   -0.00000001
     atom  106 type  2   force =     0.00000001   -0.00000000    0.00000001
     atom  107 type  2   force =     0.00000002   -0.00000000    0.00000001
     atom  108 type  2   force =     0.00000002    0.00000003    0.00000002
     atom  109 type  2   force =     0.00000002    0.00000000    0.00000002
     atom  110 type  2   force =    -0.00000001    0.00000001   -0.00000001
     atom  111 type  2   force =    -0.00000001   -0.00000002   -0.00000001
     atom  112 type  2   force =    -0.00000003    0.00000004    0.00000001
     atom  113 type  2   force =    -0.00000010    0.00000010   -0.00000000
     atom  114 type  2   force =    -0.00000008    0.00000006   -0.00000001
     atom  115 type  2   force =    -0.00000006    0.00000005   -0.00000002
     atom  116 type  2   force =    -0.00000014    0.00000007   -0.00000007
     atom  117 type  2   force =    -0.00000007    0.00000004   -0.00000004
     atom  118 type  2   force =    -0.00000006    0.00000002   -0.00000004
     atom  119 type  2   force =    -0.00000003   -0.00000000    0.00000000
     atom  120 type  2   force =    -0.00000006    0.00000001   -0.00000002
     atom  121 type  2   force =    -0.00000002    0.00000003    0.00000001
     atom  122 type  2   force =    -0.00000004   -0.00000001    0.00000001
     atom  123 type  2   force =    -0.00000003   -0.00000000    0.00000002
     atom  124 type  2   force =    -0.00000005    0.00000000    0.00000004
     atom  125 type  2   force =    -0.00000004    0.00000005    0.00000003
     atom  126 type  2   force =    -0.00000006    0.00000001    0.00000004
     atom  127 type  2   force =    -0.00000005    0.00000004   -0.00000001
     atom  128 type  2   force =    -0.00000013    0.00000008    0.00000005
     atom  129 type  2   force =    -0.00000001    0.00000003   -0.00000002
     atom  130 type  2   force =     0.00000004   -0.00000003   -0.00000002
     atom  131 type  2   force =     0.00000008    0.00000001   -0.00000004
     atom  132 type  2   force =    -0.00000002    0.00000001   -0.00000004
     atom  133 type  2   force =    -0.00000000    0.00000003   -0.00000004
     atom  134 type  2   force =     0.00000003    0.00000000   -0.00000004
     atom  135 type  2   force =     0.00000004    0.00000001   -0.00000003
     atom  136 type  2   force =    -0.00000001    0.00000003   -0.00000003
     atom  137 type  2   force =    -0.00000001    0.00000001   -0.00000000
     atom  138 type  2   force =     0.00000002    0.00000002   -0.00000000
     atom  139 type  2   force =     0.00000004    0.00000001    0.00000004
     atom  140 type  2   force =     0.00000000    0.00000002    0.00000003
     atom  141 type  2   force =    -0.00000001    0.00000002    0.00000006
     atom  142 type  2   force =     0.00000003    0.00000000    0.00000006
     atom  143 type  2   force =     0.00000006    0.00000003    0.00000004
     atom  144 type  2   force =    -0.00000001   -0.00000001    0.00000003
     atom  145 type  2   force =    -0.00000002   -0.00000005   -0.00000001
     atom  146 type  2   force =     0.00000001   -0.00000004   -0.00000002
     atom  147 type  2   force =     0.00000000   -0.00000004   -0.00000002
     atom  148 type  2   force =    -0.00000001   -0.00000005   -0.00000000
     atom  149 type  2   force =    -0.00000002   -0.00000001   -0.00000001
     atom  150 type  2   force =    -0.00000000   -0.00000003    0.00000001
     atom  151 type  2   force =    -0.00000000    0.00000001   -0.00000001
     atom  152 type  2   force =    -0.00000001   -0.00000002    0.00000001
     atom  153 type  2   force =    -0.00000000    0.00000003   -0.00000001
     atom  154 type  2   force =    -0.00000001    0.00000000    0.00000000
     atom  155 type  2   force =     0.00000001    0.00000002    0.00000002
     atom  156 type  2   force =     0.00000001    0.00000001    0.00000001
     atom  157 type  2   force =     0.00000001   -0.00000000    0.00000003
     atom  158 type  2   force =     0.00000001   -0.00000001    0.00000001
     atom  159 type  2   force =     0.00000002   -0.00000004    0.00000001
     atom  160 type  2   force =    -0.00000000   -0.00000003   -0.00000001
     atom  161 type  2   force =    -0.00000000   -0.00000004   -0.00000003
     atom  162 type  2   force =     0.00000005    0.00000002   -0.00000002
     atom  163 type  2   force =     0.00000002   -0.00000002   -0.00000001
     atom  164 type  2   force =     0.00000001    0.00000001    0.00000000
     atom  165 type  2   force =    -0.00000001   -0.00000003    0.00000002
     atom  166 type  2   force =     0.00000002    0.00000001    0.00000000
     atom  167 type  2   force =    -0.00000001   -0.00000003    0.00000003
     atom  168 type  2   force =    -0.00000001   -0.00000001    0.00000002
     atom  169 type  2   force =     0.00000000   -0.00000002    0.00000001
     atom  170 type  2   force =     0.00000001   -0.00000001    0.00000003
     atom  171 type  2   force =     0.00000001   -0.00000000    0.00000001
     atom  172 type  2   force =     0.00000000   -0.00000002    0.00000001
     atom  173 type  2   force =     0.00000001   -0.00000001   -0.00000001
     atom  174 type  2   force =     0.00000002   -0.00000001   -0.00000001
     atom  175 type  2   force =     0.00000003   -0.00000002   -0.00000003
     atom  176 type  2   force =     0.00000000   -0.00000001   -0.00000003
     atom  177 type  2   force =     0.00000001    0.00000005   -0.00000001
     atom  178 type  2   force =     0.00000008    0.00000004   -0.00000000
     atom  179 type  2   force =     0.00000006    0.00000005   -0.00000002
     atom  180 type  2   force =     0.00000000    0.00000004   -0.00000004
     atom  181 type  2   force =     0.00000000    0.00000001   -0.00000000
     atom  182 type  2   force =     0.00000006    0.00000002   -0.00000004
     atom  183 type  2   force =     0.00000003    0.00000001    0.00000000
     atom  184 type  2   force =    -0.00000000   -0.00000001   -0.00000001
     atom  185 type  2   force =    -0.00000001   -0.00000002    0.00000001
     atom  186 type  2   force =     0.00000004   -0.00000002    0.00000000
     atom  187 type  2   force =     0.00000003   -0.00000002    0.00000001
     atom  188 type  2   force =    -0.00000001   -0.00000001    0.00000003
     atom  189 type  2   force =    -0.00000001   -0.00000000   -0.00000000
     atom  190 type  2   force =     0.00000005    0.00000001    0.00000004
     atom  191 type  2   force =     0.00000006    0.00000003    0.00000001
     atom  192 type  2   force =    -0.00000001    0.00000004    0.00000002
     atom  193 type  2   force =     0.00000020   -0.00000000   -0.00000000
     atom  194 type  2   force =     0.00000018   -0.00000019   -0.00000002
     atom  195 type  2   force =     0.00000019   -0.00000002   -0.00000016
     atom  196 type  2   force =     0.00000011   -0.00000008   -0.00000005
     atom  197 type  2   force =     0.00000011   -0.00000001   -0.00000009
     atom  198 type  2   force =     0.00000008   -0.00000009   -0.00000012
     atom  199 type  2   force =     0.00000004   -0.00000001   -0.00000008
     atom  200 type  2   force =     0.00000004   -0.00000001   -0.00000004
     atom  201 type  2   force =     0.00000005   -0.00000001   -0.00000000
     atom  202 type  2   force =     0.00000003   -0.00000002   -0.00000000
     atom  203 type  2   force =     0.00000004   -0.00000001    0.00000007
     atom  204 type  2   force =     0.00000004   -0.00000001    0.00000005
     atom  205 type  2   force =     0.00000009    0.00000001    0.00000009
     atom  206 type  2   force =     0.00000005   -0.00000006    0.00000013
     atom  207 type  2   force =     0.00000017    0.00000000    0.00000017
     atom  208 type  2   force =     0.00000011   -0.00000006    0.00000005
     atom  209 type  2   force =     0.00000006   -0.00000008   -0.00000003
     atom  210 type  2   force =     0.00000004   -0.00000005   -0.00000002
     atom  211 type  2   force =     0.00000008   -0.00000012   -0.00000005
     atom  212 type  2   force =     0.00000003   -0.00000003   -0.00000002
     atom  213 type  2   force =     0.00000003   -0.00000004   -0.00000002
     atom  214 type  2   force =     0.00000002   -0.00000004   -0.00000003
     atom  215 type  2   force =     0.00000002   -0.00000004   -0.00000003
     atom  216 type  2   force =    -0.00000000   -0.00000002    0.00000000
     atom  217 type  2   force =     0.00000001    0.00000001   -0.00000000
     atom  218 type  2   force =    -0.00000002   -0.00000001    0.00000001
     atom  219 type  2   force =     0.00000001   -0.00000002    0.00000004
     atom  220 type  2   force =    -0.00000000    0.00000001    0.00000002
     atom  221 type  2   force =     0.00000003   -0.00000003    0.00000005
     atom  222 type  2   force =    -0.00000001   -0.00000003    0.00000004
     atom  223 type  2   force =     0.00000005   -0.00000011    0.00000005
     atom  224 type  2   force =     0.00000003   -0.00000003   -0.00000000
     atom  225 type  2   force =     0.00000004   -0.00000001   -0.00000002
     atom  226 type  2   force =     0.00000004    0.00000007    0.00000000
     atom  227 type  2   force =     0.00000005    0.00000001   -0.00000003
     atom  228 type  2   force =     0.00000006    0.00000004   -0.00000003
     atom  229 type  2   force =     0.00000002   -0.00000001   -0.00000000
     atom  230 type  2   force =     0.00000004    0.00000005   -0.00000004
     atom  231 type  2   force =     0.00000000    0.00000000   -0.00000001
     atom  232 type  2   force =     0.00000002    0.00000002    0.00000002
     atom  233 type  2   force =    -0.00000001   -0.00000000    0.00000003
     atom  234 type  2   force =    -0.00000002    0.00000002    0.00000001
     atom  235 type  2   force =    -0.00000003    0.00000000    0.00000002
     atom  236 type  2   force =     0.00000000    0.00000000    0.00000001
     atom  237 type  2   force =     0.00000000   -0.00000000    0.00000000
     atom  238 type  2   force =    -0.00000001    0.00000003    0.00000003
     atom  239 type  2   force =     0.00000000   -0.00000001    0.00000002
     atom  240 type  2   force =     0.00000004    0.00000003   -0.00000000
     atom  241 type  2   force =     0.00000010    0.00000009   -0.00000001
     atom  242 type  2   force =     0.00000018    0.00000018    0.00000002
     atom  243 type  2   force =     0.00000008    0.00000014   -0.00000006
     atom  244 type  2   force =     0.00000015    0.00000007   -0.00000006
     atom  245 type  2   force =     0.00000006    0.00000006   -0.00000003
     atom  246 type  2   force =     0.00000008    0.00000007   -0.00000013
     atom  247 type  2   force =     0.00000002    0.00000005   -0.00000003
     atom  248 type  2   force =     0.00000006    0.00000001   -0.00000004
     atom  249 type  2   force =     0.00000003    0.00000001    0.00000001
     atom  250 type  2   force =     0.00000002    0.00000001   -0.00000000
     atom  251 type  2   force =     0.00000000    0.00000003    0.00000003
     atom  252 type  2   force =     0.00000005   -0.00000000    0.00000003
     atom  253 type  2   force =     0.00000004    0.00000002    0.00000003
     atom  254 type  2   force =     0.00000007    0.00000006    0.00000012
     atom  255 type  2   force =     0.00000006    0.00000012    0.00000006
     atom  256 type  2   force =     0.00000013    0.00000006    0.00000007

     Total force =     0.023457     Total SCF correction =     0.000002


     Computing stress (Cartesian axis) and pressure

          total   stress  (Ry/bohr**3)                   (kbar)     P=   -9.10
  -0.00006187   0.00000000  -0.00000000         -9.10      0.00     -0.00
   0.00000000  -0.00006187   0.00000000          0.00     -9.10      0.00
  -0.00000000   0.00000000  -0.00006188         -0.00      0.00     -9.10

     kinetic stress (kbar)   1432.41      0.00     -0.00
                                0.00   1432.41     -0.00
                               -0.00     -0.00   1432.40

     local   stress (kbar)    624.12      0.00      0.00
                                0.00    624.12      0.00
                                0.00      0.00    624.12

     nonloc. stress (kbar)   1037.23     -0.00      0.00
                               -0.00   1037.23     -0.00
                                0.00     -0.00   1037.23

     hartree stress (kbar)      3.13     -0.00     -0.00
                               -0.00      3.13     -0.00
                               -0.00     -0.00      3.13

     exc-cor stress (kbar)    501.04     -0.00     -0.00
                               -0.00    501.04     -0.00
                               -0.00     -0.00    501.04

     corecor stress (kbar)  -1270.26      0.00      0.00
                                0.00  -1270.26      0.00
                                0.00      0.00  -1270.26

     ewald   stress (kbar)  -2336.77      0.00     -0.00
                                0.00  -2336.77     -0.00
                               -0.00     -0.00  -2336.77

     hubbard stress (kbar)      0.00      0.00      0.00
                                0.00      0.00      0.00
                                0.00      0.00      0.00

     london  stress (kbar)      0.00      0.00      0.00
                                0.00      0.00      0.00
                                0.00      0.00      0.00

     DFT-D3  stress (kbar)      0.00      0.00      0.00
                                0.00      0.00      0.00
                                0.00      0.00      0.00

     XDM     stress (kbar)      0.00      0.00      0.00
                                0.00      0.00      0.00
                                0.00      0.00      0.00

     dft-nl  stress (kbar)      0.00      0.00      0.00
                                0.00      0.00      0.00
                                0.00      0.00      0.00

     TS-vdW  stress (kbar)      0.00      0.00      0.00
                                0.00      0.00      0.00
                                0.00      0.00      0.00



     Writing output data file aiida.save/
 
     init_run     :    195.63s CPU    197.89s WALL (       1 calls)
     electrons    :   5918.93s CPU   5964.31s WALL (       1 calls)
     forces       :     94.81s CPU     95.74s WALL (       1 calls)
     stress       :   1152.96s CPU   1154.46s WALL (       1 calls)

     Called by init_run:
     wfcinit      :    187.77s CPU    189.64s WALL (       1 calls)
     wfcinit:atom :      0.34s CPU      0.59s WALL (       2 calls)
     wfcinit:wfcr :    185.16s CPU    186.07s WALL (       2 calls)
     potinit      :      2.38s CPU      2.55s WALL (       1 calls)
     hinit0       :      2.54s CPU      2.63s WALL (       1 calls)

     Called by electrons:
     c_bands      :   5204.96s CPU   5242.76s WALL (      19 calls)
     sum_band     :    657.38s CPU    660.08s WALL (      19 calls)
     v_of_rho     :     28.05s CPU     29.68s WALL (      19 calls)
     v_h          :      2.62s CPU      2.63s WALL (      19 calls)
     v_xc         :     27.81s CPU     29.51s WALL (      21 calls)
     newd         :      5.50s CPU      6.84s WALL (      19 calls)
     PAW_pot      :      3.66s CPU      3.87s WALL (      19 calls)
     mix_rho      :     16.12s CPU     17.56s WALL (      19 calls)

     Called by c_bands:
     init_us_2    :     60.34s CPU     60.84s WALL (      82 calls)
     cegterg      :   4305.66s CPU   4340.35s WALL (      38 calls)

     Called by sum_band:
     sum_band:bec :      1.04s CPU      1.05s WALL (      38 calls)
     addusdens    :      4.49s CPU      6.06s WALL (      19 calls)

     Called by *egterg:
     h_psi        :   2773.29s CPU   2784.85s WALL (     178 calls)
     s_psi        :    845.35s CPU    846.96s WALL (     178 calls)
     g_psi        :      3.46s CPU      3.46s WALL (     138 calls)
     cdiaghg      :    284.44s CPU    288.97s WALL (     174 calls)
     cegterg:over :    248.67s CPU    250.01s WALL (     138 calls)
     cegterg:upda :    144.75s CPU    150.69s WALL (     138 calls)
     cegterg:last :     95.97s CPU     96.03s WALL (      41 calls)
     cdiaghg:chol :     11.60s CPU     11.68s WALL (     174 calls)
     cdiaghg:inve :      5.15s CPU      5.16s WALL (     174 calls)
     cdiaghg:para :     59.20s CPU     60.30s WALL (     348 calls)

     Called by h_psi:
     h_psi:pot    :   2769.83s CPU   2776.11s WALL (     178 calls)
     h_psi:calbec :    851.78s CPU    851.90s WALL (     178 calls)
     vloc_psi     :   1070.56s CPU   1074.76s WALL (     178 calls)
     add_vuspsi   :    847.49s CPU    849.45s WALL (     178 calls)

     General routines
     calbec       :   1265.21s CPU   1265.36s WALL (     226 calls)
     fft          :     31.36s CPU     33.36s WALL (     272 calls)
     ffts         :      7.74s CPU      7.81s WALL (     271 calls)
     fftw         :   1099.15s CPU   1103.06s WALL (  106664 calls)
     interpolate  :      2.80s CPU      3.13s WALL (      19 calls)
 
     Parallel routines
     fft_scatt_xy :    369.20s CPU    370.31s WALL (  107207 calls)
     fft_scatt_yz :    220.66s CPU    222.76s WALL (  107207 calls)

     PAW routines
     PAW_pot      :      3.66s CPU      3.87s WALL (      19 calls)
 
     PWSCF        :      2h 5m CPU      2h 7m WALL

 
   This run was terminated on:   2:33: 4  27Feb2020            

=------------------------------------------------------------------------------=
   JOB DONE.
=------------------------------------------------------------------------------=
