
     Program PWSCF v.6.3 starts on 22Feb2020 at  8:19:11 

     This program is part of the open-source Quantum ESPRESSO suite
     for quantum simulation of materials; please cite
         "P. Giannozzi et al., J. Phys.:Condens. Matter 21 395502 (2009);
         "P. Giannozzi et al., J. Phys.:Condens. Matter 29 465901 (2017);
          URL http://www.quantum-espresso.org", 
     in publications or presentations arising from this work. More details at
     http://www.quantum-espresso.org/quote

 *** WARNING: using old-style file format, will disappear from next version ***

     Parallel version (MPI & OpenMP), running on      36 processor cores
     Number of MPI processes:                36
     Threads/MPI process:                     1

     MPI processes distributed on     1 nodes
     K-points division:     npool     =       4
     R & G space division:  proc/nbgrp/npool/nimage =       9
     Reading input from aiida.in
Warning: card &IONS ignored
Warning: card   !PRESS_CONV_THR = 0.05                 ! JUST FOR VOLUME RELAXATIONS ignored
Warning: card / ignored

     Current dimensions of program PWSCF are:
     Max number of different atomic species (ntypx) = 10
     Max number of k-points (npk) =  40000
     Max angular momentum in pseudopotentials (lmaxx) =  3
               file Al.pbe-n-kjpaw_psl.1.0.0.UPF: wavefunction(s)  3S 3P renormalized

     Subspace diagonalization in iterative solution of the eigenvalue problem:
     one sub-group per band group will be used
     scalapack distributed-memory algorithm (size of sub-group:  2*  2 procs)

 
     Parallelization info
     --------------------
     sticks:   dense  smooth     PW     G-vecs:    dense   smooth      PW
     Min        3324    1330    347               432816   109512   14645
     Max        3325    1331    348               432821   109515   14652
     Sum       29921   11977   3125              3895379   985619  131827
 


     bravais-lattice index     =            0
     lattice parameter (alat)  =      30.6665  a.u.
     unit-cell volume          =   28839.7502 (a.u.)^3
     number of atoms/cell      =          255
     number of atomic types    =            2
     number of electrons       =       766.00
     number of Kohn-Sham states=          460
     kinetic-energy cutoff     =      40.0000  Ry
     charge density cutoff     =     400.0000  Ry
     convergence threshold     =      1.0E-12
     mixing beta               =       0.4000
     number of iterations used =            8  local-TF  mixing
     Exchange-correlation      = PBE ( 1  4  3  4 0 0)

     celldm(1)=  30.666473  celldm(2)=   0.000000  celldm(3)=   0.000000
     celldm(4)=   0.000000  celldm(5)=   0.000000  celldm(6)=   0.000000

     crystal axes: (cart. coord. in units of alat)
               a(1) = (   1.000000   0.000000   0.000000 )  
               a(2) = (   0.000000   1.000000   0.000000 )  
               a(3) = (   0.000000   0.000000   1.000000 )  

     reciprocal axes: (cart. coord. in units 2 pi/alat)
               b(1) = (  1.000000  0.000000  0.000000 )  
               b(2) = (  0.000000  1.000000  0.000000 )  
               b(3) = (  0.000000  0.000000  1.000000 )  


     PseudoPot. # 1 for Al read from file:
     /users/aglensk/Dropbox/Albert/scripts/dotfiles/scripts/potentials/quantum_espresso/pseudo_SSSPefV1.1_alalloy/Al.pbe-n-kjpaw_psl.1.0.0.UPF
     MD5 check sum: cfc449ca30b5f3223ec38ddd88ac046d
     Pseudo is Projector augmented-wave + core cor, Zval =  3.0
     Generated using "atomic" code by A. Dal Corso v.5.1
     Shape of augmentation charge: PSQ
     Using radial grid of 1135 points,  6 beta functions with: 
                l(1) =   0
                l(2) =   0
                l(3) =   1
                l(4) =   1
                l(5) =   2
                l(6) =   2
     Q(r) pseudized with 0 coefficients 


     PseudoPot. # 2 for Si read from file:
     /users/aglensk/Dropbox/Albert/scripts/dotfiles/scripts/potentials/quantum_espresso/pseudo_SSSPefV1.1_alalloy/Si.pbe-n-rrkjus_psl.1.0.0.UPF
     MD5 check sum: 0b0bb1205258b0d07b9f9672cf965d36
     Pseudo is Ultrasoft + core correction, Zval =  4.0
     Generated using "atomic" code by A. Dal Corso v.5.1
     Using radial grid of 1141 points,  6 beta functions with: 
                l(1) =   0
                l(2) =   0
                l(3) =   1
                l(4) =   1
                l(5) =   2
                l(6) =   2
     Q(r) pseudized with 0 coefficients 


     atomic species   valence    mass     pseudopotential
        Al             3.00    26.98154     Al( 1.00)
        Si             4.00    28.08500     Si( 1.00)

     No symmetry found


                                    s                        frac. trans.

      isym =  1     identity                                     

 cryst.   s( 1) = (     1          0          0      )
                  (     0          1          0      )
                  (     0          0          1      )

 cart.    s( 1) = (  1.0000000  0.0000000  0.0000000 )
                  (  0.0000000  1.0000000  0.0000000 )
                  (  0.0000000  0.0000000  1.0000000 )


   Cartesian axes

     site n.     atom                  positions (alat units)
         1           Al  tau(   1) = (   0.1227811   0.0004084   0.1227811  )
         2           Al  tau(   2) = (   0.1229130   0.1235376   0.0006069  )
         3           Al  tau(   3) = (   0.0006069   0.1235376   0.1229130  )
         4           Al  tau(   4) = (   0.0000692   0.0002120   0.2497065  )
         5           Al  tau(   5) = (   0.1248987   0.1256498   0.2490775  )
         6           Al  tau(   6) = (   0.1249756   0.0002903   0.3747555  )
         7           Al  tau(   7) = (   0.0000720   0.1250290   0.3748105  )
         8           Al  tau(   8) = (   0.0000286   0.0000296   0.4999620  )
         9           Al  tau(   9) = (   0.1250351   0.1250781   0.4998902  )
        10           Al  tau(  10) = (   0.1249661   0.0000412   0.6249613  )
        11           Al  tau(  11) = (   0.0000065   0.1249726   0.6249591  )
        12           Al  tau(  12) = (   0.0000141   0.0000240   0.7502477  )
        13           Al  tau(  13) = (   0.1249052   0.1249527   0.7502487  )
        14           Al  tau(  14) = (   0.1228356   0.0002997   0.8774529  )
        15           Al  tau(  15) = (   0.0000799   0.1229087   0.8773893  )
        16           Al  tau(  16) = (   0.0008406   0.2497316   0.0008406  )
        17           Al  tau(  17) = (   0.1249538   0.3743069   0.0007194  )
        18           Si  tau(  18) = (   0.1250812   0.2503943   0.1250812  )
        19           Al  tau(  19) = (   0.0007194   0.3743069   0.1249538  )
        20           Al  tau(  20) = (   0.0007866   0.2491093   0.2483438  )
        21           Al  tau(  21) = (   0.1249051   0.3741590   0.2492675  )
        22           Al  tau(  22) = (   0.1249212   0.2500092   0.3745498  )
        23           Al  tau(  23) = (   0.0000748   0.3748194   0.3746531  )
        24           Al  tau(  24) = (   0.0000428   0.2500274   0.4998846  )
        25           Al  tau(  25) = (   0.1250119   0.3749768   0.4998777  )
        26           Al  tau(  26) = (   0.1249192   0.2500088   0.6250773  )
        27           Al  tau(  27) = (   0.0000071   0.3748890   0.6251000  )
        28           Al  tau(  28) = (   0.0000382   0.2491672   0.7509463  )
        29           Al  tau(  29) = (   0.1249171   0.3748795   0.7501095  )
        30           Al  tau(  30) = (   0.1249036   0.2498574   0.8754797  )
        31           Al  tau(  31) = (   0.0000620   0.3749614   0.8752569  )
        32           Al  tau(  32) = (   0.0000653   0.4997784   0.0000653  )
        33           Al  tau(  33) = (   0.1249670   0.6248456   0.0000423  )
        34           Al  tau(  34) = (   0.1250399   0.4995921   0.1250399  )
        35           Al  tau(  35) = (   0.0000423   0.6248456   0.1249670  )
        36           Al  tau(  36) = (   0.0000682   0.4997652   0.2499616  )
        37           Al  tau(  37) = (   0.1249209   0.6249489   0.2499667  )
        38           Al  tau(  38) = (   0.1250116   0.4997115   0.3747327  )
        39           Al  tau(  39) = (   0.0000281   0.6250713   0.3748649  )
        40           Al  tau(  40) = (   0.0000244   0.4999745   0.4999697  )
        41           Al  tau(  41) = (   0.1250152   0.6249525   0.4999739  )
        42           Al  tau(  42) = (   0.1250136   0.4999629   0.6249807  )
        43           Al  tau(  43) = (   0.9999982   0.6251078   0.6251022  )
        44           Al  tau(  44) = (   0.0000274   0.4999696   0.7500114  )
        45           Al  tau(  45) = (   0.1249180   0.6250485   0.7500180  )
        46           Al  tau(  46) = (   0.1250365   0.4997157   0.8752483  )
        47           Al  tau(  47) = (   0.0000258   0.6249338   0.8750619  )
        48           Al  tau(  48) = (   0.0000056   0.7502529   0.0000056  )
        49           Al  tau(  49) = (   0.1228389   0.8773065   0.0000506  )
        50           Al  tau(  50) = (   0.1249111   0.7501372   0.1249111  )
        51           Al  tau(  51) = (   0.0000506   0.8773065   0.1228389  )
        52           Al  tau(  52) = (   0.0000067   0.7508325   0.2491654  )
        53           Al  tau(  53) = (   0.1249209   0.8752037   0.2498273  )
        54           Al  tau(  54) = (   0.1249195   0.7499930   0.3748808  )
        55           Al  tau(  55) = (   0.0000320   0.8750753   0.3750051  )
        56           Al  tau(  56) = (   0.9999997   0.7499682   0.5000021  )
        57           Al  tau(  57) = (   0.1250346   0.8749900   0.4999722  )
        58           Al  tau(  58) = (   0.1249212   0.7499870   0.6250710  )
        59           Al  tau(  59) = (   0.0000030   0.8750306   0.6249647  )
        60           Al  tau(  60) = (   0.0000013   0.7508340   0.7508305  )
        61           Al  tau(  61) = (   0.1249038   0.8751191   0.7501680  )
        62           Al  tau(  62) = (   0.1249091   0.7501435   0.8751316  )
        63           Al  tau(  63) = (   0.0000370   0.8772102   0.8771842  )
        64           Al  tau(  64) = (   0.2497065   0.0002120   0.0000692  )
        65           Al  tau(  65) = (   0.3748105   0.1250290   0.0000720  )
        66           Al  tau(  66) = (   0.3747555   0.0002903   0.1249756  )
        67           Al  tau(  67) = (   0.2490775   0.1256498   0.1248987  )
        68           Al  tau(  68) = (   0.2490750   0.0002445   0.2490750  )
        69           Al  tau(  69) = (   0.3747188   0.1249835   0.2499458  )
        70           Al  tau(  70) = (   0.3749494   0.9999404   0.3749494  )
        71           Al  tau(  71) = (   0.2499458   0.1249835   0.3747188  )
        72           Al  tau(  72) = (   0.2500003   0.0000292   0.4999693  )
        73           Al  tau(  73) = (   0.3749935   0.1250403   0.4999630  )
        74           Al  tau(  74) = (   0.3748902   0.0000056   0.6251022  )
        75           Al  tau(  75) = (   0.2500034   0.1249252   0.6250770  )
        76           Al  tau(  76) = (   0.2491428   0.0000439   0.7508681  )
        77           Al  tau(  77) = (   0.3748956   0.1249487   0.7500276  )
        78           Al  tau(  78) = (   0.3750810   0.9999587   0.8749835  )
        79           Al  tau(  79) = (   0.2497676   0.1249745   0.8753370  )
        80           Al  tau(  80) = (   0.2483438   0.2491093   0.0007866  )
        81           Al  tau(  81) = (   0.3746531   0.3748194   0.0000748  )
        82           Al  tau(  82) = (   0.3745498   0.2500092   0.1249212  )
        83           Al  tau(  83) = (   0.2492675   0.3741590   0.1249051  )
        84           Al  tau(  84) = (   0.2493867   0.2500818   0.2493867  )
        85           Al  tau(  85) = (   0.3747667   0.3749352   0.2499091  )
        86           Al  tau(  86) = (   0.3747271   0.2499856   0.3747271  )
        87           Al  tau(  87) = (   0.2499091   0.3749352   0.3747667  )
        88           Al  tau(  88) = (   0.2499446   0.2499871   0.4998901  )
        89           Al  tau(  89) = (   0.3749520   0.3749576   0.4999674  )
        90           Al  tau(  90) = (   0.3749797   0.2499811   0.6249796  )
        91           Al  tau(  91) = (   0.2499730   0.3750137   0.6249796  )
        92           Al  tau(  92) = (   0.2501122   0.2501465   0.7499661  )
        93           Al  tau(  93) = (   0.3749843   0.3749855   0.7500626  )
        94           Al  tau(  94) = (   0.3746319   0.2499939   0.8753711  )
        95           Al  tau(  95) = (   0.2499374   0.3748586   0.8753024  )
        96           Al  tau(  96) = (   0.2499616   0.4997652   0.0000682  )
        97           Al  tau(  97) = (   0.3748649   0.6250713   0.0000281  )
        98           Al  tau(  98) = (   0.3747327   0.4997115   0.1250116  )
        99           Al  tau(  99) = (   0.2499667   0.6249489   0.1249209  )
       100           Al  tau( 100) = (   0.2499150   0.4997594   0.2499150  )
       101           Al  tau( 101) = (   0.3749897   0.6249462   0.2499502  )
       102           Al  tau( 102) = (   0.3750311   0.5000505   0.3750311  )
       103           Al  tau( 103) = (   0.2499502   0.6249462   0.3749897  )
       104           Al  tau( 104) = (   0.2500328   0.4999659   0.4999632  )
       105           Al  tau( 105) = (   0.3749705   0.6250306   0.5000068  )
       106           Al  tau( 106) = (   0.3749675   0.4999863   0.6250239  )
       107           Al  tau( 107) = (   0.2499826   0.6249838   0.6249802  )
       108           Al  tau( 108) = (   0.2499546   0.4999716   0.7500527  )
       109           Al  tau( 109) = (   0.3750152   0.6249901   0.7500088  )
       110           Al  tau( 110) = (   0.3750708   0.5000466   0.8749425  )
       111           Al  tau( 111) = (   0.2499841   0.6250403   0.8751077  )
       112           Al  tau( 112) = (   0.2491654   0.7508325   0.0000067  )
       113           Al  tau( 113) = (   0.3750051   0.8750753   0.0000320  )
       114           Al  tau( 114) = (   0.3748808   0.7499930   0.1249195  )
       115           Al  tau( 115) = (   0.2498273   0.8752037   0.1249209  )
       116           Al  tau( 116) = (   0.2501551   0.7498380   0.2501551  )
       117           Al  tau( 117) = (   0.3749030   0.8751128   0.2499942  )
       118           Al  tau( 118) = (   0.3750141   0.7500142   0.3750141  )
       119           Al  tau( 119) = (   0.2499942   0.8751128   0.3749030  )
       120           Al  tau( 120) = (   0.2499830   0.7500174   0.5000026  )
       121           Al  tau( 121) = (   0.3750159   0.8749761   0.5000133  )
       122           Al  tau( 122) = (   0.3750243   0.7500234   0.6249829  )
       123           Al  tau( 123) = (   0.2500039   0.8750787   0.6250813  )
       124           Al  tau( 124) = (   0.2501494   0.7498463   0.7498418  )
       125           Al  tau( 125) = (   0.3749132   0.8750771   0.7499861  )
       126           Al  tau( 126) = (   0.3749147   0.7499892   0.8750935  )
       127           Al  tau( 127) = (   0.2498434   0.8751185   0.8751222  )
       128           Al  tau( 128) = (   0.4999620   0.0000296   0.0000286  )
       129           Al  tau( 129) = (   0.6249591   0.1249726   0.0000065  )
       130           Al  tau( 130) = (   0.6249613   0.0000412   0.1249661  )
       131           Al  tau( 131) = (   0.4998902   0.1250781   0.1250351  )
       132           Al  tau( 132) = (   0.4999693   0.0000292   0.2500003  )
       133           Al  tau( 133) = (   0.6250770   0.1249252   0.2500034  )
       134           Al  tau( 134) = (   0.6251022   0.0000056   0.3748902  )
       135           Al  tau( 135) = (   0.4999630   0.1250403   0.3749935  )
       136           Al  tau( 136) = (   0.5000073   0.0000086   0.5000073  )
       137           Al  tau( 137) = (   0.6249826   0.1250131   0.5000018  )
       138           Al  tau( 138) = (   0.6251095   0.9999972   0.6251095  )
       139           Al  tau( 139) = (   0.5000018   0.1250131   0.6249826  )
       140           Al  tau( 140) = (   0.5000085   0.0000053   0.7499632  )
       141           Al  tau( 141) = (   0.6250742   0.1249209   0.7499843  )
       142           Al  tau( 142) = (   0.6249564   0.0000075   0.8750406  )
       143           Al  tau( 143) = (   0.4999631   0.1250643   0.8749954  )
       144           Al  tau( 144) = (   0.4998846   0.2500274   0.0000428  )
       145           Al  tau( 145) = (   0.6251000   0.3748890   0.0000071  )
       146           Al  tau( 146) = (   0.6250773   0.2500088   0.1249192  )
       147           Al  tau( 147) = (   0.4998777   0.3749768   0.1250119  )
       148           Al  tau( 148) = (   0.4998901   0.2499871   0.2499446  )
       149           Al  tau( 149) = (   0.6249796   0.3750137   0.2499730  )
       150           Al  tau( 150) = (   0.6249796   0.2499811   0.3749797  )
       151           Al  tau( 151) = (   0.4999674   0.3749576   0.3749520  )
       152           Al  tau( 152) = (   0.4999697   0.2500571   0.4999697  )
       153           Al  tau( 153) = (   0.6250178   0.3749758   0.5000037  )
       154           Al  tau( 154) = (   0.6249820   0.2499781   0.6249820  )
       155           Al  tau( 155) = (   0.5000037   0.3749758   0.6250178  )
       156           Al  tau( 156) = (   0.4999754   0.2499889   0.7500398  )
       157           Al  tau( 157) = (   0.6249783   0.3750208   0.7500174  )
       158           Al  tau( 158) = (   0.6250727   0.2500077   0.8751221  )
       159           Al  tau( 159) = (   0.4999566   0.3749933   0.8750199  )
       160           Al  tau( 160) = (   0.4999697   0.4999745   0.0000244  )
       161           Al  tau( 161) = (   0.6251022   0.6251078   0.9999982  )
       162           Al  tau( 162) = (   0.6249807   0.4999629   0.1250136  )
       163           Al  tau( 163) = (   0.4999739   0.6249525   0.1250152  )
       164           Al  tau( 164) = (   0.4999632   0.4999659   0.2500328  )
       165           Al  tau( 165) = (   0.6249802   0.6249838   0.2499826  )
       166           Al  tau( 166) = (   0.6250239   0.4999863   0.3749675  )
       167           Al  tau( 167) = (   0.5000068   0.6250306   0.3749705  )
       168           Al  tau( 168) = (   0.5000120   0.5000004   0.5000120  )
       169           Al  tau( 169) = (   0.6250214   0.6250074   0.4999844  )
       170           Al  tau( 170) = (   0.6250212   0.5000091   0.6250212  )
       171           Al  tau( 171) = (   0.4999844   0.6250074   0.6250214  )
       172           Al  tau( 172) = (   0.5000065   0.4999913   0.7499297  )
       173           Al  tau( 173) = (   0.6249823   0.6249666   0.7500388  )
       174           Al  tau( 174) = (   0.6249809   0.4999880   0.8749968  )
       175           Al  tau( 175) = (   0.5000081   0.6249890   0.8749871  )
       176           Al  tau( 176) = (   0.5000021   0.7499682   0.9999997  )
       177           Al  tau( 177) = (   0.6249647   0.8750306   0.0000030  )
       178           Al  tau( 178) = (   0.6250710   0.7499870   0.1249212  )
       179           Al  tau( 179) = (   0.4999722   0.8749900   0.1250346  )
       180           Al  tau( 180) = (   0.5000026   0.7500174   0.2499830  )
       181           Al  tau( 181) = (   0.6250813   0.8750787   0.2500039  )
       182           Al  tau( 182) = (   0.6249829   0.7500234   0.3750243  )
       183           Al  tau( 183) = (   0.5000133   0.8749761   0.3750159  )
       184           Al  tau( 184) = (   0.4999847   0.7499385   0.4999847  )
       185           Al  tau( 185) = (   0.6249792   0.8750043   0.4999890  )
       186           Al  tau( 186) = (   0.6249788   0.7500168   0.6249788  )
       187           Al  tau( 187) = (   0.4999890   0.8750043   0.6249792  )
       188           Al  tau( 188) = (   0.4999830   0.7500191   0.7500341  )
       189           Al  tau( 189) = (   0.6250683   0.8750897   0.7500033  )
       190           Al  tau( 190) = (   0.6250787   0.7499965   0.8750776  )
       191           Al  tau( 191) = (   0.5000075   0.8749549   0.8749725  )
       192           Al  tau( 192) = (   0.7502477   0.0000240   0.0000141  )
       193           Al  tau( 193) = (   0.8773893   0.1229087   0.0000799  )
       194           Al  tau( 194) = (   0.8774529   0.0002997   0.1228356  )
       195           Al  tau( 195) = (   0.7502487   0.1249527   0.1249052  )
       196           Al  tau( 196) = (   0.7508681   0.0000439   0.2491428  )
       197           Al  tau( 197) = (   0.8753370   0.1249745   0.2497676  )
       198           Al  tau( 198) = (   0.8749835   0.9999587   0.3750810  )
       199           Al  tau( 199) = (   0.7500276   0.1249487   0.3748956  )
       200           Al  tau( 200) = (   0.7499632   0.0000053   0.5000085  )
       201           Al  tau( 201) = (   0.8749954   0.1250643   0.4999631  )
       202           Al  tau( 202) = (   0.8750406   0.0000075   0.6249564  )
       203           Al  tau( 203) = (   0.7499843   0.1249209   0.6250742  )
       204           Al  tau( 204) = (   0.7508260   0.9999936   0.7508260  )
       205           Al  tau( 205) = (   0.8751131   0.1249293   0.7501616  )
       206           Al  tau( 206) = (   0.8771960   0.0000098   0.8771960  )
       207           Al  tau( 207) = (   0.7501616   0.1249293   0.8751131  )
       208           Al  tau( 208) = (   0.7509463   0.2491672   0.0000382  )
       209           Al  tau( 209) = (   0.8752569   0.3749614   0.0000620  )
       210           Al  tau( 210) = (   0.8754797   0.2498574   0.1249036  )
       211           Al  tau( 211) = (   0.7501095   0.3748795   0.1249171  )
       212           Al  tau( 212) = (   0.7499661   0.2501465   0.2501122  )
       213           Al  tau( 213) = (   0.8753024   0.3748586   0.2499374  )
       214           Al  tau( 214) = (   0.8753711   0.2499939   0.3746319  )
       215           Al  tau( 215) = (   0.7500626   0.3749855   0.3749843  )
       216           Al  tau( 216) = (   0.7500398   0.2499889   0.4999754  )
       217           Al  tau( 217) = (   0.8750199   0.3749933   0.4999566  )
       218           Al  tau( 218) = (   0.8751221   0.2500077   0.6250727  )
       219           Al  tau( 219) = (   0.7500174   0.3750208   0.6249783  )
       220           Al  tau( 220) = (   0.7498687   0.2501629   0.7498687  )
       221           Al  tau( 221) = (   0.8751032   0.3748967   0.7500240  )
       222           Al  tau( 222) = (   0.8754017   0.2498458   0.8754017  )
       223           Al  tau( 223) = (   0.7500240   0.3748967   0.8751032  )
       224           Al  tau( 224) = (   0.7500114   0.4999696   0.0000274  )
       225           Al  tau( 225) = (   0.8750619   0.6249338   0.0000258  )
       226           Al  tau( 226) = (   0.8752483   0.4997157   0.1250365  )
       227           Al  tau( 227) = (   0.7500180   0.6250485   0.1249180  )
       228           Al  tau( 228) = (   0.7500527   0.4999716   0.2499546  )
       229           Al  tau( 229) = (   0.8751077   0.6250403   0.2499841  )
       230           Al  tau( 230) = (   0.8749425   0.5000466   0.3750708  )
       231           Al  tau( 231) = (   0.7500088   0.6249901   0.3750152  )
       232           Al  tau( 232) = (   0.7499297   0.4999913   0.5000065  )
       233           Al  tau( 233) = (   0.8749871   0.6249890   0.5000081  )
       234           Al  tau( 234) = (   0.8749968   0.4999880   0.6249809  )
       235           Al  tau( 235) = (   0.7500388   0.6249666   0.6249823  )
       236           Al  tau( 236) = (   0.7500052   0.4999978   0.7500052  )
       237           Al  tau( 237) = (   0.8750879   0.6250854   0.7499800  )
       238           Al  tau( 238) = (   0.8749111   0.5000500   0.8749111  )
       239           Al  tau( 239) = (   0.7499800   0.6250854   0.8750879  )
       240           Al  tau( 240) = (   0.7508305   0.7508340   0.0000013  )
       241           Al  tau( 241) = (   0.8771842   0.8772102   0.0000370  )
       242           Al  tau( 242) = (   0.8751316   0.7501435   0.1249091  )
       243           Al  tau( 243) = (   0.7501680   0.8751191   0.1249038  )
       244           Al  tau( 244) = (   0.7498418   0.7498463   0.2501494  )
       245           Al  tau( 245) = (   0.8751222   0.8751185   0.2498434  )
       246           Al  tau( 246) = (   0.8750935   0.7499892   0.3749147  )
       247           Al  tau( 247) = (   0.7499861   0.8750771   0.3749132  )
       248           Al  tau( 248) = (   0.7500341   0.7500191   0.4999830  )
       249           Al  tau( 249) = (   0.8749725   0.8749549   0.5000075  )
       250           Al  tau( 250) = (   0.8750776   0.7499965   0.6250787  )
       251           Al  tau( 251) = (   0.7500033   0.8750897   0.6250683  )
       252           Al  tau( 252) = (   0.7498526   0.7498394   0.7498526  )
       253           Al  tau( 253) = (   0.8750873   0.8750931   0.7501443  )
       254           Al  tau( 254) = (   0.8750958   0.7501334   0.8750958  )
       255           Al  tau( 255) = (   0.7501443   0.8750931   0.8750873  )

   Crystallographic axes

     site n.     atom                  positions (cryst. coord.)
         1           Al  tau(   1) = (  0.1227811  0.0004084  0.1227811  )
         2           Al  tau(   2) = (  0.1229130  0.1235376  0.0006069  )
         3           Al  tau(   3) = (  0.0006069  0.1235376  0.1229130  )
         4           Al  tau(   4) = (  0.0000692  0.0002120  0.2497065  )
         5           Al  tau(   5) = (  0.1248987  0.1256498  0.2490775  )
         6           Al  tau(   6) = (  0.1249756  0.0002903  0.3747555  )
         7           Al  tau(   7) = (  0.0000720  0.1250290  0.3748105  )
         8           Al  tau(   8) = (  0.0000286  0.0000296  0.4999620  )
         9           Al  tau(   9) = (  0.1250351  0.1250781  0.4998902  )
        10           Al  tau(  10) = (  0.1249661  0.0000412  0.6249613  )
        11           Al  tau(  11) = (  0.0000065  0.1249726  0.6249591  )
        12           Al  tau(  12) = (  0.0000141  0.0000240  0.7502477  )
        13           Al  tau(  13) = (  0.1249052  0.1249527  0.7502487  )
        14           Al  tau(  14) = (  0.1228356  0.0002997  0.8774529  )
        15           Al  tau(  15) = (  0.0000799  0.1229087  0.8773893  )
        16           Al  tau(  16) = (  0.0008406  0.2497316  0.0008406  )
        17           Al  tau(  17) = (  0.1249538  0.3743069  0.0007194  )
        18           Si  tau(  18) = (  0.1250812  0.2503943  0.1250812  )
        19           Al  tau(  19) = (  0.0007194  0.3743069  0.1249538  )
        20           Al  tau(  20) = (  0.0007866  0.2491093  0.2483438  )
        21           Al  tau(  21) = (  0.1249051  0.3741590  0.2492675  )
        22           Al  tau(  22) = (  0.1249212  0.2500092  0.3745498  )
        23           Al  tau(  23) = (  0.0000748  0.3748194  0.3746531  )
        24           Al  tau(  24) = (  0.0000428  0.2500274  0.4998846  )
        25           Al  tau(  25) = (  0.1250119  0.3749768  0.4998777  )
        26           Al  tau(  26) = (  0.1249192  0.2500088  0.6250773  )
        27           Al  tau(  27) = (  0.0000071  0.3748890  0.6251000  )
        28           Al  tau(  28) = (  0.0000382  0.2491672  0.7509463  )
        29           Al  tau(  29) = (  0.1249171  0.3748795  0.7501095  )
        30           Al  tau(  30) = (  0.1249036  0.2498574  0.8754797  )
        31           Al  tau(  31) = (  0.0000620  0.3749614  0.8752569  )
        32           Al  tau(  32) = (  0.0000653  0.4997784  0.0000653  )
        33           Al  tau(  33) = (  0.1249670  0.6248456  0.0000423  )
        34           Al  tau(  34) = (  0.1250399  0.4995921  0.1250399  )
        35           Al  tau(  35) = (  0.0000423  0.6248456  0.1249670  )
        36           Al  tau(  36) = (  0.0000682  0.4997652  0.2499616  )
        37           Al  tau(  37) = (  0.1249209  0.6249489  0.2499667  )
        38           Al  tau(  38) = (  0.1250116  0.4997115  0.3747327  )
        39           Al  tau(  39) = (  0.0000281  0.6250713  0.3748649  )
        40           Al  tau(  40) = (  0.0000244  0.4999745  0.4999697  )
        41           Al  tau(  41) = (  0.1250152  0.6249525  0.4999739  )
        42           Al  tau(  42) = (  0.1250136  0.4999629  0.6249807  )
        43           Al  tau(  43) = (  0.9999982  0.6251078  0.6251022  )
        44           Al  tau(  44) = (  0.0000274  0.4999696  0.7500114  )
        45           Al  tau(  45) = (  0.1249180  0.6250485  0.7500180  )
        46           Al  tau(  46) = (  0.1250365  0.4997157  0.8752483  )
        47           Al  tau(  47) = (  0.0000258  0.6249338  0.8750619  )
        48           Al  tau(  48) = (  0.0000056  0.7502529  0.0000056  )
        49           Al  tau(  49) = (  0.1228389  0.8773065  0.0000506  )
        50           Al  tau(  50) = (  0.1249111  0.7501372  0.1249111  )
        51           Al  tau(  51) = (  0.0000506  0.8773065  0.1228389  )
        52           Al  tau(  52) = (  0.0000067  0.7508325  0.2491654  )
        53           Al  tau(  53) = (  0.1249209  0.8752037  0.2498273  )
        54           Al  tau(  54) = (  0.1249195  0.7499930  0.3748808  )
        55           Al  tau(  55) = (  0.0000320  0.8750753  0.3750051  )
        56           Al  tau(  56) = (  0.9999997  0.7499682  0.5000021  )
        57           Al  tau(  57) = (  0.1250346  0.8749900  0.4999722  )
        58           Al  tau(  58) = (  0.1249212  0.7499870  0.6250710  )
        59           Al  tau(  59) = (  0.0000030  0.8750306  0.6249647  )
        60           Al  tau(  60) = (  0.0000013  0.7508340  0.7508305  )
        61           Al  tau(  61) = (  0.1249038  0.8751191  0.7501680  )
        62           Al  tau(  62) = (  0.1249091  0.7501435  0.8751316  )
        63           Al  tau(  63) = (  0.0000370  0.8772102  0.8771842  )
        64           Al  tau(  64) = (  0.2497065  0.0002120  0.0000692  )
        65           Al  tau(  65) = (  0.3748105  0.1250290  0.0000720  )
        66           Al  tau(  66) = (  0.3747555  0.0002903  0.1249756  )
        67           Al  tau(  67) = (  0.2490775  0.1256498  0.1248987  )
        68           Al  tau(  68) = (  0.2490750  0.0002445  0.2490750  )
        69           Al  tau(  69) = (  0.3747188  0.1249835  0.2499458  )
        70           Al  tau(  70) = (  0.3749494  0.9999404  0.3749494  )
        71           Al  tau(  71) = (  0.2499458  0.1249835  0.3747188  )
        72           Al  tau(  72) = (  0.2500003  0.0000292  0.4999693  )
        73           Al  tau(  73) = (  0.3749935  0.1250403  0.4999630  )
        74           Al  tau(  74) = (  0.3748902  0.0000056  0.6251022  )
        75           Al  tau(  75) = (  0.2500034  0.1249252  0.6250770  )
        76           Al  tau(  76) = (  0.2491428  0.0000439  0.7508681  )
        77           Al  tau(  77) = (  0.3748956  0.1249487  0.7500276  )
        78           Al  tau(  78) = (  0.3750810  0.9999587  0.8749835  )
        79           Al  tau(  79) = (  0.2497676  0.1249745  0.8753370  )
        80           Al  tau(  80) = (  0.2483438  0.2491093  0.0007866  )
        81           Al  tau(  81) = (  0.3746531  0.3748194  0.0000748  )
        82           Al  tau(  82) = (  0.3745498  0.2500092  0.1249212  )
        83           Al  tau(  83) = (  0.2492675  0.3741590  0.1249051  )
        84           Al  tau(  84) = (  0.2493867  0.2500818  0.2493867  )
        85           Al  tau(  85) = (  0.3747667  0.3749352  0.2499091  )
        86           Al  tau(  86) = (  0.3747271  0.2499856  0.3747271  )
        87           Al  tau(  87) = (  0.2499091  0.3749352  0.3747667  )
        88           Al  tau(  88) = (  0.2499446  0.2499871  0.4998901  )
        89           Al  tau(  89) = (  0.3749520  0.3749576  0.4999674  )
        90           Al  tau(  90) = (  0.3749797  0.2499811  0.6249796  )
        91           Al  tau(  91) = (  0.2499730  0.3750137  0.6249796  )
        92           Al  tau(  92) = (  0.2501122  0.2501465  0.7499661  )
        93           Al  tau(  93) = (  0.3749843  0.3749855  0.7500626  )
        94           Al  tau(  94) = (  0.3746319  0.2499939  0.8753711  )
        95           Al  tau(  95) = (  0.2499374  0.3748586  0.8753024  )
        96           Al  tau(  96) = (  0.2499616  0.4997652  0.0000682  )
        97           Al  tau(  97) = (  0.3748649  0.6250713  0.0000281  )
        98           Al  tau(  98) = (  0.3747327  0.4997115  0.1250116  )
        99           Al  tau(  99) = (  0.2499667  0.6249489  0.1249209  )
       100           Al  tau( 100) = (  0.2499150  0.4997594  0.2499150  )
       101           Al  tau( 101) = (  0.3749897  0.6249462  0.2499502  )
       102           Al  tau( 102) = (  0.3750311  0.5000505  0.3750311  )
       103           Al  tau( 103) = (  0.2499502  0.6249462  0.3749897  )
       104           Al  tau( 104) = (  0.2500328  0.4999659  0.4999632  )
       105           Al  tau( 105) = (  0.3749705  0.6250306  0.5000068  )
       106           Al  tau( 106) = (  0.3749675  0.4999863  0.6250239  )
       107           Al  tau( 107) = (  0.2499826  0.6249838  0.6249802  )
       108           Al  tau( 108) = (  0.2499546  0.4999716  0.7500527  )
       109           Al  tau( 109) = (  0.3750152  0.6249901  0.7500088  )
       110           Al  tau( 110) = (  0.3750708  0.5000466  0.8749425  )
       111           Al  tau( 111) = (  0.2499841  0.6250403  0.8751077  )
       112           Al  tau( 112) = (  0.2491654  0.7508325  0.0000067  )
       113           Al  tau( 113) = (  0.3750051  0.8750753  0.0000320  )
       114           Al  tau( 114) = (  0.3748808  0.7499930  0.1249195  )
       115           Al  tau( 115) = (  0.2498273  0.8752037  0.1249209  )
       116           Al  tau( 116) = (  0.2501551  0.7498380  0.2501551  )
       117           Al  tau( 117) = (  0.3749030  0.8751128  0.2499942  )
       118           Al  tau( 118) = (  0.3750141  0.7500142  0.3750141  )
       119           Al  tau( 119) = (  0.2499942  0.8751128  0.3749030  )
       120           Al  tau( 120) = (  0.2499830  0.7500174  0.5000026  )
       121           Al  tau( 121) = (  0.3750159  0.8749761  0.5000133  )
       122           Al  tau( 122) = (  0.3750243  0.7500234  0.6249829  )
       123           Al  tau( 123) = (  0.2500039  0.8750787  0.6250813  )
       124           Al  tau( 124) = (  0.2501494  0.7498463  0.7498418  )
       125           Al  tau( 125) = (  0.3749132  0.8750771  0.7499861  )
       126           Al  tau( 126) = (  0.3749147  0.7499892  0.8750935  )
       127           Al  tau( 127) = (  0.2498434  0.8751185  0.8751222  )
       128           Al  tau( 128) = (  0.4999620  0.0000296  0.0000286  )
       129           Al  tau( 129) = (  0.6249591  0.1249726  0.0000065  )
       130           Al  tau( 130) = (  0.6249613  0.0000412  0.1249661  )
       131           Al  tau( 131) = (  0.4998902  0.1250781  0.1250351  )
       132           Al  tau( 132) = (  0.4999693  0.0000292  0.2500003  )
       133           Al  tau( 133) = (  0.6250770  0.1249252  0.2500034  )
       134           Al  tau( 134) = (  0.6251022  0.0000056  0.3748902  )
       135           Al  tau( 135) = (  0.4999630  0.1250403  0.3749935  )
       136           Al  tau( 136) = (  0.5000073  0.0000086  0.5000073  )
       137           Al  tau( 137) = (  0.6249826  0.1250131  0.5000018  )
       138           Al  tau( 138) = (  0.6251095  0.9999972  0.6251095  )
       139           Al  tau( 139) = (  0.5000018  0.1250131  0.6249826  )
       140           Al  tau( 140) = (  0.5000085  0.0000053  0.7499632  )
       141           Al  tau( 141) = (  0.6250742  0.1249209  0.7499843  )
       142           Al  tau( 142) = (  0.6249564  0.0000075  0.8750406  )
       143           Al  tau( 143) = (  0.4999631  0.1250643  0.8749954  )
       144           Al  tau( 144) = (  0.4998846  0.2500274  0.0000428  )
       145           Al  tau( 145) = (  0.6251000  0.3748890  0.0000071  )
       146           Al  tau( 146) = (  0.6250773  0.2500088  0.1249192  )
       147           Al  tau( 147) = (  0.4998777  0.3749768  0.1250119  )
       148           Al  tau( 148) = (  0.4998901  0.2499871  0.2499446  )
       149           Al  tau( 149) = (  0.6249796  0.3750137  0.2499730  )
       150           Al  tau( 150) = (  0.6249796  0.2499811  0.3749797  )
       151           Al  tau( 151) = (  0.4999674  0.3749576  0.3749520  )
       152           Al  tau( 152) = (  0.4999697  0.2500571  0.4999697  )
       153           Al  tau( 153) = (  0.6250178  0.3749758  0.5000037  )
       154           Al  tau( 154) = (  0.6249820  0.2499781  0.6249820  )
       155           Al  tau( 155) = (  0.5000037  0.3749758  0.6250178  )
       156           Al  tau( 156) = (  0.4999754  0.2499889  0.7500398  )
       157           Al  tau( 157) = (  0.6249783  0.3750208  0.7500174  )
       158           Al  tau( 158) = (  0.6250727  0.2500077  0.8751221  )
       159           Al  tau( 159) = (  0.4999566  0.3749933  0.8750199  )
       160           Al  tau( 160) = (  0.4999697  0.4999745  0.0000244  )
       161           Al  tau( 161) = (  0.6251022  0.6251078  0.9999982  )
       162           Al  tau( 162) = (  0.6249807  0.4999629  0.1250136  )
       163           Al  tau( 163) = (  0.4999739  0.6249525  0.1250152  )
       164           Al  tau( 164) = (  0.4999632  0.4999659  0.2500328  )
       165           Al  tau( 165) = (  0.6249802  0.6249838  0.2499826  )
       166           Al  tau( 166) = (  0.6250239  0.4999863  0.3749675  )
       167           Al  tau( 167) = (  0.5000068  0.6250306  0.3749705  )
       168           Al  tau( 168) = (  0.5000120  0.5000004  0.5000120  )
       169           Al  tau( 169) = (  0.6250214  0.6250074  0.4999844  )
       170           Al  tau( 170) = (  0.6250212  0.5000091  0.6250212  )
       171           Al  tau( 171) = (  0.4999844  0.6250074  0.6250214  )
       172           Al  tau( 172) = (  0.5000065  0.4999913  0.7499297  )
       173           Al  tau( 173) = (  0.6249823  0.6249666  0.7500388  )
       174           Al  tau( 174) = (  0.6249809  0.4999880  0.8749968  )
       175           Al  tau( 175) = (  0.5000081  0.6249890  0.8749871  )
       176           Al  tau( 176) = (  0.5000021  0.7499682  0.9999997  )
       177           Al  tau( 177) = (  0.6249647  0.8750306  0.0000030  )
       178           Al  tau( 178) = (  0.6250710  0.7499870  0.1249212  )
       179           Al  tau( 179) = (  0.4999722  0.8749900  0.1250346  )
       180           Al  tau( 180) = (  0.5000026  0.7500174  0.2499830  )
       181           Al  tau( 181) = (  0.6250813  0.8750787  0.2500039  )
       182           Al  tau( 182) = (  0.6249829  0.7500234  0.3750243  )
       183           Al  tau( 183) = (  0.5000133  0.8749761  0.3750159  )
       184           Al  tau( 184) = (  0.4999847  0.7499385  0.4999847  )
       185           Al  tau( 185) = (  0.6249792  0.8750043  0.4999890  )
       186           Al  tau( 186) = (  0.6249788  0.7500168  0.6249788  )
       187           Al  tau( 187) = (  0.4999890  0.8750043  0.6249792  )
       188           Al  tau( 188) = (  0.4999830  0.7500191  0.7500341  )
       189           Al  tau( 189) = (  0.6250683  0.8750897  0.7500033  )
       190           Al  tau( 190) = (  0.6250787  0.7499965  0.8750776  )
       191           Al  tau( 191) = (  0.5000075  0.8749549  0.8749725  )
       192           Al  tau( 192) = (  0.7502477  0.0000240  0.0000141  )
       193           Al  tau( 193) = (  0.8773893  0.1229087  0.0000799  )
       194           Al  tau( 194) = (  0.8774529  0.0002997  0.1228356  )
       195           Al  tau( 195) = (  0.7502487  0.1249527  0.1249052  )
       196           Al  tau( 196) = (  0.7508681  0.0000439  0.2491428  )
       197           Al  tau( 197) = (  0.8753370  0.1249745  0.2497676  )
       198           Al  tau( 198) = (  0.8749835  0.9999587  0.3750810  )
       199           Al  tau( 199) = (  0.7500276  0.1249487  0.3748956  )
       200           Al  tau( 200) = (  0.7499632  0.0000053  0.5000085  )
       201           Al  tau( 201) = (  0.8749954  0.1250643  0.4999631  )
       202           Al  tau( 202) = (  0.8750406  0.0000075  0.6249564  )
       203           Al  tau( 203) = (  0.7499843  0.1249209  0.6250742  )
       204           Al  tau( 204) = (  0.7508260  0.9999936  0.7508260  )
       205           Al  tau( 205) = (  0.8751131  0.1249293  0.7501616  )
       206           Al  tau( 206) = (  0.8771960  0.0000098  0.8771960  )
       207           Al  tau( 207) = (  0.7501616  0.1249293  0.8751131  )
       208           Al  tau( 208) = (  0.7509463  0.2491672  0.0000382  )
       209           Al  tau( 209) = (  0.8752569  0.3749614  0.0000620  )
       210           Al  tau( 210) = (  0.8754797  0.2498574  0.1249036  )
       211           Al  tau( 211) = (  0.7501095  0.3748795  0.1249171  )
       212           Al  tau( 212) = (  0.7499661  0.2501465  0.2501122  )
       213           Al  tau( 213) = (  0.8753024  0.3748586  0.2499374  )
       214           Al  tau( 214) = (  0.8753711  0.2499939  0.3746319  )
       215           Al  tau( 215) = (  0.7500626  0.3749855  0.3749843  )
       216           Al  tau( 216) = (  0.7500398  0.2499889  0.4999754  )
       217           Al  tau( 217) = (  0.8750199  0.3749933  0.4999566  )
       218           Al  tau( 218) = (  0.8751221  0.2500077  0.6250727  )
       219           Al  tau( 219) = (  0.7500174  0.3750208  0.6249783  )
       220           Al  tau( 220) = (  0.7498687  0.2501629  0.7498687  )
       221           Al  tau( 221) = (  0.8751032  0.3748967  0.7500240  )
       222           Al  tau( 222) = (  0.8754017  0.2498458  0.8754017  )
       223           Al  tau( 223) = (  0.7500240  0.3748967  0.8751032  )
       224           Al  tau( 224) = (  0.7500114  0.4999696  0.0000274  )
       225           Al  tau( 225) = (  0.8750619  0.6249338  0.0000258  )
       226           Al  tau( 226) = (  0.8752483  0.4997157  0.1250365  )
       227           Al  tau( 227) = (  0.7500180  0.6250485  0.1249180  )
       228           Al  tau( 228) = (  0.7500527  0.4999716  0.2499546  )
       229           Al  tau( 229) = (  0.8751077  0.6250403  0.2499841  )
       230           Al  tau( 230) = (  0.8749425  0.5000466  0.3750708  )
       231           Al  tau( 231) = (  0.7500088  0.6249901  0.3750152  )
       232           Al  tau( 232) = (  0.7499297  0.4999913  0.5000065  )
       233           Al  tau( 233) = (  0.8749871  0.6249890  0.5000081  )
       234           Al  tau( 234) = (  0.8749968  0.4999880  0.6249809  )
       235           Al  tau( 235) = (  0.7500388  0.6249666  0.6249823  )
       236           Al  tau( 236) = (  0.7500052  0.4999978  0.7500052  )
       237           Al  tau( 237) = (  0.8750879  0.6250854  0.7499800  )
       238           Al  tau( 238) = (  0.8749111  0.5000500  0.8749111  )
       239           Al  tau( 239) = (  0.7499800  0.6250854  0.8750879  )
       240           Al  tau( 240) = (  0.7508305  0.7508340  0.0000013  )
       241           Al  tau( 241) = (  0.8771842  0.8772102  0.0000370  )
       242           Al  tau( 242) = (  0.8751316  0.7501435  0.1249091  )
       243           Al  tau( 243) = (  0.7501680  0.8751191  0.1249038  )
       244           Al  tau( 244) = (  0.7498418  0.7498463  0.2501494  )
       245           Al  tau( 245) = (  0.8751222  0.8751185  0.2498434  )
       246           Al  tau( 246) = (  0.8750935  0.7499892  0.3749147  )
       247           Al  tau( 247) = (  0.7499861  0.8750771  0.3749132  )
       248           Al  tau( 248) = (  0.7500341  0.7500191  0.4999830  )
       249           Al  tau( 249) = (  0.8749725  0.8749549  0.5000075  )
       250           Al  tau( 250) = (  0.8750776  0.7499965  0.6250787  )
       251           Al  tau( 251) = (  0.7500033  0.8750897  0.6250683  )
       252           Al  tau( 252) = (  0.7498526  0.7498394  0.7498526  )
       253           Al  tau( 253) = (  0.8750873  0.8750931  0.7501443  )
       254           Al  tau( 254) = (  0.8750958  0.7501334  0.8750958  )
       255           Al  tau( 255) = (  0.7501443  0.8750931  0.8750873  )

     number of k points=    63  Methfessel-Paxton smearing, width (Ry)=  0.0441
                       cart. coord. in units 2pi/alat
        k(    1) = (   0.0000000   0.0000000   0.0000000), wk =   0.0160000
        k(    2) = (   0.0000000   0.0000000   0.2000000), wk =   0.0320000
        k(    3) = (   0.0000000   0.0000000   0.4000000), wk =   0.0320000
        k(    4) = (   0.0000000   0.2000000   0.0000000), wk =   0.0320000
        k(    5) = (   0.0000000   0.2000000   0.2000000), wk =   0.0320000
        k(    6) = (   0.0000000   0.2000000   0.4000000), wk =   0.0320000
        k(    7) = (   0.0000000   0.2000000  -0.4000000), wk =   0.0320000
        k(    8) = (   0.0000000   0.2000000  -0.2000000), wk =   0.0320000
        k(    9) = (   0.0000000   0.4000000   0.0000000), wk =   0.0320000
        k(   10) = (   0.0000000   0.4000000   0.2000000), wk =   0.0320000
        k(   11) = (   0.0000000   0.4000000   0.4000000), wk =   0.0320000
        k(   12) = (   0.0000000   0.4000000  -0.4000000), wk =   0.0320000
        k(   13) = (   0.0000000   0.4000000  -0.2000000), wk =   0.0320000
        k(   14) = (   0.2000000   0.0000000   0.0000000), wk =   0.0320000
        k(   15) = (   0.2000000   0.0000000   0.2000000), wk =   0.0320000
        k(   16) = (   0.2000000   0.0000000   0.4000000), wk =   0.0320000
        k(   17) = (   0.2000000   0.0000000  -0.4000000), wk =   0.0320000
        k(   18) = (   0.2000000   0.0000000  -0.2000000), wk =   0.0320000
        k(   19) = (   0.2000000   0.2000000   0.0000000), wk =   0.0320000
        k(   20) = (   0.2000000   0.2000000   0.2000000), wk =   0.0320000
        k(   21) = (   0.2000000   0.2000000   0.4000000), wk =   0.0320000
        k(   22) = (   0.2000000   0.2000000  -0.4000000), wk =   0.0320000
        k(   23) = (   0.2000000   0.2000000  -0.2000000), wk =   0.0320000
        k(   24) = (   0.2000000   0.4000000   0.0000000), wk =   0.0320000
        k(   25) = (   0.2000000   0.4000000   0.2000000), wk =   0.0320000
        k(   26) = (   0.2000000   0.4000000   0.4000000), wk =   0.0320000
        k(   27) = (   0.2000000   0.4000000  -0.4000000), wk =   0.0320000
        k(   28) = (   0.2000000   0.4000000  -0.2000000), wk =   0.0320000
        k(   29) = (   0.2000000  -0.4000000   0.0000000), wk =   0.0320000
        k(   30) = (   0.2000000  -0.4000000   0.2000000), wk =   0.0320000
        k(   31) = (   0.2000000  -0.4000000   0.4000000), wk =   0.0320000
        k(   32) = (   0.2000000  -0.4000000  -0.4000000), wk =   0.0320000
        k(   33) = (   0.2000000  -0.4000000  -0.2000000), wk =   0.0320000
        k(   34) = (   0.2000000  -0.2000000   0.0000000), wk =   0.0320000
        k(   35) = (   0.2000000  -0.2000000   0.2000000), wk =   0.0320000
        k(   36) = (   0.2000000  -0.2000000   0.4000000), wk =   0.0320000
        k(   37) = (   0.2000000  -0.2000000  -0.4000000), wk =   0.0320000
        k(   38) = (   0.2000000  -0.2000000  -0.2000000), wk =   0.0320000
        k(   39) = (   0.4000000   0.0000000   0.0000000), wk =   0.0320000
        k(   40) = (   0.4000000   0.0000000   0.2000000), wk =   0.0320000
        k(   41) = (   0.4000000   0.0000000   0.4000000), wk =   0.0320000
        k(   42) = (   0.4000000   0.0000000  -0.4000000), wk =   0.0320000
        k(   43) = (   0.4000000   0.0000000  -0.2000000), wk =   0.0320000
        k(   44) = (   0.4000000   0.2000000   0.0000000), wk =   0.0320000
        k(   45) = (   0.4000000   0.2000000   0.2000000), wk =   0.0320000
        k(   46) = (   0.4000000   0.2000000   0.4000000), wk =   0.0320000
        k(   47) = (   0.4000000   0.2000000  -0.4000000), wk =   0.0320000
        k(   48) = (   0.4000000   0.2000000  -0.2000000), wk =   0.0320000
        k(   49) = (   0.4000000   0.4000000   0.0000000), wk =   0.0320000
        k(   50) = (   0.4000000   0.4000000   0.2000000), wk =   0.0320000
        k(   51) = (   0.4000000   0.4000000   0.4000000), wk =   0.0320000
        k(   52) = (   0.4000000   0.4000000  -0.4000000), wk =   0.0320000
        k(   53) = (   0.4000000   0.4000000  -0.2000000), wk =   0.0320000
        k(   54) = (   0.4000000  -0.4000000   0.0000000), wk =   0.0320000
        k(   55) = (   0.4000000  -0.4000000   0.2000000), wk =   0.0320000
        k(   56) = (   0.4000000  -0.4000000   0.4000000), wk =   0.0320000
        k(   57) = (   0.4000000  -0.4000000  -0.4000000), wk =   0.0320000
        k(   58) = (   0.4000000  -0.4000000  -0.2000000), wk =   0.0320000
        k(   59) = (   0.4000000  -0.2000000   0.0000000), wk =   0.0320000
        k(   60) = (   0.4000000  -0.2000000   0.2000000), wk =   0.0320000
        k(   61) = (   0.4000000  -0.2000000   0.4000000), wk =   0.0320000
        k(   62) = (   0.4000000  -0.2000000  -0.4000000), wk =   0.0320000
        k(   63) = (   0.4000000  -0.2000000  -0.2000000), wk =   0.0320000

                       cryst. coord.
        k(    1) = (   0.0000000   0.0000000   0.0000000), wk =   0.0160000
        k(    2) = (   0.0000000   0.0000000   0.2000000), wk =   0.0320000
        k(    3) = (   0.0000000   0.0000000   0.4000000), wk =   0.0320000
        k(    4) = (   0.0000000   0.2000000   0.0000000), wk =   0.0320000
        k(    5) = (   0.0000000   0.2000000   0.2000000), wk =   0.0320000
        k(    6) = (   0.0000000   0.2000000   0.4000000), wk =   0.0320000
        k(    7) = (   0.0000000   0.2000000  -0.4000000), wk =   0.0320000
        k(    8) = (   0.0000000   0.2000000  -0.2000000), wk =   0.0320000
        k(    9) = (   0.0000000   0.4000000   0.0000000), wk =   0.0320000
        k(   10) = (   0.0000000   0.4000000   0.2000000), wk =   0.0320000
        k(   11) = (   0.0000000   0.4000000   0.4000000), wk =   0.0320000
        k(   12) = (   0.0000000   0.4000000  -0.4000000), wk =   0.0320000
        k(   13) = (   0.0000000   0.4000000  -0.2000000), wk =   0.0320000
        k(   14) = (   0.2000000   0.0000000   0.0000000), wk =   0.0320000
        k(   15) = (   0.2000000   0.0000000   0.2000000), wk =   0.0320000
        k(   16) = (   0.2000000   0.0000000   0.4000000), wk =   0.0320000
        k(   17) = (   0.2000000   0.0000000  -0.4000000), wk =   0.0320000
        k(   18) = (   0.2000000   0.0000000  -0.2000000), wk =   0.0320000
        k(   19) = (   0.2000000   0.2000000   0.0000000), wk =   0.0320000
        k(   20) = (   0.2000000   0.2000000   0.2000000), wk =   0.0320000
        k(   21) = (   0.2000000   0.2000000   0.4000000), wk =   0.0320000
        k(   22) = (   0.2000000   0.2000000  -0.4000000), wk =   0.0320000
        k(   23) = (   0.2000000   0.2000000  -0.2000000), wk =   0.0320000
        k(   24) = (   0.2000000   0.4000000   0.0000000), wk =   0.0320000
        k(   25) = (   0.2000000   0.4000000   0.2000000), wk =   0.0320000
        k(   26) = (   0.2000000   0.4000000   0.4000000), wk =   0.0320000
        k(   27) = (   0.2000000   0.4000000  -0.4000000), wk =   0.0320000
        k(   28) = (   0.2000000   0.4000000  -0.2000000), wk =   0.0320000
        k(   29) = (   0.2000000  -0.4000000   0.0000000), wk =   0.0320000
        k(   30) = (   0.2000000  -0.4000000   0.2000000), wk =   0.0320000
        k(   31) = (   0.2000000  -0.4000000   0.4000000), wk =   0.0320000
        k(   32) = (   0.2000000  -0.4000000  -0.4000000), wk =   0.0320000
        k(   33) = (   0.2000000  -0.4000000  -0.2000000), wk =   0.0320000
        k(   34) = (   0.2000000  -0.2000000   0.0000000), wk =   0.0320000
        k(   35) = (   0.2000000  -0.2000000   0.2000000), wk =   0.0320000
        k(   36) = (   0.2000000  -0.2000000   0.4000000), wk =   0.0320000
        k(   37) = (   0.2000000  -0.2000000  -0.4000000), wk =   0.0320000
        k(   38) = (   0.2000000  -0.2000000  -0.2000000), wk =   0.0320000
        k(   39) = (   0.4000000   0.0000000   0.0000000), wk =   0.0320000
        k(   40) = (   0.4000000   0.0000000   0.2000000), wk =   0.0320000
        k(   41) = (   0.4000000   0.0000000   0.4000000), wk =   0.0320000
        k(   42) = (   0.4000000   0.0000000  -0.4000000), wk =   0.0320000
        k(   43) = (   0.4000000   0.0000000  -0.2000000), wk =   0.0320000
        k(   44) = (   0.4000000   0.2000000   0.0000000), wk =   0.0320000
        k(   45) = (   0.4000000   0.2000000   0.2000000), wk =   0.0320000
        k(   46) = (   0.4000000   0.2000000   0.4000000), wk =   0.0320000
        k(   47) = (   0.4000000   0.2000000  -0.4000000), wk =   0.0320000
        k(   48) = (   0.4000000   0.2000000  -0.2000000), wk =   0.0320000
        k(   49) = (   0.4000000   0.4000000   0.0000000), wk =   0.0320000
        k(   50) = (   0.4000000   0.4000000   0.2000000), wk =   0.0320000
        k(   51) = (   0.4000000   0.4000000   0.4000000), wk =   0.0320000
        k(   52) = (   0.4000000   0.4000000  -0.4000000), wk =   0.0320000
        k(   53) = (   0.4000000   0.4000000  -0.2000000), wk =   0.0320000
        k(   54) = (   0.4000000  -0.4000000   0.0000000), wk =   0.0320000
        k(   55) = (   0.4000000  -0.4000000   0.2000000), wk =   0.0320000
        k(   56) = (   0.4000000  -0.4000000   0.4000000), wk =   0.0320000
        k(   57) = (   0.4000000  -0.4000000  -0.4000000), wk =   0.0320000
        k(   58) = (   0.4000000  -0.4000000  -0.2000000), wk =   0.0320000
        k(   59) = (   0.4000000  -0.2000000   0.0000000), wk =   0.0320000
        k(   60) = (   0.4000000  -0.2000000   0.2000000), wk =   0.0320000
        k(   61) = (   0.4000000  -0.2000000   0.4000000), wk =   0.0320000
        k(   62) = (   0.4000000  -0.2000000  -0.4000000), wk =   0.0320000
        k(   63) = (   0.4000000  -0.2000000  -0.2000000), wk =   0.0320000

     Dense  grid:  3895379 G-vectors     FFT dimensions: ( 200, 200, 200)

     Smooth grid:   985619 G-vectors     FFT dimensions: ( 125, 125, 125)

     Dynamical RAM for                 wfc:      96.08 MB

     Dynamical RAM for     wfc (w. buffer):    1633.42 MB

     Dynamical RAM for           str. fact:      13.21 MB

     Dynamical RAM for           local pot:       0.00 MB

     Dynamical RAM for          nlocal pot:     958.75 MB

     Dynamical RAM for                qrad:      15.65 MB

     Dynamical RAM for          rho,v,vnew:      40.87 MB

     Dynamical RAM for               rhoin:      13.62 MB

     Dynamical RAM for            rho*nmix:     105.67 MB

     Dynamical RAM for           G-vectors:      25.60 MB

     Dynamical RAM for          h,s,v(r/c):      38.75 MB

     Dynamical RAM for          <psi|beta>:      32.22 MB

     Dynamical RAM for                 psi:     384.33 MB

     Dynamical RAM for                hpsi:     384.33 MB

     Dynamical RAM for                spsi:     384.33 MB

     Dynamical RAM for      wfcinit/wfcrot:     449.93 MB

     Dynamical RAM for           addusdens:     731.43 MB

     Dynamical RAM for          addusforce:    1571.17 MB

     Dynamical RAM for         addusstress:     334.34 MB

     Estimated static dynamical RAM per process >       2.79 GB

     Estimated max dynamical RAM per process >       4.33 GB

     Estimated total dynamical RAM >     155.84 GB

     Initial potential from superposition of free atoms

     starting charge  765.41773, renormalised to  766.00000
     Starting wfcs are 1020 randomized atomic wfcs
