begin
comment 22 atoms, species Al6Mg8Si8
lattice     27.4003777073     0.0000000000    -8.1576893095
lattice      0.0000000000     7.7964677509     0.0000000000
lattice      0.0000000000     0.0000000000    12.5582741638
atom      0.0386751503     7.7953842292    12.4030360900   Al  0.0 0.0   -5.44999959e-07 -2.06449984e-05  2.64999980e-07
atom      2.0081231297     3.8961525989     3.6147828753   Mg  0.0 0.0   -4.48949966e-04  9.53999928e-06 -3.75399972e-05
atom      4.2387970488     3.8961983412    10.0533062897   Mg  0.0 0.0   -8.22374938e-04  2.47499981e-06 -3.27544975e-04
atom      9.5387478233     7.7945951738    -1.8843929530   Mg  0.0 0.0    8.23719938e-04 -2.36499982e-06  3.27854975e-04
atom     11.7694617669     7.7946380572     4.5542219462   Mg  0.0 0.0    4.48759966e-04 -9.34999930e-06  3.80549971e-05
atom      1.6198678469     7.7944951124     7.7252383474   Si  0.0 0.0   -2.52469981e-04 -4.51499966e-06 -4.34399967e-05
atom      5.0360860735     7.7942749774     1.0904602726   Si  0.0 0.0    4.55809966e-04  1.31849990e-05  4.23844968e-04
atom      6.0111727235     7.7945008302     5.8532015446   Al  0.0 0.0   -4.05799970e-04  8.20499938e-06 -5.94624955e-04
atom      7.7663121118     3.8962926848     2.3157289455   Al  0.0 0.0    4.05329970e-04 -8.24999938e-06  5.93444955e-04
atom      8.7412929826     3.8965242554     7.0784301930   Si  0.0 0.0   -4.56174966e-04 -1.31749990e-05 -4.24624968e-04
atom     12.1575512338     3.8963012615     0.4436921427   Si  0.0 0.0    2.52769981e-04  4.53999966e-06  4.43249967e-05
atom     13.7388697218     3.8954121447     8.3242000119   Al  0.0 0.0   -5.39999959e-07  2.04999985e-05  3.34999975e-07
atom     15.7083177011     7.7946380572    -0.4640560617   Mg  0.0 0.0   -4.49024966e-04 -9.41499929e-06 -3.73449972e-05
atom     17.9389887613     7.7945951738     5.9744673527   Mg  0.0 0.0   -8.22444938e-04 -2.28499983e-06 -3.27724975e-04
atom     23.2389423947     3.8961983412    -5.9632290310   Mg  0.0 0.0    8.23769938e-04  2.38499982e-06  3.27934975e-04
atom     25.4696534794     3.8961525989     0.4753858681   Mg  0.0 0.0    4.48759966e-04  9.45499929e-06  3.79149972e-05
atom     15.3200595594     3.8963012615     3.6464022693   Si  0.0 0.0   -2.52319981e-04  4.31499968e-06 -4.35899967e-05
atom     18.7362777860     3.8965242554    -2.9883786644   Si  0.0 0.0    4.55679966e-04 -1.35149990e-05  4.23979968e-04
atom     19.7113672949     3.8962926848     1.7743626077   Al  0.0 0.0   -4.06169969e-04 -8.32499937e-06 -5.94719955e-04
atom     21.4665038243     7.7945008302    -1.7631099915   Al  0.0 0.0    4.05714970e-04  8.28499938e-06  5.93579955e-04
atom     22.4414846951     7.7942749774     2.9995912560   Si  0.0 0.0   -4.56084966e-04  1.35049990e-05 -4.24704968e-04
atom     25.8577429463     7.7944951124    -3.6351467942   Si  0.0 0.0    2.52579981e-04 -4.54999966e-06  4.43249967e-05
energy -2.986841435790316e+02
charge 0.0000
end
