begin
comment uuid: 2f98b6fb-a759-4312-9d52-9cb5c6d6c8aa 
lattice 7.4075640380 0.0000000000 0.0000000000
lattice 0.0000000000 7.4075640380 0.0000000000
lattice 0.0000000000 0.0000000000 7.4075640380
atom   0.000000    0.000000   0.000000 Al  0.0   0.0  -0.0000000000  -0.0000000000  0.0000000000
atom   0.000000    3.703782   3.703782 Al  0.0   0.0  0.0000000000  -0.0000000000  0.0000000000
atom   3.703782    0.000000   3.703782 Al  0.0   0.0  0.0000000000  0.0000000000  -0.0000000000
atom   3.703782    3.703782   0.000000 Al  0.0   0.0  0.0000000000  0.0000000000  -0.0000000000
energy -79.000369000000020
charge 0.000000000000000
end
begin
comment uuid: d5a7b6b5-43b9-47da-841d-e30da4d6fb41 
lattice 7.4648390177 0.0000000000 0.0000000000
lattice 0.0000000000 7.4648390177 0.0000000000
lattice 0.0000000000 0.0000000000 7.4648390177
atom   0.000000    0.000000   0.000000 Al  0.0   0.0  -0.0000000050  -0.0000000050  -0.0000000000
atom   0.000000    3.732420   3.732420 Al  0.0   0.0  0.0000000000  -0.0000000000  0.0000000000
atom   3.732420    0.000000   3.732420 Al  0.0   0.0  0.0000000000  0.0000000050  -0.0000000000
atom   3.732420    3.732420   0.000000 Al  0.0   0.0  0.0000000000  0.0000000000  -0.0000000000
energy -79.002746145000017
charge 0.000000000000000
end
begin
comment uuid: 16e68311-3287-47e4-b1c0-5726f06b8493 
lattice 7.5221139974 0.0000000000 0.0000000000
lattice 0.0000000000 7.5221139974 0.0000000000
lattice 0.0000000000 0.0000000000 7.5221139974
atom   0.000000    0.000000   0.000000 Al  0.0   0.0  -0.0000000050  -0.0000000050  0.0000000000
atom   0.000000    3.761057   3.761057 Al  0.0   0.0  0.0000000000  -0.0000000000  0.0000000000
atom   3.761057    0.000000   3.761057 Al  0.0   0.0  0.0000000000  0.0000000050  -0.0000000050
atom   3.761057    3.761057   0.000000 Al  0.0   0.0  0.0000000000  0.0000000000  0.0000000000
energy -79.004365075000024
charge 0.000000000000000
end
begin
comment uuid: 775c5302-fa25-46e7-a7a3-693894b5323e 
lattice 7.5793889771 0.0000000000 0.0000000000
lattice 0.0000000000 7.5793889771 0.0000000000
lattice 0.0000000000 0.0000000000 7.5793889771
atom   0.000000    0.000000   0.000000 Al  0.0   0.0  -0.0000000050  -0.0000000050  0.0000000000
atom   0.000000    3.789694   3.789694 Al  0.0   0.0  0.0000000050  -0.0000000050  0.0000000000
atom   3.789694    0.000000   3.789694 Al  0.0   0.0  0.0000000000  0.0000000050  -0.0000000050
atom   3.789694    3.789694   0.000000 Al  0.0   0.0  0.0000000000  0.0000000000  0.0000000000
energy -79.005278855000014
charge 0.000000000000000
end
begin
comment uuid: fe3a2460-85e2-41e4-b393-a1d84dc40e5a 
lattice 7.6366639567 0.0000000000 0.0000000000
lattice 0.0000000000 7.6366639567 0.0000000000
lattice 0.0000000000 0.0000000000 7.6366639567
atom   0.000000    0.000000   0.000000 Al  0.0   0.0  -0.0000000050  -0.0000000050  0.0000000000
atom   0.000000    3.818332   3.818332 Al  0.0   0.0  0.0000000050  -0.0000000050  0.0000000050
atom   3.818332    0.000000   3.818332 Al  0.0   0.0  0.0000000000  0.0000000050  -0.0000000050
atom   3.818332    3.818332   0.000000 Al  0.0   0.0  -0.0000000000  0.0000000000  0.0000000000
energy -79.005549690000009
charge 0.000000000000000
end
begin
comment uuid: 17720068-b8c5-4a29-9d72-3002740504b5 
lattice 7.6939389364 0.0000000000 0.0000000000
lattice 0.0000000000 7.6939389364 0.0000000000
lattice 0.0000000000 0.0000000000 7.6939389364
atom   0.000000    0.000000   0.000000 Al  0.0   0.0  0.0000000000  0.0000000000  -0.0000000000
atom   0.000000    3.846969   3.846969 Al  0.0   0.0  0.0000000000  -0.0000000050  0.0000000000
atom   3.846969    0.000000   3.846969 Al  0.0   0.0  -0.0000000000  0.0000000000  -0.0000000000
atom   3.846969    3.846969   0.000000 Al  0.0   0.0  -0.0000000000  0.0000000000  0.0000000000
energy -79.005223960000009
charge 0.000000000000000
end
begin
comment uuid: 10d59582-e523-4ea7-aa4b-5e4580c4ff31 
lattice 7.7512139161 0.0000000000 0.0000000000
lattice 0.0000000000 7.7512139161 0.0000000000
lattice 0.0000000000 0.0000000000 7.7512139161
atom   0.000000    0.000000   0.000000 Al  0.0   0.0  -0.0000000050  0.0000000050  0.0000000050
atom   0.000000    3.875607   3.875607 Al  0.0   0.0  0.0000000100  -0.0000000100  0.0000000000
atom   3.875607    0.000000   3.875607 Al  0.0   0.0  -0.0000000000  0.0000000100  -0.0000000050
atom   3.875607    3.875607   0.000000 Al  0.0   0.0  -0.0000000000  -0.0000000050  0.0000000000
energy -79.004349865000023
charge 0.000000000000000
end
begin
comment uuid: 602575d7-3256-4fd1-9eae-a0e860d6f8df 
lattice 7.8084888958 0.0000000000 0.0000000000
lattice 0.0000000000 7.8084888958 0.0000000000
lattice 0.0000000000 0.0000000000 7.8084888958
atom   0.000000    0.000000   0.000000 Al  0.0   0.0  -0.0000000050  -0.0000000000  0.0000000000
atom   0.000000    3.904244   3.904244 Al  0.0   0.0  0.0000000050  -0.0000000050  0.0000000000
atom   3.904244    0.000000   3.904244 Al  0.0   0.0  -0.0000000000  0.0000000100  -0.0000000050
atom   3.904244    3.904244   0.000000 Al  0.0   0.0  -0.0000000000  -0.0000000000  -0.0000000000
energy -79.002972755000016
charge 0.000000000000000
end
begin
comment uuid: 5eb1efe8-c980-4b1b-abf2-2f414a646cd1 
lattice 7.8657638754 0.0000000000 0.0000000000
lattice 0.0000000000 7.8657638754 0.0000000000
lattice 0.0000000000 0.0000000000 7.8657638754
atom   0.000000    0.000000   0.000000 Al  0.0   0.0  -0.0000000050  0.0000000000  0.0000000000
atom   0.000000    3.932882   3.932882 Al  0.0   0.0  0.0000000050  -0.0000000050  0.0000000000
atom   3.932882    0.000000   3.932882 Al  0.0   0.0  0.0000000000  0.0000000050  -0.0000000050
atom   3.932882    3.932882   0.000000 Al  0.0   0.0  0.0000000000  -0.0000000000  0.0000000000
energy -79.001135425000015
charge 0.000000000000000
end
