begin
comment 4 atoms, species Al4
lattice      7.4075640380    -0.0000000000    -0.0000000000
lattice     -0.0000000000     7.4075640380    -0.0000000000
lattice     -0.0000000000    -0.0000000000     7.4075640380
atom      0.0000000000     0.0000000000     0.0000000000   Al  0.0 0.0    2.24231423e-13  2.24346108e-13  2.24242104e-13
atom     -0.0000000000     3.7037820190     3.7037820190   Al  0.0 0.0    2.24155856e-13 -2.24399516e-13 -2.23907820e-13
atom      3.7037820190    -0.0000000000     3.7037820190   Al  0.0 0.0   -2.24149379e-13  2.24371933e-13 -2.24527095e-13
atom      3.7037820190     3.7037820190    -0.0000000000   Al  0.0 0.0   -2.24207673e-13 -2.24247488e-13  2.24144229e-13
energy -7.900019336200450e+01
charge 0.0000
end
begin
comment 4 atoms, species Al4
lattice      7.4648390177    -0.0000000000    -0.0000000000
lattice     -0.0000000000     7.4648390177    -0.0000000000
lattice     -0.0000000000    -0.0000000000     7.4648390177
atom      0.0000000000     0.0000000000     0.0000000000   Al  0.0 0.0    1.94377296e-13  1.94103680e-13  1.94462145e-13
atom     -0.0000000000     3.7324195089     3.7324195089   Al  0.0 0.0    1.94353547e-13 -1.94377908e-13 -1.94507309e-13
atom      3.7324195089    -0.0000000000     3.7324195089   Al  0.0 0.0   -1.94434511e-13  1.94460139e-13 -1.94545120e-13
atom      3.7324195089     3.7324195089    -0.0000000000   Al  0.0 0.0   -1.94464738e-13 -1.94462932e-13  1.94563092e-13
energy -7.900257054814259e+01
charge 0.0000
end
begin
comment 4 atoms, species Al4
lattice      7.5221139974    -0.0000000000    -0.0000000000
lattice     -0.0000000000     7.5221139974    -0.0000000000
lattice     -0.0000000000    -0.0000000000     7.5221139974
atom      0.0000000000     0.0000000000     0.0000000000   Al  0.0 0.0    1.67668891e-13  1.67712192e-13  1.67546516e-13
atom     -0.0000000000     3.7610569987     3.7610569987   Al  0.0 0.0    1.67788718e-13 -1.67756284e-13 -1.67599478e-13
atom      3.7610569987    -0.0000000000     3.7610569987   Al  0.0 0.0   -1.67748776e-13  1.67794108e-13 -1.67759162e-13
atom      3.7610569987     3.7610569987    -0.0000000000   Al  0.0 0.0   -1.67745537e-13 -1.67738647e-13  1.68010214e-13
energy -7.900421379564376e+01
charge 0.0000
end
begin
comment 4 atoms, species Al4
lattice      7.5793889771    -0.0000000000    -0.0000000000
lattice     -0.0000000000     7.5793889771    -0.0000000000
lattice     -0.0000000000    -0.0000000000     7.5793889771
atom      0.0000000000     0.0000000000     0.0000000000   Al  0.0 0.0    1.44074902e-13  1.44243987e-13  1.44208935e-13
atom     -0.0000000000     3.7896944885     3.7896944885   Al  0.0 0.0    1.44147230e-13 -1.44104256e-13 -1.44147695e-13
atom      3.7896944885    -0.0000000000     3.7896944885   Al  0.0 0.0   -1.44151548e-13  1.44164592e-13 -1.44272785e-13
atom      3.7896944885     3.7896944885    -0.0000000000   Al  0.0 0.0   -1.44104049e-13 -1.44157650e-13  1.44394210e-13
energy -7.900517610313256e+01
charge 0.0000
end
begin
comment 4 atoms, species Al4
lattice      7.6366639567    -0.0000000000    -0.0000000000
lattice     -0.0000000000     7.6366639567    -0.0000000000
lattice     -0.0000000000    -0.0000000000     7.6366639567
atom      0.0000000000     0.0000000000     0.0000000000   Al  0.0 0.0    1.22887162e-13  1.22871346e-13  1.22882292e-13
atom     -0.0000000000     3.8183319784     3.8183319784   Al  0.0 0.0    1.22899037e-13 -1.22944315e-13 -1.22895188e-13
atom      3.8183319784    -0.0000000000     3.8183319784   Al  0.0 0.0   -1.22926025e-13  1.22938783e-13 -1.22819241e-13
atom      3.8183319784     3.8183319784    -0.0000000000   Al  0.0 0.0   -1.22929264e-13 -1.22887733e-13  1.22806626e-13
energy -7.900549026734700e+01
charge 0.0000
end
begin
comment 4 atoms, species Al4
lattice      7.6939389364    -0.0000000000    -0.0000000000
lattice     -0.0000000000     7.6939389364    -0.0000000000
lattice     -0.0000000000    -0.0000000000     7.6939389364
atom      0.0000000000     0.0000000000     0.0000000000   Al  0.0 0.0    1.03950222e-13  1.03861706e-13  1.04043231e-13
atom     -0.0000000000     3.8469694682     3.8469694682   Al  0.0 0.0    1.03878974e-13 -1.03760948e-13 -1.03850825e-13
atom      3.8469694682    -0.0000000000     3.8469694682   Al  0.0 0.0   -1.03835793e-13  1.03886308e-13 -1.04050427e-13
atom      3.8469694682     3.8469694682    -0.0000000000   Al  0.0 0.0   -1.03830395e-13 -1.03840032e-13  1.03657209e-13
energy -7.900518985222629e+01
charge 0.0000
end
begin
comment 4 atoms, species Al4
lattice      7.7512139161    -0.0000000000    -0.0000000000
lattice     -0.0000000000     7.7512139161    -0.0000000000
lattice     -0.0000000000    -0.0000000000     7.7512139161
atom      0.0000000000     0.0000000000     0.0000000000   Al  0.0 0.0    8.68290343e-14  8.69671276e-14  8.64257615e-14
atom     -0.0000000000     3.8756069580     3.8756069580   Al  0.0 0.0    8.68441476e-14 -8.69491804e-14 -8.65893660e-14
atom      3.8756069580    -0.0000000000     3.8756069580   Al  0.0 0.0   -8.69207935e-14  8.69709818e-14 -8.67827735e-14
atom      3.8756069580     3.8756069580    -0.0000000000   Al  0.0 0.0   -8.68376705e-14 -8.69471522e-14  8.70379413e-14
energy -7.900432303801288e+01
charge 0.0000
end
begin
comment 4 atoms, species Al4
lattice      7.8084888958    -0.0000000000    -0.0000000000
lattice     -0.0000000000     7.8084888958    -0.0000000000
lattice     -0.0000000000    -0.0000000000     7.8084888958
atom      0.0000000000     0.0000000000     0.0000000000   Al  0.0 0.0    7.19068290e-14  7.19409493e-14  7.19494563e-14
atom     -0.0000000000     3.9042444479     3.9042444479   Al  0.0 0.0    7.18863181e-14 -7.18807239e-14 -7.18269673e-14
atom      3.9042444479    -0.0000000000     3.9042444479   Al  0.0 0.0   -7.18582506e-14  7.18797371e-14 -7.15929241e-14
atom      3.9042444479     3.9042444479    -0.0000000000   Al  0.0 0.0   -7.18604096e-14 -7.19109167e-14  7.18824084e-14
energy -7.900294813595167e+01
charge 0.0000
end
begin
comment 4 atoms, species Al4
lattice      7.8657638754    -0.0000000000    -0.0000000000
lattice     -0.0000000000     7.8657638754    -0.0000000000
lattice     -0.0000000000    -0.0000000000     7.8657638754
atom      0.0000000000     0.0000000000     0.0000000000   Al  0.0 0.0    5.86751520e-14  5.87361280e-14  5.86475230e-14
atom     -0.0000000000     3.9328819377     3.9328819377   Al  0.0 0.0    5.87064581e-14 -5.87269310e-14 -5.86930542e-14
atom      3.9328819377    -0.0000000000     3.9328819377   Al  0.0 0.0   -5.86562604e-14  5.86949629e-14 -5.84987085e-14
atom      3.9328819377     3.9328819377    -0.0000000000   Al  0.0 0.0   -5.86773110e-14 -5.87156129e-14  5.85930458e-14
energy -7.900112918344742e+01
charge 0.0000
end
