begin
comment 22 atoms, species Mg10Si12
lattice     26.8935816190     0.0000000000    -9.7346427643
lattice      0.0000000000     7.7112803996     0.0065496718
lattice      0.0000000000     0.0038611602    13.0913352590
atom      0.0380109774     0.0038554400    12.9261576845   Mg  0.0 0.0   -2.10999984e-06 -2.39999982e-07  5.14999961e-07
atom      2.1351215024     3.8567842473     3.9637097844   Mg  0.0 0.0   -2.17039984e-04 -2.37499982e-06  7.75999942e-06
atom      4.2470760435     3.8597930921    10.5340144763   Mg  0.0 0.0   -3.11854977e-04 -5.19999961e-07 -5.62899958e-05
atom      9.2756966791     7.7109715068    -2.6306570859   Mg  0.0 0.0    3.11909977e-04  5.29999960e-07  5.59749958e-05
atom     11.3875625565     0.0027085324     3.9332323597   Mg  0.0 0.0    2.17154984e-04  2.38499982e-06 -7.71999942e-06
atom      1.5901230263     0.0043845619     8.0357122428   Si  0.0 0.0    2.72399980e-05  1.22849991e-05  2.12154984e-04
atom      5.2154121271     0.0024597021     1.3371255075   Si  0.0 0.0   -4.89899963e-05  9.63999928e-06  5.22954961e-04
atom      5.6640846659     7.7129192476     6.0787589739   Si  0.0 0.0   -2.93839978e-04  4.47999966e-06 -3.03529977e-04
atom      7.8585021490     3.8578482114     1.8246699194   Si  0.0 0.0    2.94549978e-04 -4.43999967e-06  3.03614977e-04
atom      8.3072004289     3.8570330776     6.5597422735   Si  0.0 0.0    4.89849963e-05 -9.66499927e-06 -5.22884961e-04
atom     11.9324380475     3.8551082177    -0.1388416016   Si  0.0 0.0   -2.69499980e-05 -1.23099991e-05 -2.12364984e-04
atom     13.4847731857     3.8594927797     8.0620739567   Mg  0.0 0.0    1.09999992e-07  2.09999984e-07 -1.59999988e-07
atom     15.5821811631     7.7124158667    -0.9007171576   Mg  0.0 0.0   -2.23614983e-04 -2.72999979e-06  1.39699990e-05
atom     17.6939955583     0.0041586126     5.6634010975   Mg  0.0 0.0   -3.16374976e-04 -8.04999939e-07 -5.66299957e-05
atom     22.7223702238     3.8553341671    -7.5012247028   Mg  0.0 0.0    3.16024976e-04  7.94999940e-07  5.63949958e-05
atom     24.8340873750     3.8583487322    -0.9304252104   Mg  0.0 0.0    2.23734983e-04  2.74499979e-06 -1.38149990e-05
atom     15.0368852346     3.8600219016     3.1716656965   Si  0.0 0.0    3.38449975e-05  1.30799990e-05  2.07844984e-04
atom     18.6623631032     3.8580941816    -3.5270154227   Si  0.0 0.0   -5.29499960e-05  1.02399992e-05  5.21629961e-04
atom     19.1108039724     3.8572819079     1.2080712321   Si  0.0 0.0   -2.96754978e-04  4.57499966e-06 -3.00849977e-04
atom     21.3053673216     0.0022108717    -3.0458176141   Si  0.0 0.0    2.96529978e-04 -4.63499965e-06  3.01084977e-04
atom     21.7538367920     7.7126704173     1.6957986916   Si  0.0 0.0    5.32299960e-05 -1.01599992e-05 -5.21644961e-04
atom     25.3792603183     7.7107426973    -5.0028795675   Si  0.0 0.0   -3.28449975e-05 -1.30799990e-05 -2.08014984e-04
energy -2.365795977160670e+02
charge 0.0000
end
