
     Program PWSCF v.6.3 starts on 22Feb2020 at 14:12:28 

     This program is part of the open-source Quantum ESPRESSO suite
     for quantum simulation of materials; please cite
         "P. Giannozzi et al., J. Phys.:Condens. Matter 21 395502 (2009);
         "P. Giannozzi et al., J. Phys.:Condens. Matter 29 465901 (2017);
          URL http://www.quantum-espresso.org", 
     in publications or presentations arising from this work. More details at
     http://www.quantum-espresso.org/quote

 *** WARNING: using old-style file format, will disappear from next version ***

     Parallel version (MPI & OpenMP), running on      36 processor cores
     Number of MPI processes:                36
     Threads/MPI process:                     1

     MPI processes distributed on     1 nodes
     K-points division:     npool     =       4
     R & G space division:  proc/nbgrp/npool/nimage =       9
     Reading input from aiida.in
Warning: card &IONS ignored
Warning: card   !PRESS_CONV_THR = 0.05                 ! JUST FOR VOLUME RELAXATIONS ignored
Warning: card / ignored

     Current dimensions of program PWSCF are:
     Max number of different atomic species (ntypx) = 10
     Max number of k-points (npk) =  40000
     Max angular momentum in pseudopotentials (lmaxx) =  3
               file Al.pbe-n-kjpaw_psl.1.0.0.UPF: wavefunction(s)  3S 3P renormalized

     Subspace diagonalization in iterative solution of the eigenvalue problem:
     one sub-group per band group will be used
     scalapack distributed-memory algorithm (size of sub-group:  2*  2 procs)

 
     Parallelization info
     --------------------
     sticks:   dense  smooth     PW     G-vecs:    dense   smooth      PW
     Min        3324    1330    347               432816   109512   14645
     Max        3325    1331    348               432821   109515   14652
     Sum       29921   11977   3125              3895379   985619  131827
 


     bravais-lattice index     =            0
     lattice parameter (alat)  =      30.6665  a.u.
     unit-cell volume          =   28839.7502 (a.u.)^3
     number of atoms/cell      =          256
     number of atomic types    =            2
     number of electrons       =       769.00
     number of Kohn-Sham states=          462
     kinetic-energy cutoff     =      40.0000  Ry
     charge density cutoff     =     400.0000  Ry
     convergence threshold     =      1.0E-12
     mixing beta               =       0.4000
     number of iterations used =            8  local-TF  mixing
     Exchange-correlation      = SLA PW PBX PBC ( 1  4  3  4 0 0)

     celldm(1)=  30.666473  celldm(2)=   0.000000  celldm(3)=   0.000000
     celldm(4)=   0.000000  celldm(5)=   0.000000  celldm(6)=   0.000000

     crystal axes: (cart. coord. in units of alat)
               a(1) = (   1.000000   0.000000   0.000000 )  
               a(2) = (   0.000000   1.000000   0.000000 )  
               a(3) = (   0.000000   0.000000   1.000000 )  

     reciprocal axes: (cart. coord. in units 2 pi/alat)
               b(1) = (  1.000000  0.000000  0.000000 )  
               b(2) = (  0.000000  1.000000  0.000000 )  
               b(3) = (  0.000000  0.000000  1.000000 )  


     PseudoPot. # 1 for Si read from file:
     /users/aglensk/Dropbox/Albert/scripts/dotfiles/scripts/potentials/quantum_espresso/pseudo_SSSPefV1.1_alalloy/Si.pbe-n-rrkjus_psl.1.0.0.UPF
     MD5 check sum: 0b0bb1205258b0d07b9f9672cf965d36
     Pseudo is Ultrasoft + core correction, Zval =  4.0
     Generated using "atomic" code by A. Dal Corso v.5.1
     Using radial grid of 1141 points,  6 beta functions with: 
                l(1) =   0
                l(2) =   0
                l(3) =   1
                l(4) =   1
                l(5) =   2
                l(6) =   2
     Q(r) pseudized with 0 coefficients 


     PseudoPot. # 2 for Al read from file:
     /users/aglensk/Dropbox/Albert/scripts/dotfiles/scripts/potentials/quantum_espresso/pseudo_SSSPefV1.1_alalloy/Al.pbe-n-kjpaw_psl.1.0.0.UPF
     MD5 check sum: cfc449ca30b5f3223ec38ddd88ac046d
     Pseudo is Projector augmented-wave + core cor, Zval =  3.0
     Generated using "atomic" code by A. Dal Corso v.5.1
     Shape of augmentation charge: PSQ
     Using radial grid of 1135 points,  6 beta functions with: 
                l(1) =   0
                l(2) =   0
                l(3) =   1
                l(4) =   1
                l(5) =   2
                l(6) =   2
     Q(r) pseudized with 0 coefficients 


     atomic species   valence    mass     pseudopotential
        Si             4.00    28.08500     Si( 1.00)
        Al             3.00    26.98154     Al( 1.00)

     No symmetry found


                                    s                        frac. trans.

      isym =  1     identity                                     

 cryst.   s( 1) = (     1          0          0      )
                  (     0          1          0      )
                  (     0          0          1      )

 cart.    s( 1) = (  1.0000000  0.0000000  0.0000000 )
                  (  0.0000000  1.0000000  0.0000000 )
                  (  0.0000000  0.0000000  1.0000000 )


   Cartesian axes

     site n.     atom                  positions (alat units)
         1           Si  tau(   1) = (   0.0000000   0.0000000   0.0000000  )
         2           Al  tau(   2) = (   0.1242799   0.1242799   0.0000000  )
         3           Al  tau(   3) = (   0.1242799   0.0000000   0.1242799  )
         4           Al  tau(   4) = (   0.0000000   0.1242799   0.1242799  )
         5           Al  tau(   5) = (   0.0000000   0.0000000   0.2496896  )
         6           Al  tau(   6) = (   0.1249915   0.1249915   0.2499265  )
         7           Al  tau(   7) = (   0.1249925   0.0000000   0.3749602  )
         8           Al  tau(   8) = (   0.0000000   0.1249925   0.3749602  )
         9           Al  tau(   9) = (   0.0000000   0.0000000   0.5000000  )
        10           Al  tau(  10) = (   0.1250047   0.1250047   0.5000000  )
        11           Al  tau(  11) = (   0.1249925   0.0000000   0.6250398  )
        12           Al  tau(  12) = (   0.0000000   0.1249925   0.6250398  )
        13           Al  tau(  13) = (   0.0000000   0.0000000   0.7503104  )
        14           Al  tau(  14) = (   0.1249915   0.1249915   0.7500735  )
        15           Al  tau(  15) = (   0.1242799   0.0000000   0.8757201  )
        16           Al  tau(  16) = (   0.0000000   0.1242799   0.8757201  )
        17           Al  tau(  17) = (   0.0000000   0.2496896   0.0000000  )
        18           Al  tau(  18) = (   0.1249925   0.3749602   0.0000000  )
        19           Al  tau(  19) = (   0.1249915   0.2499265   0.1249915  )
        20           Al  tau(  20) = (   0.0000000   0.3749602   0.1249925  )
        21           Al  tau(  21) = (   0.0000000   0.2498880   0.2498880  )
        22           Al  tau(  22) = (   0.1249909   0.3749993   0.2499876  )
        23           Al  tau(  23) = (   0.1249909   0.2499876   0.3749993  )
        24           Al  tau(  24) = (   0.0000000   0.3750151   0.3750151  )
        25           Al  tau(  25) = (   0.0000000   0.2499776   0.5000000  )
        26           Al  tau(  26) = (   0.1250017   0.3750121   0.5000000  )
        27           Al  tau(  27) = (   0.1249909   0.2499876   0.6250007  )
        28           Al  tau(  28) = (   0.0000000   0.3750151   0.6249849  )
        29           Al  tau(  29) = (   0.0000000   0.2498880   0.7501120  )
        30           Al  tau(  30) = (   0.1249909   0.3749993   0.7500125  )
        31           Al  tau(  31) = (   0.1249915   0.2499265   0.8750085  )
        32           Al  tau(  32) = (   0.0000000   0.3749602   0.8750075  )
        33           Al  tau(  33) = (   0.0000000   0.5000000   0.0000000  )
        34           Al  tau(  34) = (   0.1249925   0.6250398   0.0000000  )
        35           Al  tau(  35) = (   0.1250047   0.5000000   0.1250047  )
        36           Al  tau(  36) = (   0.0000000   0.6250398   0.1249925  )
        37           Al  tau(  37) = (   0.0000000   0.5000000   0.2499776  )
        38           Al  tau(  38) = (   0.1249909   0.6250007   0.2499876  )
        39           Al  tau(  39) = (   0.1250017   0.5000000   0.3750121  )
        40           Al  tau(  40) = (   0.0000000   0.6249849   0.3750151  )
        41           Al  tau(  41) = (   0.0000000   0.5000000   0.5000000  )
        42           Al  tau(  42) = (   0.1250017   0.6249879   0.5000000  )
        43           Al  tau(  43) = (   0.1250017   0.5000000   0.6249879  )
        44           Al  tau(  44) = (   0.0000000   0.6249849   0.6249849  )
        45           Al  tau(  45) = (   0.0000000   0.5000000   0.7500224  )
        46           Al  tau(  46) = (   0.1249909   0.6250007   0.7500125  )
        47           Al  tau(  47) = (   0.1250047   0.5000000   0.8749953  )
        48           Al  tau(  48) = (   0.0000000   0.6250398   0.8750075  )
        49           Al  tau(  49) = (   0.0000000   0.7503104   0.0000000  )
        50           Al  tau(  50) = (   0.1242799   0.8757201   0.0000000  )
        51           Al  tau(  51) = (   0.1249915   0.7500735   0.1249915  )
        52           Al  tau(  52) = (   0.0000000   0.8757201   0.1242799  )
        53           Al  tau(  53) = (   0.0000000   0.7501120   0.2498880  )
        54           Al  tau(  54) = (   0.1249915   0.8750085   0.2499265  )
        55           Al  tau(  55) = (   0.1249909   0.7500125   0.3749993  )
        56           Al  tau(  56) = (   0.0000000   0.8750075   0.3749602  )
        57           Al  tau(  57) = (   0.0000000   0.7500224   0.5000000  )
        58           Al  tau(  58) = (   0.1250047   0.8749953   0.5000000  )
        59           Al  tau(  59) = (   0.1249909   0.7500125   0.6250007  )
        60           Al  tau(  60) = (   0.0000000   0.8750075   0.6250398  )
        61           Al  tau(  61) = (   0.0000000   0.7501120   0.7501120  )
        62           Al  tau(  62) = (   0.1249915   0.8750085   0.7500735  )
        63           Al  tau(  63) = (   0.1249915   0.7500735   0.8750085  )
        64           Al  tau(  64) = (   0.0000000   0.8757201   0.8757201  )
        65           Al  tau(  65) = (   0.2496896   0.0000000   0.0000000  )
        66           Al  tau(  66) = (   0.3749602   0.1249925   0.0000000  )
        67           Al  tau(  67) = (   0.3749602   0.0000000   0.1249925  )
        68           Al  tau(  68) = (   0.2499265   0.1249915   0.1249915  )
        69           Al  tau(  69) = (   0.2498880   0.0000000   0.2498880  )
        70           Al  tau(  70) = (   0.3749993   0.1249909   0.2499876  )
        71           Al  tau(  71) = (   0.3750151   0.0000000   0.3750151  )
        72           Al  tau(  72) = (   0.2499876   0.1249909   0.3749993  )
        73           Al  tau(  73) = (   0.2499776   0.0000000   0.5000000  )
        74           Al  tau(  74) = (   0.3750121   0.1250017   0.5000000  )
        75           Al  tau(  75) = (   0.3750151   0.0000000   0.6249849  )
        76           Al  tau(  76) = (   0.2499876   0.1249909   0.6250007  )
        77           Al  tau(  77) = (   0.2498880   0.0000000   0.7501120  )
        78           Al  tau(  78) = (   0.3749993   0.1249909   0.7500125  )
        79           Al  tau(  79) = (   0.3749602   0.0000000   0.8750075  )
        80           Al  tau(  80) = (   0.2499265   0.1249915   0.8750085  )
        81           Al  tau(  81) = (   0.2498880   0.2498880   0.0000000  )
        82           Al  tau(  82) = (   0.3750151   0.3750151   0.0000000  )
        83           Al  tau(  83) = (   0.3749993   0.2499876   0.1249909  )
        84           Al  tau(  84) = (   0.2499876   0.3749993   0.1249909  )
        85           Al  tau(  85) = (   0.2500378   0.2500378   0.2500378  )
        86           Al  tau(  86) = (   0.3750037   0.3750037   0.2500007  )
        87           Al  tau(  87) = (   0.3750037   0.2500007   0.3750037  )
        88           Al  tau(  88) = (   0.2500007   0.3750037   0.3750037  )
        89           Al  tau(  89) = (   0.2499994   0.2499994   0.5000000  )
        90           Al  tau(  90) = (   0.3749877   0.3749877   0.5000000  )
        91           Al  tau(  91) = (   0.3750037   0.2500007   0.6249963  )
        92           Al  tau(  92) = (   0.2500007   0.3750037   0.6249963  )
        93           Al  tau(  93) = (   0.2500378   0.2500378   0.7499622  )
        94           Al  tau(  94) = (   0.3750037   0.3750037   0.7499993  )
        95           Al  tau(  95) = (   0.3749993   0.2499876   0.8750092  )
        96           Al  tau(  96) = (   0.2499876   0.3749993   0.8750092  )
        97           Al  tau(  97) = (   0.2499776   0.5000000   0.0000000  )
        98           Al  tau(  98) = (   0.3750151   0.6249849   0.0000000  )
        99           Al  tau(  99) = (   0.3750121   0.5000000   0.1250017  )
       100           Al  tau( 100) = (   0.2499876   0.6250007   0.1249909  )
       101           Al  tau( 101) = (   0.2499994   0.5000000   0.2499994  )
       102           Al  tau( 102) = (   0.3750037   0.6249963   0.2500007  )
       103           Al  tau( 103) = (   0.3749877   0.5000000   0.3749877  )
       104           Al  tau( 104) = (   0.2500007   0.6249963   0.3750037  )
       105           Al  tau( 105) = (   0.2500033   0.5000000   0.5000000  )
       106           Al  tau( 106) = (   0.3749877   0.6250123   0.5000000  )
       107           Al  tau( 107) = (   0.3749877   0.5000000   0.6250123  )
       108           Al  tau( 108) = (   0.2500007   0.6249963   0.6249963  )
       109           Al  tau( 109) = (   0.2499994   0.5000000   0.7500006  )
       110           Al  tau( 110) = (   0.3750037   0.6249963   0.7499993  )
       111           Al  tau( 111) = (   0.3750121   0.5000000   0.8749983  )
       112           Al  tau( 112) = (   0.2499876   0.6250007   0.8750092  )
       113           Al  tau( 113) = (   0.2498880   0.7501120   0.0000000  )
       114           Al  tau( 114) = (   0.3749602   0.8750075   0.0000000  )
       115           Al  tau( 115) = (   0.3749993   0.7500125   0.1249909  )
       116           Al  tau( 116) = (   0.2499265   0.8750085   0.1249915  )
       117           Al  tau( 117) = (   0.2500378   0.7499622   0.2500378  )
       118           Al  tau( 118) = (   0.3749993   0.8750092   0.2499876  )
       119           Al  tau( 119) = (   0.3750037   0.7499993   0.3750037  )
       120           Al  tau( 120) = (   0.2499876   0.8750092   0.3749993  )
       121           Al  tau( 121) = (   0.2499994   0.7500006   0.5000000  )
       122           Al  tau( 122) = (   0.3750121   0.8749983   0.5000000  )
       123           Al  tau( 123) = (   0.3750037   0.7499993   0.6249963  )
       124           Al  tau( 124) = (   0.2499876   0.8750092   0.6250007  )
       125           Al  tau( 125) = (   0.2500378   0.7499622   0.7499622  )
       126           Al  tau( 126) = (   0.3749993   0.8750092   0.7500125  )
       127           Al  tau( 127) = (   0.3749993   0.7500125   0.8750092  )
       128           Al  tau( 128) = (   0.2499265   0.8750085   0.8750085  )
       129           Al  tau( 129) = (   0.5000000   0.0000000   0.0000000  )
       130           Al  tau( 130) = (   0.6250398   0.1249925   0.0000000  )
       131           Al  tau( 131) = (   0.6250398   0.0000000   0.1249925  )
       132           Al  tau( 132) = (   0.5000000   0.1250047   0.1250047  )
       133           Al  tau( 133) = (   0.5000000   0.0000000   0.2499776  )
       134           Al  tau( 134) = (   0.6250007   0.1249909   0.2499876  )
       135           Al  tau( 135) = (   0.6249849   0.0000000   0.3750151  )
       136           Al  tau( 136) = (   0.5000000   0.1250017   0.3750121  )
       137           Al  tau( 137) = (   0.5000000   0.0000000   0.5000000  )
       138           Al  tau( 138) = (   0.6249879   0.1250017   0.5000000  )
       139           Al  tau( 139) = (   0.6249849   0.0000000   0.6249849  )
       140           Al  tau( 140) = (   0.5000000   0.1250017   0.6249879  )
       141           Al  tau( 141) = (   0.5000000   0.0000000   0.7500224  )
       142           Al  tau( 142) = (   0.6250007   0.1249909   0.7500125  )
       143           Al  tau( 143) = (   0.6250398   0.0000000   0.8750075  )
       144           Al  tau( 144) = (   0.5000000   0.1250047   0.8749953  )
       145           Al  tau( 145) = (   0.5000000   0.2499776   0.0000000  )
       146           Al  tau( 146) = (   0.6249849   0.3750151   0.0000000  )
       147           Al  tau( 147) = (   0.6250007   0.2499876   0.1249909  )
       148           Al  tau( 148) = (   0.5000000   0.3750121   0.1250017  )
       149           Al  tau( 149) = (   0.5000000   0.2499994   0.2499994  )
       150           Al  tau( 150) = (   0.6249963   0.3750037   0.2500007  )
       151           Al  tau( 151) = (   0.6249963   0.2500007   0.3750037  )
       152           Al  tau( 152) = (   0.5000000   0.3749877   0.3749877  )
       153           Al  tau( 153) = (   0.5000000   0.2500033   0.5000000  )
       154           Al  tau( 154) = (   0.6250123   0.3749877   0.5000000  )
       155           Al  tau( 155) = (   0.6249963   0.2500007   0.6249963  )
       156           Al  tau( 156) = (   0.5000000   0.3749877   0.6250123  )
       157           Al  tau( 157) = (   0.5000000   0.2499994   0.7500006  )
       158           Al  tau( 158) = (   0.6249963   0.3750037   0.7499993  )
       159           Al  tau( 159) = (   0.6250007   0.2499876   0.8750092  )
       160           Al  tau( 160) = (   0.5000000   0.3750121   0.8749983  )
       161           Al  tau( 161) = (   0.5000000   0.5000000   0.0000000  )
       162           Al  tau( 162) = (   0.6249849   0.6249849   0.0000000  )
       163           Al  tau( 163) = (   0.6249879   0.5000000   0.1250017  )
       164           Al  tau( 164) = (   0.5000000   0.6249879   0.1250017  )
       165           Al  tau( 165) = (   0.5000000   0.5000000   0.2500033  )
       166           Al  tau( 166) = (   0.6249963   0.6249963   0.2500007  )
       167           Al  tau( 167) = (   0.6250123   0.5000000   0.3749877  )
       168           Al  tau( 168) = (   0.5000000   0.6250123   0.3749877  )
       169           Al  tau( 169) = (   0.5000000   0.5000000   0.5000000  )
       170           Al  tau( 170) = (   0.6250123   0.6250123   0.5000000  )
       171           Al  tau( 171) = (   0.6250123   0.5000000   0.6250123  )
       172           Al  tau( 172) = (   0.5000000   0.6250123   0.6250123  )
       173           Al  tau( 173) = (   0.5000000   0.5000000   0.7499967  )
       174           Al  tau( 174) = (   0.6249963   0.6249963   0.7499993  )
       175           Al  tau( 175) = (   0.6249879   0.5000000   0.8749983  )
       176           Al  tau( 176) = (   0.5000000   0.6249879   0.8749983  )
       177           Al  tau( 177) = (   0.5000000   0.7500224   0.0000000  )
       178           Al  tau( 178) = (   0.6250398   0.8750075   0.0000000  )
       179           Al  tau( 179) = (   0.6250007   0.7500125   0.1249909  )
       180           Al  tau( 180) = (   0.5000000   0.8749953   0.1250047  )
       181           Al  tau( 181) = (   0.5000000   0.7500006   0.2499994  )
       182           Al  tau( 182) = (   0.6250007   0.8750092   0.2499876  )
       183           Al  tau( 183) = (   0.6249963   0.7499993   0.3750037  )
       184           Al  tau( 184) = (   0.5000000   0.8749983   0.3750121  )
       185           Al  tau( 185) = (   0.5000000   0.7499967   0.5000000  )
       186           Al  tau( 186) = (   0.6249879   0.8749983   0.5000000  )
       187           Al  tau( 187) = (   0.6249963   0.7499993   0.6249963  )
       188           Al  tau( 188) = (   0.5000000   0.8749983   0.6249879  )
       189           Al  tau( 189) = (   0.5000000   0.7500006   0.7500006  )
       190           Al  tau( 190) = (   0.6250007   0.8750092   0.7500125  )
       191           Al  tau( 191) = (   0.6250007   0.7500125   0.8750092  )
       192           Al  tau( 192) = (   0.5000000   0.8749953   0.8749953  )
       193           Al  tau( 193) = (   0.7503104   0.0000000   0.0000000  )
       194           Al  tau( 194) = (   0.8757201   0.1242799   0.0000000  )
       195           Al  tau( 195) = (   0.8757201   0.0000000   0.1242799  )
       196           Al  tau( 196) = (   0.7500735   0.1249915   0.1249915  )
       197           Al  tau( 197) = (   0.7501120   0.0000000   0.2498880  )
       198           Al  tau( 198) = (   0.8750085   0.1249915   0.2499265  )
       199           Al  tau( 199) = (   0.8750075   0.0000000   0.3749602  )
       200           Al  tau( 200) = (   0.7500125   0.1249909   0.3749993  )
       201           Al  tau( 201) = (   0.7500224   0.0000000   0.5000000  )
       202           Al  tau( 202) = (   0.8749953   0.1250047   0.5000000  )
       203           Al  tau( 203) = (   0.8750075   0.0000000   0.6250398  )
       204           Al  tau( 204) = (   0.7500125   0.1249909   0.6250007  )
       205           Al  tau( 205) = (   0.7501120   0.0000000   0.7501120  )
       206           Al  tau( 206) = (   0.8750085   0.1249915   0.7500735  )
       207           Al  tau( 207) = (   0.8757201   0.0000000   0.8757201  )
       208           Al  tau( 208) = (   0.7500735   0.1249915   0.8750085  )
       209           Al  tau( 209) = (   0.7501120   0.2498880   0.0000000  )
       210           Al  tau( 210) = (   0.8750075   0.3749602   0.0000000  )
       211           Al  tau( 211) = (   0.8750085   0.2499265   0.1249915  )
       212           Al  tau( 212) = (   0.7500125   0.3749993   0.1249909  )
       213           Al  tau( 213) = (   0.7499622   0.2500378   0.2500378  )
       214           Al  tau( 214) = (   0.8750092   0.3749993   0.2499876  )
       215           Al  tau( 215) = (   0.8750092   0.2499876   0.3749993  )
       216           Al  tau( 216) = (   0.7499993   0.3750037   0.3750037  )
       217           Al  tau( 217) = (   0.7500006   0.2499994   0.5000000  )
       218           Al  tau( 218) = (   0.8749983   0.3750121   0.5000000  )
       219           Al  tau( 219) = (   0.8750092   0.2499876   0.6250007  )
       220           Al  tau( 220) = (   0.7499993   0.3750037   0.6249963  )
       221           Al  tau( 221) = (   0.7499622   0.2500378   0.7499622  )
       222           Al  tau( 222) = (   0.8750092   0.3749993   0.7500125  )
       223           Al  tau( 223) = (   0.8750085   0.2499265   0.8750085  )
       224           Al  tau( 224) = (   0.7500125   0.3749993   0.8750092  )
       225           Al  tau( 225) = (   0.7500224   0.5000000   0.0000000  )
       226           Al  tau( 226) = (   0.8750075   0.6250398   0.0000000  )
       227           Al  tau( 227) = (   0.8749953   0.5000000   0.1250047  )
       228           Al  tau( 228) = (   0.7500125   0.6250007   0.1249909  )
       229           Al  tau( 229) = (   0.7500006   0.5000000   0.2499994  )
       230           Al  tau( 230) = (   0.8750092   0.6250007   0.2499876  )
       231           Al  tau( 231) = (   0.8749983   0.5000000   0.3750121  )
       232           Al  tau( 232) = (   0.7499993   0.6249963   0.3750037  )
       233           Al  tau( 233) = (   0.7499967   0.5000000   0.5000000  )
       234           Al  tau( 234) = (   0.8749983   0.6249879   0.5000000  )
       235           Al  tau( 235) = (   0.8749983   0.5000000   0.6249879  )
       236           Al  tau( 236) = (   0.7499993   0.6249963   0.6249963  )
       237           Al  tau( 237) = (   0.7500006   0.5000000   0.7500006  )
       238           Al  tau( 238) = (   0.8750092   0.6250007   0.7500125  )
       239           Al  tau( 239) = (   0.8749953   0.5000000   0.8749953  )
       240           Al  tau( 240) = (   0.7500125   0.6250007   0.8750092  )
       241           Al  tau( 241) = (   0.7501120   0.7501120   0.0000000  )
       242           Al  tau( 242) = (   0.8757201   0.8757201   0.0000000  )
       243           Al  tau( 243) = (   0.8750085   0.7500735   0.1249915  )
       244           Al  tau( 244) = (   0.7500735   0.8750085   0.1249915  )
       245           Al  tau( 245) = (   0.7499622   0.7499622   0.2500378  )
       246           Al  tau( 246) = (   0.8750085   0.8750085   0.2499265  )
       247           Al  tau( 247) = (   0.8750092   0.7500125   0.3749993  )
       248           Al  tau( 248) = (   0.7500125   0.8750092   0.3749993  )
       249           Al  tau( 249) = (   0.7500006   0.7500006   0.5000000  )
       250           Al  tau( 250) = (   0.8749953   0.8749953   0.5000000  )
       251           Al  tau( 251) = (   0.8750092   0.7500125   0.6250007  )
       252           Al  tau( 252) = (   0.7500125   0.8750092   0.6250007  )
       253           Al  tau( 253) = (   0.7499622   0.7499622   0.7499622  )
       254           Al  tau( 254) = (   0.8750085   0.8750085   0.7500735  )
       255           Al  tau( 255) = (   0.8750085   0.7500735   0.8750085  )
       256           Al  tau( 256) = (   0.7500735   0.8750085   0.8750085  )

   Crystallographic axes

     site n.     atom                  positions (cryst. coord.)
         1           Si  tau(   1) = (  0.0000000  0.0000000  0.0000000  )
         2           Al  tau(   2) = (  0.1242799  0.1242799  0.0000000  )
         3           Al  tau(   3) = (  0.1242799  0.0000000  0.1242799  )
         4           Al  tau(   4) = (  0.0000000  0.1242799  0.1242799  )
         5           Al  tau(   5) = (  0.0000000  0.0000000  0.2496896  )
         6           Al  tau(   6) = (  0.1249915  0.1249915  0.2499265  )
         7           Al  tau(   7) = (  0.1249925  0.0000000  0.3749602  )
         8           Al  tau(   8) = (  0.0000000  0.1249925  0.3749602  )
         9           Al  tau(   9) = (  0.0000000  0.0000000  0.5000000  )
        10           Al  tau(  10) = (  0.1250047  0.1250047  0.5000000  )
        11           Al  tau(  11) = (  0.1249925  0.0000000  0.6250398  )
        12           Al  tau(  12) = (  0.0000000  0.1249925  0.6250398  )
        13           Al  tau(  13) = (  0.0000000  0.0000000  0.7503104  )
        14           Al  tau(  14) = (  0.1249915  0.1249915  0.7500735  )
        15           Al  tau(  15) = (  0.1242799  0.0000000  0.8757201  )
        16           Al  tau(  16) = (  0.0000000  0.1242799  0.8757201  )
        17           Al  tau(  17) = (  0.0000000  0.2496896  0.0000000  )
        18           Al  tau(  18) = (  0.1249925  0.3749602  0.0000000  )
        19           Al  tau(  19) = (  0.1249915  0.2499265  0.1249915  )
        20           Al  tau(  20) = (  0.0000000  0.3749602  0.1249925  )
        21           Al  tau(  21) = (  0.0000000  0.2498880  0.2498880  )
        22           Al  tau(  22) = (  0.1249909  0.3749993  0.2499876  )
        23           Al  tau(  23) = (  0.1249909  0.2499876  0.3749993  )
        24           Al  tau(  24) = (  0.0000000  0.3750151  0.3750151  )
        25           Al  tau(  25) = (  0.0000000  0.2499776  0.5000000  )
        26           Al  tau(  26) = (  0.1250017  0.3750121  0.5000000  )
        27           Al  tau(  27) = (  0.1249909  0.2499876  0.6250007  )
        28           Al  tau(  28) = (  0.0000000  0.3750151  0.6249849  )
        29           Al  tau(  29) = (  0.0000000  0.2498880  0.7501120  )
        30           Al  tau(  30) = (  0.1249909  0.3749993  0.7500125  )
        31           Al  tau(  31) = (  0.1249915  0.2499265  0.8750085  )
        32           Al  tau(  32) = (  0.0000000  0.3749602  0.8750075  )
        33           Al  tau(  33) = (  0.0000000  0.5000000  0.0000000  )
        34           Al  tau(  34) = (  0.1249925  0.6250398  0.0000000  )
        35           Al  tau(  35) = (  0.1250047  0.5000000  0.1250047  )
        36           Al  tau(  36) = (  0.0000000  0.6250398  0.1249925  )
        37           Al  tau(  37) = (  0.0000000  0.5000000  0.2499776  )
        38           Al  tau(  38) = (  0.1249909  0.6250007  0.2499876  )
        39           Al  tau(  39) = (  0.1250017  0.5000000  0.3750121  )
        40           Al  tau(  40) = (  0.0000000  0.6249849  0.3750151  )
        41           Al  tau(  41) = (  0.0000000  0.5000000  0.5000000  )
        42           Al  tau(  42) = (  0.1250017  0.6249879  0.5000000  )
        43           Al  tau(  43) = (  0.1250017  0.5000000  0.6249879  )
        44           Al  tau(  44) = (  0.0000000  0.6249849  0.6249849  )
        45           Al  tau(  45) = (  0.0000000  0.5000000  0.7500224  )
        46           Al  tau(  46) = (  0.1249909  0.6250007  0.7500125  )
        47           Al  tau(  47) = (  0.1250047  0.5000000  0.8749953  )
        48           Al  tau(  48) = (  0.0000000  0.6250398  0.8750075  )
        49           Al  tau(  49) = (  0.0000000  0.7503104  0.0000000  )
        50           Al  tau(  50) = (  0.1242799  0.8757201  0.0000000  )
        51           Al  tau(  51) = (  0.1249915  0.7500735  0.1249915  )
        52           Al  tau(  52) = (  0.0000000  0.8757201  0.1242799  )
        53           Al  tau(  53) = (  0.0000000  0.7501120  0.2498880  )
        54           Al  tau(  54) = (  0.1249915  0.8750085  0.2499265  )
        55           Al  tau(  55) = (  0.1249909  0.7500125  0.3749993  )
        56           Al  tau(  56) = (  0.0000000  0.8750075  0.3749602  )
        57           Al  tau(  57) = (  0.0000000  0.7500224  0.5000000  )
        58           Al  tau(  58) = (  0.1250047  0.8749953  0.5000000  )
        59           Al  tau(  59) = (  0.1249909  0.7500125  0.6250007  )
        60           Al  tau(  60) = (  0.0000000  0.8750075  0.6250398  )
        61           Al  tau(  61) = (  0.0000000  0.7501120  0.7501120  )
        62           Al  tau(  62) = (  0.1249915  0.8750085  0.7500735  )
        63           Al  tau(  63) = (  0.1249915  0.7500735  0.8750085  )
        64           Al  tau(  64) = (  0.0000000  0.8757201  0.8757201  )
        65           Al  tau(  65) = (  0.2496896  0.0000000  0.0000000  )
        66           Al  tau(  66) = (  0.3749602  0.1249925  0.0000000  )
        67           Al  tau(  67) = (  0.3749602  0.0000000  0.1249925  )
        68           Al  tau(  68) = (  0.2499265  0.1249915  0.1249915  )
        69           Al  tau(  69) = (  0.2498880  0.0000000  0.2498880  )
        70           Al  tau(  70) = (  0.3749993  0.1249909  0.2499876  )
        71           Al  tau(  71) = (  0.3750151  0.0000000  0.3750151  )
        72           Al  tau(  72) = (  0.2499876  0.1249909  0.3749993  )
        73           Al  tau(  73) = (  0.2499776  0.0000000  0.5000000  )
        74           Al  tau(  74) = (  0.3750121  0.1250017  0.5000000  )
        75           Al  tau(  75) = (  0.3750151  0.0000000  0.6249849  )
        76           Al  tau(  76) = (  0.2499876  0.1249909  0.6250007  )
        77           Al  tau(  77) = (  0.2498880  0.0000000  0.7501120  )
        78           Al  tau(  78) = (  0.3749993  0.1249909  0.7500125  )
        79           Al  tau(  79) = (  0.3749602  0.0000000  0.8750075  )
        80           Al  tau(  80) = (  0.2499265  0.1249915  0.8750085  )
        81           Al  tau(  81) = (  0.2498880  0.2498880  0.0000000  )
        82           Al  tau(  82) = (  0.3750151  0.3750151  0.0000000  )
        83           Al  tau(  83) = (  0.3749993  0.2499876  0.1249909  )
        84           Al  tau(  84) = (  0.2499876  0.3749993  0.1249909  )
        85           Al  tau(  85) = (  0.2500378  0.2500378  0.2500378  )
        86           Al  tau(  86) = (  0.3750037  0.3750037  0.2500007  )
        87           Al  tau(  87) = (  0.3750037  0.2500007  0.3750037  )
        88           Al  tau(  88) = (  0.2500007  0.3750037  0.3750037  )
        89           Al  tau(  89) = (  0.2499994  0.2499994  0.5000000  )
        90           Al  tau(  90) = (  0.3749877  0.3749877  0.5000000  )
        91           Al  tau(  91) = (  0.3750037  0.2500007  0.6249963  )
        92           Al  tau(  92) = (  0.2500007  0.3750037  0.6249963  )
        93           Al  tau(  93) = (  0.2500378  0.2500378  0.7499622  )
        94           Al  tau(  94) = (  0.3750037  0.3750037  0.7499993  )
        95           Al  tau(  95) = (  0.3749993  0.2499876  0.8750092  )
        96           Al  tau(  96) = (  0.2499876  0.3749993  0.8750092  )
        97           Al  tau(  97) = (  0.2499776  0.5000000  0.0000000  )
        98           Al  tau(  98) = (  0.3750151  0.6249849  0.0000000  )
        99           Al  tau(  99) = (  0.3750121  0.5000000  0.1250017  )
       100           Al  tau( 100) = (  0.2499876  0.6250007  0.1249909  )
       101           Al  tau( 101) = (  0.2499994  0.5000000  0.2499994  )
       102           Al  tau( 102) = (  0.3750037  0.6249963  0.2500007  )
       103           Al  tau( 103) = (  0.3749877  0.5000000  0.3749877  )
       104           Al  tau( 104) = (  0.2500007  0.6249963  0.3750037  )
       105           Al  tau( 105) = (  0.2500033  0.5000000  0.5000000  )
       106           Al  tau( 106) = (  0.3749877  0.6250123  0.5000000  )
       107           Al  tau( 107) = (  0.3749877  0.5000000  0.6250123  )
       108           Al  tau( 108) = (  0.2500007  0.6249963  0.6249963  )
       109           Al  tau( 109) = (  0.2499994  0.5000000  0.7500006  )
       110           Al  tau( 110) = (  0.3750037  0.6249963  0.7499993  )
       111           Al  tau( 111) = (  0.3750121  0.5000000  0.8749983  )
       112           Al  tau( 112) = (  0.2499876  0.6250007  0.8750092  )
       113           Al  tau( 113) = (  0.2498880  0.7501120  0.0000000  )
       114           Al  tau( 114) = (  0.3749602  0.8750075  0.0000000  )
       115           Al  tau( 115) = (  0.3749993  0.7500125  0.1249909  )
       116           Al  tau( 116) = (  0.2499265  0.8750085  0.1249915  )
       117           Al  tau( 117) = (  0.2500378  0.7499622  0.2500378  )
       118           Al  tau( 118) = (  0.3749993  0.8750092  0.2499876  )
       119           Al  tau( 119) = (  0.3750037  0.7499993  0.3750037  )
       120           Al  tau( 120) = (  0.2499876  0.8750092  0.3749993  )
       121           Al  tau( 121) = (  0.2499994  0.7500006  0.5000000  )
       122           Al  tau( 122) = (  0.3750121  0.8749983  0.5000000  )
       123           Al  tau( 123) = (  0.3750037  0.7499993  0.6249963  )
       124           Al  tau( 124) = (  0.2499876  0.8750092  0.6250007  )
       125           Al  tau( 125) = (  0.2500378  0.7499622  0.7499622  )
       126           Al  tau( 126) = (  0.3749993  0.8750092  0.7500125  )
       127           Al  tau( 127) = (  0.3749993  0.7500125  0.8750092  )
       128           Al  tau( 128) = (  0.2499265  0.8750085  0.8750085  )
       129           Al  tau( 129) = (  0.5000000  0.0000000  0.0000000  )
       130           Al  tau( 130) = (  0.6250398  0.1249925  0.0000000  )
       131           Al  tau( 131) = (  0.6250398  0.0000000  0.1249925  )
       132           Al  tau( 132) = (  0.5000000  0.1250047  0.1250047  )
       133           Al  tau( 133) = (  0.5000000  0.0000000  0.2499776  )
       134           Al  tau( 134) = (  0.6250007  0.1249909  0.2499876  )
       135           Al  tau( 135) = (  0.6249849  0.0000000  0.3750151  )
       136           Al  tau( 136) = (  0.5000000  0.1250017  0.3750121  )
       137           Al  tau( 137) = (  0.5000000  0.0000000  0.5000000  )
       138           Al  tau( 138) = (  0.6249879  0.1250017  0.5000000  )
       139           Al  tau( 139) = (  0.6249849  0.0000000  0.6249849  )
       140           Al  tau( 140) = (  0.5000000  0.1250017  0.6249879  )
       141           Al  tau( 141) = (  0.5000000  0.0000000  0.7500224  )
       142           Al  tau( 142) = (  0.6250007  0.1249909  0.7500125  )
       143           Al  tau( 143) = (  0.6250398  0.0000000  0.8750075  )
       144           Al  tau( 144) = (  0.5000000  0.1250047  0.8749953  )
       145           Al  tau( 145) = (  0.5000000  0.2499776  0.0000000  )
       146           Al  tau( 146) = (  0.6249849  0.3750151  0.0000000  )
       147           Al  tau( 147) = (  0.6250007  0.2499876  0.1249909  )
       148           Al  tau( 148) = (  0.5000000  0.3750121  0.1250017  )
       149           Al  tau( 149) = (  0.5000000  0.2499994  0.2499994  )
       150           Al  tau( 150) = (  0.6249963  0.3750037  0.2500007  )
       151           Al  tau( 151) = (  0.6249963  0.2500007  0.3750037  )
       152           Al  tau( 152) = (  0.5000000  0.3749877  0.3749877  )
       153           Al  tau( 153) = (  0.5000000  0.2500033  0.5000000  )
       154           Al  tau( 154) = (  0.6250123  0.3749877  0.5000000  )
       155           Al  tau( 155) = (  0.6249963  0.2500007  0.6249963  )
       156           Al  tau( 156) = (  0.5000000  0.3749877  0.6250123  )
       157           Al  tau( 157) = (  0.5000000  0.2499994  0.7500006  )
       158           Al  tau( 158) = (  0.6249963  0.3750037  0.7499993  )
       159           Al  tau( 159) = (  0.6250007  0.2499876  0.8750092  )
       160           Al  tau( 160) = (  0.5000000  0.3750121  0.8749983  )
       161           Al  tau( 161) = (  0.5000000  0.5000000  0.0000000  )
       162           Al  tau( 162) = (  0.6249849  0.6249849  0.0000000  )
       163           Al  tau( 163) = (  0.6249879  0.5000000  0.1250017  )
       164           Al  tau( 164) = (  0.5000000  0.6249879  0.1250017  )
       165           Al  tau( 165) = (  0.5000000  0.5000000  0.2500033  )
       166           Al  tau( 166) = (  0.6249963  0.6249963  0.2500007  )
       167           Al  tau( 167) = (  0.6250123  0.5000000  0.3749877  )
       168           Al  tau( 168) = (  0.5000000  0.6250123  0.3749877  )
       169           Al  tau( 169) = (  0.5000000  0.5000000  0.5000000  )
       170           Al  tau( 170) = (  0.6250123  0.6250123  0.5000000  )
       171           Al  tau( 171) = (  0.6250123  0.5000000  0.6250123  )
       172           Al  tau( 172) = (  0.5000000  0.6250123  0.6250123  )
       173           Al  tau( 173) = (  0.5000000  0.5000000  0.7499967  )
       174           Al  tau( 174) = (  0.6249963  0.6249963  0.7499993  )
       175           Al  tau( 175) = (  0.6249879  0.5000000  0.8749983  )
       176           Al  tau( 176) = (  0.5000000  0.6249879  0.8749983  )
       177           Al  tau( 177) = (  0.5000000  0.7500224  0.0000000  )
       178           Al  tau( 178) = (  0.6250398  0.8750075  0.0000000  )
       179           Al  tau( 179) = (  0.6250007  0.7500125  0.1249909  )
       180           Al  tau( 180) = (  0.5000000  0.8749953  0.1250047  )
       181           Al  tau( 181) = (  0.5000000  0.7500006  0.2499994  )
       182           Al  tau( 182) = (  0.6250007  0.8750092  0.2499876  )
       183           Al  tau( 183) = (  0.6249963  0.7499993  0.3750037  )
       184           Al  tau( 184) = (  0.5000000  0.8749983  0.3750121  )
       185           Al  tau( 185) = (  0.5000000  0.7499967  0.5000000  )
       186           Al  tau( 186) = (  0.6249879  0.8749983  0.5000000  )
       187           Al  tau( 187) = (  0.6249963  0.7499993  0.6249963  )
       188           Al  tau( 188) = (  0.5000000  0.8749983  0.6249879  )
       189           Al  tau( 189) = (  0.5000000  0.7500006  0.7500006  )
       190           Al  tau( 190) = (  0.6250007  0.8750092  0.7500125  )
       191           Al  tau( 191) = (  0.6250007  0.7500125  0.8750092  )
       192           Al  tau( 192) = (  0.5000000  0.8749953  0.8749953  )
       193           Al  tau( 193) = (  0.7503104  0.0000000  0.0000000  )
       194           Al  tau( 194) = (  0.8757201  0.1242799  0.0000000  )
       195           Al  tau( 195) = (  0.8757201  0.0000000  0.1242799  )
       196           Al  tau( 196) = (  0.7500735  0.1249915  0.1249915  )
       197           Al  tau( 197) = (  0.7501120  0.0000000  0.2498880  )
       198           Al  tau( 198) = (  0.8750085  0.1249915  0.2499265  )
       199           Al  tau( 199) = (  0.8750075  0.0000000  0.3749602  )
       200           Al  tau( 200) = (  0.7500125  0.1249909  0.3749993  )
       201           Al  tau( 201) = (  0.7500224  0.0000000  0.5000000  )
       202           Al  tau( 202) = (  0.8749953  0.1250047  0.5000000  )
       203           Al  tau( 203) = (  0.8750075  0.0000000  0.6250398  )
       204           Al  tau( 204) = (  0.7500125  0.1249909  0.6250007  )
       205           Al  tau( 205) = (  0.7501120  0.0000000  0.7501120  )
       206           Al  tau( 206) = (  0.8750085  0.1249915  0.7500735  )
       207           Al  tau( 207) = (  0.8757201  0.0000000  0.8757201  )
       208           Al  tau( 208) = (  0.7500735  0.1249915  0.8750085  )
       209           Al  tau( 209) = (  0.7501120  0.2498880  0.0000000  )
       210           Al  tau( 210) = (  0.8750075  0.3749602  0.0000000  )
       211           Al  tau( 211) = (  0.8750085  0.2499265  0.1249915  )
       212           Al  tau( 212) = (  0.7500125  0.3749993  0.1249909  )
       213           Al  tau( 213) = (  0.7499622  0.2500378  0.2500378  )
       214           Al  tau( 214) = (  0.8750092  0.3749993  0.2499876  )
       215           Al  tau( 215) = (  0.8750092  0.2499876  0.3749993  )
       216           Al  tau( 216) = (  0.7499993  0.3750037  0.3750037  )
       217           Al  tau( 217) = (  0.7500006  0.2499994  0.5000000  )
       218           Al  tau( 218) = (  0.8749983  0.3750121  0.5000000  )
       219           Al  tau( 219) = (  0.8750092  0.2499876  0.6250007  )
       220           Al  tau( 220) = (  0.7499993  0.3750037  0.6249963  )
       221           Al  tau( 221) = (  0.7499622  0.2500378  0.7499622  )
       222           Al  tau( 222) = (  0.8750092  0.3749993  0.7500125  )
       223           Al  tau( 223) = (  0.8750085  0.2499265  0.8750085  )
       224           Al  tau( 224) = (  0.7500125  0.3749993  0.8750092  )
       225           Al  tau( 225) = (  0.7500224  0.5000000  0.0000000  )
       226           Al  tau( 226) = (  0.8750075  0.6250398  0.0000000  )
       227           Al  tau( 227) = (  0.8749953  0.5000000  0.1250047  )
       228           Al  tau( 228) = (  0.7500125  0.6250007  0.1249909  )
       229           Al  tau( 229) = (  0.7500006  0.5000000  0.2499994  )
       230           Al  tau( 230) = (  0.8750092  0.6250007  0.2499876  )
       231           Al  tau( 231) = (  0.8749983  0.5000000  0.3750121  )
       232           Al  tau( 232) = (  0.7499993  0.6249963  0.3750037  )
       233           Al  tau( 233) = (  0.7499967  0.5000000  0.5000000  )
       234           Al  tau( 234) = (  0.8749983  0.6249879  0.5000000  )
       235           Al  tau( 235) = (  0.8749983  0.5000000  0.6249879  )
       236           Al  tau( 236) = (  0.7499993  0.6249963  0.6249963  )
       237           Al  tau( 237) = (  0.7500006  0.5000000  0.7500006  )
       238           Al  tau( 238) = (  0.8750092  0.6250007  0.7500125  )
       239           Al  tau( 239) = (  0.8749953  0.5000000  0.8749953  )
       240           Al  tau( 240) = (  0.7500125  0.6250007  0.8750092  )
       241           Al  tau( 241) = (  0.7501120  0.7501120  0.0000000  )
       242           Al  tau( 242) = (  0.8757201  0.8757201  0.0000000  )
       243           Al  tau( 243) = (  0.8750085  0.7500735  0.1249915  )
       244           Al  tau( 244) = (  0.7500735  0.8750085  0.1249915  )
       245           Al  tau( 245) = (  0.7499622  0.7499622  0.2500378  )
       246           Al  tau( 246) = (  0.8750085  0.8750085  0.2499265  )
       247           Al  tau( 247) = (  0.8750092  0.7500125  0.3749993  )
       248           Al  tau( 248) = (  0.7500125  0.8750092  0.3749993  )
       249           Al  tau( 249) = (  0.7500006  0.7500006  0.5000000  )
       250           Al  tau( 250) = (  0.8749953  0.8749953  0.5000000  )
       251           Al  tau( 251) = (  0.8750092  0.7500125  0.6250007  )
       252           Al  tau( 252) = (  0.7500125  0.8750092  0.6250007  )
       253           Al  tau( 253) = (  0.7499622  0.7499622  0.7499622  )
       254           Al  tau( 254) = (  0.8750085  0.8750085  0.7500735  )
       255           Al  tau( 255) = (  0.8750085  0.7500735  0.8750085  )
       256           Al  tau( 256) = (  0.7500735  0.8750085  0.8750085  )

     number of k points=    63  Methfessel-Paxton smearing, width (Ry)=  0.0441
                       cart. coord. in units 2pi/alat
        k(    1) = (   0.0000000   0.0000000   0.0000000), wk =   0.0160000
        k(    2) = (   0.0000000   0.0000000   0.2000000), wk =   0.0320000
        k(    3) = (   0.0000000   0.0000000   0.4000000), wk =   0.0320000
        k(    4) = (   0.0000000   0.2000000   0.0000000), wk =   0.0320000
        k(    5) = (   0.0000000   0.2000000   0.2000000), wk =   0.0320000
        k(    6) = (   0.0000000   0.2000000   0.4000000), wk =   0.0320000
        k(    7) = (   0.0000000   0.2000000  -0.4000000), wk =   0.0320000
        k(    8) = (   0.0000000   0.2000000  -0.2000000), wk =   0.0320000
        k(    9) = (   0.0000000   0.4000000   0.0000000), wk =   0.0320000
        k(   10) = (   0.0000000   0.4000000   0.2000000), wk =   0.0320000
        k(   11) = (   0.0000000   0.4000000   0.4000000), wk =   0.0320000
        k(   12) = (   0.0000000   0.4000000  -0.4000000), wk =   0.0320000
        k(   13) = (   0.0000000   0.4000000  -0.2000000), wk =   0.0320000
        k(   14) = (   0.2000000   0.0000000   0.0000000), wk =   0.0320000
        k(   15) = (   0.2000000   0.0000000   0.2000000), wk =   0.0320000
        k(   16) = (   0.2000000   0.0000000   0.4000000), wk =   0.0320000
        k(   17) = (   0.2000000   0.0000000  -0.4000000), wk =   0.0320000
        k(   18) = (   0.2000000   0.0000000  -0.2000000), wk =   0.0320000
        k(   19) = (   0.2000000   0.2000000   0.0000000), wk =   0.0320000
        k(   20) = (   0.2000000   0.2000000   0.2000000), wk =   0.0320000
        k(   21) = (   0.2000000   0.2000000   0.4000000), wk =   0.0320000
        k(   22) = (   0.2000000   0.2000000  -0.4000000), wk =   0.0320000
        k(   23) = (   0.2000000   0.2000000  -0.2000000), wk =   0.0320000
        k(   24) = (   0.2000000   0.4000000   0.0000000), wk =   0.0320000
        k(   25) = (   0.2000000   0.4000000   0.2000000), wk =   0.0320000
        k(   26) = (   0.2000000   0.4000000   0.4000000), wk =   0.0320000
        k(   27) = (   0.2000000   0.4000000  -0.4000000), wk =   0.0320000
        k(   28) = (   0.2000000   0.4000000  -0.2000000), wk =   0.0320000
        k(   29) = (   0.2000000  -0.4000000   0.0000000), wk =   0.0320000
        k(   30) = (   0.2000000  -0.4000000   0.2000000), wk =   0.0320000
        k(   31) = (   0.2000000  -0.4000000   0.4000000), wk =   0.0320000
        k(   32) = (   0.2000000  -0.4000000  -0.4000000), wk =   0.0320000
        k(   33) = (   0.2000000  -0.4000000  -0.2000000), wk =   0.0320000
        k(   34) = (   0.2000000  -0.2000000   0.0000000), wk =   0.0320000
        k(   35) = (   0.2000000  -0.2000000   0.2000000), wk =   0.0320000
        k(   36) = (   0.2000000  -0.2000000   0.4000000), wk =   0.0320000
        k(   37) = (   0.2000000  -0.2000000  -0.4000000), wk =   0.0320000
        k(   38) = (   0.2000000  -0.2000000  -0.2000000), wk =   0.0320000
        k(   39) = (   0.4000000   0.0000000   0.0000000), wk =   0.0320000
        k(   40) = (   0.4000000   0.0000000   0.2000000), wk =   0.0320000
        k(   41) = (   0.4000000   0.0000000   0.4000000), wk =   0.0320000
        k(   42) = (   0.4000000   0.0000000  -0.4000000), wk =   0.0320000
        k(   43) = (   0.4000000   0.0000000  -0.2000000), wk =   0.0320000
        k(   44) = (   0.4000000   0.2000000   0.0000000), wk =   0.0320000
        k(   45) = (   0.4000000   0.2000000   0.2000000), wk =   0.0320000
        k(   46) = (   0.4000000   0.2000000   0.4000000), wk =   0.0320000
        k(   47) = (   0.4000000   0.2000000  -0.4000000), wk =   0.0320000
        k(   48) = (   0.4000000   0.2000000  -0.2000000), wk =   0.0320000
        k(   49) = (   0.4000000   0.4000000   0.0000000), wk =   0.0320000
        k(   50) = (   0.4000000   0.4000000   0.2000000), wk =   0.0320000
        k(   51) = (   0.4000000   0.4000000   0.4000000), wk =   0.0320000
        k(   52) = (   0.4000000   0.4000000  -0.4000000), wk =   0.0320000
        k(   53) = (   0.4000000   0.4000000  -0.2000000), wk =   0.0320000
        k(   54) = (   0.4000000  -0.4000000   0.0000000), wk =   0.0320000
        k(   55) = (   0.4000000  -0.4000000   0.2000000), wk =   0.0320000
        k(   56) = (   0.4000000  -0.4000000   0.4000000), wk =   0.0320000
        k(   57) = (   0.4000000  -0.4000000  -0.4000000), wk =   0.0320000
        k(   58) = (   0.4000000  -0.4000000  -0.2000000), wk =   0.0320000
        k(   59) = (   0.4000000  -0.2000000   0.0000000), wk =   0.0320000
        k(   60) = (   0.4000000  -0.2000000   0.2000000), wk =   0.0320000
        k(   61) = (   0.4000000  -0.2000000   0.4000000), wk =   0.0320000
        k(   62) = (   0.4000000  -0.2000000  -0.4000000), wk =   0.0320000
        k(   63) = (   0.4000000  -0.2000000  -0.2000000), wk =   0.0320000

                       cryst. coord.
        k(    1) = (   0.0000000   0.0000000   0.0000000), wk =   0.0160000
        k(    2) = (   0.0000000   0.0000000   0.2000000), wk =   0.0320000
        k(    3) = (   0.0000000   0.0000000   0.4000000), wk =   0.0320000
        k(    4) = (   0.0000000   0.2000000   0.0000000), wk =   0.0320000
        k(    5) = (   0.0000000   0.2000000   0.2000000), wk =   0.0320000
        k(    6) = (   0.0000000   0.2000000   0.4000000), wk =   0.0320000
        k(    7) = (   0.0000000   0.2000000  -0.4000000), wk =   0.0320000
        k(    8) = (   0.0000000   0.2000000  -0.2000000), wk =   0.0320000
        k(    9) = (   0.0000000   0.4000000   0.0000000), wk =   0.0320000
        k(   10) = (   0.0000000   0.4000000   0.2000000), wk =   0.0320000
        k(   11) = (   0.0000000   0.4000000   0.4000000), wk =   0.0320000
        k(   12) = (   0.0000000   0.4000000  -0.4000000), wk =   0.0320000
        k(   13) = (   0.0000000   0.4000000  -0.2000000), wk =   0.0320000
        k(   14) = (   0.2000000   0.0000000   0.0000000), wk =   0.0320000
        k(   15) = (   0.2000000   0.0000000   0.2000000), wk =   0.0320000
        k(   16) = (   0.2000000   0.0000000   0.4000000), wk =   0.0320000
        k(   17) = (   0.2000000   0.0000000  -0.4000000), wk =   0.0320000
        k(   18) = (   0.2000000   0.0000000  -0.2000000), wk =   0.0320000
        k(   19) = (   0.2000000   0.2000000   0.0000000), wk =   0.0320000
        k(   20) = (   0.2000000   0.2000000   0.2000000), wk =   0.0320000
        k(   21) = (   0.2000000   0.2000000   0.4000000), wk =   0.0320000
        k(   22) = (   0.2000000   0.2000000  -0.4000000), wk =   0.0320000
        k(   23) = (   0.2000000   0.2000000  -0.2000000), wk =   0.0320000
        k(   24) = (   0.2000000   0.4000000   0.0000000), wk =   0.0320000
        k(   25) = (   0.2000000   0.4000000   0.2000000), wk =   0.0320000
        k(   26) = (   0.2000000   0.4000000   0.4000000), wk =   0.0320000
        k(   27) = (   0.2000000   0.4000000  -0.4000000), wk =   0.0320000
        k(   28) = (   0.2000000   0.4000000  -0.2000000), wk =   0.0320000
        k(   29) = (   0.2000000  -0.4000000   0.0000000), wk =   0.0320000
        k(   30) = (   0.2000000  -0.4000000   0.2000000), wk =   0.0320000
        k(   31) = (   0.2000000  -0.4000000   0.4000000), wk =   0.0320000
        k(   32) = (   0.2000000  -0.4000000  -0.4000000), wk =   0.0320000
        k(   33) = (   0.2000000  -0.4000000  -0.2000000), wk =   0.0320000
        k(   34) = (   0.2000000  -0.2000000   0.0000000), wk =   0.0320000
        k(   35) = (   0.2000000  -0.2000000   0.2000000), wk =   0.0320000
        k(   36) = (   0.2000000  -0.2000000   0.4000000), wk =   0.0320000
        k(   37) = (   0.2000000  -0.2000000  -0.4000000), wk =   0.0320000
        k(   38) = (   0.2000000  -0.2000000  -0.2000000), wk =   0.0320000
        k(   39) = (   0.4000000   0.0000000   0.0000000), wk =   0.0320000
        k(   40) = (   0.4000000   0.0000000   0.2000000), wk =   0.0320000
        k(   41) = (   0.4000000   0.0000000   0.4000000), wk =   0.0320000
        k(   42) = (   0.4000000   0.0000000  -0.4000000), wk =   0.0320000
        k(   43) = (   0.4000000   0.0000000  -0.2000000), wk =   0.0320000
        k(   44) = (   0.4000000   0.2000000   0.0000000), wk =   0.0320000
        k(   45) = (   0.4000000   0.2000000   0.2000000), wk =   0.0320000
        k(   46) = (   0.4000000   0.2000000   0.4000000), wk =   0.0320000
        k(   47) = (   0.4000000   0.2000000  -0.4000000), wk =   0.0320000
        k(   48) = (   0.4000000   0.2000000  -0.2000000), wk =   0.0320000
        k(   49) = (   0.4000000   0.4000000   0.0000000), wk =   0.0320000
        k(   50) = (   0.4000000   0.4000000   0.2000000), wk =   0.0320000
        k(   51) = (   0.4000000   0.4000000   0.4000000), wk =   0.0320000
        k(   52) = (   0.4000000   0.4000000  -0.4000000), wk =   0.0320000
        k(   53) = (   0.4000000   0.4000000  -0.2000000), wk =   0.0320000
        k(   54) = (   0.4000000  -0.4000000   0.0000000), wk =   0.0320000
        k(   55) = (   0.4000000  -0.4000000   0.2000000), wk =   0.0320000
        k(   56) = (   0.4000000  -0.4000000   0.4000000), wk =   0.0320000
        k(   57) = (   0.4000000  -0.4000000  -0.4000000), wk =   0.0320000
        k(   58) = (   0.4000000  -0.4000000  -0.2000000), wk =   0.0320000
        k(   59) = (   0.4000000  -0.2000000   0.0000000), wk =   0.0320000
        k(   60) = (   0.4000000  -0.2000000   0.2000000), wk =   0.0320000
        k(   61) = (   0.4000000  -0.2000000   0.4000000), wk =   0.0320000
        k(   62) = (   0.4000000  -0.2000000  -0.4000000), wk =   0.0320000
        k(   63) = (   0.4000000  -0.2000000  -0.2000000), wk =   0.0320000

     Dense  grid:  3895379 G-vectors     FFT dimensions: ( 200, 200, 200)

     Smooth grid:   985619 G-vectors     FFT dimensions: ( 125, 125, 125)

     Dynamical RAM for                 wfc:      96.50 MB

     Dynamical RAM for     wfc (w. buffer):    1640.52 MB

     Dynamical RAM for           str. fact:      13.21 MB

     Dynamical RAM for           local pot:       0.00 MB

     Dynamical RAM for          nlocal pot:     962.51 MB

     Dynamical RAM for                qrad:      15.65 MB

     Dynamical RAM for          rho,v,vnew:      40.87 MB

     Dynamical RAM for               rhoin:      13.62 MB

     Dynamical RAM for            rho*nmix:     105.67 MB

     Dynamical RAM for           G-vectors:      25.60 MB

     Dynamical RAM for          h,s,v(r/c):      39.08 MB

     Dynamical RAM for          <psi|beta>:      32.48 MB

     Dynamical RAM for                 psi:     386.01 MB

     Dynamical RAM for                hpsi:     386.01 MB

     Dynamical RAM for                spsi:     386.01 MB

     Dynamical RAM for      wfcinit/wfcrot:     451.79 MB

     Dynamical RAM for           addusdens:     733.08 MB

     Dynamical RAM for          addusforce:    1576.13 MB

     Dynamical RAM for         addusstress:     334.34 MB

     Estimated static dynamical RAM per process >       2.81 GB

     Estimated max dynamical RAM per process >       4.34 GB

     Estimated total dynamical RAM >     156.40 GB

     Initial potential from superposition of free atoms

     starting charge  768.41544, renormalised to  769.00000
     Starting wfcs are 1024 randomized atomic wfcs
