begin
comment 4 atoms, species Al4
lattice      7.6546137133    -0.3827306857    -0.0000000000
lattice     -0.3827306857     7.6546137133    -0.0000000000
lattice     -0.0000000000    -0.0000000000     7.6737982089
atom      0.0000000000     0.0000000000     0.0000000000   Al  0.0 0.0    7.10532414e-14  9.69575778e-14 -1.13834825e-14
atom     -0.1913653428     3.8273068567     3.8368991044   Al  0.0 0.0   -2.96726728e-15 -7.42180974e-14  1.15853341e-14
atom      3.8273068567    -0.1913653428     3.8368991044   Al  0.0 0.0    2.85842570e-15  7.42030030e-14  1.14248055e-14
atom      3.6359415138     3.6359415138    -0.0000000000   Al  0.0 0.0   -7.12398058e-14 -9.69706776e-14 -1.17207037e-14
energy -7.900239749685556e+01
charge 0.0000
end
begin
comment 4 atoms, species Al4
lattice      7.6546137133    -0.2976794222    -0.0000000000
lattice     -0.2976794222     7.6546137133    -0.0000000000
lattice     -0.0000000000    -0.0000000000     7.6662076694
atom      0.0000000000     0.0000000000     0.0000000000   Al  0.0 0.0   -6.62650093e-14  1.18970755e-13  7.43264662e-14
atom     -0.1488397111     3.8273068567     3.8331038347   Al  0.0 0.0   -1.57400838e-13 -1.77353133e-13 -7.47642456e-14
atom      3.8273068567    -0.1488397111     3.8331038347   Al  0.0 0.0    1.57799673e-13  1.77274693e-13 -7.45248381e-14
atom      3.6784671456     3.6784671456    -0.0000000000   Al  0.0 0.0    6.59908745e-14 -1.18908238e-13  7.47369408e-14
energy -7.900362265600774e+01
charge 0.0000
end
begin
comment 4 atoms, species Al4
lattice      7.6546137133    -0.2126281587    -0.0000000000
lattice     -0.2126281587     7.6546137133    -0.0000000000
lattice     -0.0000000000    -0.0000000000     7.6605246120
atom      0.0000000000     0.0000000000     0.0000000000   Al  0.0 0.0   -4.44861922e-14  1.23734401e-13 -1.35896677e-13
atom     -0.1063140794     3.8273068567     3.8302623060   Al  0.0 0.0   -9.01265721e-14 -1.49190969e-13  1.36070827e-13
atom      3.8273068567    -0.1063140794     3.8302623060   Al  0.0 0.0    9.02550342e-14  1.49356816e-13  1.35933750e-13
atom      3.7209927773     3.7209927773    -0.0000000000   Al  0.0 0.0    4.45562590e-14 -1.23905493e-13 -1.36220887e-13
energy -7.900451457687348e+01
charge 0.0000
end
begin
comment 4 atoms, species Al4
lattice      7.6546137133    -0.1275768952    -0.0000000000
lattice     -0.1275768952     7.6546137133    -0.0000000000
lattice     -0.0000000000    -0.0000000000     7.6567405857
atom      0.0000000000     0.0000000000     0.0000000000   Al  0.0 0.0   -5.47973500e-14 -1.89274621e-13 -4.09471203e-14
atom     -0.0637884476     3.8273068567     3.8283702929   Al  0.0 0.0    6.39861179e-15  1.83745899e-13  4.10530667e-14
atom      3.8273068567    -0.0637884476     3.8283702929   Al  0.0 0.0   -6.65170159e-15 -1.83831428e-13  4.08305442e-14
atom      3.7635184091     3.7635184091    -0.0000000000   Al  0.0 0.0    5.47205315e-14  1.89379280e-13 -4.10027283e-14
energy -7.900509879765086e+01
charge 0.0000
end
begin
comment 4 atoms, species Al4
lattice      7.6546137133    -0.0425256317    -0.0000000000
lattice     -0.0425256317     7.6546137133    -0.0000000000
lattice     -0.0000000000    -0.0000000000     7.6548499741
atom      0.0000000000     0.0000000000     0.0000000000   Al  0.0 0.0   -1.16134323e-13 -2.13613333e-14 -2.23434160e-13
atom     -0.0212628159     3.8273068567     3.8274249871   Al  0.0 0.0   -1.14266374e-13  1.29014536e-14  2.23469155e-13
atom      3.8273068567    -0.0212628159     3.8274249871   Al  0.0 0.0    1.14281766e-13 -1.26084449e-14  2.23391239e-13
atom      3.8060440408     3.8060440408    -0.0000000000   Al  0.0 0.0    1.16337650e-13  2.13407383e-14 -2.23541852e-13
energy -7.900538906428211e+01
charge 0.0000
end
begin
comment 4 atoms, species Al4
lattice      7.6546137133     0.0425256317    -0.0000000000
lattice      0.0425256317     7.6546137133    -0.0000000000
lattice     -0.0000000000    -0.0000000000     7.6548499741
atom      0.0000000000     0.0000000000     0.0000000000   Al  0.0 0.0   -1.14265179e-13 -1.27279452e-14 -2.23600049e-13
atom      0.0212628159     3.8273068567     3.8274249871   Al  0.0 0.0   -1.16177685e-13  2.13939171e-14  2.23574839e-13
atom      3.8273068567     0.0212628159     3.8274249871   Al  0.0 0.0    1.16105904e-13 -2.16868703e-14  2.23293607e-13
atom      3.8485696725     3.8485696725    -0.0000000000   Al  0.0 0.0    1.14312122e-13  1.28280969e-14 -2.23352222e-13
energy -7.900538906428211e+01
charge 0.0000
end
begin
comment 4 atoms, species Al4
lattice      7.6546137133     0.1275768952    -0.0000000000
lattice      0.1275768952     7.6546137133    -0.0000000000
lattice     -0.0000000000    -0.0000000000     7.6567405857
atom      0.0000000000     0.0000000000     0.0000000000   Al  0.0 0.0    6.54155974e-15 -1.83901350e-13 -4.11496607e-14
atom      0.0637884476     3.8273068567     3.8283702929   Al  0.0 0.0   -5.47319323e-14  1.89236371e-13  4.11487016e-14
atom      3.8273068567     0.0637884476     3.8283702929   Al  0.0 0.0    5.46527707e-14 -1.88891724e-13  4.10457783e-14
atom      3.8910953043     3.8910953043    -0.0000000000   Al  0.0 0.0   -6.27647431e-15  1.83802592e-13 -4.06797562e-14
energy -7.900509879765086e+01
charge 0.0000
end
begin
comment 4 atoms, species Al4
lattice      7.6546137133     0.2126281587    -0.0000000000
lattice      0.2126281587     7.6546137133    -0.0000000000
lattice     -0.0000000000    -0.0000000000     7.6605246120
atom      0.0000000000     0.0000000000     0.0000000000   Al  0.0 0.0   -9.03772689e-14  1.49274180e-13 -1.35579564e-13
atom      0.1063140794     3.8273068567     3.8302623060   Al  0.0 0.0   -4.45397765e-14 -1.23827010e-13  1.35994465e-13
atom      3.8273068567     0.1063140794     3.8302623060   Al  0.0 0.0    4.44806955e-14  1.23776771e-13  1.36055691e-13
atom      3.9336209360     3.9336209360    -0.0000000000   Al  0.0 0.0    9.05058733e-14 -1.49238615e-13 -1.36235900e-13
energy -7.900451457687346e+01
charge 0.0000
end
begin
comment 4 atoms, species Al4
lattice      7.6546137133     0.2976794222    -0.0000000000
lattice      0.2976794222     7.6546137133    -0.0000000000
lattice     -0.0000000000    -0.0000000000     7.6662076694
atom      0.0000000000     0.0000000000     0.0000000000   Al  0.0 0.0   -1.57537624e-13  1.77536873e-13  7.43370916e-14
atom      0.1488397111     3.8273068567     3.8331038347   Al  0.0 0.0   -6.60523981e-14 -1.18993006e-13 -7.45549105e-14
atom      3.8273068567     0.1488397111     3.8331038347   Al  0.0 0.0    6.60992161e-14  1.18640747e-13 -7.46657405e-14
atom      3.9761465678     3.9761465678    -0.0000000000   Al  0.0 0.0    1.57535667e-13 -1.77462676e-13  7.46183539e-14
energy -7.900362265600776e+01
charge 0.0000
end
begin
comment 4 atoms, species Al4
lattice      7.6546137133     0.3827306857    -0.0000000000
lattice      0.3827306857     7.6546137133    -0.0000000000
lattice     -0.0000000000    -0.0000000000     7.6737982089
atom      0.0000000000     0.0000000000     0.0000000000   Al  0.0 0.0   -2.76806132e-15  7.40386355e-14 -1.16231046e-14
atom      0.1913653428     3.8273068567     3.8368991044   Al  0.0 0.0    7.10939155e-14 -9.71657730e-14  1.16553941e-14
atom      3.8273068567     0.1913653428     3.8368991044   Al  0.0 0.0   -7.12638288e-14  9.67478984e-14  1.16509983e-14
atom      4.0186721995     4.0186721995    -0.0000000000   Al  0.0 0.0    2.77737404e-15 -7.41708465e-14 -1.17484602e-14
energy -7.900239749685556e+01
charge 0.0000
end
