begin
comment 22 atoms, species Al6Mg8Si8
lattice     29.1627168782     0.0000000000     0.0000000000
lattice      0.0000000000     7.6666741283     0.0000000000
lattice     -3.1894971823     0.0000000000    11.6948618852
atom      3.8679473765     0.0000000000    11.5609875171   Al  0.0 0.0   -4.99999962e-08 -4.99999962e-09 -3.49999974e-08
atom      8.0828377632     3.8333399804     3.9397693156   Mg  0.0 0.0   -3.74129972e-04  9.99999925e-09 -1.97424985e-04
atom      8.6190613873     3.8333399804    10.5139730744   Mg  0.0 0.0   -5.83424956e-04  2.49999981e-08 -2.54419981e-04
atom     16.8877356475     0.0000000000     0.9131779862   Mg  0.0 0.0    5.82729956e-04 -4.99999962e-09  2.54314981e-04
atom     17.4239096949     0.0000000000     7.4873613310   Mg  0.0 0.0    3.74964972e-04 -2.49999981e-08  1.97729985e-04
atom      6.6322608955     0.0000000000     7.6214456707   Si  0.0 0.0   -2.12074984e-04 -1.99999985e-08 -7.96149940e-05
atom     11.6792598317     0.0000000000     2.3895638583   Si  0.0 0.0    2.84449979e-04 -2.99999977e-08  2.23394983e-04
atom     11.4177781633     0.0000000000     7.1819635273   Al  0.0 0.0   -2.28139983e-04 -4.49999966e-08 -3.96589970e-04
atom     14.0890013738     3.8333399804     4.2451583705   Al  0.0 0.0    2.28039983e-04  4.99999962e-08  3.96524970e-04
atom     13.8274905427     3.8333399804     9.0375580395   Si  0.0 0.0   -2.84354979e-04  2.99999977e-08 -2.23464983e-04
atom     18.8745419718     3.8333399804     3.8057083062   Si  0.0 0.0    2.12144984e-04 -2.49999981e-08  7.96149940e-05
atom     18.4493028993     3.8333399804    11.5609904334   Al  0.0 0.0   -2.99999977e-08  4.99999962e-09 -6.99999947e-08
atom     22.6641962023     0.0000000000     3.9397722319   Mg  0.0 0.0   -3.74244972e-04  2.99999977e-08 -1.97364985e-04
atom     23.2004227426     0.0000000000    10.5139730744   Mg  0.0 0.0   -5.83464956e-04  9.99999925e-09 -2.54519981e-04
atom      2.3063772084     3.8333399804     0.9131750699   Mg  0.0 0.0    5.82719956e-04 -2.99999977e-08  2.54254981e-04
atom      2.8425512558     3.8333399804     7.4873584147   Mg  0.0 0.0    3.74884972e-04 -1.49999989e-08  1.97774985e-04
atom     21.2136193346     3.8333399804     7.6214485869   Si  0.0 0.0   -2.12159984e-04  2.99999977e-08 -7.96149940e-05
atom     26.2606182708     3.8333399804     2.3895638583   Si  0.0 0.0    2.84514979e-04 -2.49999981e-08  2.23404983e-04
atom     25.9991366024     3.8333399804     7.1819635273   Al  0.0 0.0   -2.28144983e-04 -3.99999970e-08 -3.96594970e-04
atom     -0.4923599816     0.0000000000     4.2451583705   Al  0.0 0.0    2.28074983e-04  2.99999977e-08  3.96489970e-04
atom     -0.7538649801     0.0000000000     9.0375551233   Si  0.0 0.0   -2.84384979e-04  2.49999981e-08 -2.23334983e-04
atom      4.2931835327     0.0000000000     3.8057053899   Si  0.0 0.0    2.12084984e-04  2.49999981e-08  7.95649940e-05
energy -2.986781119095102e+02
charge 0.0000
end
