
     Program PWSCF v.6.3 starts on 22Feb2020 at 11:24:31 

     This program is part of the open-source Quantum ESPRESSO suite
     for quantum simulation of materials; please cite
         "P. Giannozzi et al., J. Phys.:Condens. Matter 21 395502 (2009);
         "P. Giannozzi et al., J. Phys.:Condens. Matter 29 465901 (2017);
          URL http://www.quantum-espresso.org", 
     in publications or presentations arising from this work. More details at
     http://www.quantum-espresso.org/quote

 *** WARNING: using old-style file format, will disappear from next version ***

     Parallel version (MPI & OpenMP), running on      36 processor cores
     Number of MPI processes:                36
     Threads/MPI process:                     1

     MPI processes distributed on     1 nodes
     K-points division:     npool     =       4
     R & G space division:  proc/nbgrp/npool/nimage =       9
     Reading input from aiida.in
Warning: card &IONS ignored
Warning: card   !PRESS_CONV_THR = 0.05                 ! JUST FOR VOLUME RELAXATIONS ignored
Warning: card / ignored

     Current dimensions of program PWSCF are:
     Max number of different atomic species (ntypx) = 10
     Max number of k-points (npk) =  40000
     Max angular momentum in pseudopotentials (lmaxx) =  3
               file Mg.pbe-n-kjpaw_psl.0.3.0.UPF: wavefunction(s)  3S renormalized

     Subspace diagonalization in iterative solution of the eigenvalue problem:
     one sub-group per band group will be used
     scalapack distributed-memory algorithm (size of sub-group:  2*  2 procs)

 
     Parallelization info
     --------------------
     sticks:   dense  smooth     PW     G-vecs:    dense   smooth      PW
     Min         781     312     90                40773    10323    1611
     Max         782     313     91                40774    10325    1613
     Sum        7031    2813    817               366959    92911   14507
 


     bravais-lattice index     =            0
     lattice parameter (alat)  =      28.6012  a.u.
     unit-cell volume          =    2714.9283 (a.u.)^3
     number of atoms/cell      =           22
     number of atomic types    =            2
     number of electrons       =        68.00
     number of Kohn-Sham states=           41
     kinetic-energy cutoff     =      40.0000  Ry
     charge density cutoff     =     400.0000  Ry
     convergence threshold     =      1.0E-12
     mixing beta               =       0.4000
     number of iterations used =            8  local-TF  mixing
     Exchange-correlation      = PBE ( 1  4  3  4 0 0)

     celldm(1)=  28.601187  celldm(2)=   0.000000  celldm(3)=   0.000000
     celldm(4)=   0.000000  celldm(5)=   0.000000  celldm(6)=   0.000000

     crystal axes: (cart. coord. in units of alat)
               a(1) = (   0.940296   0.000000  -0.340358 )  
               a(2) = (   0.000000   0.269614   0.000458 )  
               a(3) = (   0.000000   0.000270   0.457720 )  

     reciprocal axes: (cart. coord. in units 2 pi/alat)
               b(1) = (  1.063495  0.000000  0.000000 )  
               b(2) = ( -0.000791  3.709013 -0.002185 )  
               b(3) = (  0.790808 -0.003709  2.184743 )  


     PseudoPot. # 1 for Mg read from file:
     /users/aglensk/Dropbox/Albert/scripts/dotfiles/scripts/potentials/quantum_espresso/pseudo_SSSPefV1.1_alalloy/Mg.pbe-n-kjpaw_psl.0.3.0.UPF
     MD5 check sum: 24ecedc7f3e3cbe212e682f4413594e4
     Pseudo is Projector augmented-wave + core cor, Zval =  2.0
     Generated using "atomic" code by A. Dal Corso v.5.0.99 svn rev. 10869
     Shape of augmentation charge: PSQ
     Using radial grid of 1129 points,  4 beta functions with: 
                l(1) =   0
                l(2) =   0
                l(3) =   1
                l(4) =   1
     Q(r) pseudized with 0 coefficients 


     PseudoPot. # 2 for Si read from file:
     /users/aglensk/Dropbox/Albert/scripts/dotfiles/scripts/potentials/quantum_espresso/pseudo_SSSPefV1.1_alalloy/Si.pbe-n-rrkjus_psl.1.0.0.UPF
     MD5 check sum: 0b0bb1205258b0d07b9f9672cf965d36
     Pseudo is Ultrasoft + core correction, Zval =  4.0
     Generated using "atomic" code by A. Dal Corso v.5.1
     Using radial grid of 1141 points,  6 beta functions with: 
                l(1) =   0
                l(2) =   0
                l(3) =   1
                l(4) =   1
                l(5) =   2
                l(6) =   2
     Q(r) pseudized with 0 coefficients 


     atomic species   valence    mass     pseudopotential
        Mg             2.00    24.30500     Mg( 1.00)
        Si             4.00    28.08500     Si( 1.00)

     No symmetry found


                                    s                        frac. trans.

      isym =  1     identity                                     

 cryst.   s( 1) = (     1          0          0      )
                  (     0          1          0      )
                  (     0          0          1      )

 cart.    s( 1) = (  1.0000000  0.0000000  0.0000000 )
                  (  0.0000000  1.0000000 -0.0000000 )
                  ( -0.0000000 -0.0000000  1.0000000 )


   Cartesian axes

     site n.     atom                  positions (alat units)
         1           Mg  tau(   1) = (   0.0013233   0.0002695   0.4518838  )
         2           Mg  tau(   2) = (   0.0746532   0.1349013   0.1386470  )
         3           Mg  tau(   3) = (   0.1485049   0.1350903   0.3683686  )
         4           Mg  tau(   4) = (   0.3242996   0.2695999  -0.0918101  )
         5           Mg  tau(   5) = (   0.3981481   0.0001752   0.1374586  )
         6           Si  tau(   6) = (   0.0555905   0.0003024   0.2808970  )
         7           Si  tau(   7) = (   0.1823464   0.0001541   0.0467068  )
         8           Si  tau(   8) = (   0.1980383   0.2697467   0.2127124  )
         9           Si  tau(   9) = (   0.2747598   0.1349435   0.0638482  )
        10           Si  tau(  10) = (   0.2904524   0.1349223   0.2293957  )
        11           Si  tau(  11) = (   0.4172071   0.1347741  -0.0047940  )
        12           Mg  tau(  12) = (   0.4714817   0.1350765   0.2819407  )
        13           Mg  tau(  13) = (   0.5448048   0.2697083  -0.0313432  )
        14           Mg  tau(  14) = (   0.6186307   0.0002833   0.1979597  )
        15           Mg  tau(  15) = (   0.7944704   0.1347931  -0.2622168  )
        16           Mg  tau(  16) = (   0.8682929   0.1349819  -0.0324509  )
        17           Si  tau(  17) = (   0.5257474   0.1351102   0.1109522  )
        18           Si  tau(  18) = (   0.6525126   0.1349610  -0.1232767  )
        19           Si  tau(  19) = (   0.6681754   0.1349406   0.0422858  )
        20           Si  tau(  20) = (   0.7449188   0.0001359  -0.1065405  )
        21           Si  tau(  21) = (   0.7605824   0.2697292   0.0594792  )
        22           Si  tau(  22) = (   0.8873463   0.2695800  -0.1747489  )

   Crystallographic axes

     site n.     atom                  positions (cryst. coord.)
         1           Mg  tau(   1) = (  0.0014073  0.0000114  0.9882957  )
         2           Mg  tau(   2) = (  0.0793933  0.4999888  0.3614443  )
         3           Mg  tau(   3) = (  0.1579341  0.5001296  0.9217287  )
         4           Mg  tau(   4) = (  0.3448910  0.9998938  0.0548774  )
         5           Mg  tau(   5) = (  0.4234284  0.0000347  0.6151699  )
         6           Si  tau(   6) = (  0.0591202  0.0004640  0.6576482  )
         7           Si  tau(   7) = (  0.1939244  0.0003254  0.2462429  )
         8           Si  tau(   8) = (  0.2106127  0.9998729  0.6203318  )
         9           Si  tau(   9) = (  0.2922056  0.5001505  0.3562737  )
        10           Si  tau(  10) = (  0.3088946  0.4996979  0.7303625  )
        11           Si  tau(  11) = (  0.4436975  0.4995593  0.3189574  )
        12           Mg  tau(  12) = (  0.5014184  0.5000119  0.9883188  )
        13           Mg  tau(  13) = (  0.5793971  0.9999894  0.3613589  )
        14           Mg  tau(  14) = (  0.6579106  0.0001293  0.9217084  )
        15           Mg  tau(  15) = (  0.8449152  0.4998941  0.0548975  )
        16           Mg  tau(  16) = (  0.9234249  0.5000340  0.6152556  )
        17           Si  tau(  17) = (  0.5591296  0.5004674  0.6576663  )
        18           Si  tau(  18) = (  0.6939438  0.5003257  0.2461839  )
        19           Si  tau(  19) = (  0.7106010  0.4998756  0.6202817  )
        20           Si  tau(  20) = (  0.7922173  0.0001478  0.3563238  )
        21           Si  tau(  21) = (  0.8088754  0.9996978  0.7304213  )
        22           Si  tau(  22) = (  0.9436881  0.9995561  0.3189395  )

     number of k points=   782  Methfessel-Paxton smearing, width (Ry)=  0.0441
                       cart. coord. in units 2pi/alat
        k(    1) = (   0.0000000   0.0000000   0.0000000), wk =   0.0012821
        k(    2) = (   0.0608314  -0.0002853   0.1680572), wk =   0.0025641
        k(    3) = (   0.1216628  -0.0005706   0.3361144), wk =   0.0025641
        k(    4) = (   0.1824942  -0.0008559   0.5041716), wk =   0.0025641
        k(    5) = (   0.2433256  -0.0011412   0.6722288), wk =   0.0025641
        k(    6) = (   0.3041570  -0.0014265   0.8402860), wk =   0.0025641
        k(    7) = (   0.3649884  -0.0017118   1.0083431), wk =   0.0025641
        k(    8) = (  -0.0000395   0.1854507  -0.0001092), wk =   0.0025641
        k(    9) = (   0.0607919   0.1851654   0.1679480), wk =   0.0025641
        k(   10) = (   0.1216233   0.1848801   0.3360051), wk =   0.0025641
        k(   11) = (   0.1824547   0.1845948   0.5040623), wk =   0.0025641
        k(   12) = (   0.2432861   0.1843095   0.6721195), wk =   0.0025641
        k(   13) = (   0.3041175   0.1840242   0.8401767), wk =   0.0025641
        k(   14) = (   0.3649489   0.1837389   1.0082339), wk =   0.0025641
        k(   15) = (  -0.3650280   0.1871625  -1.0084524), wk =   0.0025641
        k(   16) = (  -0.3041966   0.1868772  -0.8403952), wk =   0.0025641
        k(   17) = (  -0.2433652   0.1865919  -0.6723380), wk =   0.0025641
        k(   18) = (  -0.1825338   0.1863066  -0.5042808), wk =   0.0025641
        k(   19) = (  -0.1217024   0.1860213  -0.3362236), wk =   0.0025641
        k(   20) = (  -0.0608709   0.1857360  -0.1681664), wk =   0.0025641
        k(   21) = (  -0.0000791   0.3709013  -0.0002185), wk =   0.0025641
        k(   22) = (   0.0607523   0.3706160   0.1678387), wk =   0.0025641
        k(   23) = (   0.1215837   0.3703307   0.3358959), wk =   0.0025641
        k(   24) = (   0.1824151   0.3700454   0.5039531), wk =   0.0025641
        k(   25) = (   0.2432466   0.3697601   0.6720103), wk =   0.0025641
        k(   26) = (   0.3040780   0.3694748   0.8400675), wk =   0.0025641
        k(   27) = (   0.3649094   0.3691895   1.0081247), wk =   0.0025641
        k(   28) = (  -0.3650675   0.3726132  -1.0085616), wk =   0.0025641
        k(   29) = (  -0.3042361   0.3723279  -0.8405044), wk =   0.0025641
        k(   30) = (  -0.2434047   0.3720426  -0.6724472), wk =   0.0025641
        k(   31) = (  -0.1825733   0.3717572  -0.5043900), wk =   0.0025641
        k(   32) = (  -0.1217419   0.3714719  -0.3363328), wk =   0.0025641
        k(   33) = (  -0.0609105   0.3711866  -0.1682757), wk =   0.0025641
        k(   34) = (  -0.0001186   0.5563520  -0.0003277), wk =   0.0025641
        k(   35) = (   0.0607128   0.5560667   0.1677295), wk =   0.0025641
        k(   36) = (   0.1215442   0.5557814   0.3357867), wk =   0.0025641
        k(   37) = (   0.1823756   0.5554961   0.5038439), wk =   0.0025641
        k(   38) = (   0.2432070   0.5552108   0.6719011), wk =   0.0025641
        k(   39) = (   0.3040384   0.5549255   0.8399583), wk =   0.0025641
        k(   40) = (   0.3648698   0.5546402   1.0080154), wk =   0.0025641
        k(   41) = (  -0.3651071   0.5580638  -1.0086708), wk =   0.0025641
        k(   42) = (  -0.3042757   0.5577785  -0.8406137), wk =   0.0025641
        k(   43) = (  -0.2434442   0.5574932  -0.6725565), wk =   0.0025641
        k(   44) = (  -0.1826128   0.5572079  -0.5044993), wk =   0.0025641
        k(   45) = (  -0.1217814   0.5569226  -0.3364421), wk =   0.0025641
        k(   46) = (  -0.0609500   0.5566373  -0.1683849), wk =   0.0025641
        k(   47) = (  -0.0001582   0.7418027  -0.0004369), wk =   0.0025641
        k(   48) = (   0.0606733   0.7415174   0.1676203), wk =   0.0025641
        k(   49) = (   0.1215047   0.7412321   0.3356774), wk =   0.0025641
        k(   50) = (   0.1823361   0.7409468   0.5037346), wk =   0.0025641
        k(   51) = (   0.2431675   0.7406615   0.6717918), wk =   0.0025641
        k(   52) = (   0.3039989   0.7403762   0.8398490), wk =   0.0025641
        k(   53) = (   0.3648303   0.7400909   1.0079062), wk =   0.0025641
        k(   54) = (  -0.3651466   0.7435145  -1.0087801), wk =   0.0025641
        k(   55) = (  -0.3043152   0.7432292  -0.8407229), wk =   0.0025641
        k(   56) = (  -0.2434838   0.7429439  -0.6726657), wk =   0.0025641
        k(   57) = (  -0.1826524   0.7426586  -0.5046085), wk =   0.0025641
        k(   58) = (  -0.1218210   0.7423733  -0.3365513), wk =   0.0025641
        k(   59) = (  -0.0609896   0.7420880  -0.1684941), wk =   0.0025641
        k(   60) = (  -0.0001977   0.9272534  -0.0005462), wk =   0.0025641
        k(   61) = (   0.0606337   0.9269681   0.1675110), wk =   0.0025641
        k(   62) = (   0.1214651   0.9266828   0.3355682), wk =   0.0025641
        k(   63) = (   0.1822965   0.9263975   0.5036254), wk =   0.0025641
        k(   64) = (   0.2431279   0.9261122   0.6716826), wk =   0.0025641
        k(   65) = (   0.3039593   0.9258269   0.8397398), wk =   0.0025641
        k(   66) = (   0.3647908   0.9255416   1.0077970), wk =   0.0025641
        k(   67) = (  -0.3651861   0.9289652  -1.0088893), wk =   0.0025641
        k(   68) = (  -0.3043547   0.9286799  -0.8408321), wk =   0.0025641
        k(   69) = (  -0.2435233   0.9283946  -0.6727749), wk =   0.0025641
        k(   70) = (  -0.1826919   0.9281093  -0.5047177), wk =   0.0025641
        k(   71) = (  -0.1218605   0.9278240  -0.3366605), wk =   0.0025641
        k(   72) = (  -0.0610291   0.9275387  -0.1686034), wk =   0.0025641
        k(   73) = (  -0.0002372   1.1127040  -0.0006554), wk =   0.0025641
        k(   74) = (   0.0605942   1.1124187   0.1674018), wk =   0.0025641
        k(   75) = (   0.1214256   1.1121334   0.3354590), wk =   0.0025641
        k(   76) = (   0.1822570   1.1118481   0.5035162), wk =   0.0025641
        k(   77) = (   0.2430884   1.1115628   0.6715734), wk =   0.0025641
        k(   78) = (   0.3039198   1.1112775   0.8396306), wk =   0.0025641
        k(   79) = (   0.3647512   1.1109922   1.0076877), wk =   0.0025641
        k(   80) = (  -0.3652257   1.1144158  -1.0089985), wk =   0.0025641
        k(   81) = (  -0.3043943   1.1141305  -0.8409414), wk =   0.0025641
        k(   82) = (  -0.2435629   1.1138452  -0.6728842), wk =   0.0025641
        k(   83) = (  -0.1827315   1.1135599  -0.5048270), wk =   0.0025641
        k(   84) = (  -0.1219000   1.1132746  -0.3367698), wk =   0.0025641
        k(   85) = (  -0.0610686   1.1129893  -0.1687126), wk =   0.0025641
        k(   86) = (  -0.0002768   1.2981547  -0.0007646), wk =   0.0025641
        k(   87) = (   0.0605546   1.2978694   0.1672926), wk =   0.0025641
        k(   88) = (   0.1213860   1.2975841   0.3353497), wk =   0.0025641
        k(   89) = (   0.1822174   1.2972988   0.5034069), wk =   0.0025641
        k(   90) = (   0.2430489   1.2970135   0.6714641), wk =   0.0025641
        k(   91) = (   0.3038803   1.2967282   0.8395213), wk =   0.0025641
        k(   92) = (   0.3647117   1.2964429   1.0075785), wk =   0.0025641
        k(   93) = (  -0.3652652   1.2998665  -1.0091078), wk =   0.0025641
        k(   94) = (  -0.3044338   1.2995812  -0.8410506), wk =   0.0025641
        k(   95) = (  -0.2436024   1.2992959  -0.6729934), wk =   0.0025641
        k(   96) = (  -0.1827710   1.2990106  -0.5049362), wk =   0.0025641
        k(   97) = (  -0.1219396   1.2987253  -0.3368790), wk =   0.0025641
        k(   98) = (  -0.0611082   1.2984400  -0.1688218), wk =   0.0025641
        k(   99) = (  -0.0003163   1.4836054  -0.0008739), wk =   0.0025641
        k(  100) = (   0.0605151   1.4833201   0.1671833), wk =   0.0025641
        k(  101) = (   0.1213465   1.4830348   0.3352405), wk =   0.0025641
        k(  102) = (   0.1821779   1.4827495   0.5032977), wk =   0.0025641
        k(  103) = (   0.2430093   1.4824642   0.6713549), wk =   0.0025641
        k(  104) = (   0.3038407   1.4821789   0.8394121), wk =   0.0025641
        k(  105) = (   0.3646721   1.4818936   1.0074693), wk =   0.0025641
        k(  106) = (  -0.3653048   1.4853172  -1.0092170), wk =   0.0025641
        k(  107) = (  -0.3044734   1.4850319  -0.8411598), wk =   0.0025641
        k(  108) = (  -0.2436419   1.4847466  -0.6731026), wk =   0.0025641
        k(  109) = (  -0.1828105   1.4844613  -0.5050454), wk =   0.0025641
        k(  110) = (  -0.1219791   1.4841760  -0.3369882), wk =   0.0025641
        k(  111) = (  -0.0611477   1.4838907  -0.1689311), wk =   0.0025641
        k(  112) = (  -0.0003559   1.6690561  -0.0009831), wk =   0.0025641
        k(  113) = (   0.0604756   1.6687708   0.1670741), wk =   0.0025641
        k(  114) = (   0.1213070   1.6684855   0.3351313), wk =   0.0025641
        k(  115) = (   0.1821384   1.6682002   0.5031885), wk =   0.0025641
        k(  116) = (   0.2429698   1.6679148   0.6712457), wk =   0.0025641
        k(  117) = (   0.3038012   1.6676295   0.8393029), wk =   0.0025641
        k(  118) = (   0.3646326   1.6673442   1.0073600), wk =   0.0025641
        k(  119) = (  -0.3653443   1.6707679  -1.0093262), wk =   0.0025641
        k(  120) = (  -0.3045129   1.6704826  -0.8412691), wk =   0.0025641
        k(  121) = (  -0.2436815   1.6701973  -0.6732119), wk =   0.0025641
        k(  122) = (  -0.1828501   1.6699120  -0.5051547), wk =   0.0025641
        k(  123) = (  -0.1220187   1.6696267  -0.3370975), wk =   0.0025641
        k(  124) = (  -0.0611873   1.6693414  -0.1690403), wk =   0.0025641
        k(  125) = (   0.0003954  -1.8545067   0.0010923), wk =   0.0012821
        k(  126) = (   0.0612268  -1.8547920   0.1691495), wk =   0.0025641
        k(  127) = (   0.1220582  -1.8550773   0.3372067), wk =   0.0025641
        k(  128) = (   0.1828896  -1.8553626   0.5052639), wk =   0.0025641
        k(  129) = (   0.2437210  -1.8556479   0.6733211), wk =   0.0025641
        k(  130) = (   0.3045524  -1.8559332   0.8413783), wk =   0.0025641
        k(  131) = (   0.3653838  -1.8562185   1.0094355), wk =   0.0025641
        k(  132) = (   0.1772491   0.0000000   0.0000000), wk =   0.0025641
        k(  133) = (   0.2380805  -0.0002853   0.1680572), wk =   0.0025641
        k(  134) = (   0.2989119  -0.0005706   0.3361144), wk =   0.0025641
        k(  135) = (   0.3597434  -0.0008559   0.5041716), wk =   0.0025641
        k(  136) = (   0.4205748  -0.0011412   0.6722288), wk =   0.0025641
        k(  137) = (   0.4814062  -0.0014265   0.8402860), wk =   0.0025641
        k(  138) = (   0.5422376  -0.0017118   1.0083431), wk =   0.0025641
        k(  139) = (  -0.1877393   0.0017118  -1.0083431), wk =   0.0025641
        k(  140) = (  -0.1269079   0.0014265  -0.8402860), wk =   0.0025641
        k(  141) = (  -0.0660765   0.0011412  -0.6722288), wk =   0.0025641
        k(  142) = (  -0.0052451   0.0008559  -0.5041716), wk =   0.0025641
        k(  143) = (   0.0555863   0.0005706  -0.3361144), wk =   0.0025641
        k(  144) = (   0.1164177   0.0002853  -0.1680572), wk =   0.0025641
        k(  145) = (   0.1772096   0.1854507  -0.0001092), wk =   0.0025641
        k(  146) = (   0.2380410   0.1851654   0.1679480), wk =   0.0025641
        k(  147) = (   0.2988724   0.1848801   0.3360051), wk =   0.0025641
        k(  148) = (   0.3597038   0.1845948   0.5040623), wk =   0.0025641
        k(  149) = (   0.4205352   0.1843095   0.6721195), wk =   0.0025641
        k(  150) = (   0.4813666   0.1840242   0.8401767), wk =   0.0025641
        k(  151) = (   0.5421980   0.1837389   1.0082339), wk =   0.0025641
        k(  152) = (  -0.1877789   0.1871625  -1.0084524), wk =   0.0025641
        k(  153) = (  -0.1269474   0.1868772  -0.8403952), wk =   0.0025641
        k(  154) = (  -0.0661160   0.1865919  -0.6723380), wk =   0.0025641
        k(  155) = (  -0.0052846   0.1863066  -0.5042808), wk =   0.0025641
        k(  156) = (   0.0555468   0.1860213  -0.3362236), wk =   0.0025641
        k(  157) = (   0.1163782   0.1857360  -0.1681664), wk =   0.0025641
        k(  158) = (   0.1771701   0.3709013  -0.0002185), wk =   0.0025641
        k(  159) = (   0.2380015   0.3706160   0.1678387), wk =   0.0025641
        k(  160) = (   0.2988329   0.3703307   0.3358959), wk =   0.0025641
        k(  161) = (   0.3596643   0.3700454   0.5039531), wk =   0.0025641
        k(  162) = (   0.4204957   0.3697601   0.6720103), wk =   0.0025641
        k(  163) = (   0.4813271   0.3694748   0.8400675), wk =   0.0025641
        k(  164) = (   0.5421585   0.3691895   1.0081247), wk =   0.0025641
        k(  165) = (  -0.1878184   0.3726132  -1.0085616), wk =   0.0025641
        k(  166) = (  -0.1269870   0.3723279  -0.8405044), wk =   0.0025641
        k(  167) = (  -0.0661556   0.3720426  -0.6724472), wk =   0.0025641
        k(  168) = (  -0.0053242   0.3717572  -0.5043900), wk =   0.0025641
        k(  169) = (   0.0555072   0.3714719  -0.3363328), wk =   0.0025641
        k(  170) = (   0.1163386   0.3711866  -0.1682757), wk =   0.0025641
        k(  171) = (   0.1771305   0.5563520  -0.0003277), wk =   0.0025641
        k(  172) = (   0.2379619   0.5560667   0.1677295), wk =   0.0025641
        k(  173) = (   0.2987933   0.5557814   0.3357867), wk =   0.0025641
        k(  174) = (   0.3596247   0.5554961   0.5038439), wk =   0.0025641
        k(  175) = (   0.4204561   0.5552108   0.6719011), wk =   0.0025641
        k(  176) = (   0.4812876   0.5549255   0.8399583), wk =   0.0025641
        k(  177) = (   0.5421190   0.5546402   1.0080154), wk =   0.0025641
        k(  178) = (  -0.1878579   0.5580638  -1.0086708), wk =   0.0025641
        k(  179) = (  -0.1270265   0.5577785  -0.8406137), wk =   0.0025641
        k(  180) = (  -0.0661951   0.5574932  -0.6725565), wk =   0.0025641
        k(  181) = (  -0.0053637   0.5572079  -0.5044993), wk =   0.0025641
        k(  182) = (   0.0554677   0.5569226  -0.3364421), wk =   0.0025641
        k(  183) = (   0.1162991   0.5566373  -0.1683849), wk =   0.0025641
        k(  184) = (   0.1770910   0.7418027  -0.0004369), wk =   0.0025641
        k(  185) = (   0.2379224   0.7415174   0.1676203), wk =   0.0025641
        k(  186) = (   0.2987538   0.7412321   0.3356774), wk =   0.0025641
        k(  187) = (   0.3595852   0.7409468   0.5037346), wk =   0.0025641
        k(  188) = (   0.4204166   0.7406615   0.6717918), wk =   0.0025641
        k(  189) = (   0.4812480   0.7403762   0.8398490), wk =   0.0025641
        k(  190) = (   0.5420794   0.7400909   1.0079062), wk =   0.0025641
        k(  191) = (  -0.1878975   0.7435145  -1.0087801), wk =   0.0025641
        k(  192) = (  -0.1270661   0.7432292  -0.8407229), wk =   0.0025641
        k(  193) = (  -0.0662347   0.7429439  -0.6726657), wk =   0.0025641
        k(  194) = (  -0.0054032   0.7426586  -0.5046085), wk =   0.0025641
        k(  195) = (   0.0554282   0.7423733  -0.3365513), wk =   0.0025641
        k(  196) = (   0.1162596   0.7420880  -0.1684941), wk =   0.0025641
        k(  197) = (   0.1770514   0.9272534  -0.0005462), wk =   0.0025641
        k(  198) = (   0.2378828   0.9269681   0.1675110), wk =   0.0025641
        k(  199) = (   0.2987143   0.9266828   0.3355682), wk =   0.0025641
        k(  200) = (   0.3595457   0.9263975   0.5036254), wk =   0.0025641
        k(  201) = (   0.4203771   0.9261122   0.6716826), wk =   0.0025641
        k(  202) = (   0.4812085   0.9258269   0.8397398), wk =   0.0025641
        k(  203) = (   0.5420399   0.9255416   1.0077970), wk =   0.0025641
        k(  204) = (  -0.1879370   0.9289652  -1.0088893), wk =   0.0025641
        k(  205) = (  -0.1271056   0.9286799  -0.8408321), wk =   0.0025641
        k(  206) = (  -0.0662742   0.9283946  -0.6727749), wk =   0.0025641
        k(  207) = (  -0.0054428   0.9281093  -0.5047177), wk =   0.0025641
        k(  208) = (   0.0553886   0.9278240  -0.3366605), wk =   0.0025641
        k(  209) = (   0.1162200   0.9275387  -0.1686034), wk =   0.0025641
        k(  210) = (   0.1770119   1.1127040  -0.0006554), wk =   0.0025641
        k(  211) = (   0.2378433   1.1124187   0.1674018), wk =   0.0025641
        k(  212) = (   0.2986747   1.1121334   0.3354590), wk =   0.0025641
        k(  213) = (   0.3595061   1.1118481   0.5035162), wk =   0.0025641
        k(  214) = (   0.4203375   1.1115628   0.6715734), wk =   0.0025641
        k(  215) = (   0.4811689   1.1112775   0.8396306), wk =   0.0025641
        k(  216) = (   0.5420003   1.1109922   1.0076877), wk =   0.0025641
        k(  217) = (  -0.1879765   1.1144158  -1.0089985), wk =   0.0025641
        k(  218) = (  -0.1271451   1.1141305  -0.8409414), wk =   0.0025641
        k(  219) = (  -0.0663137   1.1138452  -0.6728842), wk =   0.0025641
        k(  220) = (  -0.0054823   1.1135599  -0.5048270), wk =   0.0025641
        k(  221) = (   0.0553491   1.1132746  -0.3367698), wk =   0.0025641
        k(  222) = (   0.1161805   1.1129893  -0.1687126), wk =   0.0025641
        k(  223) = (   0.1769724   1.2981547  -0.0007646), wk =   0.0025641
        k(  224) = (   0.2378038   1.2978694   0.1672926), wk =   0.0025641
        k(  225) = (   0.2986352   1.2975841   0.3353497), wk =   0.0025641
        k(  226) = (   0.3594666   1.2972988   0.5034069), wk =   0.0025641
        k(  227) = (   0.4202980   1.2970135   0.6714641), wk =   0.0025641
        k(  228) = (   0.4811294   1.2967282   0.8395213), wk =   0.0025641
        k(  229) = (   0.5419608   1.2964429   1.0075785), wk =   0.0025641
        k(  230) = (  -0.1880161   1.2998665  -1.0091078), wk =   0.0025641
        k(  231) = (  -0.1271847   1.2995812  -0.8410506), wk =   0.0025641
        k(  232) = (  -0.0663533   1.2992959  -0.6729934), wk =   0.0025641
        k(  233) = (  -0.0055219   1.2990106  -0.5049362), wk =   0.0025641
        k(  234) = (   0.0553095   1.2987253  -0.3368790), wk =   0.0025641
        k(  235) = (   0.1161410   1.2984400  -0.1688218), wk =   0.0025641
        k(  236) = (   0.1769328   1.4836054  -0.0008739), wk =   0.0025641
        k(  237) = (   0.2377642   1.4833201   0.1671833), wk =   0.0025641
        k(  238) = (   0.2985956   1.4830348   0.3352405), wk =   0.0025641
        k(  239) = (   0.3594270   1.4827495   0.5032977), wk =   0.0025641
        k(  240) = (   0.4202585   1.4824642   0.6713549), wk =   0.0025641
        k(  241) = (   0.4810899   1.4821789   0.8394121), wk =   0.0025641
        k(  242) = (   0.5419213   1.4818936   1.0074693), wk =   0.0025641
        k(  243) = (  -0.1880556   1.4853172  -1.0092170), wk =   0.0025641
        k(  244) = (  -0.1272242   1.4850319  -0.8411598), wk =   0.0025641
        k(  245) = (  -0.0663928   1.4847466  -0.6731026), wk =   0.0025641
        k(  246) = (  -0.0055614   1.4844613  -0.5050454), wk =   0.0025641
        k(  247) = (   0.0552700   1.4841760  -0.3369882), wk =   0.0025641
        k(  248) = (   0.1161014   1.4838907  -0.1689311), wk =   0.0025641
        k(  249) = (   0.1768933   1.6690561  -0.0009831), wk =   0.0025641
        k(  250) = (   0.2377247   1.6687708   0.1670741), wk =   0.0025641
        k(  251) = (   0.2985561   1.6684855   0.3351313), wk =   0.0025641
        k(  252) = (   0.3593875   1.6682002   0.5031885), wk =   0.0025641
        k(  253) = (   0.4202189   1.6679148   0.6712457), wk =   0.0025641
        k(  254) = (   0.4810503   1.6676295   0.8393029), wk =   0.0025641
        k(  255) = (   0.5418817   1.6673442   1.0073600), wk =   0.0025641
        k(  256) = (  -0.1880952   1.6707679  -1.0093262), wk =   0.0025641
        k(  257) = (  -0.1272638   1.6704826  -0.8412691), wk =   0.0025641
        k(  258) = (  -0.0664323   1.6701973  -0.6732119), wk =   0.0025641
        k(  259) = (  -0.0056009   1.6699120  -0.5051547), wk =   0.0025641
        k(  260) = (   0.0552305   1.6696267  -0.3370975), wk =   0.0025641
        k(  261) = (   0.1160619   1.6693414  -0.1690403), wk =   0.0025641
        k(  262) = (   0.1776445  -1.8545067   0.0010923), wk =   0.0025641
        k(  263) = (   0.2384759  -1.8547920   0.1691495), wk =   0.0025641
        k(  264) = (   0.2993073  -1.8550773   0.3372067), wk =   0.0025641
        k(  265) = (   0.3601387  -1.8553626   0.5052639), wk =   0.0025641
        k(  266) = (   0.4209702  -1.8556479   0.6733211), wk =   0.0025641
        k(  267) = (   0.4818016  -1.8559332   0.8413783), wk =   0.0025641
        k(  268) = (   0.5426330  -1.8562185   1.0094355), wk =   0.0025641
        k(  269) = (  -0.1873439  -1.8527949  -1.0072508), wk =   0.0025641
        k(  270) = (  -0.1265125  -1.8530802  -0.8391936), wk =   0.0025641
        k(  271) = (  -0.0656811  -1.8533655  -0.6711364), wk =   0.0025641
        k(  272) = (  -0.0048497  -1.8536508  -0.5030792), wk =   0.0025641
        k(  273) = (   0.0559817  -1.8539361  -0.3350220), wk =   0.0025641
        k(  274) = (   0.1168131  -1.8542214  -0.1669649), wk =   0.0025641
        k(  275) = (   0.1776050  -1.6690561   0.0009831), wk =   0.0025641
        k(  276) = (   0.2384364  -1.6693414   0.1690403), wk =   0.0025641
        k(  277) = (   0.2992678  -1.6696267   0.3370975), wk =   0.0025641
        k(  278) = (   0.3600992  -1.6699120   0.5051547), wk =   0.0025641
        k(  279) = (   0.4209306  -1.6701973   0.6732119), wk =   0.0025641
        k(  280) = (   0.4817620  -1.6704826   0.8412691), wk =   0.0025641
        k(  281) = (   0.5425934  -1.6707679   1.0093262), wk =   0.0025641
        k(  282) = (  -0.1873835  -1.6673442  -1.0073600), wk =   0.0025641
        k(  283) = (  -0.1265521  -1.6676295  -0.8393029), wk =   0.0025641
        k(  284) = (  -0.0657206  -1.6679148  -0.6712457), wk =   0.0025641
        k(  285) = (  -0.0048892  -1.6682002  -0.5031885), wk =   0.0025641
        k(  286) = (   0.0559422  -1.6684855  -0.3351313), wk =   0.0025641
        k(  287) = (   0.1167736  -1.6687708  -0.1670741), wk =   0.0025641
        k(  288) = (   0.1775654  -1.4836054   0.0008739), wk =   0.0025641
        k(  289) = (   0.2383969  -1.4838907   0.1689311), wk =   0.0025641
        k(  290) = (   0.2992283  -1.4841760   0.3369882), wk =   0.0025641
        k(  291) = (   0.3600597  -1.4844613   0.5050454), wk =   0.0025641
        k(  292) = (   0.4208911  -1.4847466   0.6731026), wk =   0.0025641
        k(  293) = (   0.4817225  -1.4850319   0.8411598), wk =   0.0025641
        k(  294) = (   0.5425539  -1.4853172   1.0092170), wk =   0.0025641
        k(  295) = (  -0.1874230  -1.4818936  -1.0074693), wk =   0.0025641
        k(  296) = (  -0.1265916  -1.4821789  -0.8394121), wk =   0.0025641
        k(  297) = (  -0.0657602  -1.4824642  -0.6713549), wk =   0.0025641
        k(  298) = (  -0.0049288  -1.4827495  -0.5032977), wk =   0.0025641
        k(  299) = (   0.0559026  -1.4830348  -0.3352405), wk =   0.0025641
        k(  300) = (   0.1167340  -1.4833201  -0.1671833), wk =   0.0025641
        k(  301) = (   0.1775259  -1.2981547   0.0007646), wk =   0.0025641
        k(  302) = (   0.2383573  -1.2984400   0.1688218), wk =   0.0025641
        k(  303) = (   0.2991887  -1.2987253   0.3368790), wk =   0.0025641
        k(  304) = (   0.3600201  -1.2990106   0.5049362), wk =   0.0025641
        k(  305) = (   0.4208515  -1.2992959   0.6729934), wk =   0.0025641
        k(  306) = (   0.4816829  -1.2995812   0.8410506), wk =   0.0025641
        k(  307) = (   0.5425144  -1.2998665   1.0091078), wk =   0.0025641
        k(  308) = (  -0.1874625  -1.2964429  -1.0075785), wk =   0.0025641
        k(  309) = (  -0.1266311  -1.2967282  -0.8395213), wk =   0.0025641
        k(  310) = (  -0.0657997  -1.2970135  -0.6714641), wk =   0.0025641
        k(  311) = (  -0.0049683  -1.2972988  -0.5034069), wk =   0.0025641
        k(  312) = (   0.0558631  -1.2975841  -0.3353497), wk =   0.0025641
        k(  313) = (   0.1166945  -1.2978694  -0.1672926), wk =   0.0025641
        k(  314) = (   0.1774864  -1.1127040   0.0006554), wk =   0.0025641
        k(  315) = (   0.2383178  -1.1129893   0.1687126), wk =   0.0025641
        k(  316) = (   0.2991492  -1.1132746   0.3367698), wk =   0.0025641
        k(  317) = (   0.3599806  -1.1135599   0.5048270), wk =   0.0025641
        k(  318) = (   0.4208120  -1.1138452   0.6728842), wk =   0.0025641
        k(  319) = (   0.4816434  -1.1141305   0.8409414), wk =   0.0025641
        k(  320) = (   0.5424748  -1.1144158   1.0089985), wk =   0.0025641
        k(  321) = (  -0.1875021  -1.1109922  -1.0076877), wk =   0.0025641
        k(  322) = (  -0.1266707  -1.1112775  -0.8396306), wk =   0.0025641
        k(  323) = (  -0.0658393  -1.1115628  -0.6715734), wk =   0.0025641
        k(  324) = (  -0.0050079  -1.1118481  -0.5035162), wk =   0.0025641
        k(  325) = (   0.0558236  -1.1121334  -0.3354590), wk =   0.0025641
        k(  326) = (   0.1166550  -1.1124187  -0.1674018), wk =   0.0025641
        k(  327) = (   0.1774468  -0.9272534   0.0005462), wk =   0.0025641
        k(  328) = (   0.2382782  -0.9275387   0.1686034), wk =   0.0025641
        k(  329) = (   0.2991096  -0.9278240   0.3366605), wk =   0.0025641
        k(  330) = (   0.3599411  -0.9281093   0.5047177), wk =   0.0025641
        k(  331) = (   0.4207725  -0.9283946   0.6727749), wk =   0.0025641
        k(  332) = (   0.4816039  -0.9286799   0.8408321), wk =   0.0025641
        k(  333) = (   0.5424353  -0.9289652   1.0088893), wk =   0.0025641
        k(  334) = (  -0.1875416  -0.9255416  -1.0077970), wk =   0.0025641
        k(  335) = (  -0.1267102  -0.9258269  -0.8397398), wk =   0.0025641
        k(  336) = (  -0.0658788  -0.9261122  -0.6716826), wk =   0.0025641
        k(  337) = (  -0.0050474  -0.9263975  -0.5036254), wk =   0.0025641
        k(  338) = (   0.0557840  -0.9266828  -0.3355682), wk =   0.0025641
        k(  339) = (   0.1166154  -0.9269681  -0.1675110), wk =   0.0025641
        k(  340) = (   0.1774073  -0.7418027   0.0004369), wk =   0.0025641
        k(  341) = (   0.2382387  -0.7420880   0.1684941), wk =   0.0025641
        k(  342) = (   0.2990701  -0.7423733   0.3365513), wk =   0.0025641
        k(  343) = (   0.3599015  -0.7426586   0.5046085), wk =   0.0025641
        k(  344) = (   0.4207329  -0.7429439   0.6726657), wk =   0.0025641
        k(  345) = (   0.4815643  -0.7432292   0.8407229), wk =   0.0025641
        k(  346) = (   0.5423957  -0.7435145   1.0087801), wk =   0.0025641
        k(  347) = (  -0.1875812  -0.7400909  -1.0079062), wk =   0.0025641
        k(  348) = (  -0.1267497  -0.7403762  -0.8398490), wk =   0.0025641
        k(  349) = (  -0.0659183  -0.7406615  -0.6717918), wk =   0.0025641
        k(  350) = (  -0.0050869  -0.7409468  -0.5037346), wk =   0.0025641
        k(  351) = (   0.0557445  -0.7412321  -0.3356774), wk =   0.0025641
        k(  352) = (   0.1165759  -0.7415174  -0.1676203), wk =   0.0025641
        k(  353) = (   0.1773678  -0.5563520   0.0003277), wk =   0.0025641
        k(  354) = (   0.2381992  -0.5566373   0.1683849), wk =   0.0025641
        k(  355) = (   0.2990306  -0.5569226   0.3364421), wk =   0.0025641
        k(  356) = (   0.3598620  -0.5572079   0.5044993), wk =   0.0025641
        k(  357) = (   0.4206934  -0.5574932   0.6725565), wk =   0.0025641
        k(  358) = (   0.4815248  -0.5577785   0.8406137), wk =   0.0025641
        k(  359) = (   0.5423562  -0.5580638   1.0086708), wk =   0.0025641
        k(  360) = (  -0.1876207  -0.5546402  -1.0080154), wk =   0.0025641
        k(  361) = (  -0.1267893  -0.5549255  -0.8399583), wk =   0.0025641
        k(  362) = (  -0.0659579  -0.5552108  -0.6719011), wk =   0.0025641
        k(  363) = (  -0.0051265  -0.5554961  -0.5038439), wk =   0.0025641
        k(  364) = (   0.0557049  -0.5557814  -0.3357867), wk =   0.0025641
        k(  365) = (   0.1165363  -0.5560667  -0.1677295), wk =   0.0025641
        k(  366) = (   0.1773282  -0.3709013   0.0002185), wk =   0.0025641
        k(  367) = (   0.2381596  -0.3711866   0.1682757), wk =   0.0025641
        k(  368) = (   0.2989910  -0.3714719   0.3363328), wk =   0.0025641
        k(  369) = (   0.3598224  -0.3717572   0.5043900), wk =   0.0025641
        k(  370) = (   0.4206538  -0.3720426   0.6724472), wk =   0.0025641
        k(  371) = (   0.4814852  -0.3723279   0.8405044), wk =   0.0025641
        k(  372) = (   0.5423167  -0.3726132   1.0085616), wk =   0.0025641
        k(  373) = (  -0.1876602  -0.3691895  -1.0081247), wk =   0.0025641
        k(  374) = (  -0.1268288  -0.3694748  -0.8400675), wk =   0.0025641
        k(  375) = (  -0.0659974  -0.3697601  -0.6720103), wk =   0.0025641
        k(  376) = (  -0.0051660  -0.3700454  -0.5039531), wk =   0.0025641
        k(  377) = (   0.0556654  -0.3703307  -0.3358959), wk =   0.0025641
        k(  378) = (   0.1164968  -0.3706160  -0.1678387), wk =   0.0025641
        k(  379) = (   0.1772887  -0.1854507   0.0001092), wk =   0.0025641
        k(  380) = (   0.2381201  -0.1857360   0.1681664), wk =   0.0025641
        k(  381) = (   0.2989515  -0.1860213   0.3362236), wk =   0.0025641
        k(  382) = (   0.3597829  -0.1863066   0.5042808), wk =   0.0025641
        k(  383) = (   0.4206143  -0.1865919   0.6723380), wk =   0.0025641
        k(  384) = (   0.4814457  -0.1868772   0.8403952), wk =   0.0025641
        k(  385) = (   0.5422771  -0.1871625   1.0084524), wk =   0.0025641
        k(  386) = (  -0.1876998  -0.1837389  -1.0082339), wk =   0.0025641
        k(  387) = (  -0.1268684  -0.1840242  -0.8401767), wk =   0.0025641
        k(  388) = (  -0.0660370  -0.1843095  -0.6721195), wk =   0.0025641
        k(  389) = (  -0.0052056  -0.1845948  -0.5040623), wk =   0.0025641
        k(  390) = (   0.0556259  -0.1848801  -0.3360051), wk =   0.0025641
        k(  391) = (   0.1164573  -0.1851654  -0.1679480), wk =   0.0025641
        k(  392) = (   0.3544983   0.0000000   0.0000000), wk =   0.0025641
        k(  393) = (   0.4153297  -0.0002853   0.1680572), wk =   0.0025641
        k(  394) = (   0.4761611  -0.0005706   0.3361144), wk =   0.0025641
        k(  395) = (   0.5369925  -0.0008559   0.5041716), wk =   0.0025641
        k(  396) = (   0.5978239  -0.0011412   0.6722288), wk =   0.0025641
        k(  397) = (   0.6586553  -0.0014265   0.8402860), wk =   0.0025641
        k(  398) = (   0.7194867  -0.0017118   1.0083431), wk =   0.0025641
        k(  399) = (  -0.0104902   0.0017118  -1.0083431), wk =   0.0025641
        k(  400) = (   0.0503412   0.0014265  -0.8402860), wk =   0.0025641
        k(  401) = (   0.1111726   0.0011412  -0.6722288), wk =   0.0025641
        k(  402) = (   0.1720040   0.0008559  -0.5041716), wk =   0.0025641
        k(  403) = (   0.2328355   0.0005706  -0.3361144), wk =   0.0025641
        k(  404) = (   0.2936669   0.0002853  -0.1680572), wk =   0.0025641
        k(  405) = (   0.3544587   0.1854507  -0.0001092), wk =   0.0025641
        k(  406) = (   0.4152901   0.1851654   0.1679480), wk =   0.0025641
        k(  407) = (   0.4761215   0.1848801   0.3360051), wk =   0.0025641
        k(  408) = (   0.5369530   0.1845948   0.5040623), wk =   0.0025641
        k(  409) = (   0.5977844   0.1843095   0.6721195), wk =   0.0025641
        k(  410) = (   0.6586158   0.1840242   0.8401767), wk =   0.0025641
        k(  411) = (   0.7194472   0.1837389   1.0082339), wk =   0.0025641
        k(  412) = (  -0.0105297   0.1871625  -1.0084524), wk =   0.0025641
        k(  413) = (   0.0503017   0.1868772  -0.8403952), wk =   0.0025641
        k(  414) = (   0.1111331   0.1865919  -0.6723380), wk =   0.0025641
        k(  415) = (   0.1719645   0.1863066  -0.5042808), wk =   0.0025641
        k(  416) = (   0.2327959   0.1860213  -0.3362236), wk =   0.0025641
        k(  417) = (   0.2936273   0.1857360  -0.1681664), wk =   0.0025641
        k(  418) = (   0.3544192   0.3709013  -0.0002185), wk =   0.0025641
        k(  419) = (   0.4152506   0.3706160   0.1678387), wk =   0.0025641
        k(  420) = (   0.4760820   0.3703307   0.3358959), wk =   0.0025641
        k(  421) = (   0.5369134   0.3700454   0.5039531), wk =   0.0025641
        k(  422) = (   0.5977448   0.3697601   0.6720103), wk =   0.0025641
        k(  423) = (   0.6585762   0.3694748   0.8400675), wk =   0.0025641
        k(  424) = (   0.7194076   0.3691895   1.0081247), wk =   0.0025641
        k(  425) = (  -0.0105693   0.3726132  -1.0085616), wk =   0.0025641
        k(  426) = (   0.0502622   0.3723279  -0.8405044), wk =   0.0025641
        k(  427) = (   0.1110936   0.3720426  -0.6724472), wk =   0.0025641
        k(  428) = (   0.1719250   0.3717572  -0.5043900), wk =   0.0025641
        k(  429) = (   0.2327564   0.3714719  -0.3363328), wk =   0.0025641
        k(  430) = (   0.2935878   0.3711866  -0.1682757), wk =   0.0025641
        k(  431) = (   0.3543796   0.5563520  -0.0003277), wk =   0.0025641
        k(  432) = (   0.4152111   0.5560667   0.1677295), wk =   0.0025641
        k(  433) = (   0.4760425   0.5557814   0.3357867), wk =   0.0025641
        k(  434) = (   0.5368739   0.5554961   0.5038439), wk =   0.0025641
        k(  435) = (   0.5977053   0.5552108   0.6719011), wk =   0.0025641
        k(  436) = (   0.6585367   0.5549255   0.8399583), wk =   0.0025641
        k(  437) = (   0.7193681   0.5546402   1.0080154), wk =   0.0025641
        k(  438) = (  -0.0106088   0.5580638  -1.0086708), wk =   0.0025641
        k(  439) = (   0.0502226   0.5577785  -0.8406137), wk =   0.0025641
        k(  440) = (   0.1110540   0.5574932  -0.6725565), wk =   0.0025641
        k(  441) = (   0.1718854   0.5572079  -0.5044993), wk =   0.0025641
        k(  442) = (   0.2327168   0.5569226  -0.3364421), wk =   0.0025641
        k(  443) = (   0.2935482   0.5566373  -0.1683849), wk =   0.0025641
        k(  444) = (   0.3543401   0.7418027  -0.0004369), wk =   0.0025641
        k(  445) = (   0.4151715   0.7415174   0.1676203), wk =   0.0025641
        k(  446) = (   0.4760029   0.7412321   0.3356774), wk =   0.0025641
        k(  447) = (   0.5368343   0.7409468   0.5037346), wk =   0.0025641
        k(  448) = (   0.5976657   0.7406615   0.6717918), wk =   0.0025641
        k(  449) = (   0.6584971   0.7403762   0.8398490), wk =   0.0025641
        k(  450) = (   0.7193286   0.7400909   1.0079062), wk =   0.0025641
        k(  451) = (  -0.0106483   0.7435145  -1.0087801), wk =   0.0025641
        k(  452) = (   0.0501831   0.7432292  -0.8407229), wk =   0.0025641
        k(  453) = (   0.1110145   0.7429439  -0.6726657), wk =   0.0025641
        k(  454) = (   0.1718459   0.7426586  -0.5046085), wk =   0.0025641
        k(  455) = (   0.2326773   0.7423733  -0.3365513), wk =   0.0025641
        k(  456) = (   0.2935087   0.7420880  -0.1684941), wk =   0.0025641
        k(  457) = (   0.3543006   0.9272534  -0.0005462), wk =   0.0025641
        k(  458) = (   0.4151320   0.9269681   0.1675110), wk =   0.0025641
        k(  459) = (   0.4759634   0.9266828   0.3355682), wk =   0.0025641
        k(  460) = (   0.5367948   0.9263975   0.5036254), wk =   0.0025641
        k(  461) = (   0.5976262   0.9261122   0.6716826), wk =   0.0025641
        k(  462) = (   0.6584576   0.9258269   0.8397398), wk =   0.0025641
        k(  463) = (   0.7192890   0.9255416   1.0077970), wk =   0.0025641
        k(  464) = (  -0.0106879   0.9289652  -1.0088893), wk =   0.0025641
        k(  465) = (   0.0501435   0.9286799  -0.8408321), wk =   0.0025641
        k(  466) = (   0.1109749   0.9283946  -0.6727749), wk =   0.0025641
        k(  467) = (   0.1718063   0.9281093  -0.5047177), wk =   0.0025641
        k(  468) = (   0.2326378   0.9278240  -0.3366605), wk =   0.0025641
        k(  469) = (   0.2934692   0.9275387  -0.1686034), wk =   0.0025641
        k(  470) = (   0.3542610   1.1127040  -0.0006554), wk =   0.0025641
        k(  471) = (   0.4150924   1.1124187   0.1674018), wk =   0.0025641
        k(  472) = (   0.4759238   1.1121334   0.3354590), wk =   0.0025641
        k(  473) = (   0.5367553   1.1118481   0.5035162), wk =   0.0025641
        k(  474) = (   0.5975867   1.1115628   0.6715734), wk =   0.0025641
        k(  475) = (   0.6584181   1.1112775   0.8396306), wk =   0.0025641
        k(  476) = (   0.7192495   1.1109922   1.0076877), wk =   0.0025641
        k(  477) = (  -0.0107274   1.1144158  -1.0089985), wk =   0.0025641
        k(  478) = (   0.0501040   1.1141305  -0.8409414), wk =   0.0025641
        k(  479) = (   0.1109354   1.1138452  -0.6728842), wk =   0.0025641
        k(  480) = (   0.1717668   1.1135599  -0.5048270), wk =   0.0025641
        k(  481) = (   0.2325982   1.1132746  -0.3367698), wk =   0.0025641
        k(  482) = (   0.2934296   1.1129893  -0.1687126), wk =   0.0025641
        k(  483) = (   0.3542215   1.2981547  -0.0007646), wk =   0.0025641
        k(  484) = (   0.4150529   1.2978694   0.1672926), wk =   0.0025641
        k(  485) = (   0.4758843   1.2975841   0.3353497), wk =   0.0025641
        k(  486) = (   0.5367157   1.2972988   0.5034069), wk =   0.0025641
        k(  487) = (   0.5975471   1.2970135   0.6714641), wk =   0.0025641
        k(  488) = (   0.6583785   1.2967282   0.8395213), wk =   0.0025641
        k(  489) = (   0.7192099   1.2964429   1.0075785), wk =   0.0025641
        k(  490) = (  -0.0107670   1.2998665  -1.0091078), wk =   0.0025641
        k(  491) = (   0.0500645   1.2995812  -0.8410506), wk =   0.0025641
        k(  492) = (   0.1108959   1.2992959  -0.6729934), wk =   0.0025641
        k(  493) = (   0.1717273   1.2990106  -0.5049362), wk =   0.0025641
        k(  494) = (   0.2325587   1.2987253  -0.3368790), wk =   0.0025641
        k(  495) = (   0.2933901   1.2984400  -0.1688218), wk =   0.0025641
        k(  496) = (   0.3541820   1.4836054  -0.0008739), wk =   0.0025641
        k(  497) = (   0.4150134   1.4833201   0.1671833), wk =   0.0025641
        k(  498) = (   0.4758448   1.4830348   0.3352405), wk =   0.0025641
        k(  499) = (   0.5366762   1.4827495   0.5032977), wk =   0.0025641
        k(  500) = (   0.5975076   1.4824642   0.6713549), wk =   0.0025641
        k(  501) = (   0.6583390   1.4821789   0.8394121), wk =   0.0025641
        k(  502) = (   0.7191704   1.4818936   1.0074693), wk =   0.0025641
        k(  503) = (  -0.0108065   1.4853172  -1.0092170), wk =   0.0025641
        k(  504) = (   0.0500249   1.4850319  -0.8411598), wk =   0.0025641
        k(  505) = (   0.1108563   1.4847466  -0.6731026), wk =   0.0025641
        k(  506) = (   0.1716877   1.4844613  -0.5050454), wk =   0.0025641
        k(  507) = (   0.2325191   1.4841760  -0.3369882), wk =   0.0025641
        k(  508) = (   0.2933505   1.4838907  -0.1689311), wk =   0.0025641
        k(  509) = (   0.3541424   1.6690561  -0.0009831), wk =   0.0025641
        k(  510) = (   0.4149738   1.6687708   0.1670741), wk =   0.0025641
        k(  511) = (   0.4758052   1.6684855   0.3351313), wk =   0.0025641
        k(  512) = (   0.5366366   1.6682002   0.5031885), wk =   0.0025641
        k(  513) = (   0.5974680   1.6679148   0.6712457), wk =   0.0025641
        k(  514) = (   0.6582995   1.6676295   0.8393029), wk =   0.0025641
        k(  515) = (   0.7191309   1.6673442   1.0073600), wk =   0.0025641
        k(  516) = (  -0.0108460   1.6707679  -1.0093262), wk =   0.0025641
        k(  517) = (   0.0499854   1.6704826  -0.8412691), wk =   0.0025641
        k(  518) = (   0.1108168   1.6701973  -0.6732119), wk =   0.0025641
        k(  519) = (   0.1716482   1.6699120  -0.5051547), wk =   0.0025641
        k(  520) = (   0.2324796   1.6696267  -0.3370975), wk =   0.0025641
        k(  521) = (   0.2933110   1.6693414  -0.1690403), wk =   0.0025641
        k(  522) = (   0.3548937  -1.8545067   0.0010923), wk =   0.0025641
        k(  523) = (   0.4157251  -1.8547920   0.1691495), wk =   0.0025641
        k(  524) = (   0.4765565  -1.8550773   0.3372067), wk =   0.0025641
        k(  525) = (   0.5373879  -1.8553626   0.5052639), wk =   0.0025641
        k(  526) = (   0.5982193  -1.8556479   0.6733211), wk =   0.0025641
        k(  527) = (   0.6590507  -1.8559332   0.8413783), wk =   0.0025641
        k(  528) = (   0.7198821  -1.8562185   1.0094355), wk =   0.0025641
        k(  529) = (  -0.0100948  -1.8527949  -1.0072508), wk =   0.0025641
        k(  530) = (   0.0507366  -1.8530802  -0.8391936), wk =   0.0025641
        k(  531) = (   0.1115680  -1.8533655  -0.6711364), wk =   0.0025641
        k(  532) = (   0.1723994  -1.8536508  -0.5030792), wk =   0.0025641
        k(  533) = (   0.2332308  -1.8539361  -0.3350220), wk =   0.0025641
        k(  534) = (   0.2940622  -1.8542214  -0.1669649), wk =   0.0025641
        k(  535) = (   0.3548541  -1.6690561   0.0009831), wk =   0.0025641
        k(  536) = (   0.4156855  -1.6693414   0.1690403), wk =   0.0025641
        k(  537) = (   0.4765169  -1.6696267   0.3370975), wk =   0.0025641
        k(  538) = (   0.5373483  -1.6699120   0.5051547), wk =   0.0025641
        k(  539) = (   0.5981797  -1.6701973   0.6732119), wk =   0.0025641
        k(  540) = (   0.6590112  -1.6704826   0.8412691), wk =   0.0025641
        k(  541) = (   0.7198426  -1.6707679   1.0093262), wk =   0.0025641
        k(  542) = (  -0.0101343  -1.6673442  -1.0073600), wk =   0.0025641
        k(  543) = (   0.0506971  -1.6676295  -0.8393029), wk =   0.0025641
        k(  544) = (   0.1115285  -1.6679148  -0.6712457), wk =   0.0025641
        k(  545) = (   0.1723599  -1.6682002  -0.5031885), wk =   0.0025641
        k(  546) = (   0.2331913  -1.6684855  -0.3351313), wk =   0.0025641
        k(  547) = (   0.2940227  -1.6687708  -0.1670741), wk =   0.0025641
        k(  548) = (   0.3548146  -1.4836054   0.0008739), wk =   0.0025641
        k(  549) = (   0.4156460  -1.4838907   0.1689311), wk =   0.0025641
        k(  550) = (   0.4764774  -1.4841760   0.3369882), wk =   0.0025641
        k(  551) = (   0.5373088  -1.4844613   0.5050454), wk =   0.0025641
        k(  552) = (   0.5981402  -1.4847466   0.6731026), wk =   0.0025641
        k(  553) = (   0.6589716  -1.4850319   0.8411598), wk =   0.0025641
        k(  554) = (   0.7198030  -1.4853172   1.0092170), wk =   0.0025641
        k(  555) = (  -0.0101739  -1.4818936  -1.0074693), wk =   0.0025641
        k(  556) = (   0.0506575  -1.4821789  -0.8394121), wk =   0.0025641
        k(  557) = (   0.1114889  -1.4824642  -0.6713549), wk =   0.0025641
        k(  558) = (   0.1723204  -1.4827495  -0.5032977), wk =   0.0025641
        k(  559) = (   0.2331518  -1.4830348  -0.3352405), wk =   0.0025641
        k(  560) = (   0.2939832  -1.4833201  -0.1671833), wk =   0.0025641
        k(  561) = (   0.3547750  -1.2981547   0.0007646), wk =   0.0025641
        k(  562) = (   0.4156064  -1.2984400   0.1688218), wk =   0.0025641
        k(  563) = (   0.4764379  -1.2987253   0.3368790), wk =   0.0025641
        k(  564) = (   0.5372693  -1.2990106   0.5049362), wk =   0.0025641
        k(  565) = (   0.5981007  -1.2992959   0.6729934), wk =   0.0025641
        k(  566) = (   0.6589321  -1.2995812   0.8410506), wk =   0.0025641
        k(  567) = (   0.7197635  -1.2998665   1.0091078), wk =   0.0025641
        k(  568) = (  -0.0102134  -1.2964429  -1.0075785), wk =   0.0025641
        k(  569) = (   0.0506180  -1.2967282  -0.8395213), wk =   0.0025641
        k(  570) = (   0.1114494  -1.2970135  -0.6714641), wk =   0.0025641
        k(  571) = (   0.1722808  -1.2972988  -0.5034069), wk =   0.0025641
        k(  572) = (   0.2331122  -1.2975841  -0.3353497), wk =   0.0025641
        k(  573) = (   0.2939436  -1.2978694  -0.1672926), wk =   0.0025641
        k(  574) = (   0.3547355  -1.1127040   0.0006554), wk =   0.0025641
        k(  575) = (   0.4155669  -1.1129893   0.1687126), wk =   0.0025641
        k(  576) = (   0.4763983  -1.1132746   0.3367698), wk =   0.0025641
        k(  577) = (   0.5372297  -1.1135599   0.5048270), wk =   0.0025641
        k(  578) = (   0.5980611  -1.1138452   0.6728842), wk =   0.0025641
        k(  579) = (   0.6588925  -1.1141305   0.8409414), wk =   0.0025641
        k(  580) = (   0.7197239  -1.1144158   1.0089985), wk =   0.0025641
        k(  581) = (  -0.0102529  -1.1109922  -1.0076877), wk =   0.0025641
        k(  582) = (   0.0505785  -1.1112775  -0.8396306), wk =   0.0025641
        k(  583) = (   0.1114099  -1.1115628  -0.6715734), wk =   0.0025641
        k(  584) = (   0.1722413  -1.1118481  -0.5035162), wk =   0.0025641
        k(  585) = (   0.2330727  -1.1121334  -0.3354590), wk =   0.0025641
        k(  586) = (   0.2939041  -1.1124187  -0.1674018), wk =   0.0025641
        k(  587) = (   0.3546960  -0.9272534   0.0005462), wk =   0.0025641
        k(  588) = (   0.4155274  -0.9275387   0.1686034), wk =   0.0025641
        k(  589) = (   0.4763588  -0.9278240   0.3366605), wk =   0.0025641
        k(  590) = (   0.5371902  -0.9281093   0.5047177), wk =   0.0025641
        k(  591) = (   0.5980216  -0.9283946   0.6727749), wk =   0.0025641
        k(  592) = (   0.6588530  -0.9286799   0.8408321), wk =   0.0025641
        k(  593) = (   0.7196844  -0.9289652   1.0088893), wk =   0.0025641
        k(  594) = (  -0.0102925  -0.9255416  -1.0077970), wk =   0.0025641
        k(  595) = (   0.0505389  -0.9258269  -0.8397398), wk =   0.0025641
        k(  596) = (   0.1113703  -0.9261122  -0.6716826), wk =   0.0025641
        k(  597) = (   0.1722017  -0.9263975  -0.5036254), wk =   0.0025641
        k(  598) = (   0.2330331  -0.9266828  -0.3355682), wk =   0.0025641
        k(  599) = (   0.2938646  -0.9269681  -0.1675110), wk =   0.0025641
        k(  600) = (   0.3546564  -0.7418027   0.0004369), wk =   0.0025641
        k(  601) = (   0.4154878  -0.7420880   0.1684941), wk =   0.0025641
        k(  602) = (   0.4763192  -0.7423733   0.3365513), wk =   0.0025641
        k(  603) = (   0.5371506  -0.7426586   0.5046085), wk =   0.0025641
        k(  604) = (   0.5979821  -0.7429439   0.6726657), wk =   0.0025641
        k(  605) = (   0.6588135  -0.7432292   0.8407229), wk =   0.0025641
        k(  606) = (   0.7196449  -0.7435145   1.0087801), wk =   0.0025641
        k(  607) = (  -0.0103320  -0.7400909  -1.0079062), wk =   0.0025641
        k(  608) = (   0.0504994  -0.7403762  -0.8398490), wk =   0.0025641
        k(  609) = (   0.1113308  -0.7406615  -0.6717918), wk =   0.0025641
        k(  610) = (   0.1721622  -0.7409468  -0.5037346), wk =   0.0025641
        k(  611) = (   0.2329936  -0.7412321  -0.3356774), wk =   0.0025641
        k(  612) = (   0.2938250  -0.7415174  -0.1676203), wk =   0.0025641
        k(  613) = (   0.3546169  -0.5563520   0.0003277), wk =   0.0025641
        k(  614) = (   0.4154483  -0.5566373   0.1683849), wk =   0.0025641
        k(  615) = (   0.4762797  -0.5569226   0.3364421), wk =   0.0025641
        k(  616) = (   0.5371111  -0.5572079   0.5044993), wk =   0.0025641
        k(  617) = (   0.5979425  -0.5574932   0.6725565), wk =   0.0025641
        k(  618) = (   0.6587739  -0.5577785   0.8406137), wk =   0.0025641
        k(  619) = (   0.7196053  -0.5580638   1.0086708), wk =   0.0025641
        k(  620) = (  -0.0103716  -0.5546402  -1.0080154), wk =   0.0025641
        k(  621) = (   0.0504598  -0.5549255  -0.8399583), wk =   0.0025641
        k(  622) = (   0.1112913  -0.5552108  -0.6719011), wk =   0.0025641
        k(  623) = (   0.1721227  -0.5554961  -0.5038439), wk =   0.0025641
        k(  624) = (   0.2329541  -0.5557814  -0.3357867), wk =   0.0025641
        k(  625) = (   0.2937855  -0.5560667  -0.1677295), wk =   0.0025641
        k(  626) = (   0.3545773  -0.3709013   0.0002185), wk =   0.0025641
        k(  627) = (   0.4154088  -0.3711866   0.1682757), wk =   0.0025641
        k(  628) = (   0.4762402  -0.3714719   0.3363328), wk =   0.0025641
        k(  629) = (   0.5370716  -0.3717572   0.5043900), wk =   0.0025641
        k(  630) = (   0.5979030  -0.3720426   0.6724472), wk =   0.0025641
        k(  631) = (   0.6587344  -0.3723279   0.8405044), wk =   0.0025641
        k(  632) = (   0.7195658  -0.3726132   1.0085616), wk =   0.0025641
        k(  633) = (  -0.0104111  -0.3691895  -1.0081247), wk =   0.0025641
        k(  634) = (   0.0504203  -0.3694748  -0.8400675), wk =   0.0025641
        k(  635) = (   0.1112517  -0.3697601  -0.6720103), wk =   0.0025641
        k(  636) = (   0.1720831  -0.3700454  -0.5039531), wk =   0.0025641
        k(  637) = (   0.2329145  -0.3703307  -0.3358959), wk =   0.0025641
        k(  638) = (   0.2937459  -0.3706160  -0.1678387), wk =   0.0025641
        k(  639) = (   0.3545378  -0.1854507   0.0001092), wk =   0.0025641
        k(  640) = (   0.4153692  -0.1857360   0.1681664), wk =   0.0025641
        k(  641) = (   0.4762006  -0.1860213   0.3362236), wk =   0.0025641
        k(  642) = (   0.5370320  -0.1863066   0.5042808), wk =   0.0025641
        k(  643) = (   0.5978634  -0.1865919   0.6723380), wk =   0.0025641
        k(  644) = (   0.6586948  -0.1868772   0.8403952), wk =   0.0025641
        k(  645) = (   0.7195263  -0.1871625   1.0084524), wk =   0.0025641
        k(  646) = (  -0.0104506  -0.1837389  -1.0082339), wk =   0.0025641
        k(  647) = (   0.0503808  -0.1840242  -0.8401767), wk =   0.0025641
        k(  648) = (   0.1112122  -0.1843095  -0.6721195), wk =   0.0025641
        k(  649) = (   0.1720436  -0.1845948  -0.5040623), wk =   0.0025641
        k(  650) = (   0.2328750  -0.1848801  -0.3360051), wk =   0.0025641
        k(  651) = (   0.2937064  -0.1851654  -0.1679480), wk =   0.0025641
        k(  652) = (  -0.5317474   0.0000000   0.0000000), wk =   0.0012821
        k(  653) = (  -0.4709160  -0.0002853   0.1680572), wk =   0.0025641
        k(  654) = (  -0.4100846  -0.0005706   0.3361144), wk =   0.0025641
        k(  655) = (  -0.3492532  -0.0008559   0.5041716), wk =   0.0025641
        k(  656) = (  -0.2884218  -0.0011412   0.6722288), wk =   0.0025641
        k(  657) = (  -0.2275904  -0.0014265   0.8402860), wk =   0.0025641
        k(  658) = (  -0.1667590  -0.0017118   1.0083431), wk =   0.0025641
        k(  659) = (  -0.5317869   0.1854507  -0.0001092), wk =   0.0025641
        k(  660) = (  -0.4709555   0.1851654   0.1679480), wk =   0.0025641
        k(  661) = (  -0.4101241   0.1848801   0.3360051), wk =   0.0025641
        k(  662) = (  -0.3492927   0.1845948   0.5040623), wk =   0.0025641
        k(  663) = (  -0.2884613   0.1843095   0.6721195), wk =   0.0025641
        k(  664) = (  -0.2276299   0.1840242   0.8401767), wk =   0.0025641
        k(  665) = (  -0.1667985   0.1837389   1.0082339), wk =   0.0025641
        k(  666) = (  -0.8967754   0.1871625  -1.0084524), wk =   0.0025641
        k(  667) = (  -0.8359440   0.1868772  -0.8403952), wk =   0.0025641
        k(  668) = (  -0.7751126   0.1865919  -0.6723380), wk =   0.0025641
        k(  669) = (  -0.7142812   0.1863066  -0.5042808), wk =   0.0025641
        k(  670) = (  -0.6534498   0.1860213  -0.3362236), wk =   0.0025641
        k(  671) = (  -0.5926183   0.1857360  -0.1681664), wk =   0.0025641
        k(  672) = (  -0.5318265   0.3709013  -0.0002185), wk =   0.0025641
        k(  673) = (  -0.4709951   0.3706160   0.1678387), wk =   0.0025641
        k(  674) = (  -0.4101637   0.3703307   0.3358959), wk =   0.0025641
        k(  675) = (  -0.3493323   0.3700454   0.5039531), wk =   0.0025641
        k(  676) = (  -0.2885008   0.3697601   0.6720103), wk =   0.0025641
        k(  677) = (  -0.2276694   0.3694748   0.8400675), wk =   0.0025641
        k(  678) = (  -0.1668380   0.3691895   1.0081247), wk =   0.0025641
        k(  679) = (  -0.8968149   0.3726132  -1.0085616), wk =   0.0025641
        k(  680) = (  -0.8359835   0.3723279  -0.8405044), wk =   0.0025641
        k(  681) = (  -0.7751521   0.3720426  -0.6724472), wk =   0.0025641
        k(  682) = (  -0.7143207   0.3717572  -0.5043900), wk =   0.0025641
        k(  683) = (  -0.6534893   0.3714719  -0.3363328), wk =   0.0025641
        k(  684) = (  -0.5926579   0.3711866  -0.1682757), wk =   0.0025641
        k(  685) = (  -0.5318660   0.5563520  -0.0003277), wk =   0.0025641
        k(  686) = (  -0.4710346   0.5560667   0.1677295), wk =   0.0025641
        k(  687) = (  -0.4102032   0.5557814   0.3357867), wk =   0.0025641
        k(  688) = (  -0.3493718   0.5554961   0.5038439), wk =   0.0025641
        k(  689) = (  -0.2885404   0.5552108   0.6719011), wk =   0.0025641
        k(  690) = (  -0.2277090   0.5549255   0.8399583), wk =   0.0025641
        k(  691) = (  -0.1668776   0.5546402   1.0080154), wk =   0.0025641
        k(  692) = (  -0.8968545   0.5580638  -1.0086708), wk =   0.0025641
        k(  693) = (  -0.8360231   0.5577785  -0.8406137), wk =   0.0025641
        k(  694) = (  -0.7751916   0.5574932  -0.6725565), wk =   0.0025641
        k(  695) = (  -0.7143602   0.5572079  -0.5044993), wk =   0.0025641
        k(  696) = (  -0.6535288   0.5569226  -0.3364421), wk =   0.0025641
        k(  697) = (  -0.5926974   0.5566373  -0.1683849), wk =   0.0025641
        k(  698) = (  -0.5319056   0.7418027  -0.0004369), wk =   0.0025641
        k(  699) = (  -0.4710741   0.7415174   0.1676203), wk =   0.0025641
        k(  700) = (  -0.4102427   0.7412321   0.3356774), wk =   0.0025641
        k(  701) = (  -0.3494113   0.7409468   0.5037346), wk =   0.0025641
        k(  702) = (  -0.2885799   0.7406615   0.6717918), wk =   0.0025641
        k(  703) = (  -0.2277485   0.7403762   0.8398490), wk =   0.0025641
        k(  704) = (  -0.1669171   0.7400909   1.0079062), wk =   0.0025641
        k(  705) = (  -0.8968940   0.7435145  -1.0087801), wk =   0.0025641
        k(  706) = (  -0.8360626   0.7432292  -0.8407229), wk =   0.0025641
        k(  707) = (  -0.7752312   0.7429439  -0.6726657), wk =   0.0025641
        k(  708) = (  -0.7143998   0.7426586  -0.5046085), wk =   0.0025641
        k(  709) = (  -0.6535684   0.7423733  -0.3365513), wk =   0.0025641
        k(  710) = (  -0.5927370   0.7420880  -0.1684941), wk =   0.0025641
        k(  711) = (  -0.5319451   0.9272534  -0.0005462), wk =   0.0025641
        k(  712) = (  -0.4711137   0.9269681   0.1675110), wk =   0.0025641
        k(  713) = (  -0.4102823   0.9266828   0.3355682), wk =   0.0025641
        k(  714) = (  -0.3494509   0.9263975   0.5036254), wk =   0.0025641
        k(  715) = (  -0.2886195   0.9261122   0.6716826), wk =   0.0025641
        k(  716) = (  -0.2277881   0.9258269   0.8397398), wk =   0.0025641
        k(  717) = (  -0.1669566   0.9255416   1.0077970), wk =   0.0025641
        k(  718) = (  -0.8969335   0.9289652  -1.0088893), wk =   0.0025641
        k(  719) = (  -0.8361021   0.9286799  -0.8408321), wk =   0.0025641
        k(  720) = (  -0.7752707   0.9283946  -0.6727749), wk =   0.0025641
        k(  721) = (  -0.7144393   0.9281093  -0.5047177), wk =   0.0025641
        k(  722) = (  -0.6536079   0.9278240  -0.3366605), wk =   0.0025641
        k(  723) = (  -0.5927765   0.9275387  -0.1686034), wk =   0.0025641
        k(  724) = (  -0.5319846   1.1127040  -0.0006554), wk =   0.0025641
        k(  725) = (  -0.4711532   1.1124187   0.1674018), wk =   0.0025641
        k(  726) = (  -0.4103218   1.1121334   0.3354590), wk =   0.0025641
        k(  727) = (  -0.3494904   1.1118481   0.5035162), wk =   0.0025641
        k(  728) = (  -0.2886590   1.1115628   0.6715734), wk =   0.0025641
        k(  729) = (  -0.2278276   1.1112775   0.8396306), wk =   0.0025641
        k(  730) = (  -0.1669962   1.1109922   1.0076877), wk =   0.0025641
        k(  731) = (  -0.8969731   1.1144158  -1.0089985), wk =   0.0025641
        k(  732) = (  -0.8361417   1.1141305  -0.8409414), wk =   0.0025641
        k(  733) = (  -0.7753103   1.1138452  -0.6728842), wk =   0.0025641
        k(  734) = (  -0.7144789   1.1135599  -0.5048270), wk =   0.0025641
        k(  735) = (  -0.6536474   1.1132746  -0.3367698), wk =   0.0025641
        k(  736) = (  -0.5928160   1.1129893  -0.1687126), wk =   0.0025641
        k(  737) = (  -0.5320242   1.2981547  -0.0007646), wk =   0.0025641
        k(  738) = (  -0.4711928   1.2978694   0.1672926), wk =   0.0025641
        k(  739) = (  -0.4103614   1.2975841   0.3353497), wk =   0.0025641
        k(  740) = (  -0.3495299   1.2972988   0.5034069), wk =   0.0025641
        k(  741) = (  -0.2886985   1.2970135   0.6714641), wk =   0.0025641
        k(  742) = (  -0.2278671   1.2967282   0.8395213), wk =   0.0025641
        k(  743) = (  -0.1670357   1.2964429   1.0075785), wk =   0.0025641
        k(  744) = (  -0.8970126   1.2998665  -1.0091078), wk =   0.0025641
        k(  745) = (  -0.8361812   1.2995812  -0.8410506), wk =   0.0025641
        k(  746) = (  -0.7753498   1.2992959  -0.6729934), wk =   0.0025641
        k(  747) = (  -0.7145184   1.2990106  -0.5049362), wk =   0.0025641
        k(  748) = (  -0.6536870   1.2987253  -0.3368790), wk =   0.0025641
        k(  749) = (  -0.5928556   1.2984400  -0.1688218), wk =   0.0025641
        k(  750) = (  -0.5320637   1.4836054  -0.0008739), wk =   0.0025641
        k(  751) = (  -0.4712323   1.4833201   0.1671833), wk =   0.0025641
        k(  752) = (  -0.4104009   1.4830348   0.3352405), wk =   0.0025641
        k(  753) = (  -0.3495695   1.4827495   0.5032977), wk =   0.0025641
        k(  754) = (  -0.2887381   1.4824642   0.6713549), wk =   0.0025641
        k(  755) = (  -0.2279067   1.4821789   0.8394121), wk =   0.0025641
        k(  756) = (  -0.1670753   1.4818936   1.0074693), wk =   0.0025641
        k(  757) = (  -0.8970522   1.4853172  -1.0092170), wk =   0.0025641
        k(  758) = (  -0.8362207   1.4850319  -0.8411598), wk =   0.0025641
        k(  759) = (  -0.7753893   1.4847466  -0.6731026), wk =   0.0025641
        k(  760) = (  -0.7145579   1.4844613  -0.5050454), wk =   0.0025641
        k(  761) = (  -0.6537265   1.4841760  -0.3369882), wk =   0.0025641
        k(  762) = (  -0.5928951   1.4838907  -0.1689311), wk =   0.0025641
        k(  763) = (  -0.5321033   1.6690561  -0.0009831), wk =   0.0025641
        k(  764) = (  -0.4712718   1.6687708   0.1670741), wk =   0.0025641
        k(  765) = (  -0.4104404   1.6684855   0.3351313), wk =   0.0025641
        k(  766) = (  -0.3496090   1.6682002   0.5031885), wk =   0.0025641
        k(  767) = (  -0.2887776   1.6679148   0.6712457), wk =   0.0025641
        k(  768) = (  -0.2279462   1.6676295   0.8393029), wk =   0.0025641
        k(  769) = (  -0.1671148   1.6673442   1.0073600), wk =   0.0025641
        k(  770) = (  -0.8970917   1.6707679  -1.0093262), wk =   0.0025641
        k(  771) = (  -0.8362603   1.6704826  -0.8412691), wk =   0.0025641
        k(  772) = (  -0.7754289   1.6701973  -0.6732119), wk =   0.0025641
        k(  773) = (  -0.7145975   1.6699120  -0.5051547), wk =   0.0025641
        k(  774) = (  -0.6537661   1.6696267  -0.3370975), wk =   0.0025641
        k(  775) = (  -0.5929347   1.6693414  -0.1690403), wk =   0.0025641
        k(  776) = (  -0.5313520  -1.8545067   0.0010923), wk =   0.0012821
        k(  777) = (  -0.4705206  -1.8547920   0.1691495), wk =   0.0025641
        k(  778) = (  -0.4096892  -1.8550773   0.3372067), wk =   0.0025641
        k(  779) = (  -0.3488578  -1.8553626   0.5052639), wk =   0.0025641
        k(  780) = (  -0.2880264  -1.8556479   0.6733211), wk =   0.0025641
        k(  781) = (  -0.2271950  -1.8559332   0.8413783), wk =   0.0025641
        k(  782) = (  -0.1663636  -1.8562185   1.0094355), wk =   0.0025641

                       cryst. coord.
        k(    1) = (   0.0000000   0.0000000   0.0000000), wk =   0.0012821
        k(    2) = (  -0.0000000  -0.0000000   0.0769231), wk =   0.0025641
        k(    3) = (  -0.0000000  -0.0000000   0.1538462), wk =   0.0025641
        k(    4) = (  -0.0000000  -0.0000000   0.2307692), wk =   0.0025641
        k(    5) = (  -0.0000000  -0.0000000   0.3076923), wk =   0.0025641
        k(    6) = (   0.0000000  -0.0000000   0.3846154), wk =   0.0025641
        k(    7) = (  -0.0000000  -0.0000000   0.4615385), wk =   0.0025641
        k(    8) = (   0.0000000   0.0500000  -0.0000000), wk =   0.0025641
        k(    9) = (  -0.0000000   0.0500000   0.0769231), wk =   0.0025641
        k(   10) = (  -0.0000000   0.0500000   0.1538462), wk =   0.0025641
        k(   11) = (  -0.0000000   0.0500000   0.2307692), wk =   0.0025641
        k(   12) = (  -0.0000000   0.0500000   0.3076923), wk =   0.0025641
        k(   13) = (  -0.0000000   0.0500000   0.3846154), wk =   0.0025641
        k(   14) = (  -0.0000000   0.0500000   0.4615385), wk =   0.0025641
        k(   15) = (   0.0000000   0.0500000  -0.4615385), wk =   0.0025641
        k(   16) = (   0.0000000   0.0500000  -0.3846154), wk =   0.0025641
        k(   17) = (   0.0000000   0.0500000  -0.3076923), wk =   0.0025641
        k(   18) = (   0.0000000   0.0500000  -0.2307692), wk =   0.0025641
        k(   19) = (   0.0000000   0.0500000  -0.1538462), wk =   0.0025641
        k(   20) = (   0.0000000   0.0500000  -0.0769231), wk =   0.0025641
        k(   21) = (   0.0000000   0.1000000  -0.0000000), wk =   0.0025641
        k(   22) = (  -0.0000000   0.1000000   0.0769231), wk =   0.0025641
        k(   23) = (  -0.0000000   0.1000000   0.1538462), wk =   0.0025641
        k(   24) = (   0.0000000   0.1000000   0.2307692), wk =   0.0025641
        k(   25) = (  -0.0000000   0.1000000   0.3076923), wk =   0.0025641
        k(   26) = (   0.0000000   0.1000000   0.3846154), wk =   0.0025641
        k(   27) = (  -0.0000000   0.1000000   0.4615385), wk =   0.0025641
        k(   28) = (   0.0000000   0.1000000  -0.4615385), wk =   0.0025641
        k(   29) = (   0.0000000   0.1000000  -0.3846154), wk =   0.0025641
        k(   30) = (   0.0000000   0.1000000  -0.3076923), wk =   0.0025641
        k(   31) = (  -0.0000000   0.1000000  -0.2307692), wk =   0.0025641
        k(   32) = (   0.0000000   0.1000000  -0.1538462), wk =   0.0025641
        k(   33) = (   0.0000000   0.1000000  -0.0769231), wk =   0.0025641
        k(   34) = (   0.0000000   0.1500000   0.0000000), wk =   0.0025641
        k(   35) = (  -0.0000000   0.1500000   0.0769231), wk =   0.0025641
        k(   36) = (   0.0000000   0.1500000   0.1538462), wk =   0.0025641
        k(   37) = (  -0.0000000   0.1500000   0.2307692), wk =   0.0025641
        k(   38) = (  -0.0000000   0.1500000   0.3076923), wk =   0.0025641
        k(   39) = (  -0.0000000   0.1500000   0.3846154), wk =   0.0025641
        k(   40) = (  -0.0000000   0.1500000   0.4615385), wk =   0.0025641
        k(   41) = (   0.0000000   0.1500000  -0.4615385), wk =   0.0025641
        k(   42) = (   0.0000000   0.1500000  -0.3846154), wk =   0.0025641
        k(   43) = (   0.0000000   0.1500000  -0.3076923), wk =   0.0025641
        k(   44) = (   0.0000000   0.1500000  -0.2307692), wk =   0.0025641
        k(   45) = (   0.0000000   0.1500000  -0.1538462), wk =   0.0025641
        k(   46) = (   0.0000000   0.1500000  -0.0769231), wk =   0.0025641
        k(   47) = (   0.0000000   0.2000000  -0.0000000), wk =   0.0025641
        k(   48) = (  -0.0000000   0.2000000   0.0769231), wk =   0.0025641
        k(   49) = (  -0.0000000   0.2000000   0.1538462), wk =   0.0025641
        k(   50) = (  -0.0000000   0.2000000   0.2307692), wk =   0.0025641
        k(   51) = (  -0.0000000   0.2000000   0.3076923), wk =   0.0025641
        k(   52) = (  -0.0000000   0.2000000   0.3846154), wk =   0.0025641
        k(   53) = (   0.0000000   0.2000000   0.4615385), wk =   0.0025641
        k(   54) = (   0.0000000   0.2000000  -0.4615385), wk =   0.0025641
        k(   55) = (   0.0000000   0.2000000  -0.3846154), wk =   0.0025641
        k(   56) = (   0.0000000   0.2000000  -0.3076923), wk =   0.0025641
        k(   57) = (   0.0000000   0.2000000  -0.2307692), wk =   0.0025641
        k(   58) = (   0.0000000   0.2000000  -0.1538462), wk =   0.0025641
        k(   59) = (  -0.0000000   0.2000000  -0.0769231), wk =   0.0025641
        k(   60) = (   0.0000000   0.2500000  -0.0000000), wk =   0.0025641
        k(   61) = (  -0.0000000   0.2500000   0.0769231), wk =   0.0025641
        k(   62) = (  -0.0000000   0.2500000   0.1538462), wk =   0.0025641
        k(   63) = (  -0.0000000   0.2500000   0.2307692), wk =   0.0025641
        k(   64) = (  -0.0000000   0.2500000   0.3076923), wk =   0.0025641
        k(   65) = (  -0.0000000   0.2500000   0.3846154), wk =   0.0025641
        k(   66) = (  -0.0000000   0.2500000   0.4615385), wk =   0.0025641
        k(   67) = (   0.0000000   0.2500000  -0.4615385), wk =   0.0025641
        k(   68) = (   0.0000000   0.2500000  -0.3846154), wk =   0.0025641
        k(   69) = (   0.0000000   0.2500000  -0.3076923), wk =   0.0025641
        k(   70) = (   0.0000000   0.2500000  -0.2307692), wk =   0.0025641
        k(   71) = (   0.0000000   0.2500000  -0.1538462), wk =   0.0025641
        k(   72) = (   0.0000000   0.2500000  -0.0769231), wk =   0.0025641
        k(   73) = (   0.0000000   0.3000000   0.0000000), wk =   0.0025641
        k(   74) = (  -0.0000000   0.3000000   0.0769231), wk =   0.0025641
        k(   75) = (  -0.0000000   0.3000000   0.1538462), wk =   0.0025641
        k(   76) = (  -0.0000000   0.3000000   0.2307692), wk =   0.0025641
        k(   77) = (   0.0000000   0.3000000   0.3076923), wk =   0.0025641
        k(   78) = (   0.0000000   0.3000000   0.3846154), wk =   0.0025641
        k(   79) = (  -0.0000000   0.3000000   0.4615385), wk =   0.0025641
        k(   80) = (   0.0000000   0.3000000  -0.4615385), wk =   0.0025641
        k(   81) = (   0.0000000   0.3000000  -0.3846154), wk =   0.0025641
        k(   82) = (   0.0000000   0.3000000  -0.3076923), wk =   0.0025641
        k(   83) = (   0.0000000   0.3000000  -0.2307692), wk =   0.0025641
        k(   84) = (   0.0000000   0.3000000  -0.1538462), wk =   0.0025641
        k(   85) = (   0.0000000   0.3000000  -0.0769231), wk =   0.0025641
        k(   86) = (   0.0000000   0.3500000  -0.0000000), wk =   0.0025641
        k(   87) = (  -0.0000000   0.3500000   0.0769231), wk =   0.0025641
        k(   88) = (  -0.0000000   0.3500000   0.1538462), wk =   0.0025641
        k(   89) = (  -0.0000000   0.3500000   0.2307692), wk =   0.0025641
        k(   90) = (  -0.0000000   0.3500000   0.3076923), wk =   0.0025641
        k(   91) = (  -0.0000000   0.3500000   0.3846154), wk =   0.0025641
        k(   92) = (  -0.0000000   0.3500000   0.4615385), wk =   0.0025641
        k(   93) = (   0.0000000   0.3500000  -0.4615385), wk =   0.0025641
        k(   94) = (   0.0000000   0.3500000  -0.3846154), wk =   0.0025641
        k(   95) = (   0.0000000   0.3500000  -0.3076923), wk =   0.0025641
        k(   96) = (   0.0000000   0.3500000  -0.2307692), wk =   0.0025641
        k(   97) = (   0.0000000   0.3500000  -0.1538462), wk =   0.0025641
        k(   98) = (  -0.0000000   0.3500000  -0.0769231), wk =   0.0025641
        k(   99) = (   0.0000000   0.4000000  -0.0000000), wk =   0.0025641
        k(  100) = (  -0.0000000   0.4000000   0.0769231), wk =   0.0025641
        k(  101) = (  -0.0000000   0.4000000   0.1538462), wk =   0.0025641
        k(  102) = (  -0.0000000   0.4000000   0.2307692), wk =   0.0025641
        k(  103) = (  -0.0000000   0.4000000   0.3076923), wk =   0.0025641
        k(  104) = (   0.0000000   0.4000000   0.3846154), wk =   0.0025641
        k(  105) = (  -0.0000000   0.4000000   0.4615385), wk =   0.0025641
        k(  106) = (   0.0000000   0.4000000  -0.4615385), wk =   0.0025641
        k(  107) = (   0.0000000   0.4000000  -0.3846154), wk =   0.0025641
        k(  108) = (   0.0000000   0.4000000  -0.3076923), wk =   0.0025641
        k(  109) = (   0.0000000   0.4000000  -0.2307692), wk =   0.0025641
        k(  110) = (   0.0000000   0.4000000  -0.1538462), wk =   0.0025641
        k(  111) = (   0.0000000   0.4000000  -0.0769231), wk =   0.0025641
        k(  112) = (  -0.0000000   0.4500000  -0.0000000), wk =   0.0025641
        k(  113) = (  -0.0000000   0.4500000   0.0769231), wk =   0.0025641
        k(  114) = (  -0.0000000   0.4500000   0.1538462), wk =   0.0025641
        k(  115) = (   0.0000000   0.4500000   0.2307692), wk =   0.0025641
        k(  116) = (  -0.0000000   0.4500000   0.3076923), wk =   0.0025641
        k(  117) = (  -0.0000000   0.4500000   0.3846154), wk =   0.0025641
        k(  118) = (  -0.0000000   0.4500000   0.4615385), wk =   0.0025641
        k(  119) = (   0.0000000   0.4500000  -0.4615385), wk =   0.0025641
        k(  120) = (   0.0000000   0.4500000  -0.3846154), wk =   0.0025641
        k(  121) = (   0.0000000   0.4500000  -0.3076923), wk =   0.0025641
        k(  122) = (   0.0000000   0.4500000  -0.2307692), wk =   0.0025641
        k(  123) = (  -0.0000000   0.4500000  -0.1538462), wk =   0.0025641
        k(  124) = (  -0.0000000   0.4500000  -0.0769231), wk =   0.0025641
        k(  125) = (  -0.0000000  -0.5000000   0.0000000), wk =   0.0012821
        k(  126) = (  -0.0000000  -0.5000000   0.0769231), wk =   0.0025641
        k(  127) = (  -0.0000000  -0.5000000   0.1538462), wk =   0.0025641
        k(  128) = (  -0.0000000  -0.5000000   0.2307692), wk =   0.0025641
        k(  129) = (  -0.0000000  -0.5000000   0.3076923), wk =   0.0025641
        k(  130) = (  -0.0000000  -0.5000000   0.3846154), wk =   0.0025641
        k(  131) = (  -0.0000000  -0.5000000   0.4615385), wk =   0.0025641
        k(  132) = (   0.1666667   0.0000000   0.0000000), wk =   0.0025641
        k(  133) = (   0.1666667  -0.0000000   0.0769231), wk =   0.0025641
        k(  134) = (   0.1666667  -0.0000000   0.1538462), wk =   0.0025641
        k(  135) = (   0.1666667  -0.0000000   0.2307692), wk =   0.0025641
        k(  136) = (   0.1666667  -0.0000000   0.3076923), wk =   0.0025641
        k(  137) = (   0.1666667  -0.0000000   0.3846154), wk =   0.0025641
        k(  138) = (   0.1666667  -0.0000000   0.4615385), wk =   0.0025641
        k(  139) = (   0.1666667   0.0000000  -0.4615385), wk =   0.0025641
        k(  140) = (   0.1666667   0.0000000  -0.3846154), wk =   0.0025641
        k(  141) = (   0.1666667   0.0000000  -0.3076923), wk =   0.0025641
        k(  142) = (   0.1666667  -0.0000000  -0.2307692), wk =   0.0025641
        k(  143) = (   0.1666667   0.0000000  -0.1538462), wk =   0.0025641
        k(  144) = (   0.1666667   0.0000000  -0.0769231), wk =   0.0025641
        k(  145) = (   0.1666667   0.0500000  -0.0000000), wk =   0.0025641
        k(  146) = (   0.1666667   0.0500000   0.0769231), wk =   0.0025641
        k(  147) = (   0.1666667   0.0500000   0.1538462), wk =   0.0025641
        k(  148) = (   0.1666667   0.0500000   0.2307692), wk =   0.0025641
        k(  149) = (   0.1666667   0.0500000   0.3076923), wk =   0.0025641
        k(  150) = (   0.1666667   0.0500000   0.3846154), wk =   0.0025641
        k(  151) = (   0.1666667   0.0500000   0.4615385), wk =   0.0025641
        k(  152) = (   0.1666667   0.0500000  -0.4615385), wk =   0.0025641
        k(  153) = (   0.1666667   0.0500000  -0.3846154), wk =   0.0025641
        k(  154) = (   0.1666667   0.0500000  -0.3076923), wk =   0.0025641
[...]
    -0.0109

          k =-0.1664-1.8562 1.0094 ( 11595 PWs)   bands (ev):

    -3.6528  -3.6499  -3.0999  -3.0962  -2.2114  -2.2069  -1.7058  -1.7012
    -0.7819  -0.7802   0.5581   0.5630   0.8533   0.8543   1.8697   1.8778
     2.2617   2.2665   2.3588   2.3596   3.5001   3.5002   3.8043   3.8061
     3.9422   3.9511   4.4592   4.4650   4.6453   4.6484   5.6469   5.6510
     5.7269   5.7280   6.0632   6.0727   6.8168   6.8178   7.5051   7.5122
     7.7545

     occupation numbers 
     1.0000   1.0000   1.0000   1.0000   1.0000   1.0000   1.0000   1.0000
     1.0000   1.0000   1.0000   1.0000   1.0000   1.0000   1.0000   1.0000
     1.0000   1.0000   1.0000   1.0000   1.0000   1.0000   1.0000   1.0000
     1.0000   1.0000   1.0000   1.0000   1.0000   1.0000   1.0162   1.0165
     1.0220   1.0221   1.0304   1.0293   0.3391   0.3378  -0.0337  -0.0333
    -0.0161

     the Fermi energy is     6.7004 ev

!    total energy              =    -473.15922636 Ry
     Harris-Foulkes estimate   =    -473.15922636 Ry
     estimated scf accuracy    <          3.4E-13 Ry

     The total energy is the sum of the following terms:

     one-electron contribution =      36.47233137 Ry
     hartree contribution      =      13.19713854 Ry
     xc contribution           =     -90.17198587 Ry
     ewald contribution        =    -119.78417201 Ry
     one-center paw contrib.   =    -312.87118156 Ry
      -> PAW hartree energy AE =       0.81661826 Ry
      -> PAW hartree energy PS =      -0.81476196 Ry
      -> PAW xc energy AE      =     -32.62108480 Ry
      -> PAW xc energy PS      =       1.32493495 Ry
      -> total E_H with PAW    =      13.19899484 Ry
      -> total E_XC with PAW   =    -121.46813571 Ry
     smearing contrib. (-TS)   =      -0.00135684 Ry

     convergence has been achieved in  25 iterations

     Forces acting on atoms (cartesian axes, Ry/au):

     atom    1 type  1   force =     0.00001832    0.00000005    0.00001748
     atom    2 type  1   force =    -0.00044386   -0.00003578    0.00001617
     atom    3 type  1   force =    -0.00064589    0.00000371   -0.00012443
     atom    4 type  1   force =     0.00064587   -0.00000371    0.00012403
     atom    5 type  1   force =     0.00044496    0.00003573   -0.00001599
     atom    6 type  2   force =     0.00008238    0.00003993    0.00043410
     atom    7 type  2   force =    -0.00010297    0.00006357    0.00101620
     atom    8 type  2   force =    -0.00060359    0.00000576   -0.00059311
     atom    9 type  2   force =     0.00060424   -0.00000571    0.00059346
     atom   10 type  2   force =     0.00010417   -0.00006357   -0.00101594
     atom   11 type  2   force =    -0.00008210   -0.00003998   -0.00043388
     atom   12 type  1   force =    -0.00002252   -0.00000006   -0.00001855
     atom   13 type  1   force =    -0.00043943   -0.00003484    0.00004856
     atom   14 type  1   force =    -0.00061337    0.00000535   -0.00011342
     atom   15 type  1   force =     0.00061298   -0.00000536    0.00011317
     atom   16 type  1   force =     0.00043960    0.00003479   -0.00004845
     atom   17 type  2   force =     0.00004626    0.00003695    0.00040810
     atom   18 type  2   force =    -0.00010319    0.00006137    0.00107504
     atom   19 type  2   force =    -0.00057873    0.00000361   -0.00061309
     atom   20 type  2   force =     0.00057914   -0.00000352    0.00061274
     atom   21 type  2   force =     0.00010384   -0.00006136   -0.00107444
     atom   22 type  2   force =    -0.00004611   -0.00003695   -0.00040776
     The non-local contrib.  to forces
     atom    1 type  1   force =     0.00002679   -0.00000046    0.00002968
     atom    2 type  1   force =     0.00734206    0.00014012    0.01098525
     atom    3 type  1   force =     0.01700134    0.00010819    0.00312867
     atom    4 type  1   force =    -0.01701782   -0.00010839   -0.00312955
     atom    5 type  1   force =    -0.00735169   -0.00014007   -0.01098876
     atom    6 type  2   force =     0.00005053   -0.00022281   -0.06318896
     atom    7 type  2   force =     0.04419354   -0.00001277    0.01440236
     atom    8 type  2   force =    -0.01376456   -0.00006506    0.02669389
     atom    9 type  2   force =     0.01376439    0.00006483   -0.02668926
     atom   10 type  2   force =    -0.04419299    0.00001268   -0.01440107
     atom   11 type  2   force =    -0.00004931    0.00022281    0.06318939
     atom   12 type  1   force =    -0.00005273    0.00000052   -0.00003362
     atom   13 type  1   force =     0.00736027    0.00014043    0.01108006
     atom   14 type  1   force =     0.01711911    0.00011105    0.00315623
     atom   15 type  1   force =    -0.01713566   -0.00011070   -0.00315786
     atom   16 type  1   force =    -0.00737067   -0.00014050   -0.01108647
     atom   17 type  2   force =    -0.00000747   -0.00022343   -0.06323126
     atom   18 type  2   force =     0.04416289   -0.00001496    0.01452599
     atom   19 type  2   force =    -0.01371487   -0.00006603    0.02667715
     atom   20 type  2   force =     0.01371393    0.00006636   -0.02667466
     atom   21 type  2   force =    -0.04416282    0.00001498   -0.01452486
     atom   22 type  2   force =     0.00000939    0.00022322    0.06323040
     The ionic contribution  to forces
     atom    1 type  1   force =     0.00017147    0.00000119   -0.00000719
     atom    2 type  1   force =    -0.41762513    0.00156027   -0.38963280
     atom    3 type  1   force =    -0.25422048   -0.00035756    0.19886309
     atom    4 type  1   force =     0.25422151    0.00035758   -0.19886027
     atom    5 type  1   force =     0.41759893   -0.00156055    0.38964046
     atom    6 type  2   force =    -0.24397840    0.00063298    1.18113751
     atom    7 type  2   force =    -1.16212144    0.00103420   -1.24679527
     atom    8 type  2   force =    -0.10080715   -0.00229594    0.73711542
     atom    9 type  2   force =     0.10083098    0.00229607   -0.73711149
     atom   10 type  2   force =     1.16217015   -0.00103404    1.24678556
     atom   11 type  2   force =     0.24399144   -0.00063308   -1.18113142
     atom   12 type  1   force =    -0.00024519   -0.00000123   -0.00001398
     atom   13 type  1   force =    -0.41783082    0.00156741   -0.38965533
     atom   14 type  1   force =    -0.25422777   -0.00034863    0.19896882
     atom   15 type  1   force =     0.25422251    0.00034891   -0.19896484
     atom   16 type  1   force =     0.41779775   -0.00156763    0.38966367
     atom   17 type  2   force =    -0.24434572    0.00062623    1.18099608
     atom   18 type  2   force =    -1.16176587    0.00101441   -1.24659635
     atom   19 type  2   force =    -0.10103121   -0.00231603    0.73631198
     atom   20 type  2   force =     0.10104004    0.00231657   -0.73630868
     atom   21 type  2   force =     1.16180235   -0.00101496    1.24658622
     atom   22 type  2   force =     0.24435205   -0.00062615   -1.18099119
     The local contribution  to forces
     atom    1 type  1   force =    -0.00017882   -0.00000070   -0.00000227
     atom    2 type  1   force =     0.41082865   -0.00171364    0.37917333
     atom    3 type  1   force =     0.23847735    0.00026491   -0.20156044
     atom    4 type  1   force =    -0.23846776   -0.00026470    0.20155726
     atom    5 type  1   force =    -0.41079690    0.00171387   -0.37917853
     atom    6 type  2   force =     0.24386420   -0.00039295   -1.12363365
     atom    7 type  2   force =     1.12209248   -0.00095972    1.23448860
     atom    8 type  2   force =     0.11255234    0.00235859   -0.76144386
     atom    9 type  2   force =    -0.11257463   -0.00235851    0.76143846
     atom   10 type  2   force =    -1.12214029    0.00095956   -1.23447938
     atom   11 type  2   force =    -0.24387640    0.00039294    1.12362746
     atom   12 type  1   force =     0.00026723    0.00000072    0.00002510
     atom   13 type  1   force =     0.41102196   -0.00172009    0.37914416
     atom   14 type  1   force =     0.23841222    0.00025510   -0.20167936
     atom   15 type  1   force =    -0.23839675   -0.00025566    0.20167582
     atom   16 type  1   force =    -0.41098365    0.00172037   -0.37914748
     atom   17 type  2   force =     0.24424690   -0.00038861   -1.12348033
     atom   18 type  2   force =     1.12176419   -0.00094021    1.23423840
     atom   19 type  2   force =     0.11275707    0.00237736   -0.76064625
     atom   20 type  2   force =    -0.11276402   -0.00237815    0.76064268
     atom   21 type  2   force =    -1.12180007    0.00094067   -1.23422815
     atom   22 type  2   force =    -0.24425324    0.00038867    1.12347656
     The core correction contribution to forces
     atom    1 type  1   force =    -0.00000315    0.00000004   -0.00000314
     atom    2 type  1   force =    -0.00099141   -0.00002250   -0.00051001
     atom    3 type  1   force =    -0.00190605   -0.00001180   -0.00055615
     atom    4 type  1   force =     0.00190786    0.00001182    0.00055620
     atom    5 type  1   force =     0.00099256    0.00002250    0.00051042
     atom    6 type  2   force =     0.00014416    0.00002272    0.00611880
     atom    7 type  2   force =    -0.00426942    0.00000188   -0.00107990
     atom    8 type  2   force =     0.00141388    0.00000818   -0.00295892
     atom    9 type  2   force =    -0.00141857   -0.00000807    0.00295529
     atom   10 type  2   force =     0.00426519   -0.00000175    0.00107858
     atom   11 type  2   force =    -0.00014998   -0.00002263   -0.00611969
     atom   12 type  1   force =     0.00000614   -0.00000005    0.00000355
     atom   13 type  1   force =    -0.00099284   -0.00002257   -0.00052073
     atom   14 type  1   force =    -0.00191892   -0.00001215   -0.00055953
     atom   15 type  1   force =     0.00192077    0.00001211    0.00055965
     atom   16 type  1   force =     0.00099409    0.00002258    0.00052143
     atom   17 type  2   force =     0.00015064    0.00002279    0.00612320
     atom   18 type  2   force =    -0.00426636    0.00000215   -0.00109342
     atom   19 type  2   force =     0.00140828    0.00000832   -0.00295633
     atom   20 type  2   force =    -0.00141297   -0.00000826    0.00295296
     atom   21 type  2   force =     0.00426219   -0.00000202    0.00109197
     atom   22 type  2   force =    -0.00015649   -0.00002267   -0.00612392
     The Hubbard contrib.    to forces
     atom    1 type  1   force =     0.00000000    0.00000000    0.00000000
     atom    2 type  1   force =     0.00000000    0.00000000    0.00000000
     atom    3 type  1   force =     0.00000000    0.00000000    0.00000000
     atom    4 type  1   force =     0.00000000    0.00000000    0.00000000
     atom    5 type  1   force =     0.00000000    0.00000000    0.00000000
     atom    6 type  2   force =     0.00000000    0.00000000    0.00000000
     atom    7 type  2   force =     0.00000000    0.00000000    0.00000000
     atom    8 type  2   force =     0.00000000    0.00000000    0.00000000
     atom    9 type  2   force =     0.00000000    0.00000000    0.00000000
     atom   10 type  2   force =     0.00000000    0.00000000    0.00000000
     atom   11 type  2   force =     0.00000000    0.00000000    0.00000000
     atom   12 type  1   force =     0.00000000    0.00000000    0.00000000
     atom   13 type  1   force =     0.00000000    0.00000000    0.00000000
     atom   14 type  1   force =     0.00000000    0.00000000    0.00000000
     atom   15 type  1   force =     0.00000000    0.00000000    0.00000000
     atom   16 type  1   force =     0.00000000    0.00000000    0.00000000
     atom   17 type  2   force =     0.00000000    0.00000000    0.00000000
     atom   18 type  2   force =     0.00000000    0.00000000    0.00000000
     atom   19 type  2   force =     0.00000000    0.00000000    0.00000000
     atom   20 type  2   force =     0.00000000    0.00000000    0.00000000
     atom   21 type  2   force =     0.00000000    0.00000000    0.00000000
     atom   22 type  2   force =     0.00000000    0.00000000    0.00000000
     The SCF correction term to forces
     atom    1 type  1   force =     0.00000000    0.00000000   -0.00000000
     atom    2 type  1   force =    -0.00000006   -0.00000000   -0.00000001
     atom    3 type  1   force =    -0.00000008   -0.00000000    0.00000000
     atom    4 type  1   force =     0.00000004    0.00000000   -0.00000001
     atom    5 type  1   force =     0.00000003    0.00000000    0.00000001
     atom    6 type  2   force =    -0.00000014    0.00000001    0.00000000
     atom    7 type  2   force =    -0.00000016    0.00000001    0.00000002
     atom    8 type  2   force =    -0.00000012    0.00000001   -0.00000004
     atom    9 type  2   force =     0.00000003   -0.00000001    0.00000006
     atom   10 type  2   force =     0.00000007   -0.00000000   -0.00000001
     atom   11 type  2   force =     0.00000011   -0.00000001   -0.00000001
     atom   12 type  1   force =    -0.00000000   -0.00000000   -0.00000000
     atom   13 type  1   force =    -0.00000004    0.00000000   -0.00000001
     atom   14 type  1   force =    -0.00000004    0.00000000    0.00000001
     atom   15 type  1   force =     0.00000008   -0.00000000   -0.00000000
     atom   16 type  1   force =     0.00000006   -0.00000000    0.00000001
     atom   17 type  2   force =    -0.00000012   -0.00000000    0.00000001
     atom   18 type  2   force =    -0.00000007    0.00000000    0.00000001
     atom   19 type  2   force =    -0.00000003    0.00000001   -0.00000005
     atom   20 type  2   force =     0.00000012   -0.00000001    0.00000004
     atom   21 type  2   force =     0.00000016   -0.00000000   -0.00000001
     atom   22 type  2   force =     0.00000015   -0.00000000   -0.00000000

     Total force =     0.003234     Total SCF correction =     0.000000


     Computing stress (Cartesian axis) and pressure

          total   stress  (Ry/bohr**3)                   (kbar)     P=   -3.48
  -0.00002532  -0.00000060  -0.00000818         -3.72     -0.09     -1.20
  -0.00000060  -0.00002275  -0.00000295         -0.09     -3.35     -0.43
  -0.00000818  -0.00000295  -0.00002297         -1.20     -0.43     -3.38

     kinetic stress (kbar)   1569.34      0.15      0.14
                                0.15   1592.32     -0.04
                                0.14     -0.04   1590.01

     local   stress (kbar)   -145.95     -0.17    279.35
                               -0.17   -380.76     -1.19
                              279.35     -1.19    184.09

     nonloc. stress (kbar)   1240.89     -0.17      2.61
                               -0.17   1225.56     -0.42
                                2.61     -0.42   1225.82

     hartree stress (kbar)    215.85      0.34   -125.49
                                0.34    386.28      1.01
                             -125.49      1.01    112.94

     exc-cor stress (kbar)   1971.91     -0.01      0.09
                               -0.01   1971.25     -0.02
                                0.09     -0.02   1971.29

     corecor stress (kbar)  -2751.52      0.02     -0.40
                                0.02  -2749.68      0.07
                               -0.40      0.07  -2749.74

     ewald   stress (kbar)  -2104.25     -0.25   -157.50
                               -0.25  -2048.31      0.16
                             -157.50      0.16  -2337.79

     hubbard stress (kbar)      0.00      0.00      0.00
                                0.00      0.00      0.00
                                0.00      0.00      0.00

     london  stress (kbar)      0.00      0.00      0.00
                                0.00      0.00      0.00
                                0.00      0.00      0.00

     DFT-D3  stress (kbar)      0.00      0.00      0.00
                                0.00      0.00      0.00
                                0.00      0.00      0.00

     XDM     stress (kbar)      0.00      0.00      0.00
                                0.00      0.00      0.00
                                0.00      0.00      0.00

     dft-nl  stress (kbar)      0.00      0.00      0.00
                                0.00      0.00      0.00
                                0.00      0.00      0.00

     TS-vdW  stress (kbar)      0.00      0.00      0.00
                                0.00      0.00      0.00
                                0.00      0.00      0.00



     Writing output data file aiida.save/
 
     init_run     :     22.84s CPU     23.24s WALL (       1 calls)
     electrons    :   1074.52s CPU   1089.54s WALL (       1 calls)
     forces       :      8.99s CPU      9.07s WALL (       1 calls)
     stress       :     68.63s CPU     69.36s WALL (       1 calls)

     Called by init_run:
     wfcinit      :     21.03s CPU     21.35s WALL (       1 calls)
     wfcinit:atom :      0.17s CPU      0.19s WALL (     196 calls)
     wfcinit:wfcr :     19.54s CPU     19.77s WALL (     196 calls)
     potinit      :      0.61s CPU      0.62s WALL (       1 calls)
     hinit0       :      1.06s CPU      1.09s WALL (       1 calls)

     Called by electrons:
     c_bands      :    950.32s CPU    962.03s WALL (      26 calls)
     sum_band     :    118.64s CPU    120.92s WALL (      26 calls)
     v_of_rho     :      2.33s CPU      2.50s WALL (      26 calls)
     v_h          :      0.16s CPU      0.17s WALL (      26 calls)
     v_xc         :      2.32s CPU      2.48s WALL (      28 calls)
     newd         :      1.23s CPU      2.04s WALL (      26 calls)
     PAW_pot      :      0.86s CPU      0.87s WALL (      26 calls)
     mix_rho      :      0.85s CPU      0.91s WALL (      26 calls)

     Called by c_bands:
     init_us_2    :     33.68s CPU     34.24s WALL (   10780 calls)
     cegterg      :    738.37s CPU    748.13s WALL (    5096 calls)

     Called by sum_band:
     sum_band:bec :      0.70s CPU      0.70s WALL (    5096 calls)
     addusdens    :      1.30s CPU      2.02s WALL (      26 calls)

     Called by *egterg:
     h_psi        :    512.62s CPU    520.63s WALL (   20100 calls)
     s_psi        :     73.84s CPU     74.04s WALL (   20100 calls)
     g_psi        :      3.39s CPU      3.42s WALL (   14808 calls)
     cdiaghg      :     73.31s CPU     74.46s WALL (   19708 calls)
     cegterg:over :     35.00s CPU     35.26s WALL (   14808 calls)
     cegterg:upda :     28.70s CPU     28.96s WALL (   14808 calls)
     cegterg:last :     12.27s CPU     12.37s WALL (    5475 calls)
     cdiaghg:chol :      4.55s CPU      4.59s WALL (   19708 calls)
     cdiaghg:inve :      0.96s CPU      0.98s WALL (   19708 calls)
     cdiaghg:para :      9.48s CPU      9.55s WALL (   39416 calls)

     Called by h_psi:
     h_psi:pot    :    509.94s CPU    517.93s WALL (   20100 calls)
     h_psi:calbec :     72.15s CPU     72.94s WALL (   20100 calls)
     vloc_psi     :    362.75s CPU    369.80s WALL (   20100 calls)
     add_vuspsi   :     74.84s CPU     75.04s WALL (   20100 calls)

     General routines
     calbec       :    123.16s CPU    124.87s WALL (   26176 calls)
     fft          :      2.00s CPU      2.12s WALL (     363 calls)
     ffts         :      0.28s CPU      0.29s WALL (     396 calls)
     fftw         :    392.75s CPU    400.08s WALL ( 1295964 calls)
     interpolate  :      0.21s CPU      0.21s WALL (      26 calls)
 
     Parallel routines
     fft_scatt_xy :     50.35s CPU     51.34s WALL ( 1296723 calls)
     fft_scatt_yz :    152.36s CPU    155.38s WALL ( 1296723 calls)

     PAW routines
     PAW_pot      :      0.86s CPU      0.87s WALL (      26 calls)
 
     PWSCF        :  19m59.59s CPU  20m34.68s WALL

 
   This run was terminated on:  11:45: 6  22Feb2020            

=------------------------------------------------------------------------------=
   JOB DONE.
=------------------------------------------------------------------------------=
