begin
comment 4 atoms, species Al4
lattice      7.6539519559    -0.3826975978    -0.0000000000
lattice     -0.3826975978     7.6539519559    -0.0000000000
lattice     -0.0000000000    -0.0000000000     7.6731347928
atom      0.0000000000     0.0000000000     0.0000000000   Al  0.0 0.0   -2.19337643e-13 -1.80185267e-13  1.99271552e-13
atom     -0.1913487989     3.8269759779     3.8365673964   Al  0.0 0.0   -1.41129018e-13  5.91882289e-14 -1.99405394e-13
atom      3.8269759779    -0.1913487989     3.8365673964   Al  0.0 0.0    1.41105480e-13 -5.93131083e-14 -1.99509878e-13
atom      3.6356271790     3.6356271790    -0.0000000000   Al  0.0 0.0    2.19247804e-13  1.80204351e-13  1.99196130e-13
energy -7.900245070239919e+01
charge 0.0000
end
begin
comment 4 atoms, species Al4
lattice      7.6539519559    -0.2976536872    -0.0000000000
lattice     -0.2976536872     7.6539519559    -0.0000000000
lattice     -0.0000000000    -0.0000000000     7.6655449096
atom      0.0000000000     0.0000000000     0.0000000000   Al  0.0 0.0    1.70696883e-13  2.65786071e-13  8.59382204e-14
atom     -0.1488268436     3.8269759779     3.8327724548   Al  0.0 0.0    2.40288067e-14 -2.14629510e-13 -8.59015844e-14
atom      3.8269759779    -0.1488268436     3.8327724548   Al  0.0 0.0   -2.39035047e-14  2.14517954e-13 -8.58022086e-14
atom      3.6781491343     3.6781491343    -0.0000000000   Al  0.0 0.0   -1.70546183e-13 -2.65689030e-13  8.61617291e-14
energy -7.900364663039548e+01
charge 0.0000
end
begin
comment 4 atoms, species Al4
lattice      7.6539519559    -0.2126097766    -0.0000000000
lattice     -0.2126097766     7.6539519559    -0.0000000000
lattice     -0.0000000000    -0.0000000000     7.6598623435
atom      0.0000000000     0.0000000000     0.0000000000   Al  0.0 0.0   -1.54542953e-13 -2.29835333e-13 -6.57752971e-14
atom     -0.1063048883     3.8269759779     3.8299311717   Al  0.0 0.0   -5.78806204e-14  1.89632962e-13  6.61243260e-14
atom      3.8269759779    -0.1063048883     3.8299311717   Al  0.0 0.0    5.77701153e-14 -1.89323055e-13  6.61040443e-14
atom      3.7206710897     3.7206710897    -0.0000000000   Al  0.0 0.0    1.54455073e-13  2.29746924e-13 -6.58389839e-14
energy -7.900451991860756e+01
charge 0.0000
end
begin
comment 4 atoms, species Al4
lattice      7.6539519559    -0.1275658659    -0.0000000000
lattice     -0.1275658659     7.6539519559    -0.0000000000
lattice     -0.0000000000    -0.0000000000     7.6560786444
atom      0.0000000000     0.0000000000     0.0000000000   Al  0.0 0.0    9.45802940e-14  5.51392180e-15  1.94288384e-13
atom     -0.0637829330     3.8269759779     3.8280393222   Al  0.0 0.0    9.10355885e-14  1.54163512e-14 -1.94455158e-13
atom      3.8269759779    -0.0637829330     3.8280393222   Al  0.0 0.0   -9.10258821e-14 -1.53522051e-14 -1.94262747e-13
atom      3.7631930450     3.7631930450    -0.0000000000   Al  0.0 0.0   -9.45851815e-14 -5.80717318e-15  1.94356487e-13
energy -7.900509358595670e+01
charge 0.0000
end
begin
comment 4 atoms, species Al4
lattice      7.6539519559    -0.0425219553    -0.0000000000
lattice     -0.0425219553     7.6539519559    -0.0000000000
lattice     -0.0000000000    -0.0000000000     7.6541881962
atom      0.0000000000     0.0000000000     0.0000000000   Al  0.0 0.0   -2.14365478e-14 -1.02050031e-13  1.34166404e-13
atom     -0.0212609777     3.8269759779     3.8270940981   Al  0.0 0.0   -1.39239137e-14  1.00647094e-13 -1.34340926e-13
atom      3.8269759779    -0.0212609777     3.8270940981   Al  0.0 0.0    1.39700225e-14 -1.00897432e-13 -1.34464777e-13
atom      3.8057150003     3.8057150003    -0.0000000000   Al  0.0 0.0    2.13888056e-14  1.02006356e-13  1.34248129e-13
energy -7.900537894731619e+01
charge 0.0000
end
begin
comment 4 atoms, species Al4
lattice      7.6539519559     0.0425219553    -0.0000000000
lattice      0.0425219553     7.6539519559    -0.0000000000
lattice     -0.0000000000    -0.0000000000     7.6541881962
atom      0.0000000000     0.0000000000     0.0000000000   Al  0.0 0.0   -1.37897581e-14 -1.00699836e-13  1.34278733e-13
atom      0.0212609777     3.8269759779     3.8270940981   Al  0.0 0.0   -2.15358600e-14  1.02049091e-13 -1.34296855e-13
atom      3.8269759779     0.0212609777     3.8270940981   Al  0.0 0.0    2.14863271e-14 -1.01925996e-13 -1.34304262e-13
atom      3.8482369556     3.8482369556    -0.0000000000   Al  0.0 0.0    1.38063094e-14  1.00662667e-13  1.34269549e-13
energy -7.900537894731619e+01
charge 0.0000
end
begin
comment 4 atoms, species Al4
lattice      7.6539519559     0.1275658659    -0.0000000000
lattice      0.1275658659     7.6539519559    -0.0000000000
lattice     -0.0000000000    -0.0000000000     7.6560786444
atom      0.0000000000     0.0000000000     0.0000000000   Al  0.0 0.0    9.10176316e-14 -1.53754205e-14  1.94238057e-13
atom      0.0637829330     3.8269759779     3.8280393222   Al  0.0 0.0    9.46401462e-14 -5.73648343e-15 -1.94094558e-13
atom      3.8269759779     0.0637829330     3.8280393222   Al  0.0 0.0   -9.45271724e-14  5.45454809e-15 -1.94396887e-13
atom      3.8907589109     3.8907589109    -0.0000000000   Al  0.0 0.0   -9.11568254e-14  1.53967184e-14  1.94153621e-13
energy -7.900509358595669e+01
charge 0.0000
end
begin
comment 4 atoms, species Al4
lattice      7.6539519559     0.2126097766    -0.0000000000
lattice      0.2126097766     7.6539519559    -0.0000000000
lattice     -0.0000000000    -0.0000000000     7.6598623435
atom      0.0000000000     0.0000000000     0.0000000000   Al  0.0 0.0   -5.77698568e-14 -1.89810437e-13 -6.62557207e-14
atom      0.1063048883     3.8269759779     3.8299311717   Al  0.0 0.0   -1.54346481e-13  2.29760335e-13  6.61031332e-14
atom      3.8269759779     0.1063048883     3.8299311717   Al  0.0 0.0    1.54357374e-13 -2.29685922e-13  6.61604168e-14
atom      3.9332808662     3.9332808662    -0.0000000000   Al  0.0 0.0    5.77987472e-14  1.89547937e-13 -6.57757112e-14
energy -7.900451991860756e+01
charge 0.0000
end
begin
comment 4 atoms, species Al4
lattice      7.6539519559     0.2976536872    -0.0000000000
lattice      0.2976536872     7.6539519559    -0.0000000000
lattice     -0.0000000000    -0.0000000000     7.6655449096
atom      0.0000000000     0.0000000000     0.0000000000   Al  0.0 0.0    2.38928675e-14  2.14458122e-13  8.57953995e-14
atom      0.1488268436     3.8269759779     3.8327724548   Al  0.0 0.0    1.70615076e-13 -2.65738207e-13 -8.56967195e-14
atom      3.8269759779     0.1488268436     3.8327724548   Al  0.0 0.0   -1.70711763e-13  2.65521080e-13 -8.62167934e-14
atom      3.9758028215     3.9758028215    -0.0000000000   Al  0.0 0.0   -2.39266950e-14 -2.14435130e-13  8.60642367e-14
energy -7.900364663039548e+01
charge 0.0000
end
begin
comment 4 atoms, species Al4
lattice      7.6539519559     0.3826975978    -0.0000000000
lattice      0.3826975978     7.6539519559    -0.0000000000
lattice     -0.0000000000    -0.0000000000     7.6731347928
atom      0.0000000000     0.0000000000     0.0000000000   Al  0.0 0.0   -1.41196168e-13 -5.93152107e-14  1.99226982e-13
atom      0.1913487989     3.8269759779     3.8365673964   Al  0.0 0.0   -2.19392205e-13  1.79979471e-13 -1.99166895e-13
atom      3.8269759779     0.1913487989     3.8365673964   Al  0.0 0.0    2.19427172e-13 -1.79996503e-13 -1.99540701e-13
atom      4.0183247768     4.0183247768    -0.0000000000   Al  0.0 0.0    1.41166855e-13  5.91799876e-14  1.99294946e-13
energy -7.900245070239919e+01
charge 0.0000
end
