
     Program PWSCF v.6.3 starts on 27Feb2020 at  2:27:26 

     This program is part of the open-source Quantum ESPRESSO suite
     for quantum simulation of materials; please cite
         "P. Giannozzi et al., J. Phys.:Condens. Matter 21 395502 (2009);
         "P. Giannozzi et al., J. Phys.:Condens. Matter 29 465901 (2017);
          URL http://www.quantum-espresso.org", 
     in publications or presentations arising from this work. More details at
     http://www.quantum-espresso.org/quote

 *** WARNING: using old-style file format, will disappear from next version ***

     Parallel version (MPI & OpenMP), running on     288 processor cores
     Number of MPI processes:               288
     Threads/MPI process:                     1

     MPI processes distributed on     8 nodes
     K-points division:     npool     =      36
     R & G space division:  proc/nbgrp/npool/nimage =       8
     Reading input from aiida.in
Warning: card &IONS ignored
Warning: card   !PRESS_CONV_THR = 0.05                 ! JUST FOR VOLUME RELAXATIONS ignored
Warning: card / ignored

     Current dimensions of program PWSCF are:
     Max number of different atomic species (ntypx) = 10
     Max number of k-points (npk) =  40000
     Max angular momentum in pseudopotentials (lmaxx) =  3
               file Mg.pbe-n-kjpaw_psl.0.3.0.UPF: wavefunction(s)  3S renormalized
               file Al.pbe-n-kjpaw_psl.1.0.0.UPF: wavefunction(s)  3S 3P renormalized

     Subspace diagonalization in iterative solution of the eigenvalue problem:
     one sub-group per band group will be used
     scalapack distributed-memory algorithm (size of sub-group:  2*  2 procs)

 
     Parallelization info
     --------------------
     sticks:   dense  smooth     PW     G-vecs:    dense   smooth      PW
     Min       10400    4162   1134               516638   130733   18622
     Max       10402    4163   1135               516639   130734   18623
     Sum       83209   33303   9077              4133107  1045867  148983
 


     bravais-lattice index     =            0
     lattice parameter (alat)  =      27.6424  a.u.
     unit-cell volume          =   30591.7659 (a.u.)^3
     number of atoms/cell      =          264
     number of atomic types    =            3
     number of electrons       =       780.00
     number of Kohn-Sham states=          468
     kinetic-energy cutoff     =      40.0000  Ry
     charge density cutoff     =     400.0000  Ry
     convergence threshold     =      1.0E-12
     mixing beta               =       0.4000
     number of iterations used =            8  local-TF  mixing
     Exchange-correlation      = SLA PW PBX PBC ( 1  4  3  4 0 0)

     celldm(1)=  27.642373  celldm(2)=   0.000000  celldm(3)=   0.000000
     celldm(4)=   0.000000  celldm(5)=   0.000000  celldm(6)=   0.000000

     crystal axes: (cart. coord. in units of alat)
               a(1) = (   0.554700   0.000000   0.832050 )  
               a(2) = (   0.000000   3.423413   0.000000 )  
               a(3) = (  -0.416025   0.000000   0.138675 )  

     reciprocal axes: (cart. coord. in units 2 pi/alat)
               b(1) = (  0.327777  0.000000  0.983332 )  
               b(2) = (  0.000000  0.292106  0.000000 )  
               b(3) = ( -1.966664  0.000000  1.311110 )  


     PseudoPot. # 1 for Mg read from file:
     /users/aglensk/Dropbox/Albert/scripts/dotfiles/scripts/potentials/quantum_espresso/pseudo_SSSPefV1.1_alalloy/Mg.pbe-n-kjpaw_psl.0.3.0.UPF
     MD5 check sum: 24ecedc7f3e3cbe212e682f4413594e4
     Pseudo is Projector augmented-wave + core cor, Zval =  2.0
     Generated using "atomic" code by A. Dal Corso v.5.0.99 svn rev. 10869
     Shape of augmentation charge: PSQ
     Using radial grid of 1129 points,  4 beta functions with: 
                l(1) =   0
                l(2) =   0
                l(3) =   1
                l(4) =   1
     Q(r) pseudized with 0 coefficients 


     PseudoPot. # 2 for Si read from file:
     /users/aglensk/Dropbox/Albert/scripts/dotfiles/scripts/potentials/quantum_espresso/pseudo_SSSPefV1.1_alalloy/Si.pbe-n-rrkjus_psl.1.0.0.UPF
     MD5 check sum: 0b0bb1205258b0d07b9f9672cf965d36
     Pseudo is Ultrasoft + core correction, Zval =  4.0
     Generated using "atomic" code by A. Dal Corso v.5.1
     Using radial grid of 1141 points,  6 beta functions with: 
                l(1) =   0
                l(2) =   0
                l(3) =   1
                l(4) =   1
                l(5) =   2
                l(6) =   2
     Q(r) pseudized with 0 coefficients 


     PseudoPot. # 3 for Al read from file:
     /users/aglensk/Dropbox/Albert/scripts/dotfiles/scripts/potentials/quantum_espresso/pseudo_SSSPefV1.1_alalloy/Al.pbe-n-kjpaw_psl.1.0.0.UPF
     MD5 check sum: cfc449ca30b5f3223ec38ddd88ac046d
     Pseudo is Projector augmented-wave + core cor, Zval =  3.0
     Generated using "atomic" code by A. Dal Corso v.5.1
     Shape of augmentation charge: PSQ
     Using radial grid of 1135 points,  6 beta functions with: 
                l(1) =   0
                l(2) =   0
                l(3) =   1
                l(4) =   1
                l(5) =   2
                l(6) =   2
     Q(r) pseudized with 0 coefficients 


     atomic species   valence    mass     pseudopotential
        Mg             2.00    24.30500     Mg( 1.00)
        Si             4.00    28.08500     Si( 1.00)
        Al             3.00    26.98154     Al( 1.00)

     No symmetry found


                                    s                        frac. trans.

      isym =  1     identity                                     

 cryst.   s( 1) = (     1          0          0      )
                  (     0          1          0      )
                  (     0          0          1      )

 cart.    s( 1) = (  1.0000000  0.0000000 -0.0000000 )
                  (  0.0000000  1.0000000  0.0000000 )
                  ( -0.0000000  0.0000000  1.0000000 )


   Cartesian axes

     site n.     atom                  positions (alat units)
         1           Mg  tau(   1) = (  -0.4057569   0.0213248   0.1386425  )
         2           Mg  tau(   2) = (  -0.1051146   0.1457209   0.1154530  )
         3           Mg  tau(   3) = (  -0.2866363   0.1481954   0.2527639  )
         4           Mg  tau(   4) = (   0.1611978   0.0105068   0.3029449  )
         5           Mg  tau(   5) = (  -0.0212477   0.0097273   0.4417547  )
         6           Si  tau(   6) = (  -0.2310714   3.4216415   0.1402060  )
         7           Si  tau(   7) = (   0.0179906   0.0049495   0.1837714  )
         8           Al  tau(   8) = (  -0.1305216   3.4194839   0.2778096  )
         9           Al  tau(   9) = (   0.0047462   0.1498724   0.2826064  )
        10           Si  tau(  10) = (  -0.1437388   0.1518751   0.3696077  )
        11           Si  tau(  11) = (   0.1087339   0.1545992   0.4137847  )
        12           Mg  tau(  12) = (  -0.1332016   0.1566913   0.5544864  )
        13           Mg  tau(  13) = (   0.1693325   0.0106286   0.5271682  )
        14           Mg  tau(  14) = (  -0.0125394   0.0075147   0.6670758  )
        15           Mg  tau(  15) = (   0.4388978   0.1436888   0.7177337  )
        16           Mg  tau(  16) = (   0.2594941   0.1443160   0.8524969  )
        17           Si  tau(  17) = (   0.0407493   0.1529512   0.5577486  )
        18           Si  tau(  18) = (   0.2946333   0.1504332   0.6007743  )
        19           Al  tau(  19) = (   0.1460371   0.1468620   0.6882648  )
        20           Al  tau(  20) = (   0.2802446   3.4186580   0.6912483  )
        21           Si  tau(  21) = (   0.1330680   3.4228617   0.7866893  )
        22           Si  tau(  22) = (   0.3910789   3.4082557   0.8235675  )
        23           Mg  tau(  23) = (  -0.4095376   0.2862037   0.1377988  )
        24           Mg  tau(  24) = (  -0.1017940   0.4380980   0.1089795  )
        25           Mg  tau(  25) = (  -0.2901486   0.4397996   0.2500908  )
        26           Mg  tau(  26) = (   0.1630541   0.2979310   0.3025091  )
        27           Mg  tau(  27) = (  -0.0250227   0.2986937   0.4430408  )
        28           Si  tau(  28) = (  -0.2354679   0.2935124   0.1407193  )
        29           Si  tau(  29) = (   0.0187656   0.2957529   0.1844420  )
        30           Al  tau(  30) = (  -0.1305481   0.2966332   0.2708781  )
        31           Al  tau(  31) = (   0.0035663   0.4417621   0.2824916  )
        32           Si  tau(  32) = (  -0.1458863   0.4426091   0.3690724  )
        33           Si  tau(  33) = (   0.1082096   0.4434391   0.4129554  )
        34           Mg  tau(  34) = (  -0.1333184   0.4423133   0.5545884  )
        35           Mg  tau(  35) = (   0.1743882   0.2983640   0.5277739  )
        36           Mg  tau(  36) = (  -0.0130426   0.2968686   0.6680633  )
        37           Mg  tau(  37) = (   0.4402162   0.4381048   0.7198931  )
        38           Mg  tau(  38) = (   0.2515966   0.4381370   0.8606983  )
        39           Si  tau(  39) = (   0.0412344   0.4426040   0.5573945  )
        40           Si  tau(  40) = (   0.2954437   0.4415059   0.6013795  )
        41           Al  tau(  41) = (   0.1459911   0.4405137   0.6878317  )
        42           Al  tau(  42) = (   0.2808951   0.2951804   0.6992136  )
        43           Si  tau(  43) = (   0.1315906   0.2936868   0.7853467  )
        44           Si  tau(  44) = (   0.3868221   0.2905417   0.8286576  )
        45           Mg  tau(  45) = (  -0.4106725   0.5855778   0.1383318  )
        46           Mg  tau(  46) = (  -0.1027990   0.7309738   0.1102998  )
        47           Mg  tau(  47) = (  -0.2902947   0.7317749   0.2509917  )
        48           Mg  tau(  48) = (   0.1622799   0.5882804   0.3030882  )
        49           Mg  tau(  49) = (  -0.0254354   0.5880741   0.4437566  )
        50           Si  tau(  50) = (  -0.2362899   0.5856238   0.1409909  )
        51           Si  tau(  51) = (   0.0180648   0.5870407   0.1845375  )
        52           Al  tau(  52) = (  -0.1312829   0.5872456   0.2707471  )
        53           Al  tau(  53) = (   0.0032071   0.7326768   0.2831583  )
        54           Si  tau(  54) = (  -0.1461324   0.7330036   0.3694428  )
        55           Si  tau(  55) = (   0.1081924   0.7341700   0.4131213  )
        56           Mg  tau(  56) = (  -0.1333949   0.7335495   0.5545318  )
        57           Mg  tau(  57) = (   0.1745637   0.5880414   0.5265688  )
        58           Mg  tau(  58) = (  -0.0130086   0.5873429   0.6673071  )
        59           Mg  tau(  59) = (   0.4396196   0.7307591   0.7194374  )
        60           Mg  tau(  60) = (   0.2519586   0.7310166   0.8599886  )
        61           Si  tau(  61) = (   0.0410308   0.7331184   0.5572604  )
        62           Si  tau(  62) = (   0.2953375   0.7322725   0.6010005  )
        63           Al  tau(  63) = (   0.1459889   0.7319826   0.6872554  )
        64           Al  tau(  64) = (   0.2804956   0.5864102   0.6994472  )
        65           Si  tau(  65) = (   0.1311677   0.5860747   0.7856311  )
        66           Si  tau(  66) = (   0.3856397   0.5840188   0.8290796  )
        67           Mg  tau(  67) = (  -0.4107408   0.8768055   0.1385292  )
        68           Mg  tau(  68) = (  -0.1027591   1.0222812   0.1105658  )
        69           Mg  tau(  69) = (  -0.2903360   1.0229775   0.2512920  )
        70           Mg  tau(  70) = (   0.1622923   0.8796002   0.3034145  )
        71           Mg  tau(  71) = (  -0.0253556   0.8793297   0.4439543  )
        72           Si  tau(  72) = (  -0.2363131   0.8772004   0.1412527  )
        73           Si  tau(  73) = (   0.0179949   0.8780803   0.1850028  )
        74           Al  tau(  74) = (  -0.1313544   0.8783753   0.2712514  )
        75           Al  tau(  75) = (   0.0031881   1.0239639   0.2834245  )
        76           Si  tau(  76) = (  -0.1461426   1.0243063   0.3695992  )
        77           Si  tau(  77) = (   0.1083533   1.0263801   0.4130378  )
        78           Mg  tau(  78) = (  -0.1332610   1.0247789   0.5543445  )
        79           Mg  tau(  79) = (   0.1745897   0.8793645   0.5263084  )
        80           Mg  tau(  80) = (  -0.0129069   0.8785403   0.6669957  )
        81           Mg  tau(  81) = (   0.4396735   1.0220331   0.7191023  )
        82           Mg  tau(  82) = (   0.2519495   1.0222283   0.8597726  )
        83           Si  tau(  83) = (   0.0411201   1.0247035   0.5569973  )
        84           Si  tau(  84) = (   0.2954690   1.0232845   0.6005499  )
        85           Al  tau(  85) = (   0.1461185   1.0230834   0.6867572  )
        86           Al  tau(  86) = (   0.2805847   0.8776540   0.6991786  )
        87           Si  tau(  87) = (   0.1312414   0.8773364   0.7854683  )
        88           Si  tau(  88) = (   0.3855496   0.8761957   0.8291609  )
        89           Mg  tau(  89) = (  -0.4106240   1.1679865   0.1385489  )
        90           Mg  tau(  90) = (  -0.1029059   1.3118897   0.1117442  )
        91           Mg  tau(  91) = (  -0.2903224   1.3134369   0.2520463  )
        92           Mg  tau(  92) = (   0.1629347   1.1722771   0.3038512  )
        93           Mg  tau(  93) = (  -0.0256653   1.1722040   0.4446346  )
        94           Si  tau(  94) = (  -0.2360706   1.1676946   0.1413608  )
        95           Si  tau(  95) = (   0.0181568   1.1688460   0.1853349  )
        96           Al  tau(  96) = (  -0.1312984   1.1698487   0.2717889  )
        97           Al  tau(  97) = (   0.0036033   1.3151640   0.2831726  )
        98           Si  tau(  98) = (  -0.1456919   1.3166571   0.3693253  )
        99           Si  tau(  99) = (   0.1095385   1.3198349   0.4126094  )
       100           Mg  tau( 100) = (  -0.1321194   1.3241296   0.5538142  )
       101           Mg  tau( 101) = (   0.1756061   1.1722418   0.5249901  )
       102           Mg  tau( 102) = (  -0.0127547   1.1705194   0.6660862  )
       103           Mg  tau( 103) = (   0.4404703   1.3123542   0.7185182  )
       104           Mg  tau( 104) = (   0.2523975   1.3115726   0.8590499  )
       105           Si  tau( 105) = (   0.0419524   1.3167836   0.5567244  )
       106           Si  tau( 106) = (   0.2961809   1.3145459   0.6004511  )
       107           Al  tau( 107) = (   0.1468634   1.3136641   0.6868888  )
       108           Al  tau( 108) = (   0.2809648   1.1685569   0.6985018  )
       109           Si  tau( 109) = (   0.1315092   1.1677066   0.7850840  )
       110           Si  tau( 110) = (   0.3856043   1.1668577   0.8289676  )
       111           Mg  tau( 111) = (  -0.4104890   1.4535295   0.1384498  )
       112           Mg  tau( 112) = (  -0.1079455   1.5995694   0.1111288  )
       113           Mg  tau( 113) = (  -0.2898273   1.6027578   0.2510579  )
       114           Mg  tau( 114) = (   0.1615944   1.4666840   0.3016982  )
       115           Mg  tau( 115) = (  -0.0177726   1.4659686   0.4364594  )
       116           Si  tau( 116) = (  -0.2365403   1.4573195   0.1417394  )
       117           Si  tau( 117) = (   0.0173450   1.4598812   0.1847229  )
       118           Al  tau( 118) = (  -0.1312388   1.4634507   0.2722469  )
       119           Al  tau( 119) = (   0.0029592   1.6150283   0.2752297  )
       120           Si  tau( 120) = (  -0.1442047   1.6108447   0.3707039  )
       121           Si  tau( 121) = (   0.1138722   1.6256057   0.4075275  )
       122           Mg  tau( 122) = (  -0.1282986   1.5888400   0.5546841  )
       123           Mg  tau( 123) = (   0.1723188   1.4645376   0.5314974  )
       124           Mg  tau( 124) = (  -0.0092085   1.4620559   0.6687878  )
       125           Mg  tau( 125) = (   0.4385909   1.5996951   0.7189819  )
       126           Mg  tau( 126) = (   0.2561462   1.6004971   0.8577958  )
       127           Si  tau( 127) = (   0.0463715   1.6119557   0.5561872  )
       128           Si  tau( 128) = (   0.2954071   1.6052564   0.5997839  )
       129           Al  tau( 129) = (   0.1468636   1.6141462   0.6938319  )
       130           Al  tau( 130) = (   0.2821724   1.4603813   0.6986440  )
       131           Si  tau( 131) = (   0.1336831   1.4583757   0.7856381  )
       132           Si  tau( 132) = (   0.3861469   1.4556347   0.8298289  )
       133           Al  tau( 133) = (  -0.2774481   2.0355801   0.1376164  )
       134           Al  tau( 134) = (   0.1381025   1.8974443   0.9691626  )
       135           Al  tau( 135) = (  -0.2783008   1.8968703   0.2762039  )
       136           Al  tau( 136) = (  -0.0000512   2.0341184   0.1378418  )
       137           Al  tau( 137) = (   0.1366482   2.0345260   0.2763407  )
       138           Al  tau( 138) = (  -0.0013654   1.8923766   0.2772530  )
       139           Al  tau( 139) = (   0.1304184   1.8977297   0.4136033  )
       140           Al  tau( 140) = (   0.1384036   2.0335755   0.5537798  )
       141           Al  tau( 141) = (   0.1371408   1.8946633   0.6932497  )
       142           Al  tau( 142) = (   0.2767874   1.8978043   0.8302797  )
       143           Al  tau( 143) = (   0.1377720   2.0346716   0.8311848  )
       144           Al  tau( 144) = (   0.4151996   2.0352808   0.8302636  )
       145           Al  tau( 145) = (  -0.1389767   1.8984210   0.1368897  )
       146           Al  tau( 146) = (  -0.1386431   2.0349699   0.2754369  )
       147           Al  tau( 147) = (  -0.0030619   2.0346357   0.4155945  )
       148           Al  tau( 148) = (  -0.1419008   1.8975384   0.4114903  )
       149           Al  tau( 149) = (   0.0004240   1.8957206   0.5558721  )
       150           Al  tau( 150) = (   0.2753220   2.0324704   0.4154270  )
       151           Al  tau( 151) = (  -0.0000384   2.0342419   0.6924185  )
       152           Al  tau( 152) = (   0.2789163   1.8971849   0.5583281  )
       153           Al  tau( 153) = (   0.2763775   2.0348306   0.6931191  )
       154           Al  tau( 154) = (   0.4160619   1.8946127   0.6912554  )
       155           Al  tau( 155) = (  -0.2776789   2.3102120   0.1377795  )
       156           Al  tau( 156) = (   0.1382211   2.1723421   0.9699000  )
       157           Al  tau( 157) = (  -0.2778989   2.1725256   0.2764816  )
       158           Al  tau( 158) = (  -0.0003138   2.3102391   0.1377822  )
       159           Al  tau( 159) = (   0.1380946   2.3100996   0.2766401  )
       160           Al  tau( 160) = (  -0.0008972   2.1725630   0.2765569  )
       161           Al  tau( 161) = (   0.1375988   2.1718581   0.4154281  )
       162           Al  tau( 162) = (   0.1381873   2.3096655   0.5537457  )
       163           Al  tau( 163) = (   0.1383018   2.1724545   0.6923170  )
       164           Al  tau( 164) = (   0.2768350   2.1728053   0.8310835  )
       165           Al  tau( 165) = (   0.1382484   2.3102226   0.8311405  )
       166           Al  tau( 166) = (   0.4157071   2.3102919   0.8310390  )
       167           Al  tau( 167) = (  -0.1389412   2.1727148   0.1374693  )
       168           Al  tau( 168) = (  -0.1391241   2.3101810   0.2764418  )
       169           Al  tau( 169) = (  -0.0007581   2.3097072   0.4152645  )
       170           Al  tau( 170) = (  -0.1402440   2.1722291   0.4154670  )
       171           Al  tau( 171) = (  -0.0009135   2.1716632   0.5538537  )
       172           Al  tau( 172) = (   0.2767335   2.3097632   0.4152003  )
       173           Al  tau( 173) = (  -0.0004703   2.3100020   0.6923135  )
       174           Al  tau( 174) = (   0.2769261   2.1720245   0.5536071  )
       175           Al  tau( 175) = (   0.2769287   2.3102353   0.6924031  )
       176           Al  tau( 176) = (   0.4155746   2.1725784   0.6921569  )
       177           Al  tau( 177) = (  -0.2777326   2.5858965   0.1377731  )
       178           Al  tau( 178) = (   0.1383453   2.4480632   0.9698145  )
       179           Al  tau( 179) = (  -0.2777869   2.4479387   0.2764782  )
       180           Al  tau( 180) = (  -0.0004022   2.5857077   0.1378430  )
       181           Al  tau( 181) = (   0.1383970   2.5855186   0.2763399  )
       182           Al  tau( 182) = (  -0.0004891   2.4478213   0.2765044  )
       183           Al  tau( 183) = (   0.1382176   2.4476264   0.4151896  )
       184           Al  tau( 184) = (   0.1382386   2.5855197   0.5537747  )
       185           Al  tau( 185) = (   0.1383691   2.4478594   0.6924343  )
       186           Al  tau( 186) = (   0.2770882   2.4480090   0.8311017  )
       187           Al  tau( 187) = (   0.1382746   2.5857610   0.8311387  )
       188           Al  tau( 188) = (   0.4156057   2.5859013   0.8312271  )
       189           Al  tau( 189) = (  -0.1390928   2.4480048   0.1377839  )
       190           Al  tau( 190) = (  -0.1389500   2.5856564   0.2764164  )
       191           Al  tau( 191) = (  -0.0002723   2.5855062   0.4150600  )
       192           Al  tau( 192) = (  -0.1390918   2.4477694   0.4150894  )
       193           Al  tau( 193) = (  -0.0004031   2.4476259   0.5537821  )
       194           Al  tau( 194) = (  -0.1390045   2.5854462   0.5537382  )
       195           Al  tau( 195) = (  -0.0004105   2.5855828   0.6924899  )
       196           Al  tau( 196) = (   0.2769273   2.4478110   0.5538280  )
       197           Al  tau( 197) = (   0.2768863   2.5857065   0.6925117  )
       198           Al  tau( 198) = (   0.4157454   2.4479921   0.6923626  )
       199           Al  tau( 199) = (  -0.2782137   2.8618731   0.1378489  )
       200           Al  tau( 200) = (   0.5541287   2.7237669   0.8312588  )
       201           Al  tau( 201) = (  -0.2778023   2.7235149   0.2762800  )
       202           Al  tau( 202) = (  -0.0003608   2.8615003   0.1376244  )
       203           Al  tau( 203) = (   0.1382792   2.8609474   0.2761259  )
       204           Al  tau( 204) = (  -0.0003993   2.7232721   0.2763684  )
       205           Al  tau( 205) = (   0.1383767   2.7232165   0.4149784  )
       206           Al  tau( 206) = (   0.1384332   2.8608324   0.5534701  )
       207           Al  tau( 207) = (   0.1382447   2.7233597   0.6924565  )
       208           Al  tau( 208) = (   0.2766502   2.7238347   0.8312927  )
       209           Al  tau( 209) = (   0.1371704   2.8613318   0.8315287  )
       210           Al  tau( 210) = (   0.4150290   2.8616853   0.8314668  )
       211           Al  tau( 211) = (  -0.1391027   2.7238579   0.1377340  )
       212           Al  tau( 212) = (  -0.1389790   2.8610694   0.2762867  )
       213           Al  tau( 213) = (  -0.0004789   2.8607179   0.4150331  )
       214           Al  tau( 214) = (  -0.1390687   2.7232840   0.4150600  )
       215           Al  tau( 215) = (  -0.0003000   2.7233033   0.5537772  )
       216           Al  tau( 216) = (  -0.1390771   2.8611924   0.5538082  )
       217           Al  tau( 217) = (  -0.0004762   2.8610357   0.6925020  )
       218           Al  tau( 218) = (   0.2770655   2.7232961   0.5537502  )
       219           Al  tau( 219) = (   0.2765241   2.8610013   0.6925698  )
       220           Al  tau( 220) = (   0.4154852   2.7234460   0.6926445  )
       221           Al  tau( 221) = (  -0.2768403   3.1378487   0.1398767  )
       222           Al  tau( 222) = (   0.5527584   3.0011046   0.8315061  )
       223           Al  tau( 223) = (  -0.2773305   2.9993158   0.2764082  )
       224           Al  tau( 224) = (   0.0016071   3.1363699   0.1423874  )
       225           Al  tau( 225) = (   0.1387737   3.1389449   0.2752565  )
       226           Al  tau( 226) = (  -0.0009232   2.9987088   0.2771142  )
       227           Al  tau( 227) = (   0.1379132   2.9982680   0.4142276  )
       228           Al  tau( 228) = (   0.1384342   3.1351722   0.5529062  )
       229           Al  tau( 229) = (   0.1387573   2.9986157   0.6914607  )
       230           Al  tau( 230) = (   0.2743825   2.9989558   0.8316360  )
       231           Al  tau( 231) = (   0.1355197   3.1360867   0.8275483  )
       232           Al  tau( 232) = (   0.4078457   3.1359196   0.8296456  )
       233           Al  tau( 233) = (  -0.1388543   2.9999677   0.1377820  )
       234           Al  tau( 234) = (  -0.1401448   3.1389346   0.2772388  )
       235           Al  tau( 235) = (  -0.0005009   3.1357593   0.4142415  )
       236           Al  tau( 236) = (  -0.1395167   2.9989077   0.4151184  )
       237           Al  tau( 237) = (  -0.0000410   2.9979934   0.5536253  )
       238           Al  tau( 238) = (  -0.1391533   3.1361318   0.5531255  )
       239           Al  tau( 239) = (  -0.0008526   3.1367678   0.6922514  )
       240           Al  tau( 240) = (   0.2773776   2.9994516   0.5538292  )
       241           Al  tau( 241) = (   0.2760877   3.1412422   0.6932552  )
       242           Al  tau( 242) = (   0.4140824   2.9990728   0.6923782  )
       243           Al  tau( 243) = (  -0.2788328   1.7629919   0.1357429  )
       244           Al  tau( 244) = (   0.5462968   3.2573430   0.8323552  )
       245           Al  tau( 245) = (  -0.2831504   3.2891135   0.2719844  )
       246           Al  tau( 246) = (   0.0024976   1.7590689   0.1388720  )
       247           Al  tau( 247) = (   0.1405258   1.7533285   0.2742454  )
       248           Al  tau( 248) = (   0.0019941   3.2775996   0.2810342  )
       249           Al  tau( 249) = (   0.1396575   3.2721655   0.4157917  )
       250           Al  tau( 250) = (   0.1417664   1.7626758   0.5546371  )
       251           Al  tau( 251) = (   0.1372681   3.2766195   0.6842781  )
       252           Al  tau( 252) = (   0.2632369   3.2807207   0.8372920  )
       253           Al  tau( 253) = (   0.1368284   1.7582202   0.8269641  )
       254           Al  tau( 254) = (   0.4169289   1.7614137   0.8318214  )
       255           Al  tau( 255) = (  -0.1354848   3.2709683   0.1386437  )
       256           Al  tau( 256) = (  -0.1401319   1.7569987   0.2681979  )
       257           Al  tau( 257) = (  -0.0141854   1.7529222   0.4212279  )
       258           Al  tau( 258) = (  -0.1404774   3.2753894   0.4109531  )
       259           Al  tau( 259) = (  -0.0013967   3.2706251   0.5517562  )
       260           Al  tau( 260) = (   0.2687695   1.7762185   0.4162281  )
       261           Al  tau( 261) = (  -0.0058473   1.7444748   0.6879181  )
       262           Al  tau( 262) = (   0.2799143   3.2745604   0.5548833  )
       263           Al  tau( 263) = (   0.2792948   1.7560098   0.6970084  )
       264           Al  tau( 264) = (   0.4179534   3.2804031   0.6903915  )

   Crystallographic axes

     site n.     atom                  positions (cryst. coord.)
         1           Mg  tau(   1) = (  0.0033337  0.0062291  0.9797631  )
         2           Mg  tau(   2) = (  0.0790745  0.0425660  0.3580967  )
         3           Mg  tau(   3) = (  0.1545980  0.0432888  0.8951186  )
         4           Mg  tau(   4) = (  0.3507325  0.0030691  0.0801719  )
         5           Mg  tau(   5) = (  0.4274271  0.0028414  0.6209759  )
         6           Si  tau(   6) = (  0.0621291  0.9994827  0.6382654  )
         7           Si  tau(   7) = (  0.1866052  0.0014458  0.2055630  )
         8           Al  tau(   8) = (  0.2303971  0.9988524  0.6209311  )
         9           Al  tau(   9) = (  0.2794517  0.0437787  0.3611939  )
        10           Si  tau(  10) = (  0.3163328  0.0443637  0.7672821  )
        11           Si  tau(  11) = (  0.4425283  0.0451594  0.3286741  )
        12           Mg  tau(  12) = (  0.5015839  0.0457705  0.9889553  )
        13           Mg  tau(  13) = (  0.5738848  0.0031047  0.3581551  )
        14           Mg  tau(  14) = (  0.6518470  0.0021951  0.8992703  )
        15           Mg  tau(  15) = (  0.8496314  0.0419724  0.0778629  )
        16           Mg  tau(  16) = (  0.9233440  0.0421556  0.6073791  )
        17           Si  tau(  17) = (  0.5618089  0.0446780  0.6511293  )
        18           Si  tau(  18) = (  0.6873349  0.0439425  0.2082362  )
        19           Al  tau(  19) = (  0.7246606  0.0428993  0.6151847  )
        20           Al  tau(  20) = (  0.7715846  0.9986112  0.3551552  )
        21           Si  tau(  21) = (  0.8171936  0.9998391  0.7697357  )
        22           Si  tau(  22) = (  0.9380272  0.9955726  0.3106663  )
        23           Mg  tau(  23) = (  0.0012648  0.0836019  0.9860922  )
        24           Mg  tau(  24) = (  0.0737973  0.1279711  0.3430787  )
        25           Mg  tau(  25) = (  0.1508182  0.1284682  0.8985213  )
        26           Mg  tau(  26) = (  0.3509124  0.0870275  0.0759500  )
        27           Mg  tau(  27) = (  0.4274544  0.0872503  0.6300863  )
        28           Si  tau(  28) = (  0.0611928  0.0857368  0.6475847  )
        29           Si  tau(  29) = (  0.1875187  0.0863913  0.2049179  )
        30           Al  tau(  30) = (  0.2235725  0.0866484  0.6118952  )
        31           Al  tau(  31) = (  0.2789520  0.1290414  0.3633638  )
        32           Si  tau(  32) = (  0.3151026  0.1292889  0.7708038  )
        33           Si  tau(  33) = (  0.4415410  0.1295313  0.3286178  )
        34           Mg  tau(  34) = (  0.5016459  0.1292025  0.9893188  )
        35           Mg  tau(  35) = (  0.5761375  0.0871540  0.3490063  )
        36           Mg  tau(  36) = (  0.6526531  0.0867172  0.9015547  )
        37           Mg  tau(  37) = (  0.8521869  0.1279731  0.0781011  )
        38           Mg  tau(  38) = (  0.9288200  0.1279825  0.6336637  )
        39           Si  tau(  39) = (  0.5616197  0.1292874  0.6497109  )
        40           Si  tau(  40) = (  0.6881955  0.1289666  0.2074358  )
        41           Al  tau(  41) = (  0.7242196  0.1286768  0.6147072  )
        42           Al  tau(  42) = (  0.7796303  0.0862240  0.3643192  )
        43           Si  tau(  43) = (  0.8153891  0.0857877  0.7708809  )
        44           Si  tau(  44) = (  0.9416372  0.0848690  0.3257115  )
        45           Mg  tau(  45) = (  0.0014170  0.1710509  0.9890230  )
        46           Mg  tau(  46) = (  0.0747662  0.2135220  0.3467862  )
        47           Mg  tau(  47) = (  0.1516562  0.2137560  0.8999898  )
        48           Mg  tau(  48) = (  0.3512281  0.1718403  0.0782318  )
        49           Mg  tau(  49) = (  0.4280230  0.1717801  0.6318364  )
        50           Si  tau(  50) = (  0.0611904  0.1710643  0.6495573  )
        51           Si  tau(  51) = (  0.1873829  0.1714782  0.2064213  )
        52           Al  tau(  52) = (  0.2232028  0.1715381  0.6131685  )
        53           Al  tau(  53) = (  0.2794899  0.2140194  0.3649443  )
        54           Si  tau(  54) = (  0.3153861  0.2141149  0.7717733  )
        55           Si  tau(  55) = (  0.4416985  0.2144556  0.3288691  )
        56           Mg  tau(  56) = (  0.5015651  0.2142744  0.9893948  )
        57           Mg  tau(  57) = (  0.5750101  0.1717705  0.3470811  )
        58           Mg  tau(  58) = (  0.6519206  0.1715665  0.9004963  )
        59           Mg  tau(  59) = (  0.8515433  0.2134593  0.0786771  )
        60           Mg  tau(  60) = (  0.9282408  0.2135345  0.6320214  )
        61           Si  tau(  61) = (  0.5614211  0.2141484  0.6499357  )
        62           Si  tau(  62) = (  0.6877881  0.2139013  0.2071478  )
        63           Al  tau(  63) = (  0.7236522  0.2138167  0.6139559  )
        64           Al  tau(  64) = (  0.7797291  0.1712940  0.3654112  )
        65           Si  tau(  65) = (  0.8155301  0.1711960  0.7720855  )
        66           Si  tau(  66) = (  0.9416646  0.1705955  0.3285904  )
        67           Mg  tau(  67) = (  0.0015887  0.2561203  0.9894161  )
        68           Mg  tau(  68) = (  0.0750409  0.2986147  0.3470565  )
        69           Mg  tau(  69) = (  0.1519379  0.2988181  0.9004648  )
        70           Mg  tau(  70) = (  0.3515530  0.2569367  0.0786353  )
        71           Mg  tau(  71) = (  0.4282436  0.2568577  0.6319387  )
        72           Si  tau(  72) = (  0.0614403  0.2562357  0.6499464  )
        73           Si  tau(  73) = (  0.1878175  0.2564927  0.2071690  )
        74           Al  tau(  74) = (  0.2236752  0.2565788  0.6139703  )
        75           Al  tau(  75) = (  0.2797454  0.2991062  0.3653306  )
        76           Si  tau(  76) = (  0.3155366  0.2992062  0.7719984  )
        77           Si  tau(  77) = (  0.4416692  0.2998120  0.3284433  )
        78           Mg  tau(  78) = (  0.5014248  0.2993443  0.9888860  )
        79           Mg  tau(  79) = (  0.5747626  0.2568678  0.3466887  )
        80           Mg  tau(  80) = (  0.6516477  0.2566271  0.8998879  )
        81           Mg  tau(  81) = (  0.8512315  0.2985422  0.0781317  )
        82           Mg  tau(  82) = (  0.9280254  0.2985992  0.6317560  )
        83           Si  tau(  83) = (  0.5611916  0.2993222  0.6494151  )
        84           Si  tau(  84) = (  0.6873881  0.2989077  0.2062985  )
        85           Al  tau(  85) = (  0.7232048  0.2988490  0.6130479  )
        86           Al  tau(  86) = (  0.7794941  0.2563682  0.3648838  )
        87           Si  tau(  87) = (  0.8153942  0.2562754  0.7717271  )
        88           Si  tau(  88) = (  0.9417150  0.2559422  0.3288742  )
        89           Mg  tau(  89) = (  0.0016463  0.3411761  0.9892123  )
        90           Mg  tau(  90) = (  0.0761515  0.3832111  0.3488904  )
        91           Mg  tau(  91) = (  0.1526842  0.3836630  0.9014269  )
        92           Mg  tau(  92) = (  0.3521930  0.3424294  0.0779444  )
        93           Mg  tau(  93) = (  0.4288110  0.3424080  0.6334397  )
        94           Si  tau(  94) = (  0.0616260  0.3410908  0.6496111  )
        95           Si  tau(  95) = (  0.1881971  0.3414271  0.2072860  )
        96           Al  tau(  96) = (  0.2242222  0.3417201  0.6145648  )
        97           Al  tau(  97) = (  0.2796338  0.3841676  0.3641838  )
        98           Si  tau(  98) = (  0.3154150  0.3846037  0.7707529  )
        99           Si  tau(  99) = (  0.4416364  0.3855319  0.3255506  )
       100           Mg  tau( 100) = (  0.5012776  0.3867865  0.9859456  )
       101           Mg  tau( 101) = (  0.5737993  0.3424191  0.3429613  )
       102           Mg  tau( 102) = (  0.6508033  0.3419160  0.8983962  )
       103           Mg  tau( 103) = (  0.8509183  0.3833468  0.0757989  )
       104           Mg  tau( 104) = (  0.9274616  0.3831185  0.6299273  )
       105           Si  tau( 105) = (  0.5611960  0.3846406  0.6474202  )
       106           Si  tau( 106) = (  0.6875243  0.3839870  0.2047688  )
       107           Al  tau( 107) = (  0.7235783  0.3837294  0.6117555  )
       108           Al  tau( 108) = (  0.7789532  0.3413427  0.3632490  )
       109           Si  tau( 109) = (  0.8151041  0.3410943  0.7706967  )
       110           Si  tau( 110) = (  0.9415429  0.3408464  0.3285132  )
       111           Mg  tau( 111) = (  0.0015932  0.4245850  0.9888168  )
       112           Mg  tau( 112) = (  0.0738944  0.4672441  0.3579945  )
       113           Mg  tau( 113) = (  0.1518744  0.4681755  0.8991574  )
       114           Mg  tau( 114) = (  0.3496366  0.4284275  0.0777575  )
       115           Mg  tau( 115) = (  0.4233591  0.4282185  0.6071987  )
       116           Si  tau( 116) = (  0.0618444  0.4256921  0.6510313  )
       117           Si  tau( 117) = (  0.1873293  0.4264403  0.2080802  )
       118           Al  tau( 118) = (  0.2246920  0.4274830  0.6150481  )
       119           Al  tau( 119) = (  0.2716122  0.4717598  0.3550366  )
       120           Si  tau( 120) = (  0.3172580  0.4705377  0.7696357  )
       121           Si  tau( 121) = (  0.4380597  0.4748495  0.3103648  )
       122           Mg  tau( 122) = (  0.5033853  0.4641100  0.9795719  )
       123           Mg  tau( 123) = (  0.5791207  0.4278005  0.3579580  )
       124           Mg  tau( 124) = (  0.6546222  0.4270756  0.8949642  )
       125           Mg  tau( 125) = (  0.8507582  0.4672808  0.0801030  )
       126           Mg  tau( 126) = (  0.9274572  0.4675151  0.6209106  )
       127           Si  tau( 127) = (  0.5621164  0.4708622  0.6380252  )
       128           Si  tau( 128) = (  0.6866145  0.4689053  0.2054158  )
       129           Al  tau( 129) = (  0.7304059  0.4715021  0.6208582  )
       130           Al  tau( 130) = (  0.7794889  0.4265864  0.3610603  )
       131           Si  tau( 131) = (  0.8163615  0.4260006  0.7671478  )
       132           Si  tau( 132) = (  0.9425677  0.4251999  0.3285753  )
       133           Al  tau( 133) = (  0.0443814  0.5946056  0.7260775  )
       134           Al  tau( 134) = (  0.9982757  0.5542552  0.9990770  )
       135           Al  tau( 135) = (  0.1803795  0.5540876  0.9094578  )
       136           Al  tau( 136) = (  0.1355275  0.5941786  0.1808263  )
       137           Al  tau( 137) = (  0.3165249  0.5942976  0.0935718  )
       138           Al  tau( 138) = (  0.2721843  0.5527749  0.3661944  )
       139           Al  tau( 139) = (  0.4494577  0.5543386  0.2857900  )
       140           Al  tau( 140) = (  0.5899151  0.5940200  0.4538725  )
       141           Al  tau( 141) = (  0.7266464  0.5534429  0.6392165  )
       142           Al  tau( 142) = (  0.9071654  0.5543604  0.5442398  )
       143           Al  tau( 143) = (  0.8624893  0.5943402  0.8188229  )
       144           Al  tau( 144) = (  0.9525179  0.5945181  0.2720084  )
       145           Al  tau( 145) = (  0.0890546  0.5545405  0.4527979  )
       146           Al  tau( 146) = (  0.2254019  0.5944273  0.6337923  )
       147           Al  tau( 147) = (  0.4076638  0.5943297  0.5509116  )
       148           Al  tau( 148) = (  0.3581198  0.5542827  0.8185800  )
       149           Al  tau( 149) = (  0.5467460  0.5537517  0.7279754  )
       150           Al  tau( 150) = (  0.4987471  0.5936972  0.0032045  )
       151           Al  tau( 151) = (  0.6808648  0.5942147  0.9079120  )
       152           Al  tau( 152) = (  0.6404445  0.5541794  0.1834946  )
       153           Al  tau( 153) = (  0.7721566  0.5943866  0.3652133  )
       154           Al  tau( 154) = (  0.8161093  0.5534281  0.0880575  )
       155           Al  tau( 155) = (  0.0444662  0.6748272  0.7267452  )
       156           Al  tau( 156) = (  0.9990397  0.6345546  0.9998108  )
       157           Al  tau( 157) = (  0.1807843  0.6346082  0.9090316  )
       158           Al  tau( 158) = (  0.1353828  0.6748351  0.1812648  )
       159           Al  tau( 159) = (  0.3172934  0.6747944  0.0911198  )
       160           Al  tau( 160) = (  0.2716532  0.6346191  0.3643608  )
       161           Al  tau( 161) = (  0.4536056  0.6344132  0.2740612  )
       162           Al  tau( 162) = (  0.5898107  0.6746676  0.4542532  )
       163           Al  tau( 163) = (  0.7261098  0.6345874  0.6357101  )
       164           Al  tau( 164) = (  0.9079714  0.6346899  0.5452000  )
       165           Al  tau( 165) = (  0.8626019  0.6748303  0.8178280  )
       166           Al  tau( 166) = (  0.9534468  0.6748506  0.2720268  )
       167           Al  tau( 167) = (  0.0896362  0.6346634  0.4534881  )
       168           Al  tau( 168) = (  0.2262324  0.6748182  0.6360559  )
       169           Al  tau( 169) = (  0.4080945  0.6746798  0.5459482  )
       170           Al  tau( 170) = (  0.3625733  0.6345216  0.8205355  )
       171           Al  tau( 171) = (  0.5443228  0.6343563  0.7279593  )
       172           Al  tau( 172) = (  0.4989868  0.6746961  0.0001311  )
       173           Al  tau( 173) = (  0.6806200  0.6747659  0.9086238  )
       174           Al  tau( 174) = (  0.6351498  0.6344618  0.1812189  )
       175           Al  tau( 175) = (  0.7716332  0.6748340  0.3631907  )
       176           Al  tau( 176) = (  0.8168361  0.6346236  0.0901978  )
       177           Al  tau( 177) = (  0.0444423  0.7553564  0.7268424  )
       178           Al  tau( 178) = (  0.9989962  0.7150944  0.9994544  )
       179           Al  tau( 179) = (  0.1808177  0.7150581  0.9088067  )
       180           Al  tau( 180) = (  0.1354137  0.7553012  0.1815182  )
       181           Al  tau( 181) = (  0.3170973  0.7552460  0.0901314  )
       182           Al  tau( 182) = (  0.2717354  0.7150238  0.3634895  )
       183           Al  tau( 183) = (  0.4535739  0.7149668  0.2725314  )
       184           Al  tau( 184) = (  0.5898560  0.7552463  0.4541903  )
       185           Al  tau( 185) = (  0.7262472  0.7150349  0.6357316  )
       186           Al  tau( 186) = (  0.9080723  0.7150786  0.5447259  )
       187           Al  tau( 187) = (  0.8626087  0.7553168  0.8177742  )
       188           Al  tau( 188) = (  0.9535985  0.7553578  0.2724729  )
       189           Al  tau( 189) = (  0.0898959  0.7150774  0.4541987  )
       190           Al  tau( 190) = (  0.2262644  0.7552863  0.6356801  )
       191           Al  tau( 191) = (  0.4080526  0.7552424  0.5447246  )
       192           Al  tau( 192) = (  0.3625796  0.7150086  0.8177745  )
       193           Al  tau( 193) = (  0.5444196  0.7149667  0.7268617  )
       194           Al  tau( 194) = (  0.4989461  0.7552248  0.9993866  )
       195           Al  tau( 195) = (  0.6808130  0.7552648  0.9087373  )
       196           Al  tau( 196) = (  0.6353674  0.7150207  0.1815062  )
       197           Al  tau( 197) = (  0.7717261  0.7553009  0.3634163  )
       198           Al  tau( 198) = (  0.8170943  0.7150737  0.0901316  )
       199           Al  tau( 199) = (  0.0443591  0.8359708  0.7278881  )
       200           Al  tau( 200) = (  0.9990344  0.7956292  0.0000863  )
       201           Al  tau( 201) = (  0.1806178  0.7955556  0.9085773  )
       202           Al  tau( 202) = (  0.1352122  0.8358620  0.1811502  )
       203           Al  tau( 203) = (  0.3168483  0.8357005  0.0900826  )
       204           Al  tau( 204) = (  0.2716310  0.7954846  0.3631345  )
       205           Al  tau( 205) = (  0.4534184  0.7954684  0.2719417  )
       206           Al  tau( 206) = (  0.5896202  0.8356669  0.4534084  )
       207           Al  tau( 207) = (  0.7262283  0.7955102  0.6360055  )
       208           Al  tau( 208) = (  0.9081165  0.7956490  0.5458378  )
       209           Al  tau( 209) = (  0.8626303  0.8358127  0.8204570  )
       210           Al  tau( 210) = (  0.9536452  0.8359160  0.2739215  )
       211           Al  tau( 211) = (  0.0898436  0.7956558  0.4541528  )
       212           Al  tau( 212) = (  0.2261274  0.8357361  0.6355671  )
       213           Al  tau( 213) = (  0.4079584  0.8356334  0.5450956  )
       214           Al  tau( 214) = (  0.3625582  0.7954881  0.8176906  )
       215           Al  tau( 215) = (  0.5444486  0.7954938  0.7266525  )
       216           Al  tau( 216) = (  0.4989911  0.8357720  0.9996213  )
       217           Al  tau( 217) = (  0.6808034  0.8357262  0.9088825  )
       218           Al  tau( 218) = (  0.6353362  0.7954916  0.1811323  )
       219           Al  tau( 219) = (  0.7716645  0.8357162  0.3642048  )
       220           Al  tau( 220) = (  0.8172863  0.7955354  0.0910129  )
       221           Al  tau( 221) = (  0.0468033  0.9165850  0.7278456  )
       222           Al  tau( 222) = (  0.9988284  0.8766412  0.0031054  )
       223           Al  tau( 223) = (  0.1808984  0.8761187  0.9078175  )
       224           Al  tau( 224) = (  0.1405409  0.9161531  0.1835248  )
       225           Al  tau( 225) = (  0.3161555  0.9169052  0.0879701  )
       226           Al  tau( 226) = (  0.2721927  0.8759414  0.3651427  )
       227           Al  tau( 227) = (  0.4525282  0.8758127  0.2718688  )
       228           Al  tau( 228) = (  0.5890661  0.9158032  0.4526670  )
       229           Al  tau( 229) = (  0.7254170  0.8759142  0.6336918  )
       230           Al  tau( 230) = (  0.9077108  0.8760136  0.5507477  )
       231           Al  tau( 231) = (  0.8581752  0.9160704  0.8184846  )
       232           Al  tau( 232) = (  0.9494998  0.9160215  0.2856607  )
       233           Al  tau( 233) = (  0.0899722  0.8763092  0.4537270  )
       234           Al  tau( 234) = (  0.2266815  0.9169022  0.6391082  )
       235           Al  tau( 235) = (  0.4071729  0.9159747  0.5441011  )
       236           Al  tau( 236) = (  0.3624689  0.8759995  0.8186483  )
       237           Al  tau( 237) = (  0.5443841  0.8757324  0.7259441  )
       238           Al  tau( 238) = (  0.4982948  0.9160835  0.9988759  )
       239           Al  tau( 239) = (  0.6804337  0.9162693  0.9092942  )
       240           Al  tau( 240) = (  0.6355162  0.8761584  0.1806222  )
       241           Al  tau( 241) = (  0.7721955  0.9175763  0.3659618  )
       242           Al  tau( 242) = (  0.8165646  0.8760477  0.0934225  )
       243           Al  tau( 243) = (  0.0420853  0.5149808  0.7263443  )
       244           Al  tau( 244) = (  0.9975454  0.9514900  0.0169265  )
       245           Al  tau( 245) = (  0.1746407  0.9607704  0.9134630  )
       246           Al  tau( 246) = (  0.1373760  0.5138349  0.1771645  )
       247           Al  tau( 247) = (  0.3157355  0.5121581  0.0831987  )
       248           Al  tau( 248) = (  0.2770036  0.9574071  0.3645448  )
       249           Al  tau( 249) = (  0.4546380  0.9558198  0.2704891  )
       250           Al  tau( 250) = (  0.5918604  0.5148885  0.4483830  )
       251           Al  tau( 251) = (  0.7178661  0.9571208  0.6272032  )
       252           Al  tau( 252) = (  0.9096193  0.9583188  0.5800830  )
       253           Al  tau( 253) = (  0.8580297  0.5135870  0.8151449  )
       254           Al  tau( 254) = (  0.9546166  0.5145198  0.2706498  )
       255           Al  tau( 255) = (  0.0919240  0.9554701  0.4482302  )
       256           Al  tau( 256) = (  0.2177955  0.5132302  0.6272292  )
       257           Al  tau( 257) = (  0.4095573  0.5120394  0.5801738  )
       258           Al  tau( 258) = (  0.3580581  0.9567615  0.8150765  )
       259           Al  tau( 259) = (  0.5421019  0.9553698  0.7261597  )
       260           Al  tau( 260) = (  0.4973871  0.5188444  0.0171414  )
       261           Al  tau( 261) = (  0.6745354  0.5095719  0.9134357  )
       262           Al  tau( 262) = (  0.6373842  0.9565194  0.1770153  )
       263           Al  tau( 263) = (  0.7769373  0.5129413  0.3645753  )
       264           Al  tau( 264) = (  0.8158799  0.9582260  0.0832049  )

     number of k points=    80  Methfessel-Paxton smearing, width (Ry)=  0.0441
                       cart. coord. in units 2pi/alat
        k(    1) = (   0.0000000   0.0000000   0.0000000), wk =   0.0128205
        k(    2) = (  -0.1512819   0.0000000   0.1008546), wk =   0.0256410
        k(    3) = (  -0.3025637   0.0000000   0.2017092), wk =   0.0256410
        k(    4) = (  -0.4538456   0.0000000   0.3025637), wk =   0.0256410
        k(    5) = (  -0.6051275   0.0000000   0.4034183), wk =   0.0256410
        k(    6) = (  -0.7564093   0.0000000   0.5042729), wk =   0.0256410
        k(    7) = (  -0.9076912   0.0000000   0.6051275), wk =   0.0256410
        k(    8) = (   0.0000000  -0.1460531   0.0000000), wk =   0.0128205
        k(    9) = (  -0.1512819  -0.1460531   0.1008546), wk =   0.0256410
        k(   10) = (  -0.3025637  -0.1460531   0.2017092), wk =   0.0256410
        k(   11) = (  -0.4538456  -0.1460531   0.3025637), wk =   0.0256410
        k(   12) = (  -0.6051275  -0.1460531   0.4034183), wk =   0.0256410
        k(   13) = (  -0.7564093  -0.1460531   0.5042729), wk =   0.0256410
        k(   14) = (  -0.9076912  -0.1460531   0.6051275), wk =   0.0256410
        k(   15) = (   0.0546296   0.0000000   0.1638887), wk =   0.0256410
        k(   16) = (  -0.0966523   0.0000000   0.2647433), wk =   0.0256410
        k(   17) = (  -0.2479342   0.0000000   0.3655979), wk =   0.0256410
        k(   18) = (  -0.3992160   0.0000000   0.4664524), wk =   0.0256410
        k(   19) = (  -0.5504979   0.0000000   0.5673070), wk =   0.0256410
        k(   20) = (  -0.7017798   0.0000000   0.6681616), wk =   0.0256410
        k(   21) = (  -0.8530616   0.0000000   0.7690162), wk =   0.0256410
        k(   22) = (   0.9623207   0.0000000  -0.4412388), wk =   0.0256410
        k(   23) = (   0.8110389   0.0000000  -0.3403842), wk =   0.0256410
        k(   24) = (   0.6597570   0.0000000  -0.2395296), wk =   0.0256410
        k(   25) = (   0.5084751   0.0000000  -0.1386750), wk =   0.0256410
        k(   26) = (   0.3571933   0.0000000  -0.0378205), wk =   0.0256410
        k(   27) = (   0.2059114   0.0000000   0.0630341), wk =   0.0256410
        k(   28) = (   0.0546296  -0.1460531   0.1638887), wk =   0.0256410
        k(   29) = (  -0.0966523  -0.1460531   0.2647433), wk =   0.0256410
        k(   30) = (  -0.2479342  -0.1460531   0.3655979), wk =   0.0256410
        k(   31) = (  -0.3992160  -0.1460531   0.4664524), wk =   0.0256410
        k(   32) = (  -0.5504979  -0.1460531   0.5673070), wk =   0.0256410
        k(   33) = (  -0.7017798  -0.1460531   0.6681616), wk =   0.0256410
        k(   34) = (  -0.8530616  -0.1460531   0.7690162), wk =   0.0256410
        k(   35) = (   0.9623207  -0.1460531  -0.4412388), wk =   0.0256410
        k(   36) = (   0.8110389  -0.1460531  -0.3403842), wk =   0.0256410
        k(   37) = (   0.6597570  -0.1460531  -0.2395296), wk =   0.0256410
        k(   38) = (   0.5084751  -0.1460531  -0.1386750), wk =   0.0256410
        k(   39) = (   0.3571933  -0.1460531  -0.0378205), wk =   0.0256410
        k(   40) = (   0.2059114  -0.1460531   0.0630341), wk =   0.0256410
        k(   41) = (   0.1092591   0.0000000   0.3277774), wk =   0.0256410
        k(   42) = (  -0.0420227   0.0000000   0.4286320), wk =   0.0256410
        k(   43) = (  -0.1933046   0.0000000   0.5294866), wk =   0.0256410
        k(   44) = (  -0.3445865   0.0000000   0.6303411), wk =   0.0256410
        k(   45) = (  -0.4958683   0.0000000   0.7311957), wk =   0.0256410
        k(   46) = (  -0.6471502   0.0000000   0.8320503), wk =   0.0256410
        k(   47) = (  -0.7984321   0.0000000   0.9329049), wk =   0.0256410
        k(   48) = (   1.0169503   0.0000000  -0.2773501), wk =   0.0256410
        k(   49) = (   0.8656684   0.0000000  -0.1764955), wk =   0.0256410
        k(   50) = (   0.7143866   0.0000000  -0.0756409), wk =   0.0256410
        k(   51) = (   0.5631047   0.0000000   0.0252137), wk =   0.0256410
        k(   52) = (   0.4118228   0.0000000   0.1260682), wk =   0.0256410
        k(   53) = (   0.2605410   0.0000000   0.2269228), wk =   0.0256410
        k(   54) = (   0.1092591  -0.1460531   0.3277774), wk =   0.0256410
        k(   55) = (  -0.0420227  -0.1460531   0.4286320), wk =   0.0256410
        k(   56) = (  -0.1933046  -0.1460531   0.5294866), wk =   0.0256410
        k(   57) = (  -0.3445865  -0.1460531   0.6303411), wk =   0.0256410
        k(   58) = (  -0.4958683  -0.1460531   0.7311957), wk =   0.0256410
        k(   59) = (  -0.6471502  -0.1460531   0.8320503), wk =   0.0256410
        k(   60) = (  -0.7984321  -0.1460531   0.9329049), wk =   0.0256410
        k(   61) = (   1.0169503  -0.1460531  -0.2773501), wk =   0.0256410
        k(   62) = (   0.8656684  -0.1460531  -0.1764955), wk =   0.0256410
        k(   63) = (   0.7143866  -0.1460531  -0.0756409), wk =   0.0256410
        k(   64) = (   0.5631047  -0.1460531   0.0252137), wk =   0.0256410
        k(   65) = (   0.4118228  -0.1460531   0.1260682), wk =   0.0256410
        k(   66) = (   0.2605410  -0.1460531   0.2269228), wk =   0.0256410
        k(   67) = (  -0.1638887   0.0000000  -0.4916661), wk =   0.0128205
        k(   68) = (  -0.3151705   0.0000000  -0.3908115), wk =   0.0256410
        k(   69) = (  -0.4664524   0.0000000  -0.2899569), wk =   0.0256410
        k(   70) = (  -0.6177343   0.0000000  -0.1891024), wk =   0.0256410
        k(   71) = (  -0.7690161   0.0000000  -0.0882478), wk =   0.0256410
        k(   72) = (  -0.9202980   0.0000000   0.0126068), wk =   0.0256410
        k(   73) = (  -1.0715799   0.0000000   0.1134614), wk =   0.0256410
        k(   74) = (  -0.1638887  -0.1460531  -0.4916661), wk =   0.0128205
        k(   75) = (  -0.3151705  -0.1460531  -0.3908115), wk =   0.0256410
        k(   76) = (  -0.4664524  -0.1460531  -0.2899569), wk =   0.0256410
        k(   77) = (  -0.6177343  -0.1460531  -0.1891024), wk =   0.0256410
        k(   78) = (  -0.7690161  -0.1460531  -0.0882478), wk =   0.0256410
        k(   79) = (  -0.9202980  -0.1460531   0.0126068), wk =   0.0256410
        k(   80) = (  -1.0715799  -0.1460531   0.1134614), wk =   0.0256410

                       cryst. coord.
        k(    1) = (   0.0000000   0.0000000   0.0000000), wk =   0.0128205
        k(    2) = (  -0.0000000   0.0000000   0.0769231), wk =   0.0256410
        k(    3) = (  -0.0000000   0.0000000   0.1538462), wk =   0.0256410
        k(    4) = (  -0.0000000   0.0000000   0.2307692), wk =   0.0256410
        k(    5) = (  -0.0000000   0.0000000   0.3076923), wk =   0.0256410
        k(    6) = (  -0.0000000   0.0000000   0.3846154), wk =   0.0256410
        k(    7) = (  -0.0000000   0.0000000   0.4615385), wk =   0.0256410
        k(    8) = (   0.0000000  -0.5000000   0.0000000), wk =   0.0128205
        k(    9) = (  -0.0000000  -0.5000000   0.0769231), wk =   0.0256410
        k(   10) = (  -0.0000000  -0.5000000   0.1538462), wk =   0.0256410
        k(   11) = (  -0.0000000  -0.5000000   0.2307692), wk =   0.0256410
        k(   12) = (  -0.0000000  -0.5000000   0.3076923), wk =   0.0256410
        k(   13) = (  -0.0000000  -0.5000000   0.3846154), wk =   0.0256410
        k(   14) = (  -0.0000000  -0.5000000   0.4615385), wk =   0.0256410
        k(   15) = (   0.1666667   0.0000000   0.0000000), wk =   0.0256410
        k(   16) = (   0.1666667   0.0000000   0.0769231), wk =   0.0256410
        k(   17) = (   0.1666667   0.0000000   0.1538462), wk =   0.0256410
        k(   18) = (   0.1666667   0.0000000   0.2307692), wk =   0.0256410
        k(   19) = (   0.1666667   0.0000000   0.3076923), wk =   0.0256410
        k(   20) = (   0.1666667   0.0000000   0.3846154), wk =   0.0256410
        k(   21) = (   0.1666667   0.0000000   0.4615385), wk =   0.0256410
        k(   22) = (   0.1666667   0.0000000  -0.4615385), wk =   0.0256410
        k(   23) = (   0.1666667   0.0000000  -0.3846154), wk =   0.0256410
        k(   24) = (   0.1666667   0.0000000  -0.3076923), wk =   0.0256410
        k(   25) = (   0.1666667   0.0000000  -0.2307692), wk =   0.0256410
        k(   26) = (   0.1666667   0.0000000  -0.1538462), wk =   0.0256410
        k(   27) = (   0.1666667   0.0000000  -0.0769231), wk =   0.0256410
        k(   28) = (   0.1666667  -0.5000000   0.0000000), wk =   0.0256410
        k(   29) = (   0.1666667  -0.5000000   0.0769231), wk =   0.0256410
        k(   30) = (   0.1666667  -0.5000000   0.1538462), wk =   0.0256410
        k(   31) = (   0.1666667  -0.5000000   0.2307692), wk =   0.0256410
        k(   32) = (   0.1666667  -0.5000000   0.3076923), wk =   0.0256410
        k(   33) = (   0.1666667  -0.5000000   0.3846154), wk =   0.0256410
        k(   34) = (   0.1666667  -0.5000000   0.4615385), wk =   0.0256410
        k(   35) = (   0.1666667  -0.5000000  -0.4615385), wk =   0.0256410
        k(   36) = (   0.1666667  -0.5000000  -0.3846154), wk =   0.0256410
        k(   37) = (   0.1666667  -0.5000000  -0.3076923), wk =   0.0256410
        k(   38) = (   0.1666667  -0.5000000  -0.2307692), wk =   0.0256410
        k(   39) = (   0.1666667  -0.5000000  -0.1538462), wk =   0.0256410
        k(   40) = (   0.1666667  -0.5000000  -0.0769231), wk =   0.0256410
        k(   41) = (   0.3333333   0.0000000   0.0000000), wk =   0.0256410
        k(   42) = (   0.3333333   0.0000000   0.0769231), wk =   0.0256410
        k(   43) = (   0.3333333   0.0000000   0.1538462), wk =   0.0256410
        k(   44) = (   0.3333333   0.0000000   0.2307692), wk =   0.0256410
        k(   45) = (   0.3333333   0.0000000   0.3076923), wk =   0.0256410
        k(   46) = (   0.3333333   0.0000000   0.3846154), wk =   0.0256410
        k(   47) = (   0.3333333   0.0000000   0.4615385), wk =   0.0256410
        k(   48) = (   0.3333333   0.0000000  -0.4615385), wk =   0.0256410
        k(   49) = (   0.3333333   0.0000000  -0.3846154), wk =   0.0256410
        k(   50) = (   0.3333333   0.0000000  -0.3076923), wk =   0.0256410
        k(   51) = (   0.3333333   0.0000000  -0.2307692), wk =   0.0256410
        k(   52) = (   0.3333333   0.0000000  -0.1538462), wk =   0.0256410
        k(   53) = (   0.3333333   0.0000000  -0.0769231), wk =   0.0256410
        k(   54) = (   0.3333333  -0.5000000   0.0000000), wk =   0.0256410
        k(   55) = (   0.3333333  -0.5000000   0.0769231), wk =   0.0256410
        k(   56) = (   0.3333333  -0.5000000   0.1538462), wk =   0.0256410
        k(   57) = (   0.3333333  -0.5000000   0.2307692), wk =   0.0256410
        k(   58) = (   0.3333333  -0.5000000   0.3076923), wk =   0.0256410
        k(   59) = (   0.3333333  -0.5000000   0.3846154), wk =   0.0256410
        k(   60) = (   0.3333333  -0.5000000   0.4615385), wk =   0.0256410
        k(   61) = (   0.3333333  -0.5000000  -0.4615385), wk =   0.0256410
        k(   62) = (   0.3333333  -0.5000000  -0.3846154), wk =   0.0256410
        k(   63) = (   0.3333333  -0.5000000  -0.3076923), wk =   0.0256410
        k(   64) = (   0.3333333  -0.5000000  -0.2307692), wk =   0.0256410
        k(   65) = (   0.3333333  -0.5000000  -0.1538462), wk =   0.0256410
        k(   66) = (   0.3333333  -0.5000000  -0.0769231), wk =   0.0256410
        k(   67) = (  -0.5000000   0.0000000   0.0000000), wk =   0.0128205
        k(   68) = (  -0.5000000   0.0000000   0.0769231), wk =   0.0256410
        k(   69) = (  -0.5000000   0.0000000   0.1538462), wk =   0.0256410
        k(   70) = (  -0.5000000   0.0000000   0.2307692), wk =   0.0256410
        k(   71) = (  -0.5000000   0.0000000   0.3076923), wk =   0.0256410
        k(   72) = (  -0.5000000   0.0000000   0.3846154), wk =   0.0256410
        k(   73) = (  -0.5000000   0.0000000   0.4615385), wk =   0.0256410
        k(   74) = (  -0.5000000  -0.5000000   0.0000000), wk =   0.0128205
        k(   75) = (  -0.5000000  -0.5000000   0.0769231), wk =   0.0256410
        k(   76) = (  -0.5000000  -0.5000000   0.1538462), wk =   0.0256410
        k(   77) = (  -0.5000000  -0.5000000   0.2307692), wk =   0.0256410
        k(   78) = (  -0.5000000  -0.5000000   0.3076923), wk =   0.0256410
        k(   79) = (  -0.5000000  -0.5000000   0.3846154), wk =   0.0256410
        k(   80) = (  -0.5000000  -0.5000000   0.4615385), wk =   0.0256410

     Dense  grid:  4133107 G-vectors     FFT dimensions: ( 180, 625,  80)

     Smooth grid:  1045867 G-vectors     FFT dimensions: ( 120, 384,  50)

     Dynamical RAM for                 wfc:     116.66 MB

     Dynamical RAM for     wfc (w. buffer):     466.63 MB

     Dynamical RAM for           str. fact:      23.65 MB

     Dynamical RAM for           local pot:       0.00 MB

     Dynamical RAM for          nlocal pot:    1034.96 MB

     Dynamical RAM for                qrad:      21.15 MB

     Dynamical RAM for          rho,v,vnew:      49.40 MB

     Dynamical RAM for               rhoin:      16.47 MB

     Dynamical RAM for            rho*nmix:     126.13 MB

     Dynamical RAM for           G-vectors:      30.56 MB

     Dynamical RAM for          h,s,v(r/c):      40.10 MB

     Dynamical RAM for          <psi|beta>:      29.65 MB

     Dynamical RAM for                 psi:     466.63 MB

     Dynamical RAM for                hpsi:     466.63 MB

     Dynamical RAM for                spsi:     466.63 MB

     Dynamical RAM for      wfcinit/wfcrot:     551.98 MB

     Dynamical RAM for           addusdens:      82.56 MB

     Dynamical RAM for          addusforce:     218.70 MB

     Dynamical RAM for         addusstress:      47.85 MB

     Estimated static dynamical RAM per process >       1.80 GB

     Estimated max dynamical RAM per process >       3.24 GB

     Estimated total dynamical RAM >     931.79 GB

     Initial potential from superposition of free atoms

     starting charge  779.56045, renormalised to  780.00000
     Starting wfcs are 1056 randomized atomic wfcs
     Checking if some PAW data can be deallocated... 
       PAW data deallocated on  216 nodes for type:  1
       PAW data deallocated on  128 nodes for type:  3

     total cpu time spent up to now is      343.1 secs

     Self-consistent Calculation

     iteration #  1     ecut=    40.00 Ry     beta= 0.40
     Davidson diagonalization with overlap
     ethr =  1.00E-02,  avg # of iterations =  3.0

     total cpu time spent up to now is      830.4 secs

     total energy              =   -8728.13928667 Ry
     Harris-Foulkes estimate   =   -8729.99031133 Ry
     estimated scf accuracy    <     344.59259563 Ry

     iteration #  2     ecut=    40.00 Ry     beta= 0.40
     Davidson diagonalization with overlap
     ethr =  1.00E-02,  avg # of iterations =  1.0

     total cpu time spent up to now is     1189.7 secs

     total energy              =   -8726.21547574 Ry
     Harris-Foulkes estimate   =   -8728.76648650 Ry
     estimated scf accuracy    <     158.00203426 Ry

     iteration #  3     ecut=    40.00 Ry     beta= 0.40
     Davidson diagonalization with overlap
     ethr =  1.00E-02,  avg # of iterations =  1.0

     total cpu time spent up to now is     1548.7 secs

     total energy              =   -8727.37597812 Ry
     Harris-Foulkes estimate   =   -8727.42100458 Ry
     estimated scf accuracy    <       0.66439268 Ry

     iteration #  4     ecut=    40.00 Ry     beta= 0.40
     Davidson diagonalization with overlap
     ethr =  8.52E-05,  avg # of iterations =  7.4

     total cpu time spent up to now is     2302.0 secs

     total energy              =   -8727.53304805 Ry
     Harris-Foulkes estimate   =   -8727.56686704 Ry
     estimated scf accuracy    <       0.33872972 Ry

     iteration #  5     ecut=    40.00 Ry     beta= 0.40
     Davidson diagonalization with overlap
     ethr =  4.34E-05,  avg # of iterations =  1.0

     total cpu time spent up to now is     2660.1 secs

     total energy              =   -8727.53161268 Ry
     Harris-Foulkes estimate   =   -8727.54771927 Ry
     estimated scf accuracy    <       0.43714920 Ry

     iteration #  6     ecut=    40.00 Ry     beta= 0.40
     Davidson diagonalization with overlap
     ethr =  4.34E-05,  avg # of iterations =  1.0

     total cpu time spent up to now is     3019.1 secs

     total energy              =   -8727.53666508 Ry
     Harris-Foulkes estimate   =   -8727.54113281 Ry
     estimated scf accuracy    <       0.06062722 Ry

     iteration #  7     ecut=    40.00 Ry     beta= 0.40
     Davidson diagonalization with overlap
     ethr =  7.77E-06,  avg # of iterations =  4.4

     total cpu time spent up to now is     3399.4 secs

     total energy              =   -8727.53674649 Ry
     Harris-Foulkes estimate   =   -8727.53865798 Ry
     estimated scf accuracy    <       0.02665174 Ry

     iteration #  8     ecut=    40.00 Ry     beta= 0.40
     Davidson diagonalization with overlap
     ethr =  3.42E-06,  avg # of iterations =  8.0

     total cpu time spent up to now is     3855.9 secs

     total energy              =   -8727.53983612 Ry
     Harris-Foulkes estimate   =   -8727.53992864 Ry
     estimated scf accuracy    <       0.00657976 Ry

     iteration #  9     ecut=    40.00 Ry     beta= 0.40
     Davidson diagonalization with overlap
     ethr =  8.44E-07,  avg # of iterations =  7.1

     total cpu time spent up to now is     4470.8 secs

     total energy              =   -8727.54211966 Ry
     Harris-Foulkes estimate   =   -8727.54213919 Ry
     estimated scf accuracy    <       0.00418951 Ry

     iteration # 10     ecut=    40.00 Ry     beta= 0.40
     Davidson diagonalization with overlap
     ethr =  5.37E-07,  avg # of iterations =  1.1

     total cpu time spent up to now is     4830.3 secs

     total energy              =   -8727.54162330 Ry
     Harris-Foulkes estimate   =   -8727.54214518 Ry
     estimated scf accuracy    <       0.00389968 Ry

     iteration # 11     ecut=    40.00 Ry     beta= 0.40
     Davidson diagonalization with overlap
     ethr =  5.00E-07,  avg # of iterations =  2.2

     total cpu time spent up to now is     5220.3 secs

     total energy              =   -8727.54190456 Ry
     Harris-Foulkes estimate   =   -8727.54193842 Ry
     estimated scf accuracy    <       0.00058713 Ry

     iteration # 12     ecut=    40.00 Ry     beta= 0.40
     Davidson diagonalization with overlap
     ethr =  7.53E-08,  avg # of iterations =  2.2

     total cpu time spent up to now is     5595.6 secs

     total energy              =   -8727.54190924 Ry
     Harris-Foulkes estimate   =   -8727.54192547 Ry
     estimated scf accuracy    <       0.00049852 Ry

     iteration # 13     ecut=    40.00 Ry     beta= 0.40
     Davidson diagonalization with overlap
     ethr =  6.39E-08,  avg # of iterations =  1.0

     total cpu time spent up to now is     5955.2 secs

     total energy              =   -8727.54188290 Ry
     Harris-Foulkes estimate   =   -8727.54191330 Ry
     estimated scf accuracy    <       0.00033775 Ry

     iteration # 14     ecut=    40.00 Ry     beta= 0.40
     Davidson diagonalization with overlap
     ethr =  4.33E-08,  avg # of iterations =  1.0

     total cpu time spent up to now is     6313.4 secs

     total energy              =   -8727.54186742 Ry
     Harris-Foulkes estimate   =   -8727.54188985 Ry
     estimated scf accuracy    <       0.00011225 Ry

     iteration # 15     ecut=    40.00 Ry     beta= 0.40
     Davidson diagonalization with overlap
     ethr =  1.44E-08,  avg # of iterations =  3.6

     total cpu time spent up to now is     6769.3 secs

     total energy              =   -8727.54187716 Ry
     Harris-Foulkes estimate   =   -8727.54188896 Ry
     estimated scf accuracy    <       0.00008883 Ry

     iteration # 16     ecut=    40.00 Ry     beta= 0.40
     Davidson diagonalization with overlap
     ethr =  1.14E-08,  avg # of iterations =  1.0

     total cpu time spent up to now is     7127.8 secs

     total energy              =   -8727.54187913 Ry
     Harris-Foulkes estimate   =   -8727.54187995 Ry
     estimated scf accuracy    <       0.00002507 Ry

     iteration # 17     ecut=    40.00 Ry     beta= 0.40
     Davidson diagonalization with overlap
     ethr =  3.21E-09,  avg # of iterations =  1.2

     total cpu time spent up to now is     7492.7 secs

     total energy              =   -8727.54187870 Ry
     Harris-Foulkes estimate   =   -8727.54187957 Ry
     estimated scf accuracy    <       0.00001354 Ry

     iteration # 18     ecut=    40.00 Ry     beta= 0.40
     Davidson diagonalization with overlap
     ethr =  1.74E-09,  avg # of iterations =  2.9

     total cpu time spent up to now is     7882.8 secs

     total energy              =   -8727.54187800 Ry
     Harris-Foulkes estimate   =   -8727.54187899 Ry
     estimated scf accuracy    <       0.00000647 Ry

     iteration # 19     ecut=    40.00 Ry     beta= 0.40
     Davidson diagonalization with overlap
     ethr =  8.29E-10,  avg # of iterations =  4.2

     total cpu time spent up to now is     8333.9 secs

     total energy              =   -8727.54187861 Ry
     Harris-Foulkes estimate   =   -8727.54187871 Ry
     estimated scf accuracy    <       0.00000103 Ry

     iteration # 20     ecut=    40.00 Ry     beta= 0.40
     Davidson diagonalization with overlap
     ethr =  1.33E-10,  avg # of iterations =  5.7

     total cpu time spent up to now is     8861.3 secs

     total energy              =   -8727.54187853 Ry
     Harris-Foulkes estimate   =   -8727.54187867 Ry
     estimated scf accuracy    <       0.00000124 Ry

     iteration # 21     ecut=    40.00 Ry     beta= 0.40
     Davidson diagonalization with overlap
     ethr =  1.33E-10,  avg # of iterations =  1.6

     total cpu time spent up to now is     9223.5 secs

     total energy              =   -8727.54187852 Ry
     Harris-Foulkes estimate   =   -8727.54187852 Ry
     estimated scf accuracy    <       0.00000049 Ry

     iteration # 22     ecut=    40.00 Ry     beta= 0.40
     Davidson diagonalization with overlap
     ethr =  6.32E-11,  avg # of iterations =  1.0

     total cpu time spent up to now is     9582.6 secs

     total energy              =   -8727.54187849 Ry
     Harris-Foulkes estimate   =   -8727.54187850 Ry
     estimated scf accuracy    <       0.00000035 Ry

     iteration # 23     ecut=    40.00 Ry     beta= 0.40
     Davidson diagonalization with overlap
     ethr =  4.50E-11,  avg # of iterations =  1.2

     total cpu time spent up to now is     9949.3 secs

     total energy              =   -8727.54187847 Ry
     Harris-Foulkes estimate   =   -8727.54187848 Ry
     estimated scf accuracy    <       0.00000018 Ry

     iteration # 24     ecut=    40.00 Ry     beta= 0.40
     Davidson diagonalization with overlap
     ethr =  2.35E-11,  avg # of iterations =  5.7

     total cpu time spent up to now is    10568.4 secs

     total energy              =   -8727.54187839 Ry
     Harris-Foulkes estimate   =   -8727.54187839 Ry
     estimated scf accuracy    <          9.5E-09 Ry

     iteration # 25     ecut=    40.00 Ry     beta= 0.40
     Davidson diagonalization with overlap
     ethr =  1.21E-12,  avg # of iterations =  3.4

     total cpu time spent up to now is    11292.7 secs

     total energy              =   -8727.54187828 Ry
     Harris-Foulkes estimate   =   -8727.54187829 Ry
     estimated scf accuracy    <       0.00000001 Ry

     iteration # 26     ecut=    40.00 Ry     beta= 0.40
     Davidson diagonalization with overlap
     ethr =  1.21E-12,  avg # of iterations =  1.0

     total cpu time spent up to now is    11651.7 secs

     total energy              =   -8727.54187826 Ry
     Harris-Foulkes estimate   =   -8727.54187826 Ry
     estimated scf accuracy    <          2.2E-09 Ry

     iteration # 27     ecut=    40.00 Ry     beta= 0.40
     Davidson diagonalization with overlap
     ethr =  2.84E-13,  avg # of iterations =  2.8

     total cpu time spent up to now is    12044.0 secs

     total energy              =   -8727.54187824 Ry
     Harris-Foulkes estimate   =   -8727.54187825 Ry
     estimated scf accuracy    <          5.5E-10 Ry

     iteration # 28     ecut=    40.00 Ry     beta= 0.40
     Davidson diagonalization with overlap
     ethr =  1.00E-13,  avg # of iterations =  4.4

     total cpu time spent up to now is    12588.3 secs

     total energy              =   -8727.54187822 Ry
     Harris-Foulkes estimate   =   -8727.54187822 Ry
     estimated scf accuracy    <          4.4E-10 Ry

     iteration # 29     ecut=    40.00 Ry     beta= 0.40
     Davidson diagonalization with overlap
     ethr =  1.00E-13,  avg # of iterations =  2.0

     total cpu time spent up to now is    12955.9 secs

     total energy              =   -8727.54187821 Ry
     Harris-Foulkes estimate   =   -8727.54187821 Ry
     estimated scf accuracy    <          1.1E-10 Ry

     iteration # 30     ecut=    40.00 Ry     beta= 0.40
     Davidson diagonalization with overlap
     ethr =  1.00E-13,  avg # of iterations =  1.0

     total cpu time spent up to now is    13314.9 secs

     total energy              =   -8727.54187820 Ry
     Harris-Foulkes estimate   =   -8727.54187820 Ry
     estimated scf accuracy    <          1.5E-11 Ry

     iteration # 31     ecut=    40.00 Ry     beta= 0.40
     Davidson diagonalization with overlap
     ethr =  1.00E-13,  avg # of iterations =  1.0

     total cpu time spent up to now is    13673.7 secs

     total energy              =   -8727.54187820 Ry
     Harris-Foulkes estimate   =   -8727.54187820 Ry
     estimated scf accuracy    <          3.5E-11 Ry

     iteration # 32     ecut=    40.00 Ry     beta= 0.40
     Davidson diagonalization with overlap
     ethr =  1.00E-13,  avg # of iterations =  1.0

     total cpu time spent up to now is    14032.1 secs

     total energy              =   -8727.54187820 Ry
     Harris-Foulkes estimate   =   -8727.54187820 Ry
     estimated scf accuracy    <          1.6E-12 Ry

     iteration # 33     ecut=    40.00 Ry     beta= 0.40
     Davidson diagonalization with overlap
     ethr =  1.00E-13,  avg # of iterations =  1.0

     total cpu time spent up to now is    14389.9 secs

     total energy              =   -8727.54187819 Ry
     Harris-Foulkes estimate   =   -8727.54187819 Ry
     estimated scf accuracy    <          1.1E-12 Ry

     iteration # 34     ecut=    40.00 Ry     beta= 0.40
     Davidson diagonalization with overlap
     ethr =  1.00E-13,  avg # of iterations =  1.0

     total cpu time spent up to now is    14748.5 secs

     total energy              =   -8727.54187819 Ry
     Harris-Foulkes estimate   =   -8727.54187819 Ry
     estimated scf accuracy    <          1.3E-12 Ry

     iteration # 35     ecut=    40.00 Ry     beta= 0.40
     Davidson diagonalization with overlap
     ethr =  1.00E-13,  avg # of iterations =  1.0

     total cpu time spent up to now is    15107.1 secs

     total energy              =   -8727.54187819 Ry
     Harris-Foulkes estimate   =   -8727.54187819 Ry
     estimated scf accuracy    <          3.9E-11 Ry

     iteration # 36     ecut=    40.00 Ry     beta= 0.40
     Davidson diagonalization with overlap
     ethr =  1.00E-13,  avg # of iterations =  1.0

     total cpu time spent up to now is    15465.6 secs

     total energy              =   -8727.54187818 Ry
     Harris-Foulkes estimate   =   -8727.54187818 Ry
     estimated scf accuracy    <          2.9E-11 Ry

     iteration # 37     ecut=    40.00 Ry     beta= 0.40
     Davidson diagonalization with overlap
     ethr =  1.00E-13,  avg # of iterations =  1.0

     total cpu time spent up to now is    15823.8 secs

     total energy              =   -8727.54187818 Ry
     Harris-Foulkes estimate   =   -8727.54187818 Ry
     estimated scf accuracy    <          2.8E-11 Ry

     iteration # 38     ecut=    40.00 Ry     beta= 0.40
     Davidson diagonalization with overlap
     ethr =  1.00E-13,  avg # of iterations =  1.0

     total cpu time spent up to now is    16182.5 secs

     total energy              =   -8727.54187818 Ry
     Harris-Foulkes estimate   =   -8727.54187818 Ry
     estimated scf accuracy    <          2.9E-11 Ry

     iteration # 39     ecut=    40.00 Ry     beta= 0.40
     Davidson diagonalization with overlap
     ethr =  1.00E-13,  avg # of iterations =  1.0

     total cpu time spent up to now is    16540.8 secs

     total energy              =   -8727.54187818 Ry
     Harris-Foulkes estimate   =   -8727.54187818 Ry
     estimated scf accuracy    <          9.1E-11 Ry

     iteration # 40     ecut=    40.00 Ry     beta= 0.40
     Davidson diagonalization with overlap
     ethr =  1.00E-13,  avg # of iterations =  1.0

     total cpu time spent up to now is    16899.0 secs

     total energy              =   -8727.54187817 Ry
     Harris-Foulkes estimate   =   -8727.54187817 Ry
     estimated scf accuracy    <          7.6E-11 Ry

     iteration # 41     ecut=    40.00 Ry     beta= 0.40
     Davidson diagonalization with overlap
     ethr =  1.00E-13,  avg # of iterations =  1.0

     total cpu time spent up to now is    17256.5 secs

     total energy              =   -8727.54187817 Ry
     Harris-Foulkes estimate   =   -8727.54187817 Ry
     estimated scf accuracy    <          2.3E-10 Ry

     iteration # 42     ecut=    40.00 Ry     beta= 0.40
     Davidson diagonalization with overlap
     ethr =  1.00E-13,  avg # of iterations =  1.0

     total cpu time spent up to now is    17614.3 secs

     total energy              =   -8727.54187816 Ry
     Harris-Foulkes estimate   =   -8727.54187816 Ry
     estimated scf accuracy    <          1.3E-10 Ry

     iteration # 43     ecut=    40.00 Ry     beta= 0.40
     Davidson diagonalization with overlap
     ethr =  1.00E-13,  avg # of iterations =  1.0

     total cpu time spent up to now is    17972.3 secs

     total energy              =   -8727.54187816 Ry
     Harris-Foulkes estimate   =   -8727.54187816 Ry
     estimated scf accuracy    <          8.1E-11 Ry

     iteration # 44     ecut=    40.00 Ry     beta= 0.40
     Davidson diagonalization with overlap
     ethr =  1.00E-13,  avg # of iterations =  1.0

     total cpu time spent up to now is    18331.1 secs

     total energy              =   -8727.54187816 Ry
     Harris-Foulkes estimate   =   -8727.54187816 Ry
     estimated scf accuracy    <          6.6E-11 Ry

     iteration # 45     ecut=    40.00 Ry     beta= 0.40
     Davidson diagonalization with overlap
     ethr =  1.00E-13,  avg # of iterations =  1.0

     total cpu time spent up to now is    18690.0 secs

     total energy              =   -8727.54187816 Ry
     Harris-Foulkes estimate   =   -8727.54187816 Ry
     estimated scf accuracy    <          8.1E-11 Ry

     iteration # 46     ecut=    40.00 Ry     beta= 0.40
     Davidson diagonalization with overlap
     ethr =  1.00E-13,  avg # of iterations =  1.0

     total cpu time spent up to now is    19048.4 secs

     total energy              =   -8727.54187815 Ry
     Harris-Foulkes estimate   =   -8727.54187815 Ry
     estimated scf accuracy    <          1.3E-10 Ry

     iteration # 47     ecut=    40.00 Ry     beta= 0.40
     Davidson diagonalization with overlap
     ethr =  1.00E-13,  avg # of iterations =  1.0

     total cpu time spent up to now is    19407.2 secs

     total energy              =   -8727.54187815 Ry
     Harris-Foulkes estimate   =   -8727.54187815 Ry
     estimated scf accuracy    <          1.6E-10 Ry

     iteration # 48     ecut=    40.00 Ry     beta= 0.40
     Davidson diagonalization with overlap
     ethr =  1.00E-13,  avg # of iterations =  1.0

     total cpu time spent up to now is    19765.8 secs

     total energy              =   -8727.54187815 Ry
     Harris-Foulkes estimate   =   -8727.54187815 Ry
     estimated scf accuracy    <          1.4E-10 Ry

     iteration # 49     ecut=    40.00 Ry     beta= 0.40
     Davidson diagonalization with overlap
     ethr =  1.00E-13,  avg # of iterations =  1.0

     total cpu time spent up to now is    20124.5 secs

     total energy              =   -8727.54187815 Ry
     Harris-Foulkes estimate   =   -8727.54187815 Ry
     estimated scf accuracy    <          2.7E-10 Ry

     iteration # 50     ecut=    40.00 Ry     beta= 0.40
     Davidson diagonalization with overlap
     ethr =  1.00E-13,  avg # of iterations =  1.0

     total cpu time spent up to now is    20483.4 secs

     total energy              =   -8727.54187814 Ry
     Harris-Foulkes estimate   =   -8727.54187814 Ry
     estimated scf accuracy    <          2.2E-10 Ry

     iteration # 51     ecut=    40.00 Ry     beta= 0.40
     Davidson diagonalization with overlap
     ethr =  1.00E-13,  avg # of iterations =  1.0

     total cpu time spent up to now is    20842.5 secs

     total energy              =   -8727.54187814 Ry
     Harris-Foulkes estimate   =   -8727.54187814 Ry
     estimated scf accuracy    <          1.2E-10 Ry

     iteration # 52     ecut=    40.00 Ry     beta= 0.40
     Davidson diagonalization with overlap
     ethr =  1.00E-13,  avg # of iterations =  1.0

     total cpu time spent up to now is    21200.9 secs

     total energy              =   -8727.54187814 Ry
     Harris-Foulkes estimate   =   -8727.54187814 Ry
     estimated scf accuracy    <          9.4E-11 Ry

     iteration # 53     ecut=    40.00 Ry     beta= 0.40
     Davidson diagonalization with overlap
     ethr =  1.00E-13,  avg # of iterations =  1.0

[...]
     atom   83 type  2   force =     0.00000000   -0.00000007    0.00000000
     atom   84 type  2   force =     0.00000000   -0.00000007    0.00000000
     atom   85 type  3   force =    -0.00000000   -0.00000005    0.00000000
     atom   86 type  3   force =     0.00000000   -0.00000002    0.00000000
     atom   87 type  2   force =    -0.00000000   -0.00000003   -0.00000000
     atom   88 type  2   force =    -0.00000000   -0.00000003   -0.00000000
     atom   89 type  1   force =    -0.00000000   -0.00000005   -0.00000000
     atom   90 type  1   force =    -0.00000000   -0.00000006   -0.00000000
     atom   91 type  1   force =    -0.00000000   -0.00000006   -0.00000000
     atom   92 type  1   force =    -0.00000000   -0.00000005   -0.00000000
     atom   93 type  1   force =     0.00000000   -0.00000005   -0.00000000
     atom   94 type  2   force =    -0.00000000   -0.00000010   -0.00000000
     atom   95 type  2   force =    -0.00000000   -0.00000010   -0.00000000
     atom   96 type  3   force =    -0.00000000   -0.00000008   -0.00000000
     atom   97 type  3   force =    -0.00000000   -0.00000010   -0.00000000
     atom   98 type  2   force =    -0.00000000   -0.00000013   -0.00000000
     atom   99 type  2   force =     0.00000000   -0.00000013   -0.00000000
     atom  100 type  1   force =    -0.00000000   -0.00000006   -0.00000000
     atom  101 type  1   force =     0.00000000   -0.00000005    0.00000000
     atom  102 type  1   force =     0.00000000   -0.00000006    0.00000000
     atom  103 type  1   force =     0.00000000   -0.00000006    0.00000000
     atom  104 type  1   force =     0.00000000   -0.00000006    0.00000000
     atom  105 type  2   force =     0.00000000   -0.00000013    0.00000000
     atom  106 type  2   force =     0.00000000   -0.00000013    0.00000000
     atom  107 type  3   force =     0.00000000   -0.00000010    0.00000000
     atom  108 type  3   force =     0.00000000   -0.00000008    0.00000000
     atom  109 type  2   force =    -0.00000000   -0.00000011   -0.00000000
     atom  110 type  2   force =    -0.00000000   -0.00000010   -0.00000000
     atom  111 type  1   force =     0.00000000   -0.00000006    0.00000000
     atom  112 type  1   force =    -0.00000000   -0.00000006   -0.00000000
     atom  113 type  1   force =     0.00000000   -0.00000006   -0.00000000
     atom  114 type  1   force =    -0.00000000   -0.00000007   -0.00000000
     atom  115 type  1   force =    -0.00000000   -0.00000007   -0.00000000
     atom  116 type  2   force =    -0.00000000   -0.00000013   -0.00000000
     atom  117 type  2   force =    -0.00000000   -0.00000013   -0.00000000
     atom  118 type  3   force =    -0.00000000   -0.00000010   -0.00000000
     atom  119 type  3   force =    -0.00000000   -0.00000009   -0.00000000
     atom  120 type  2   force =    -0.00000000   -0.00000012   -0.00000000
     atom  121 type  2   force =     0.00000000   -0.00000012   -0.00000000
     atom  122 type  1   force =    -0.00000000   -0.00000006   -0.00000000
     atom  123 type  1   force =     0.00000000   -0.00000007   -0.00000000
     atom  124 type  1   force =     0.00000000   -0.00000007    0.00000000
     atom  125 type  1   force =     0.00000000   -0.00000006    0.00000000
     atom  126 type  1   force =     0.00000000   -0.00000006    0.00000000
     atom  127 type  2   force =    -0.00000000   -0.00000012   -0.00000000
     atom  128 type  2   force =     0.00000000   -0.00000012    0.00000000
     atom  129 type  3   force =     0.00000000   -0.00000009    0.00000000
     atom  130 type  3   force =     0.00000000   -0.00000010    0.00000000
     atom  131 type  2   force =     0.00000000   -0.00000013    0.00000000
     atom  132 type  2   force =     0.00000000   -0.00000013    0.00000000
     atom  133 type  3   force =     0.00000000   -0.00000003    0.00000000
     atom  134 type  3   force =     0.00000000   -0.00000005    0.00000000
     atom  135 type  3   force =     0.00000000   -0.00000005   -0.00000000
     atom  136 type  3   force =     0.00000000   -0.00000003    0.00000000
     atom  137 type  3   force =     0.00000000   -0.00000003    0.00000000
     atom  138 type  3   force =    -0.00000000   -0.00000005   -0.00000000
     atom  139 type  3   force =    -0.00000000   -0.00000005   -0.00000000
     atom  140 type  3   force =    -0.00000000   -0.00000003   -0.00000000
     atom  141 type  3   force =     0.00000000   -0.00000005   -0.00000000
     atom  142 type  3   force =     0.00000000   -0.00000005    0.00000000
     atom  143 type  3   force =     0.00000000   -0.00000003    0.00000000
     atom  144 type  3   force =     0.00000000   -0.00000003    0.00000000
     atom  145 type  3   force =    -0.00000000   -0.00000005    0.00000000
     atom  146 type  3   force =    -0.00000000   -0.00000003    0.00000000
     atom  147 type  3   force =     0.00000000   -0.00000003    0.00000000
     atom  148 type  3   force =    -0.00000000   -0.00000005   -0.00000000
     atom  149 type  3   force =     0.00000000   -0.00000005   -0.00000000
     atom  150 type  3   force =    -0.00000000   -0.00000003   -0.00000000
     atom  151 type  3   force =    -0.00000000   -0.00000003   -0.00000000
     atom  152 type  3   force =    -0.00000000   -0.00000005   -0.00000000
     atom  153 type  3   force =    -0.00000000   -0.00000003   -0.00000000
     atom  154 type  3   force =    -0.00000000   -0.00000005    0.00000000
     atom  155 type  3   force =     0.00000000   -0.00000000    0.00000000
     atom  156 type  3   force =     0.00000000   -0.00000001    0.00000000
     atom  157 type  3   force =     0.00000000   -0.00000001    0.00000000
     atom  158 type  3   force =     0.00000000   -0.00000000    0.00000000
     atom  159 type  3   force =     0.00000000   -0.00000000    0.00000000
     atom  160 type  3   force =     0.00000000   -0.00000001    0.00000000
     atom  161 type  3   force =    -0.00000000   -0.00000001    0.00000000
     atom  162 type  3   force =    -0.00000000   -0.00000000   -0.00000000
     atom  163 type  3   force =    -0.00000000   -0.00000001   -0.00000000
     atom  164 type  3   force =     0.00000000   -0.00000001    0.00000000
     atom  165 type  3   force =    -0.00000000   -0.00000000    0.00000000
     atom  166 type  3   force =     0.00000000   -0.00000000    0.00000000
     atom  167 type  3   force =    -0.00000000   -0.00000001    0.00000000
     atom  168 type  3   force =    -0.00000000   -0.00000000    0.00000000
     atom  169 type  3   force =     0.00000000   -0.00000000    0.00000000
     atom  170 type  3   force =    -0.00000000   -0.00000001    0.00000000
     atom  171 type  3   force =     0.00000000   -0.00000001   -0.00000000
     atom  172 type  3   force =    -0.00000000   -0.00000000   -0.00000000
     atom  173 type  3   force =    -0.00000000   -0.00000000   -0.00000000
     atom  174 type  3   force =    -0.00000000   -0.00000001   -0.00000000
     atom  175 type  3   force =    -0.00000000   -0.00000000   -0.00000000
     atom  176 type  3   force =    -0.00000000   -0.00000001   -0.00000000
     atom  177 type  3   force =    -0.00000000    0.00000000   -0.00000000
     atom  178 type  3   force =     0.00000000    0.00000001    0.00000000
     atom  179 type  3   force =    -0.00000000    0.00000000   -0.00000000
     atom  180 type  3   force =     0.00000000    0.00000000   -0.00000000
     atom  181 type  3   force =    -0.00000000   -0.00000000   -0.00000000
     atom  182 type  3   force =     0.00000000    0.00000000   -0.00000000
     atom  183 type  3   force =     0.00000000   -0.00000000   -0.00000000
     atom  184 type  3   force =     0.00000000   -0.00000000    0.00000000
     atom  185 type  3   force =    -0.00000000    0.00000000    0.00000000
     atom  186 type  3   force =     0.00000000    0.00000001    0.00000000
     atom  187 type  3   force =    -0.00000000    0.00000000    0.00000000
     atom  188 type  3   force =     0.00000000    0.00000000   -0.00000000
     atom  189 type  3   force =    -0.00000000    0.00000000   -0.00000000
     atom  190 type  3   force =    -0.00000000    0.00000000   -0.00000000
     atom  191 type  3   force =     0.00000000   -0.00000000    0.00000000
     atom  192 type  3   force =    -0.00000000   -0.00000000    0.00000000
     atom  193 type  3   force =    -0.00000000   -0.00000000    0.00000000
     atom  194 type  3   force =     0.00000000   -0.00000000    0.00000000
     atom  195 type  3   force =     0.00000000   -0.00000000    0.00000000
     atom  196 type  3   force =     0.00000000    0.00000000   -0.00000000
     atom  197 type  3   force =     0.00000000    0.00000000    0.00000000
     atom  198 type  3   force =     0.00000000    0.00000001   -0.00000000
     atom  199 type  3   force =     0.00000000    0.00000001   -0.00000000
     atom  200 type  3   force =    -0.00000000    0.00000000   -0.00000000
     atom  201 type  3   force =    -0.00000000    0.00000000   -0.00000000
     atom  202 type  3   force =    -0.00000000    0.00000001   -0.00000000
     atom  203 type  3   force =    -0.00000000    0.00000001   -0.00000000
     atom  204 type  3   force =     0.00000000    0.00000000   -0.00000000
     atom  205 type  3   force =    -0.00000000    0.00000000   -0.00000000
     atom  206 type  3   force =     0.00000000    0.00000002    0.00000000
     atom  207 type  3   force =     0.00000000    0.00000000    0.00000000
     atom  208 type  3   force =     0.00000000    0.00000000    0.00000000
     atom  209 type  3   force =    -0.00000000    0.00000001    0.00000000
     atom  210 type  3   force =    -0.00000000    0.00000001   -0.00000000
     atom  211 type  3   force =    -0.00000000    0.00000000   -0.00000000
     atom  212 type  3   force =    -0.00000000    0.00000001   -0.00000000
     atom  213 type  3   force =     0.00000000    0.00000001    0.00000000
     atom  214 type  3   force =    -0.00000000    0.00000000   -0.00000000
     atom  215 type  3   force =     0.00000000    0.00000000    0.00000000
     atom  216 type  3   force =     0.00000000    0.00000001    0.00000000
     atom  217 type  3   force =     0.00000000    0.00000001    0.00000000
     atom  218 type  3   force =     0.00000000    0.00000000    0.00000000
     atom  219 type  3   force =     0.00000000    0.00000001    0.00000000
     atom  220 type  3   force =     0.00000000    0.00000000    0.00000000
     atom  221 type  3   force =     0.00000000    0.00000005   -0.00000000
     atom  222 type  3   force =    -0.00000000    0.00000002   -0.00000000
     atom  223 type  3   force =    -0.00000000    0.00000003   -0.00000000
     atom  224 type  3   force =    -0.00000000    0.00000005    0.00000000
     atom  225 type  3   force =    -0.00000000    0.00000005    0.00000000
     atom  226 type  3   force =     0.00000000    0.00000003   -0.00000000
     atom  227 type  3   force =     0.00000000    0.00000003    0.00000000
     atom  228 type  3   force =    -0.00000000    0.00000005    0.00000000
     atom  229 type  3   force =    -0.00000000    0.00000003   -0.00000000
     atom  230 type  3   force =     0.00000000    0.00000002   -0.00000000
     atom  231 type  3   force =    -0.00000000    0.00000005   -0.00000000
     atom  232 type  3   force =    -0.00000000    0.00000005   -0.00000000
     atom  233 type  3   force =    -0.00000000    0.00000002   -0.00000000
     atom  234 type  3   force =     0.00000000    0.00000005   -0.00000000
     atom  235 type  3   force =     0.00000000    0.00000005    0.00000000
     atom  236 type  3   force =     0.00000000    0.00000003    0.00000000
     atom  237 type  3   force =     0.00000000    0.00000003    0.00000000
     atom  238 type  3   force =     0.00000000    0.00000005    0.00000000
     atom  239 type  3   force =     0.00000000    0.00000005   -0.00000000
     atom  240 type  3   force =     0.00000000    0.00000003    0.00000000
     atom  241 type  3   force =    -0.00000000    0.00000005   -0.00000000
     atom  242 type  3   force =     0.00000000    0.00000003   -0.00000000
     atom  243 type  3   force =     0.00000000   -0.00000008    0.00000000
     atom  244 type  3   force =    -0.00000000    0.00000007   -0.00000000
     atom  245 type  3   force =     0.00000000    0.00000008    0.00000000
     atom  246 type  3   force =    -0.00000000   -0.00000008   -0.00000000
     atom  247 type  3   force =    -0.00000000   -0.00000007   -0.00000000
     atom  248 type  3   force =     0.00000000    0.00000008    0.00000000
     atom  249 type  3   force =    -0.00000000    0.00000008    0.00000000
     atom  250 type  3   force =     0.00000000   -0.00000007   -0.00000000
     atom  251 type  3   force =    -0.00000000    0.00000007   -0.00000000
     atom  252 type  3   force =    -0.00000000    0.00000007   -0.00000000
     atom  253 type  3   force =     0.00000000   -0.00000008    0.00000000
     atom  254 type  3   force =    -0.00000000   -0.00000008    0.00000000
     atom  255 type  3   force =     0.00000000    0.00000007    0.00000000
     atom  256 type  3   force =    -0.00000000   -0.00000008   -0.00000000
     atom  257 type  3   force =    -0.00000000   -0.00000007   -0.00000000
     atom  258 type  3   force =     0.00000000    0.00000008    0.00000000
     atom  259 type  3   force =     0.00000000    0.00000008   -0.00000000
     atom  260 type  3   force =    -0.00000000   -0.00000007   -0.00000000
     atom  261 type  3   force =    -0.00000000   -0.00000008    0.00000000
     atom  262 type  3   force =    -0.00000000    0.00000008   -0.00000000
     atom  263 type  3   force =     0.00000000   -0.00000008    0.00000000
     atom  264 type  3   force =    -0.00000000    0.00000007   -0.00000000

     Total force =     0.013309     Total SCF correction =     0.000001


     Computing stress (Cartesian axis) and pressure

          total   stress  (Ry/bohr**3)                   (kbar)     P=   18.80
   0.00023120  -0.00000007   0.00001968         34.01     -0.01      2.90
  -0.00000007  -0.00002793  -0.00000006         -0.01     -4.11     -0.01
   0.00001968  -0.00000006   0.00018014          2.90     -0.01     26.50

     kinetic stress (kbar)   1467.05     -0.01      6.22
                               -0.01   1439.13     -0.00
                                6.22     -0.00   1452.58

     local   stress (kbar)   -547.64     -0.00     37.51
                               -0.00   1287.52      0.10
                               37.51      0.10   -597.43

     nonloc. stress (kbar)   1107.33     -0.01      4.49
                               -0.01   1090.00     -0.00
                                4.49     -0.00   1105.23

     hartree stress (kbar)    523.53      0.00    -11.73
                                0.00   -371.62     -0.04
                              -11.73     -0.04    522.03

     exc-cor stress (kbar)   1022.55     -0.00      0.12
                               -0.00   1022.26     -0.00
                                0.12     -0.00   1022.76

     corecor stress (kbar)  -1780.72      0.00     -0.76
                                0.00  -1778.16      0.00
                               -0.76      0.00  -1780.37

     ewald   stress (kbar)  -1758.10      0.01    -32.95
                                0.01  -2693.25     -0.06
                              -32.95     -0.06  -1698.29

     hubbard stress (kbar)      0.00      0.00      0.00
                                0.00      0.00      0.00
                                0.00      0.00      0.00

     london  stress (kbar)      0.00      0.00      0.00
                                0.00      0.00      0.00
                                0.00      0.00      0.00

     DFT-D3  stress (kbar)      0.00      0.00      0.00
                                0.00      0.00      0.00
                                0.00      0.00      0.00

     XDM     stress (kbar)      0.00      0.00      0.00
                                0.00      0.00      0.00
                                0.00      0.00      0.00

     dft-nl  stress (kbar)      0.00      0.00      0.00
                                0.00      0.00      0.00
                                0.00      0.00      0.00

     TS-vdW  stress (kbar)      0.00      0.00      0.00
                                0.00      0.00      0.00
                                0.00      0.00      0.00



     Writing output data file aiida.save/
 
     init_run     :    337.45s CPU    340.60s WALL (       1 calls)
     electrons    :  22476.64s CPU  22648.58s WALL (       1 calls)
     forces       :    158.82s CPU    159.78s WALL (       1 calls)
     stress       :   1718.33s CPU   1720.45s WALL (       1 calls)

     Called by init_run:
     wfcinit      :    307.31s CPU    310.07s WALL (       1 calls)
     wfcinit:atom :      0.52s CPU      1.00s WALL (       3 calls)
     wfcinit:wfcr :    303.08s CPU    304.49s WALL (       3 calls)
     potinit      :     10.32s CPU     10.46s WALL (       1 calls)
     hinit0       :     16.99s CPU     17.08s WALL (       1 calls)

     Called by electrons:
     c_bands      :  19073.11s CPU  19208.13s WALL (      57 calls)
     sum_band     :   3202.63s CPU   3216.16s WALL (      57 calls)
     v_of_rho     :     95.84s CPU    105.32s WALL (      58 calls)
     v_h          :      7.93s CPU      7.96s WALL (      58 calls)
     v_xc         :     90.02s CPU     99.61s WALL (      60 calls)
     newd         :     20.12s CPU     25.97s WALL (      58 calls)
     PAW_pot      :     10.36s CPU     11.40s WALL (      58 calls)
     mix_rho      :     60.22s CPU     65.62s WALL (      57 calls)

     Called by c_bands:
     init_us_2    :    267.20s CPU    267.74s WALL (     351 calls)
     cegterg      :  17340.26s CPU  17472.19s WALL (     171 calls)

     Called by sum_band:
     sum_band:bec :      5.05s CPU      5.05s WALL (     171 calls)
     addusdens    :     15.35s CPU     21.03s WALL (      57 calls)

     Called by *egterg:
     h_psi        :  11718.06s CPU  11765.85s WALL (     518 calls)
     s_psi        :   3237.49s CPU   3238.34s WALL (     518 calls)
     g_psi        :     13.60s CPU     13.60s WALL (     344 calls)
     cdiaghg      :    490.50s CPU    499.87s WALL (     515 calls)
     cegterg:over :    848.37s CPU    853.46s WALL (     344 calls)
     cegterg:upda :    539.43s CPU    566.02s WALL (     344 calls)
     cegterg:last :    319.09s CPU    319.33s WALL (     172 calls)
     cdiaghg:chol :     23.42s CPU     23.65s WALL (     515 calls)
     cdiaghg:inve :     10.78s CPU     10.79s WALL (     515 calls)
     cdiaghg:para :    120.59s CPU    122.98s WALL (    1030 calls)

     Called by h_psi:
     h_psi:pot    :  11702.03s CPU  11725.04s WALL (     518 calls)
     h_psi:calbec :   3367.97s CPU   3369.13s WALL (     518 calls)
     vloc_psi     :   4994.34s CPU   5015.06s WALL (     518 calls)
     add_vuspsi   :   3339.72s CPU   3340.84s WALL (     518 calls)

     General routines
     calbec       :   5037.61s CPU   5039.49s WALL (     704 calls)
     fft          :    102.34s CPU    112.27s WALL (     778 calls)
     ffts         :     30.08s CPU     30.17s WALL (     829 calls)
     fftw         :   5448.97s CPU   5471.66s WALL (  425728 calls)
     interpolate  :      9.51s CPU     11.12s WALL (      58 calls)
 
     Parallel routines
     fft_scatt_xy :   1289.81s CPU   1294.32s WALL (  427335 calls)
     fft_scatt_yz :   1407.59s CPU   1419.42s WALL (  427335 calls)

     PAW routines
     PAW_pot      :     10.36s CPU     11.40s WALL (      58 calls)
 
     PWSCF        :      6h55m CPU      7h 0m WALL

 
   This run was terminated on:   9:27:31  27Feb2020            

=------------------------------------------------------------------------------=
   JOB DONE.
=------------------------------------------------------------------------------=
