
     Program PWSCF v.6.3 starts on 22Feb2020 at 14:12:41 

     This program is part of the open-source Quantum ESPRESSO suite
     for quantum simulation of materials; please cite
         "P. Giannozzi et al., J. Phys.:Condens. Matter 21 395502 (2009);
         "P. Giannozzi et al., J. Phys.:Condens. Matter 29 465901 (2017);
          URL http://www.quantum-espresso.org", 
     in publications or presentations arising from this work. More details at
     http://www.quantum-espresso.org/quote

 *** WARNING: using old-style file format, will disappear from next version ***

     Parallel version (MPI & OpenMP), running on      36 processor cores
     Number of MPI processes:                36
     Threads/MPI process:                     1

     MPI processes distributed on     1 nodes
     K-points division:     npool     =       4
     R & G space division:  proc/nbgrp/npool/nimage =       9
     Reading input from aiida.in
Warning: card &IONS ignored
Warning: card   !PRESS_CONV_THR = 0.05                 ! JUST FOR VOLUME RELAXATIONS ignored
Warning: card / ignored

     Current dimensions of program PWSCF are:
     Max number of different atomic species (ntypx) = 10
     Max number of k-points (npk) =  40000
     Max angular momentum in pseudopotentials (lmaxx) =  3
               file Mg.pbe-n-kjpaw_psl.0.3.0.UPF: wavefunction(s)  3S renormalized
               file Al.pbe-n-kjpaw_psl.1.0.0.UPF: wavefunction(s)  3S 3P renormalized

     Subspace diagonalization in iterative solution of the eigenvalue problem:
     one sub-group per band group will be used
     scalapack distributed-memory algorithm (size of sub-group:  2*  2 procs)

 
     Parallelization info
     --------------------
     sticks:   dense  smooth     PW     G-vecs:    dense   smooth      PW
     Min         786     314     91                41392    10467    1637
     Max         787     315     92                41394    10471    1639
     Sum        7077    2831    827               372539    94225   14747
 


     bravais-lattice index     =            0
     lattice parameter (alat)  =      28.9756  a.u.
     unit-cell volume          =    2757.3369 (a.u.)^3
     number of atoms/cell      =           22
     number of atomic types    =            3
     number of electrons       =        64.00
     number of Kohn-Sham states=           38
     kinetic-energy cutoff     =      40.0000  Ry
     charge density cutoff     =     400.0000  Ry
     convergence threshold     =      1.0E-12
     mixing beta               =       0.4000
     number of iterations used =            8  local-TF  mixing
     Exchange-correlation      = SLA PW PBX PBC ( 1  4  3  4 0 0)

     celldm(1)=  28.975565  celldm(2)=   0.000000  celldm(3)=   0.000000
     celldm(4)=   0.000000  celldm(5)=   0.000000  celldm(6)=   0.000000

     crystal axes: (cart. coord. in units of alat)
               a(1) = (   0.961322   0.000000  -0.275428 )  
               a(2) = (   0.000000   0.264413   0.000223 )  
               a(3) = (   0.000000   0.000132   0.445906 )  

     reciprocal axes: (cart. coord. in units 2 pi/alat)
               b(1) = (  1.040235  0.000000  0.000000 )  
               b(2) = ( -0.000321  3.781968 -0.001121 )  
               b(3) = (  0.642535 -0.001891  2.242626 )  


     PseudoPot. # 1 for Mg read from file:
     /users/aglensk/Dropbox/Albert/scripts/dotfiles/scripts/potentials/quantum_espresso/pseudo_SSSPefV1.1_alalloy/Mg.pbe-n-kjpaw_psl.0.3.0.UPF
     MD5 check sum: 24ecedc7f3e3cbe212e682f4413594e4
     Pseudo is Projector augmented-wave + core cor, Zval =  2.0
     Generated using "atomic" code by A. Dal Corso v.5.0.99 svn rev. 10869
     Shape of augmentation charge: PSQ
     Using radial grid of 1129 points,  4 beta functions with: 
                l(1) =   0
                l(2) =   0
                l(3) =   1
                l(4) =   1
     Q(r) pseudized with 0 coefficients 


     PseudoPot. # 2 for Si read from file:
     /users/aglensk/Dropbox/Albert/scripts/dotfiles/scripts/potentials/quantum_espresso/pseudo_SSSPefV1.1_alalloy/Si.pbe-n-rrkjus_psl.1.0.0.UPF
     MD5 check sum: 0b0bb1205258b0d07b9f9672cf965d36
     Pseudo is Ultrasoft + core correction, Zval =  4.0
     Generated using "atomic" code by A. Dal Corso v.5.1
     Using radial grid of 1141 points,  6 beta functions with: 
                l(1) =   0
                l(2) =   0
                l(3) =   1
                l(4) =   1
                l(5) =   2
                l(6) =   2
     Q(r) pseudized with 0 coefficients 


     PseudoPot. # 3 for Al read from file:
     /users/aglensk/Dropbox/Albert/scripts/dotfiles/scripts/potentials/quantum_espresso/pseudo_SSSPefV1.1_alalloy/Al.pbe-n-kjpaw_psl.1.0.0.UPF
     MD5 check sum: cfc449ca30b5f3223ec38ddd88ac046d
     Pseudo is Projector augmented-wave + core cor, Zval =  3.0
     Generated using "atomic" code by A. Dal Corso v.5.1
     Shape of augmentation charge: PSQ
     Using radial grid of 1135 points,  6 beta functions with: 
                l(1) =   0
                l(2) =   0
                l(3) =   1
                l(4) =   1
                l(5) =   2
                l(6) =   2
     Q(r) pseudized with 0 coefficients 


     atomic species   valence    mass     pseudopotential
        Mg             2.00    24.30500     Mg( 1.00)
        Si             4.00    28.08500     Si( 1.00)
        Al             3.00    26.98154     Al( 1.00)

     No symmetry found


                                    s                        frac. trans.

      isym =  1     identity                                     

 cryst.   s( 1) = (     1          0          0      )
                  (     0          1          0      )
                  (     0          0          1      )

 cart.    s( 1) = (  1.0000000  0.0000000  0.0000000 )
                  (  0.0000000  1.0000000 -0.0000000 )
                  (  0.0000000  0.0000000  1.0000000 )


   Cartesian axes

     site n.     atom                  positions (alat units)
         1           Mg  tau(   1) = (   0.0013447   0.0001323   0.4403617  )
         2           Mg  tau(   2) = (   0.0728608   0.1322593   0.1342526  )
         3           Mg  tau(   3) = (   0.1501685   0.1323328   0.3592408  )
         4           Mg  tau(   4) = (   0.3332093   0.2644184  -0.0618148  )
         5           Mg  tau(   5) = (   0.4105100   0.2644920   0.1631835  )
         6           Si  tau(   6) = (   0.0569000   0.0001369   0.2720330  )
         7           Si  tau(   7) = (   0.1798060   0.2644347   0.0427650  )
         8           Al  tau(   8) = (   0.2097546   0.0001075   0.2099670  )
         9           Al  tau(   9) = (   0.2736156   0.1322311   0.0872369  )
        10           Si  tau(  10) = (   0.3035683   0.1323165   0.2546612  )
        11           Si  tau(  11) = (   0.4264696   0.1322017   0.0251769  )
        12           Mg  tau(  12) = (   0.4820290   0.1323385   0.3027555  )
        13           Mg  tau(  13) = (   0.5535247   0.0000534  -0.0035816  )
        14           Mg  tau(  14) = (   0.6308197   0.0001267   0.2214127  )
        15           Mg  tau(  15) = (   0.8138796   0.1322118  -0.1996380  )
        16           Mg  tau(  16) = (   0.8911678   0.1322853   0.0253666  )
        17           Si  tau(  17) = (   0.5375662   0.1323431   0.1344146  )
        18           Si  tau(  18) = (   0.6604878   0.1322283  -0.0950537  )
        19           Al  tau(  19) = (   0.6904226   0.1323137   0.0723675  )
        20           Al  tau(  20) = (   0.7542692   0.2644376  -0.0503689  )
        21           Si  tau(  21) = (   0.7842081   0.0001102   0.1168287  )
        22           Si  tau(  22) = (   0.9071251   0.2644082  -0.1124100  )

   Crystallographic axes

     site n.     atom                  positions (cryst. coord.)
         1           Mg  tau(   1) = (  0.0013988  0.0000062  0.9884306  )
         2           Mg  tau(   2) = (  0.0757924  0.5000265  0.3476440  )
         3           Mg  tau(   3) = (  0.1562104  0.5000273  0.9018810  )
         4           Mg  tau(   4) = (  0.3466158  0.9999842  0.0749711  )
         5           Mg  tau(   5) = (  0.4270267  0.9999853  0.6292266  )
         6           Si  tau(   6) = (  0.0591894  0.0001943  0.6466284  )
         7           Si  tau(   7) = (  0.1870404  0.9999779  0.2109376  )
         8           Al  tau(   8) = (  0.2181940  0.0001036  0.6056518  )
         9           Al  tau(   9) = (  0.2846244  0.4999079  0.3711973  )
        10           Si  tau(  10) = (  0.3157822  0.5000337  0.7659130  )
        11           Si  tau(  11) = (  0.4436284  0.4998172  0.3302340  )
        12           Mg  tau(  12) = (  0.5014232  0.5000055  0.9884377  )
        13           Mg  tau(  13) = (  0.5757955  0.0000280  0.3476265  )
        14           Mg  tau(  14) = (  0.6562005  0.0000282  0.9018694  )
        15           Mg  tau(  15) = (  0.8466257  0.4999833  0.0749826  )
        16           Mg  tau(  16) = (  0.9270236  0.4999838  0.6292441  )
        17           Si  tau(  17) = (  0.5591949  0.5001937  0.6465965  )
        18           Si  tau(  18) = (  0.6870622  0.4999777  0.2109665  )
        19           Al  tau(  19) = (  0.7182015  0.5001030  0.6056636  )
        20           Al  tau(  20) = (  0.7846169  0.9999085  0.3711856  )
        21           Si  tau(  21) = (  0.8157604  0.0000339  0.7658841  )
        22           Si  tau(  22) = (  0.9436229  0.9998179  0.3302660  )

     number of k points=   782  Methfessel-Paxton smearing, width (Ry)=  0.0441
                       cart. coord. in units 2pi/alat
        k(    1) = (   0.0000000   0.0000000   0.0000000), wk =   0.0012821
        k(    2) = (   0.0494258  -0.0001455   0.1725097), wk =   0.0025641
        k(    3) = (   0.0988515  -0.0002909   0.3450194), wk =   0.0025641
        k(    4) = (   0.1482773  -0.0004364   0.5175291), wk =   0.0025641
        k(    5) = (   0.1977030  -0.0005818   0.6900388), wk =   0.0025641
        k(    6) = (   0.2471288  -0.0007273   0.8625486), wk =   0.0025641
        k(    7) = (   0.2965546  -0.0008727   1.0350583), wk =   0.0025641
        k(    8) = (  -0.0000161   0.1890984  -0.0000561), wk =   0.0025641
        k(    9) = (   0.0494097   0.1889529   0.1724536), wk =   0.0025641
        k(   10) = (   0.0988355   0.1888075   0.3449634), wk =   0.0025641
        k(   11) = (   0.1482612   0.1886620   0.5174731), wk =   0.0025641
        k(   12) = (   0.1976870   0.1885166   0.6899828), wk =   0.0025641
        k(   13) = (   0.2471127   0.1883711   0.8624925), wk =   0.0025641
        k(   14) = (   0.2965385   0.1882256   1.0350022), wk =   0.0025641
        k(   15) = (  -0.2965706   0.1899711  -1.0351143), wk =   0.0025641
        k(   16) = (  -0.2471449   0.1898257  -0.8626046), wk =   0.0025641
        k(   17) = (  -0.1977191   0.1896802  -0.6900949), wk =   0.0025641
        k(   18) = (  -0.1482933   0.1895348  -0.5175852), wk =   0.0025641
        k(   19) = (  -0.0988676   0.1893893  -0.3450755), wk =   0.0025641
        k(   20) = (  -0.0494418   0.1892438  -0.1725658), wk =   0.0025641
        k(   21) = (  -0.0000321   0.3781968  -0.0001121), wk =   0.0025641
        k(   22) = (   0.0493936   0.3780513   0.1723976), wk =   0.0025641
        k(   23) = (   0.0988194   0.3779059   0.3449073), wk =   0.0025641
        k(   24) = (   0.1482452   0.3777604   0.5174170), wk =   0.0025641
        k(   25) = (   0.1976709   0.3776149   0.6899267), wk =   0.0025641
        k(   26) = (   0.2470967   0.3774695   0.8624364), wk =   0.0025641
        k(   27) = (   0.2965224   0.3773240   1.0349461), wk =   0.0025641
        k(   28) = (  -0.2965867   0.3790695  -1.0351704), wk =   0.0025641
        k(   29) = (  -0.2471609   0.3789241  -0.8626607), wk =   0.0025641
        k(   30) = (  -0.1977352   0.3787786  -0.6901510), wk =   0.0025641
        k(   31) = (  -0.1483094   0.3786331  -0.5176413), wk =   0.0025641
        k(   32) = (  -0.0988837   0.3784877  -0.3451316), wk =   0.0025641
        k(   33) = (  -0.0494579   0.3783422  -0.1726218), wk =   0.0025641
        k(   34) = (  -0.0000482   0.5672952  -0.0001682), wk =   0.0025641
        k(   35) = (   0.0493776   0.5671497   0.1723415), wk =   0.0025641
        k(   36) = (   0.0988033   0.5670042   0.3448512), wk =   0.0025641
        k(   37) = (   0.1482291   0.5668588   0.5173609), wk =   0.0025641
        k(   38) = (   0.1976549   0.5667133   0.6898706), wk =   0.0025641
        k(   39) = (   0.2470806   0.5665679   0.8623803), wk =   0.0025641
        k(   40) = (   0.2965064   0.5664224   1.0348901), wk =   0.0025641
        k(   41) = (  -0.2966028   0.5681679  -1.0352265), wk =   0.0025641
        k(   42) = (  -0.2471770   0.5680224  -0.8627168), wk =   0.0025641
        k(   43) = (  -0.1977512   0.5678770  -0.6902071), wk =   0.0025641
        k(   44) = (  -0.1483255   0.5677315  -0.5176973), wk =   0.0025641
        k(   45) = (  -0.0988997   0.5675861  -0.3451876), wk =   0.0025641
        k(   46) = (  -0.0494740   0.5674406  -0.1726779), wk =   0.0025641
        k(   47) = (  -0.0000643   0.7563935  -0.0002243), wk =   0.0025641
        k(   48) = (   0.0493615   0.7562481   0.1722854), wk =   0.0025641
        k(   49) = (   0.0987873   0.7561026   0.3447951), wk =   0.0025641
        k(   50) = (   0.1482130   0.7559572   0.5173049), wk =   0.0025641
        k(   51) = (   0.1976388   0.7558117   0.6898146), wk =   0.0025641
        k(   52) = (   0.2470645   0.7556663   0.8623243), wk =   0.0025641
        k(   53) = (   0.2964903   0.7555208   1.0348340), wk =   0.0025641
        k(   54) = (  -0.2966188   0.7572663  -1.0352825), wk =   0.0025641
        k(   55) = (  -0.2471931   0.7571208  -0.8627728), wk =   0.0025641
        k(   56) = (  -0.1977673   0.7569754  -0.6902631), wk =   0.0025641
        k(   57) = (  -0.1483415   0.7568299  -0.5177534), wk =   0.0025641
        k(   58) = (  -0.0989158   0.7566845  -0.3452437), wk =   0.0025641
        k(   59) = (  -0.0494900   0.7565390  -0.1727340), wk =   0.0025641
        k(   60) = (  -0.0000803   0.9454919  -0.0002803), wk =   0.0025641
        k(   61) = (   0.0493454   0.9453465   0.1722294), wk =   0.0025641
        k(   62) = (   0.0987712   0.9452010   0.3447391), wk =   0.0025641
        k(   63) = (   0.1481970   0.9450556   0.5172488), wk =   0.0025641
        k(   64) = (   0.1976227   0.9449101   0.6897585), wk =   0.0025641
        k(   65) = (   0.2470485   0.9447646   0.8622682), wk =   0.0025641
        k(   66) = (   0.2964742   0.9446192   1.0347779), wk =   0.0025641
        k(   67) = (  -0.2966349   0.9463647  -1.0353386), wk =   0.0025641
        k(   68) = (  -0.2472091   0.9462192  -0.8628289), wk =   0.0025641
        k(   69) = (  -0.1977834   0.9460738  -0.6903192), wk =   0.0025641
        k(   70) = (  -0.1483576   0.9459283  -0.5178095), wk =   0.0025641
        k(   71) = (  -0.0989318   0.9457828  -0.3452998), wk =   0.0025641
        k(   72) = (  -0.0495061   0.9456374  -0.1727901), wk =   0.0025641
        k(   73) = (  -0.0000964   1.1345903  -0.0003364), wk =   0.0025641
        k(   74) = (   0.0493294   1.1344449   0.1721733), wk =   0.0025641
        k(   75) = (   0.0987551   1.1342994   0.3446830), wk =   0.0025641
        k(   76) = (   0.1481809   1.1341539   0.5171927), wk =   0.0025641
        k(   77) = (   0.1976067   1.1340085   0.6897024), wk =   0.0025641
        k(   78) = (   0.2470324   1.1338630   0.8622121), wk =   0.0025641
        k(   79) = (   0.2964582   1.1337176   1.0347219), wk =   0.0025641
        k(   80) = (  -0.2966510   1.1354630  -1.0353947), wk =   0.0025641
        k(   81) = (  -0.2472252   1.1353176  -0.8628850), wk =   0.0025641
        k(   82) = (  -0.1977994   1.1351721  -0.6903753), wk =   0.0025641
        k(   83) = (  -0.1483737   1.1350267  -0.5178655), wk =   0.0025641
        k(   84) = (  -0.0989479   1.1348812  -0.3453558), wk =   0.0025641
        k(   85) = (  -0.0495221   1.1347358  -0.1728461), wk =   0.0025641
        k(   86) = (  -0.0001125   1.3236887  -0.0003925), wk =   0.0025641
        k(   87) = (   0.0493133   1.3235432   0.1721172), wk =   0.0025641
        k(   88) = (   0.0987391   1.3233978   0.3446269), wk =   0.0025641
        k(   89) = (   0.1481648   1.3232523   0.5171366), wk =   0.0025641
        k(   90) = (   0.1975906   1.3231069   0.6896464), wk =   0.0025641
        k(   91) = (   0.2470164   1.3229614   0.8621561), wk =   0.0025641
        k(   92) = (   0.2964421   1.3228160   1.0346658), wk =   0.0025641
        k(   93) = (  -0.2966670   1.3245614  -1.0354508), wk =   0.0025641
        k(   94) = (  -0.2472413   1.3244160  -0.8629410), wk =   0.0025641
        k(   95) = (  -0.1978155   1.3242705  -0.6904313), wk =   0.0025641
        k(   96) = (  -0.1483897   1.3241251  -0.5179216), wk =   0.0025641
        k(   97) = (  -0.0989640   1.3239796  -0.3454119), wk =   0.0025641
        k(   98) = (  -0.0495382   1.3238342  -0.1729022), wk =   0.0025641
        k(   99) = (  -0.0001285   1.5127871  -0.0004486), wk =   0.0025641
        k(  100) = (   0.0492972   1.5126416   0.1720612), wk =   0.0025641
        k(  101) = (   0.0987230   1.5124962   0.3445709), wk =   0.0025641
        k(  102) = (   0.1481488   1.5123507   0.5170806), wk =   0.0025641
        k(  103) = (   0.1975745   1.5122053   0.6895903), wk =   0.0025641
        k(  104) = (   0.2470003   1.5120598   0.8621000), wk =   0.0025641
        k(  105) = (   0.2964261   1.5119143   1.0346097), wk =   0.0025641
        k(  106) = (  -0.2966831   1.5136598  -1.0355068), wk =   0.0025641
        k(  107) = (  -0.2472573   1.5135144  -0.8629971), wk =   0.0025641
        k(  108) = (  -0.1978316   1.5133689  -0.6904874), wk =   0.0025641
        k(  109) = (  -0.1484058   1.5132235  -0.5179777), wk =   0.0025641
        k(  110) = (  -0.0989800   1.5130780  -0.3454680), wk =   0.0025641
        k(  111) = (  -0.0495543   1.5129325  -0.1729583), wk =   0.0025641
        k(  112) = (  -0.0001446   1.7018855  -0.0005046), wk =   0.0025641
        k(  113) = (   0.0492812   1.7017400   0.1720051), wk =   0.0025641
        k(  114) = (   0.0987069   1.7015946   0.3445148), wk =   0.0025641
        k(  115) = (   0.1481327   1.7014491   0.5170245), wk =   0.0025641
        k(  116) = (   0.1975585   1.7013036   0.6895342), wk =   0.0025641
        k(  117) = (   0.2469842   1.7011582   0.8620439), wk =   0.0025641
        k(  118) = (   0.2964100   1.7010127   1.0345536), wk =   0.0025641
        k(  119) = (  -0.2966991   1.7027582  -1.0355629), wk =   0.0025641
        k(  120) = (  -0.2472734   1.7026127  -0.8630532), wk =   0.0025641
        k(  121) = (  -0.1978476   1.7024673  -0.6905435), wk =   0.0025641
        k(  122) = (  -0.1484219   1.7023218  -0.5180338), wk =   0.0025641
        k(  123) = (  -0.0989961   1.7021764  -0.3455240), wk =   0.0025641
        k(  124) = (  -0.0495703   1.7020309  -0.1730143), wk =   0.0025641
        k(  125) = (   0.0001606  -1.8909839   0.0005607), wk =   0.0012821
        k(  126) = (   0.0495864  -1.8911293   0.1730704), wk =   0.0025641
        k(  127) = (   0.0990122  -1.8912748   0.3455801), wk =   0.0025641
        k(  128) = (   0.1484379  -1.8914202   0.5180898), wk =   0.0025641
        k(  129) = (   0.1978637  -1.8915657   0.6905995), wk =   0.0025641
        k(  130) = (   0.2472895  -1.8917111   0.8631092), wk =   0.0025641
        k(  131) = (   0.2967152  -1.8918566   1.0356190), wk =   0.0025641
        k(  132) = (   0.1733724   0.0000000   0.0000000), wk =   0.0025641
        k(  133) = (   0.2227982  -0.0001455   0.1725097), wk =   0.0025641
        k(  134) = (   0.2722240  -0.0002909   0.3450194), wk =   0.0025641
        k(  135) = (   0.3216497  -0.0004364   0.5175291), wk =   0.0025641
        k(  136) = (   0.3710755  -0.0005818   0.6900388), wk =   0.0025641
        k(  137) = (   0.4205012  -0.0007273   0.8625486), wk =   0.0025641
        k(  138) = (   0.4699270  -0.0008727   1.0350583), wk =   0.0025641
        k(  139) = (  -0.1231821   0.0008727  -1.0350583), wk =   0.0025641
        k(  140) = (  -0.0737564   0.0007273  -0.8625486), wk =   0.0025641
        k(  141) = (  -0.0243306   0.0005818  -0.6900388), wk =   0.0025641
        k(  142) = (   0.0250951   0.0004364  -0.5175291), wk =   0.0025641
        k(  143) = (   0.0745209   0.0002909  -0.3450194), wk =   0.0025641
        k(  144) = (   0.1239467   0.0001455  -0.1725097), wk =   0.0025641
        k(  145) = (   0.1733564   0.1890984  -0.0000561), wk =   0.0025641
        k(  146) = (   0.2227821   0.1889529   0.1724536), wk =   0.0025641
        k(  147) = (   0.2722079   0.1888075   0.3449634), wk =   0.0025641
        k(  148) = (   0.3216337   0.1886620   0.5174731), wk =   0.0025641
        k(  149) = (   0.3710594   0.1885166   0.6899828), wk =   0.0025641
        k(  150) = (   0.4204852   0.1883711   0.8624925), wk =   0.0025641
        k(  151) = (   0.4699109   0.1882256   1.0350022), wk =   0.0025641
        k(  152) = (  -0.1231982   0.1899711  -1.0351143), wk =   0.0025641
        k(  153) = (  -0.0737724   0.1898257  -0.8626046), wk =   0.0025641
        k(  154) = (  -0.0243467   0.1896802  -0.6900949), wk =   0.0025641
        k(  155) = (   0.0250791   0.1895348  -0.5175852), wk =   0.0025641
        k(  156) = (   0.0745048   0.1893893  -0.3450755), wk =   0.0025641
        k(  157) = (   0.1239306   0.1892438  -0.1725658), wk =   0.0025641
        k(  158) = (   0.1733403   0.3781968  -0.0001121), wk =   0.0025641
        k(  159) = (   0.2227661   0.3780513   0.1723976), wk =   0.0025641
        k(  160) = (   0.2721918   0.3779059   0.3449073), wk =   0.0025641
        k(  161) = (   0.3216176   0.3777604   0.5174170), wk =   0.0025641
        k(  162) = (   0.3710433   0.3776149   0.6899267), wk =   0.0025641
        k(  163) = (   0.4204691   0.3774695   0.8624364), wk =   0.0025641
        k(  164) = (   0.4698949   0.3773240   1.0349461), wk =   0.0025641
        k(  165) = (  -0.1232143   0.3790695  -1.0351704), wk =   0.0025641
        k(  166) = (  -0.0737885   0.3789241  -0.8626607), wk =   0.0025641
        k(  167) = (  -0.0243627   0.3787786  -0.6901510), wk =   0.0025641
        k(  168) = (   0.0250630   0.3786331  -0.5176413), wk =   0.0025641
        k(  169) = (   0.0744888   0.3784877  -0.3451316), wk =   0.0025641
        k(  170) = (   0.1239145   0.3783422  -0.1726218), wk =   0.0025641
        k(  171) = (   0.1733242   0.5672952  -0.0001682), wk =   0.0025641
        k(  172) = (   0.2227500   0.5671497   0.1723415), wk =   0.0025641
        k(  173) = (   0.2721758   0.5670042   0.3448512), wk =   0.0025641
        k(  174) = (   0.3216015   0.5668588   0.5173609), wk =   0.0025641
        k(  175) = (   0.3710273   0.5667133   0.6898706), wk =   0.0025641
        k(  176) = (   0.4204530   0.5665679   0.8623803), wk =   0.0025641
        k(  177) = (   0.4698788   0.5664224   1.0348901), wk =   0.0025641
        k(  178) = (  -0.1232303   0.5681679  -1.0352265), wk =   0.0025641
        k(  179) = (  -0.0738046   0.5680224  -0.8627168), wk =   0.0025641
        k(  180) = (  -0.0243788   0.5678770  -0.6902071), wk =   0.0025641
        k(  181) = (   0.0250470   0.5677315  -0.5176973), wk =   0.0025641
        k(  182) = (   0.0744727   0.5675861  -0.3451876), wk =   0.0025641
        k(  183) = (   0.1238985   0.5674406  -0.1726779), wk =   0.0025641
        k(  184) = (   0.1733082   0.7563935  -0.0002243), wk =   0.0025641
        k(  185) = (   0.2227339   0.7562481   0.1722854), wk =   0.0025641
        k(  186) = (   0.2721597   0.7561026   0.3447951), wk =   0.0025641
        k(  187) = (   0.3215855   0.7559572   0.5173049), wk =   0.0025641
        k(  188) = (   0.3710112   0.7558117   0.6898146), wk =   0.0025641
        k(  189) = (   0.4204370   0.7556663   0.8623243), wk =   0.0025641
        k(  190) = (   0.4698627   0.7555208   1.0348340), wk =   0.0025641
        k(  191) = (  -0.1232464   0.7572663  -1.0352825), wk =   0.0025641
        k(  192) = (  -0.0738206   0.7571208  -0.8627728), wk =   0.0025641
        k(  193) = (  -0.0243949   0.7569754  -0.6902631), wk =   0.0025641
        k(  194) = (   0.0250309   0.7568299  -0.5177534), wk =   0.0025641
        k(  195) = (   0.0744567   0.7566845  -0.3452437), wk =   0.0025641
        k(  196) = (   0.1238824   0.7565390  -0.1727340), wk =   0.0025641
        k(  197) = (   0.1732921   0.9454919  -0.0002803), wk =   0.0025641
        k(  198) = (   0.2227179   0.9453465   0.1722294), wk =   0.0025641
        k(  199) = (   0.2721436   0.9452010   0.3447391), wk =   0.0025641
        k(  200) = (   0.3215694   0.9450556   0.5172488), wk =   0.0025641
        k(  201) = (   0.3709952   0.9449101   0.6897585), wk =   0.0025641
        k(  202) = (   0.4204209   0.9447646   0.8622682), wk =   0.0025641
        k(  203) = (   0.4698467   0.9446192   1.0347779), wk =   0.0025641
        k(  204) = (  -0.1232625   0.9463647  -1.0353386), wk =   0.0025641
        k(  205) = (  -0.0738367   0.9462192  -0.8628289), wk =   0.0025641
        k(  206) = (  -0.0244109   0.9460738  -0.6903192), wk =   0.0025641
        k(  207) = (   0.0250148   0.9459283  -0.5178095), wk =   0.0025641
        k(  208) = (   0.0744406   0.9457828  -0.3452998), wk =   0.0025641
        k(  209) = (   0.1238663   0.9456374  -0.1727901), wk =   0.0025641
        k(  210) = (   0.1732760   1.1345903  -0.0003364), wk =   0.0025641
        k(  211) = (   0.2227018   1.1344449   0.1721733), wk =   0.0025641
        k(  212) = (   0.2721276   1.1342994   0.3446830), wk =   0.0025641
        k(  213) = (   0.3215533   1.1341539   0.5171927), wk =   0.0025641
        k(  214) = (   0.3709791   1.1340085   0.6897024), wk =   0.0025641
        k(  215) = (   0.4204049   1.1338630   0.8622121), wk =   0.0025641
        k(  216) = (   0.4698306   1.1337176   1.0347219), wk =   0.0025641
        k(  217) = (  -0.1232785   1.1354630  -1.0353947), wk =   0.0025641
        k(  218) = (  -0.0738528   1.1353176  -0.8628850), wk =   0.0025641
        k(  219) = (  -0.0244270   1.1351721  -0.6903753), wk =   0.0025641
        k(  220) = (   0.0249988   1.1350267  -0.5178655), wk =   0.0025641
        k(  221) = (   0.0744245   1.1348812  -0.3453558), wk =   0.0025641
        k(  222) = (   0.1238503   1.1347358  -0.1728461), wk =   0.0025641
        k(  223) = (   0.1732600   1.3236887  -0.0003925), wk =   0.0025641
        k(  224) = (   0.2226857   1.3235432   0.1721172), wk =   0.0025641
        k(  225) = (   0.2721115   1.3233978   0.3446269), wk =   0.0025641
        k(  226) = (   0.3215373   1.3232523   0.5171366), wk =   0.0025641
        k(  227) = (   0.3709630   1.3231069   0.6896464), wk =   0.0025641
        k(  228) = (   0.4203888   1.3229614   0.8621561), wk =   0.0025641
        k(  229) = (   0.4698145   1.3228160   1.0346658), wk =   0.0025641
        k(  230) = (  -0.1232946   1.3245614  -1.0354508), wk =   0.0025641
        k(  231) = (  -0.0738688   1.3244160  -0.8629410), wk =   0.0025641
        k(  232) = (  -0.0244431   1.3242705  -0.6904313), wk =   0.0025641
        k(  233) = (   0.0249827   1.3241251  -0.5179216), wk =   0.0025641
        k(  234) = (   0.0744085   1.3239796  -0.3454119), wk =   0.0025641
        k(  235) = (   0.1238342   1.3238342  -0.1729022), wk =   0.0025641
        k(  236) = (   0.1732439   1.5127871  -0.0004486), wk =   0.0025641
        k(  237) = (   0.2226697   1.5126416   0.1720612), wk =   0.0025641
        k(  238) = (   0.2720954   1.5124962   0.3445709), wk =   0.0025641
        k(  239) = (   0.3215212   1.5123507   0.5170806), wk =   0.0025641
        k(  240) = (   0.3709470   1.5122053   0.6895903), wk =   0.0025641
        k(  241) = (   0.4203727   1.5120598   0.8621000), wk =   0.0025641
        k(  242) = (   0.4697985   1.5119143   1.0346097), wk =   0.0025641
        k(  243) = (  -0.1233107   1.5136598  -1.0355068), wk =   0.0025641
        k(  244) = (  -0.0738849   1.5135144  -0.8629971), wk =   0.0025641
        k(  245) = (  -0.0244591   1.5133689  -0.6904874), wk =   0.0025641
        k(  246) = (   0.0249666   1.5132235  -0.5179777), wk =   0.0025641
        k(  247) = (   0.0743924   1.5130780  -0.3454680), wk =   0.0025641
        k(  248) = (   0.1238182   1.5129325  -0.1729583), wk =   0.0025641
        k(  249) = (   0.1732279   1.7018855  -0.0005046), wk =   0.0025641
        k(  250) = (   0.2226536   1.7017400   0.1720051), wk =   0.0025641
        k(  251) = (   0.2720794   1.7015946   0.3445148), wk =   0.0025641
        k(  252) = (   0.3215051   1.7014491   0.5170245), wk =   0.0025641
        k(  253) = (   0.3709309   1.7013036   0.6895342), wk =   0.0025641
        k(  254) = (   0.4203567   1.7011582   0.8620439), wk =   0.0025641
        k(  255) = (   0.4697824   1.7010127   1.0345536), wk =   0.0025641
        k(  256) = (  -0.1233267   1.7027582  -1.0355629), wk =   0.0025641
        k(  257) = (  -0.0739010   1.7026127  -0.8630532), wk =   0.0025641
        k(  258) = (  -0.0244752   1.7024673  -0.6905435), wk =   0.0025641
        k(  259) = (   0.0249506   1.7023218  -0.5180338), wk =   0.0025641
        k(  260) = (   0.0743763   1.7021764  -0.3455240), wk =   0.0025641
        k(  261) = (   0.1238021   1.7020309  -0.1730143), wk =   0.0025641
        k(  262) = (   0.1735331  -1.8909839   0.0005607), wk =   0.0025641
        k(  263) = (   0.2229588  -1.8911293   0.1730704), wk =   0.0025641
        k(  264) = (   0.2723846  -1.8912748   0.3455801), wk =   0.0025641
        k(  265) = (   0.3218104  -1.8914202   0.5180898), wk =   0.0025641
        k(  266) = (   0.3712361  -1.8915657   0.6905995), wk =   0.0025641
        k(  267) = (   0.4206619  -1.8917111   0.8631092), wk =   0.0025641
        k(  268) = (   0.4700876  -1.8918566   1.0356190), wk =   0.0025641
        k(  269) = (  -0.1230215  -1.8901111  -1.0344976), wk =   0.0025641
        k(  270) = (  -0.0735957  -1.8902566  -0.8619879), wk =   0.0025641
        k(  271) = (  -0.0241700  -1.8904020  -0.6894782), wk =   0.0025641
        k(  272) = (   0.0252558  -1.8905475  -0.5169684), wk =   0.0025641
        k(  273) = (   0.0746816  -1.8906929  -0.3444587), wk =   0.0025641
        k(  274) = (   0.1241073  -1.8908384  -0.1719490), wk =   0.0025641
        k(  275) = (   0.1735170  -1.7018855   0.0005046), wk =   0.0025641
        k(  276) = (   0.2229428  -1.7020309   0.1730143), wk =   0.0025641
        k(  277) = (   0.2723685  -1.7021764   0.3455240), wk =   0.0025641
        k(  278) = (   0.3217943  -1.7023218   0.5180338), wk =   0.0025641
        k(  279) = (   0.3712201  -1.7024673   0.6905435), wk =   0.0025641
        k(  280) = (   0.4206458  -1.7026127   0.8630532), wk =   0.0025641
        k(  281) = (   0.4700716  -1.7027582   1.0355629), wk =   0.0025641
        k(  282) = (  -0.1230376  -1.7010127  -1.0345536), wk =   0.0025641
        k(  283) = (  -0.0736118  -1.7011582  -0.8620439), wk =   0.0025641
        k(  284) = (  -0.0241860  -1.7013036  -0.6895342), wk =   0.0025641
        k(  285) = (   0.0252397  -1.7014491  -0.5170245), wk =   0.0025641
        k(  286) = (   0.0746655  -1.7015946  -0.3445148), wk =   0.0025641
        k(  287) = (   0.1240912  -1.7017400  -0.1720051), wk =   0.0025641
        k(  288) = (   0.1735009  -1.5127871   0.0004486), wk =   0.0025641
        k(  289) = (   0.2229267  -1.5129325   0.1729583), wk =   0.0025641
        k(  290) = (   0.2723525  -1.5130780   0.3454680), wk =   0.0025641
        k(  291) = (   0.3217782  -1.5132235   0.5179777), wk =   0.0025641
        k(  292) = (   0.3712040  -1.5133689   0.6904874), wk =   0.0025641
        k(  293) = (   0.4206298  -1.5135144   0.8629971), wk =   0.0025641
        k(  294) = (   0.4700555  -1.5136598   1.0355068), wk =   0.0025641
        k(  295) = (  -0.1230536  -1.5119143  -1.0346097), wk =   0.0025641
        k(  296) = (  -0.0736279  -1.5120598  -0.8621000), wk =   0.0025641
        k(  297) = (  -0.0242021  -1.5122053  -0.6895903), wk =   0.0025641
        k(  298) = (   0.0252237  -1.5123507  -0.5170806), wk =   0.0025641
        k(  299) = (   0.0746494  -1.5124962  -0.3445709), wk =   0.0025641
        k(  300) = (   0.1240752  -1.5126416  -0.1720612), wk =   0.0025641
        k(  301) = (   0.1734849  -1.3236887   0.0003925), wk =   0.0025641
        k(  302) = (   0.2229106  -1.3238342   0.1729022), wk =   0.0025641
        k(  303) = (   0.2723364  -1.3239796   0.3454119), wk =   0.0025641
        k(  304) = (   0.3217622  -1.3241251   0.5179216), wk =   0.0025641
        k(  305) = (   0.3711879  -1.3242705   0.6904313), wk =   0.0025641
        k(  306) = (   0.4206137  -1.3244160   0.8629410), wk =   0.0025641
        k(  307) = (   0.4700395  -1.3245614   1.0354508), wk =   0.0025641
        k(  308) = (  -0.1230697  -1.3228160  -1.0346658), wk =   0.0025641
        k(  309) = (  -0.0736439  -1.3229614  -0.8621561), wk =   0.0025641
        k(  310) = (  -0.0242182  -1.3231069  -0.6896464), wk =   0.0025641
        k(  311) = (   0.0252076  -1.3232523  -0.5171366), wk =   0.0025641
        k(  312) = (   0.0746334  -1.3233978  -0.3446269), wk =   0.0025641
        k(  313) = (   0.1240591  -1.3235432  -0.1721172), wk =   0.0025641
        k(  314) = (   0.1734688  -1.1345903   0.0003364), wk =   0.0025641
        k(  315) = (   0.2228946  -1.1347358   0.1728461), wk =   0.0025641
        k(  316) = (   0.2723203  -1.1348812   0.3453558), wk =   0.0025641
        k(  317) = (   0.3217461  -1.1350267   0.5178655), wk =   0.0025641
        k(  318) = (   0.3711719  -1.1351721   0.6903753), wk =   0.0025641
        k(  319) = (   0.4205976  -1.1353176   0.8628850), wk =   0.0025641
        k(  320) = (   0.4700234  -1.1354630   1.0353947), wk =   0.0025641
        k(  321) = (  -0.1230858  -1.1337176  -1.0347219), wk =   0.0025641
        k(  322) = (  -0.0736600  -1.1338630  -0.8622121), wk =   0.0025641
        k(  323) = (  -0.0242342  -1.1340085  -0.6897024), wk =   0.0025641
        k(  324) = (   0.0251915  -1.1341539  -0.5171927), wk =   0.0025641
        k(  325) = (   0.0746173  -1.1342994  -0.3446830), wk =   0.0025641
        k(  326) = (   0.1240431  -1.1344449  -0.1721733), wk =   0.0025641
        k(  327) = (   0.1734528  -0.9454919   0.0002803), wk =   0.0025641
        k(  328) = (   0.2228785  -0.9456374   0.1727901), wk =   0.0025641
        k(  329) = (   0.2723043  -0.9457828   0.3452998), wk =   0.0025641
        k(  330) = (   0.3217300  -0.9459283   0.5178095), wk =   0.0025641
        k(  331) = (   0.3711558  -0.9460738   0.6903192), wk =   0.0025641
        k(  332) = (   0.4205816  -0.9462192   0.8628289), wk =   0.0025641
        k(  333) = (   0.4700073  -0.9463647   1.0353386), wk =   0.0025641
        k(  334) = (  -0.1231018  -0.9446192  -1.0347779), wk =   0.0025641
        k(  335) = (  -0.0736761  -0.9447646  -0.8622682), wk =   0.0025641
        k(  336) = (  -0.0242503  -0.9449101  -0.6897585), wk =   0.0025641
        k(  337) = (   0.0251755  -0.9450556  -0.5172488), wk =   0.0025641
        k(  338) = (   0.0746012  -0.9452010  -0.3447391), wk =   0.0025641
        k(  339) = (   0.1240270  -0.9453465  -0.1722294), wk =   0.0025641
        k(  340) = (   0.1734367  -0.7563935   0.0002243), wk =   0.0025641
        k(  341) = (   0.2228624  -0.7565390   0.1727340), wk =   0.0025641
        k(  342) = (   0.2722882  -0.7566845   0.3452437), wk =   0.0025641
        k(  343) = (   0.3217140  -0.7568299   0.5177534), wk =   0.0025641
        k(  344) = (   0.3711397  -0.7569754   0.6902631), wk =   0.0025641
        k(  345) = (   0.4205655  -0.7571208   0.8627728), wk =   0.0025641
        k(  346) = (   0.4699913  -0.7572663   1.0352825), wk =   0.0025641
        k(  347) = (  -0.1231179  -0.7555208  -1.0348340), wk =   0.0025641
        k(  348) = (  -0.0736921  -0.7556663  -0.8623243), wk =   0.0025641
        k(  349) = (  -0.0242664  -0.7558117  -0.6898146), wk =   0.0025641
        k(  350) = (   0.0251594  -0.7559572  -0.5173049), wk =   0.0025641
        k(  351) = (   0.0745852  -0.7561026  -0.3447951), wk =   0.0025641
        k(  352) = (   0.1240109  -0.7562481  -0.1722854), wk =   0.0025641
        k(  353) = (   0.1734206  -0.5672952   0.0001682), wk =   0.0025641
        k(  354) = (   0.2228464  -0.5674406   0.1726779), wk =   0.0025641
        k(  355) = (   0.2722721  -0.5675861   0.3451876), wk =   0.0025641
        k(  356) = (   0.3216979  -0.5677315   0.5176973), wk =   0.0025641
        k(  357) = (   0.3711237  -0.5678770   0.6902071), wk =   0.0025641
        k(  358) = (   0.4205494  -0.5680224   0.8627168), wk =   0.0025641
        k(  359) = (   0.4699752  -0.5681679   1.0352265), wk =   0.0025641
        k(  360) = (  -0.1231339  -0.5664224  -1.0348901), wk =   0.0025641
        k(  361) = (  -0.0737082  -0.5665679  -0.8623803), wk =   0.0025641
        k(  362) = (  -0.0242824  -0.5667133  -0.6898706), wk =   0.0025641
        k(  363) = (   0.0251433  -0.5668588  -0.5173609), wk =   0.0025641
        k(  364) = (   0.0745691  -0.5670042  -0.3448512), wk =   0.0025641
        k(  365) = (   0.1239949  -0.5671497  -0.1723415), wk =   0.0025641
        k(  366) = (   0.1734046  -0.3781968   0.0001121), wk =   0.0025641
        k(  367) = (   0.2228303  -0.3783422   0.1726218), wk =   0.0025641
        k(  368) = (   0.2722561  -0.3784877   0.3451316), wk =   0.0025641
        k(  369) = (   0.3216818  -0.3786331   0.5176413), wk =   0.0025641
        k(  370) = (   0.3711076  -0.3787786   0.6901510), wk =   0.0025641
        k(  371) = (   0.4205334  -0.3789241   0.8626607), wk =   0.0025641
        k(  372) = (   0.4699591  -0.3790695   1.0351704), wk =   0.0025641
        k(  373) = (  -0.1231500  -0.3773240  -1.0349461), wk =   0.0025641
        k(  374) = (  -0.0737242  -0.3774695  -0.8624364), wk =   0.0025641
        k(  375) = (  -0.0242985  -0.3776149  -0.6899267), wk =   0.0025641
        k(  376) = (   0.0251273  -0.3777604  -0.5174170), wk =   0.0025641
        k(  377) = (   0.0745530  -0.3779059  -0.3449073), wk =   0.0025641
        k(  378) = (   0.1239788  -0.3780513  -0.1723976), wk =   0.0025641
        k(  379) = (   0.1733885  -0.1890984   0.0000561), wk =   0.0025641
        k(  380) = (   0.2228143  -0.1892438   0.1725658), wk =   0.0025641
        k(  381) = (   0.2722400  -0.1893893   0.3450755), wk =   0.0025641
        k(  382) = (   0.3216658  -0.1895348   0.5175852), wk =   0.0025641
        k(  383) = (   0.3710915  -0.1896802   0.6900949), wk =   0.0025641
        k(  384) = (   0.4205173  -0.1898257   0.8626046), wk =   0.0025641
        k(  385) = (   0.4699431  -0.1899711   1.0351143), wk =   0.0025641
        k(  386) = (  -0.1231661  -0.1882256  -1.0350022), wk =   0.0025641
        k(  387) = (  -0.0737403  -0.1883711  -0.8624925), wk =   0.0025641
        k(  388) = (  -0.0243146  -0.1885166  -0.6899828), wk =   0.0025641
        k(  389) = (   0.0251112  -0.1886620  -0.5174731), wk =   0.0025641
        k(  390) = (   0.0745370  -0.1888075  -0.3449634), wk =   0.0025641
        k(  391) = (   0.1239627  -0.1889529  -0.1724536), wk =   0.0025641
        k(  392) = (   0.3467449   0.0000000   0.0000000), wk =   0.0025641
        k(  393) = (   0.3961706  -0.0001455   0.1725097), wk =   0.0025641
        k(  394) = (   0.4455964  -0.0002909   0.3450194), wk =   0.0025641
        k(  395) = (   0.4950221  -0.0004364   0.5175291), wk =   0.0025641
        k(  396) = (   0.5444479  -0.0005818   0.6900388), wk =   0.0025641
        k(  397) = (   0.5938737  -0.0007273   0.8625486), wk =   0.0025641
        k(  398) = (   0.6432994  -0.0008727   1.0350583), wk =   0.0025641
        k(  399) = (   0.0501903   0.0008727  -1.0350583), wk =   0.0025641
        k(  400) = (   0.0996161   0.0007273  -0.8625486), wk =   0.0025641
        k(  401) = (   0.1490418   0.0005818  -0.6900388), wk =   0.0025641
        k(  402) = (   0.1984676   0.0004364  -0.5175291), wk =   0.0025641
        k(  403) = (   0.2478933   0.0002909  -0.3450194), wk =   0.0025641
        k(  404) = (   0.2973191   0.0001455  -0.1725097), wk =   0.0025641
        k(  405) = (   0.3467288   0.1890984  -0.0000561), wk =   0.0025641
        k(  406) = (   0.3961546   0.1889529   0.1724536), wk =   0.0025641
        k(  407) = (   0.4455803   0.1888075   0.3449634), wk =   0.0025641
        k(  408) = (   0.4950061   0.1886620   0.5174731), wk =   0.0025641
        k(  409) = (   0.5444318   0.1885166   0.6899828), wk =   0.0025641
        k(  410) = (   0.5938576   0.1883711   0.8624925), wk =   0.0025641
        k(  411) = (   0.6432834   0.1882256   1.0350022), wk =   0.0025641
        k(  412) = (   0.0501742   0.1899711  -1.0351143), wk =   0.0025641
        k(  413) = (   0.0996000   0.1898257  -0.8626046), wk =   0.0025641
        k(  414) = (   0.1490258   0.1896802  -0.6900949), wk =   0.0025641
        k(  415) = (   0.1984515   0.1895348  -0.5175852), wk =   0.0025641
        k(  416) = (   0.2478773   0.1893893  -0.3450755), wk =   0.0025641
        k(  417) = (   0.2973030   0.1892438  -0.1725658), wk =   0.0025641
        k(  418) = (   0.3467127   0.3781968  -0.0001121), wk =   0.0025641
        k(  419) = (   0.3961385   0.3780513   0.1723976), wk =   0.0025641
        k(  420) = (   0.4455643   0.3779059   0.3449073), wk =   0.0025641
        k(  421) = (   0.4949900   0.3777604   0.5174170), wk =   0.0025641
        k(  422) = (   0.5444158   0.3776149   0.6899267), wk =   0.0025641
        k(  423) = (   0.5938415   0.3774695   0.8624364), wk =   0.0025641
        k(  424) = (   0.6432673   0.3773240   1.0349461), wk =   0.0025641
        k(  425) = (   0.0501582   0.3790695  -1.0351704), wk =   0.0025641
        k(  426) = (   0.0995839   0.3789241  -0.8626607), wk =   0.0025641
        k(  427) = (   0.1490097   0.3787786  -0.6901510), wk =   0.0025641
        k(  428) = (   0.1984354   0.3786331  -0.5176413), wk =   0.0025641
        k(  429) = (   0.2478612   0.3784877  -0.3451316), wk =   0.0025641
        k(  430) = (   0.2972870   0.3783422  -0.1726218), wk =   0.0025641
        k(  431) = (   0.3466967   0.5672952  -0.0001682), wk =   0.0025641
        k(  432) = (   0.3961224   0.5671497   0.1723415), wk =   0.0025641
        k(  433) = (   0.4455482   0.5670042   0.3448512), wk =   0.0025641
        k(  434) = (   0.4949740   0.5668588   0.5173609), wk =   0.0025641
        k(  435) = (   0.5443997   0.5667133   0.6898706), wk =   0.0025641
        k(  436) = (   0.5938255   0.5665679   0.8623803), wk =   0.0025641
        k(  437) = (   0.6432512   0.5664224   1.0348901), wk =   0.0025641
        k(  438) = (   0.0501421   0.5681679  -1.0352265), wk =   0.0025641
        k(  439) = (   0.0995679   0.5680224  -0.8627168), wk =   0.0025641
        k(  440) = (   0.1489936   0.5678770  -0.6902071), wk =   0.0025641
        k(  441) = (   0.1984194   0.5677315  -0.5176973), wk =   0.0025641
        k(  442) = (   0.2478451   0.5675861  -0.3451876), wk =   0.0025641
        k(  443) = (   0.2972709   0.5674406  -0.1726779), wk =   0.0025641
        k(  444) = (   0.3466806   0.7563935  -0.0002243), wk =   0.0025641
        k(  445) = (   0.3961064   0.7562481   0.1722854), wk =   0.0025641
        k(  446) = (   0.4455321   0.7561026   0.3447951), wk =   0.0025641
        k(  447) = (   0.4949579   0.7559572   0.5173049), wk =   0.0025641
        k(  448) = (   0.5443836   0.7558117   0.6898146), wk =   0.0025641
        k(  449) = (   0.5938094   0.7556663   0.8623243), wk =   0.0025641
        k(  450) = (   0.6432352   0.7555208   1.0348340), wk =   0.0025641
        k(  451) = (   0.0501260   0.7572663  -1.0352825), wk =   0.0025641
        k(  452) = (   0.0995518   0.7571208  -0.8627728), wk =   0.0025641
        k(  453) = (   0.1489776   0.7569754  -0.6902631), wk =   0.0025641
        k(  454) = (   0.1984033   0.7568299  -0.5177534), wk =   0.0025641
        k(  455) = (   0.2478291   0.7566845  -0.3452437), wk =   0.0025641
        k(  456) = (   0.2972548   0.7565390  -0.1727340), wk =   0.0025641
        k(  457) = (   0.3466645   0.9454919  -0.0002803), wk =   0.0025641
        k(  458) = (   0.3960903   0.9453465   0.1722294), wk =   0.0025641
        k(  459) = (   0.4455161   0.9452010   0.3447391), wk =   0.0025641
        k(  460) = (   0.4949418   0.9450556   0.5172488), wk =   0.0025641
        k(  461) = (   0.5443676   0.9449101   0.6897585), wk =   0.0025641
        k(  462) = (   0.5937933   0.9447646   0.8622682), wk =   0.0025641
        k(  463) = (   0.6432191   0.9446192   1.0347779), wk =   0.0025641
        k(  464) = (   0.0501100   0.9463647  -1.0353386), wk =   0.0025641
        k(  465) = (   0.0995357   0.9462192  -0.8628289), wk =   0.0025641
        k(  466) = (   0.1489615   0.9460738  -0.6903192), wk =   0.0025641
        k(  467) = (   0.1983873   0.9459283  -0.5178095), wk =   0.0025641
        k(  468) = (   0.2478130   0.9457828  -0.3452998), wk =   0.0025641
        k(  469) = (   0.2972388   0.9456374  -0.1727901), wk =   0.0025641
        k(  470) = (   0.3466485   1.1345903  -0.0003364), wk =   0.0025641
        k(  471) = (   0.3960742   1.1344449   0.1721733), wk =   0.0025641
        k(  472) = (   0.4455000   1.1342994   0.3446830), wk =   0.0025641
        k(  473) = (   0.4949258   1.1341539   0.5171927), wk =   0.0025641
        k(  474) = (   0.5443515   1.1340085   0.6897024), wk =   0.0025641
        k(  475) = (   0.5937773   1.1338630   0.8622121), wk =   0.0025641
        k(  476) = (   0.6432030   1.1337176   1.0347219), wk =   0.0025641
        k(  477) = (   0.0500939   1.1354630  -1.0353947), wk =   0.0025641
        k(  478) = (   0.0995197   1.1353176  -0.8628850), wk =   0.0025641
        k(  479) = (   0.1489454   1.1351721  -0.6903753), wk =   0.0025641
        k(  480) = (   0.1983712   1.1350267  -0.5178655), wk =   0.0025641
        k(  481) = (   0.2477970   1.1348812  -0.3453558), wk =   0.0025641
        k(  482) = (   0.2972227   1.1347358  -0.1728461), wk =   0.0025641
        k(  483) = (   0.3466324   1.3236887  -0.0003925), wk =   0.0025641
        k(  484) = (   0.3960582   1.3235432   0.1721172), wk =   0.0025641
        k(  485) = (   0.4454839   1.3233978   0.3446269), wk =   0.0025641
        k(  486) = (   0.4949097   1.3232523   0.5171366), wk =   0.0025641
        k(  487) = (   0.5443355   1.3231069   0.6896464), wk =   0.0025641
        k(  488) = (   0.5937612   1.3229614   0.8621561), wk =   0.0025641
        k(  489) = (   0.6431870   1.3228160   1.0346658), wk =   0.0025641
        k(  490) = (   0.0500778   1.3245614  -1.0354508), wk =   0.0025641
        k(  491) = (   0.0995036   1.3244160  -0.8629410), wk =   0.0025641
        k(  492) = (   0.1489294   1.3242705  -0.6904313), wk =   0.0025641
        k(  493) = (   0.1983551   1.3241251  -0.5179216), wk =   0.0025641
        k(  494) = (   0.2477809   1.3239796  -0.3454119), wk =   0.0025641
        k(  495) = (   0.2972066   1.3238342  -0.1729022), wk =   0.0025641
        k(  496) = (   0.3466163   1.5127871  -0.0004486), wk =   0.0025641
        k(  497) = (   0.3960421   1.5126416   0.1720612), wk =   0.0025641
        k(  498) = (   0.4454679   1.5124962   0.3445709), wk =   0.0025641
        k(  499) = (   0.4948936   1.5123507   0.5170806), wk =   0.0025641
        k(  500) = (   0.5443194   1.5122053   0.6895903), wk =   0.0025641
        k(  501) = (   0.5937452   1.5120598   0.8621000), wk =   0.0025641
        k(  502) = (   0.6431709   1.5119143   1.0346097), wk =   0.0025641
        k(  503) = (   0.0500618   1.5136598  -1.0355068), wk =   0.0025641
        k(  504) = (   0.0994875   1.5135144  -0.8629971), wk =   0.0025641
        k(  505) = (   0.1489133   1.5133689  -0.6904874), wk =   0.0025641
        k(  506) = (   0.1983391   1.5132235  -0.5179777), wk =   0.0025641
        k(  507) = (   0.2477648   1.5130780  -0.3454680), wk =   0.0025641
        k(  508) = (   0.2971906   1.5129325  -0.1729583), wk =   0.0025641
        k(  509) = (   0.3466003   1.7018855  -0.0005046), wk =   0.0025641
        k(  510) = (   0.3960260   1.7017400   0.1720051), wk =   0.0025641
        k(  511) = (   0.4454518   1.7015946   0.3445148), wk =   0.0025641
        k(  512) = (   0.4948776   1.7014491   0.5170245), wk =   0.0025641
        k(  513) = (   0.5443033   1.7013036   0.6895342), wk =   0.0025641
        k(  514) = (   0.5937291   1.7011582   0.8620439), wk =   0.0025641
        k(  515) = (   0.6431549   1.7010127   1.0345536), wk =   0.0025641
        k(  516) = (   0.0500457   1.7027582  -1.0355629), wk =   0.0025641
        k(  517) = (   0.0994715   1.7026127  -0.8630532), wk =   0.0025641
        k(  518) = (   0.1488972   1.7024673  -0.6905435), wk =   0.0025641
        k(  519) = (   0.1983230   1.7023218  -0.5180338), wk =   0.0025641
        k(  520) = (   0.2477488   1.7021764  -0.3455240), wk =   0.0025641
        k(  521) = (   0.2971745   1.7020309  -0.1730143), wk =   0.0025641
        k(  522) = (   0.3469055  -1.8909839   0.0005607), wk =   0.0025641
        k(  523) = (   0.3963313  -1.8911293   0.1730704), wk =   0.0025641
        k(  524) = (   0.4457570  -1.8912748   0.3455801), wk =   0.0025641
        k(  525) = (   0.4951828  -1.8914202   0.5180898), wk =   0.0025641
        k(  526) = (   0.5446086  -1.8915657   0.6905995), wk =   0.0025641
        k(  527) = (   0.5940343  -1.8917111   0.8631092), wk =   0.0025641
        k(  528) = (   0.6434601  -1.8918566   1.0356190), wk =   0.0025641
        k(  529) = (   0.0503509  -1.8901111  -1.0344976), wk =   0.0025641
        k(  530) = (   0.0997767  -1.8902566  -0.8619879), wk =   0.0025641
        k(  531) = (   0.1492025  -1.8904020  -0.6894782), wk =   0.0025641
        k(  532) = (   0.1986282  -1.8905475  -0.5169684), wk =   0.0025641
        k(  533) = (   0.2480540  -1.8906929  -0.3444587), wk =   0.0025641
        k(  534) = (   0.2974797  -1.8908384  -0.1719490), wk =   0.0025641
        k(  535) = (   0.3468894  -1.7018855   0.0005046), wk =   0.0025641
        k(  536) = (   0.3963152  -1.7020309   0.1730143), wk =   0.0025641
        k(  537) = (   0.4457410  -1.7021764   0.3455240), wk =   0.0025641
        k(  538) = (   0.4951667  -1.7023218   0.5180338), wk =   0.0025641
        k(  539) = (   0.5445925  -1.7024673   0.6905435), wk =   0.0025641
        k(  540) = (   0.5940182  -1.7026127   0.8630532), wk =   0.0025641
        k(  541) = (   0.6434440  -1.7027582   1.0355629), wk =   0.0025641
        k(  542) = (   0.0503349  -1.7010127  -1.0345536), wk =   0.0025641
        k(  543) = (   0.0997606  -1.7011582  -0.8620439), wk =   0.0025641
        k(  544) = (   0.1491864  -1.7013036  -0.6895342), wk =   0.0025641
        k(  545) = (   0.1986122  -1.7014491  -0.5170245), wk =   0.0025641
        k(  546) = (   0.2480379  -1.7015946  -0.3445148), wk =   0.0025641
        k(  547) = (   0.2974637  -1.7017400  -0.1720051), wk =   0.0025641
        k(  548) = (   0.3468734  -1.5127871   0.0004486), wk =   0.0025641
        k(  549) = (   0.3962991  -1.5129325   0.1729583), wk =   0.0025641
        k(  550) = (   0.4457249  -1.5130780   0.3454680), wk =   0.0025641
        k(  551) = (   0.4951507  -1.5132235   0.5179777), wk =   0.0025641
        k(  552) = (   0.5445764  -1.5133689   0.6904874), wk =   0.0025641
        k(  553) = (   0.5940022  -1.5135144   0.8629971), wk =   0.0025641
        k(  554) = (   0.6434279  -1.5136598   1.0355068), wk =   0.0025641
        k(  555) = (   0.0503188  -1.5119143  -1.0346097), wk =   0.0025641
        k(  556) = (   0.0997446  -1.5120598  -0.8621000), wk =   0.0025641
        k(  557) = (   0.1491703  -1.5122053  -0.6895903), wk =   0.0025641
        k(  558) = (   0.1985961  -1.5123507  -0.5170806), wk =   0.0025641
        k(  559) = (   0.2480219  -1.5124962  -0.3445709), wk =   0.0025641
        k(  560) = (   0.2974476  -1.5126416  -0.1720612), wk =   0.0025641
        k(  561) = (   0.3468573  -1.3236887   0.0003925), wk =   0.0025641
        k(  562) = (   0.3962831  -1.3238342   0.1729022), wk =   0.0025641
        k(  563) = (   0.4457088  -1.3239796   0.3454119), wk =   0.0025641
        k(  564) = (   0.4951346  -1.3241251   0.5179216), wk =   0.0025641
        k(  565) = (   0.5445604  -1.3242705   0.6904313), wk =   0.0025641
        k(  566) = (   0.5939861  -1.3244160   0.8629410), wk =   0.0025641
        k(  567) = (   0.6434119  -1.3245614   1.0354508), wk =   0.0025641
        k(  568) = (   0.0503027  -1.3228160  -1.0346658), wk =   0.0025641
        k(  569) = (   0.0997285  -1.3229614  -0.8621561), wk =   0.0025641
        k(  570) = (   0.1491543  -1.3231069  -0.6896464), wk =   0.0025641
        k(  571) = (   0.1985800  -1.3232523  -0.5171366), wk =   0.0025641
        k(  572) = (   0.2480058  -1.3233978  -0.3446269), wk =   0.0025641
        k(  573) = (   0.2974316  -1.3235432  -0.1721172), wk =   0.0025641
        k(  574) = (   0.3468412  -1.1345903   0.0003364), wk =   0.0025641
        k(  575) = (   0.3962670  -1.1347358   0.1728461), wk =   0.0025641
        k(  576) = (   0.4456928  -1.1348812   0.3453558), wk =   0.0025641
        k(  577) = (   0.4951185  -1.1350267   0.5178655), wk =   0.0025641
        k(  578) = (   0.5445443  -1.1351721   0.6903753), wk =   0.0025641
        k(  579) = (   0.5939701  -1.1353176   0.8628850), wk =   0.0025641
        k(  580) = (   0.6433958  -1.1354630   1.0353947), wk =   0.0025641
        k(  581) = (   0.0502867  -1.1337176  -1.0347219), wk =   0.0025641
        k(  582) = (   0.0997124  -1.1338630  -0.8622121), wk =   0.0025641
        k(  583) = (   0.1491382  -1.1340085  -0.6897024), wk =   0.0025641
        k(  584) = (   0.1985640  -1.1341539  -0.5171927), wk =   0.0025641
        k(  585) = (   0.2479897  -1.1342994  -0.3446830), wk =   0.0025641
        k(  586) = (   0.2974155  -1.1344449  -0.1721733), wk =   0.0025641
        k(  587) = (   0.3468252  -0.9454919   0.0002803), wk =   0.0025641
        k(  588) = (   0.3962509  -0.9456374   0.1727901), wk =   0.0025641
        k(  589) = (   0.4456767  -0.9457828   0.3452998), wk =   0.0025641
        k(  590) = (   0.4951025  -0.9459283   0.5178095), wk =   0.0025641
        k(  591) = (   0.5445282  -0.9460738   0.6903192), wk =   0.0025641
        k(  592) = (   0.5939540  -0.9462192   0.8628289), wk =   0.0025641
        k(  593) = (   0.6433798  -0.9463647   1.0353386), wk =   0.0025641
        k(  594) = (   0.0502706  -0.9446192  -1.0347779), wk =   0.0025641
        k(  595) = (   0.0996964  -0.9447646  -0.8622682), wk =   0.0025641
        k(  596) = (   0.1491221  -0.9449101  -0.6897585), wk =   0.0025641
        k(  597) = (   0.1985479  -0.9450556  -0.5172488), wk =   0.0025641
        k(  598) = (   0.2479737  -0.9452010  -0.3447391), wk =   0.0025641
        k(  599) = (   0.2973994  -0.9453465  -0.1722294), wk =   0.0025641
        k(  600) = (   0.3468091  -0.7563935   0.0002243), wk =   0.0025641
        k(  601) = (   0.3962349  -0.7565390   0.1727340), wk =   0.0025641
        k(  602) = (   0.4456606  -0.7566845   0.3452437), wk =   0.0025641
        k(  603) = (   0.4950864  -0.7568299   0.5177534), wk =   0.0025641
        k(  604) = (   0.5445122  -0.7569754   0.6902631), wk =   0.0025641
        k(  605) = (   0.5939379  -0.7571208   0.8627728), wk =   0.0025641
        k(  606) = (   0.6433637  -0.7572663   1.0352825), wk =   0.0025641
        k(  607) = (   0.0502546  -0.7555208  -1.0348340), wk =   0.0025641
        k(  608) = (   0.0996803  -0.7556663  -0.8623243), wk =   0.0025641
        k(  609) = (   0.1491061  -0.7558117  -0.6898146), wk =   0.0025641
        k(  610) = (   0.1985318  -0.7559572  -0.5173049), wk =   0.0025641
        k(  611) = (   0.2479576  -0.7561026  -0.3447951), wk =   0.0025641
        k(  612) = (   0.2973834  -0.7562481  -0.1722854), wk =   0.0025641
        k(  613) = (   0.3467931  -0.5672952   0.0001682), wk =   0.0025641
        k(  614) = (   0.3962188  -0.5674406   0.1726779), wk =   0.0025641
        k(  615) = (   0.4456446  -0.5675861   0.3451876), wk =   0.0025641
        k(  616) = (   0.4950703  -0.5677315   0.5176973), wk =   0.0025641
        k(  617) = (   0.5444961  -0.5678770   0.6902071), wk =   0.0025641
        k(  618) = (   0.5939219  -0.5680224   0.8627168), wk =   0.0025641
        k(  619) = (   0.6433476  -0.5681679   1.0352265), wk =   0.0025641
        k(  620) = (   0.0502385  -0.5664224  -1.0348901), wk =   0.0025641
        k(  621) = (   0.0996642  -0.5665679  -0.8623803), wk =   0.0025641
        k(  622) = (   0.1490900  -0.5667133  -0.6898706), wk =   0.0025641
        k(  623) = (   0.1985158  -0.5668588  -0.5173609), wk =   0.0025641
        k(  624) = (   0.2479415  -0.5670042  -0.3448512), wk =   0.0025641
        k(  625) = (   0.2973673  -0.5671497  -0.1723415), wk =   0.0025641
        k(  626) = (   0.3467770  -0.3781968   0.0001121), wk =   0.0025641
        k(  627) = (   0.3962028  -0.3783422   0.1726218), wk =   0.0025641
        k(  628) = (   0.4456285  -0.3784877   0.3451316), wk =   0.0025641
        k(  629) = (   0.4950543  -0.3786331   0.5176413), wk =   0.0025641
        k(  630) = (   0.5444800  -0.3787786   0.6901510), wk =   0.0025641
        k(  631) = (   0.5939058  -0.3789241   0.8626607), wk =   0.0025641
        k(  632) = (   0.6433316  -0.3790695   1.0351704), wk =   0.0025641
        k(  633) = (   0.0502224  -0.3773240  -1.0349461), wk =   0.0025641
        k(  634) = (   0.0996482  -0.3774695  -0.8624364), wk =   0.0025641
        k(  635) = (   0.1490739  -0.3776149  -0.6899267), wk =   0.0025641
        k(  636) = (   0.1984997  -0.3777604  -0.5174170), wk =   0.0025641
        k(  637) = (   0.2479255  -0.3779059  -0.3449073), wk =   0.0025641
        k(  638) = (   0.2973512  -0.3780513  -0.1723976), wk =   0.0025641
        k(  639) = (   0.3467609  -0.1890984   0.0000561), wk =   0.0025641
        k(  640) = (   0.3961867  -0.1892438   0.1725658), wk =   0.0025641
        k(  641) = (   0.4456124  -0.1893893   0.3450755), wk =   0.0025641
        k(  642) = (   0.4950382  -0.1895348   0.5175852), wk =   0.0025641
        k(  643) = (   0.5444640  -0.1896802   0.6900949), wk =   0.0025641
        k(  644) = (   0.5938897  -0.1898257   0.8626046), wk =   0.0025641
        k(  645) = (   0.6433155  -0.1899711   1.0351143), wk =   0.0025641
        k(  646) = (   0.0502064  -0.1882256  -1.0350022), wk =   0.0025641
        k(  647) = (   0.0996321  -0.1883711  -0.8624925), wk =   0.0025641
        k(  648) = (   0.1490579  -0.1885166  -0.6899828), wk =   0.0025641
        k(  649) = (   0.1984836  -0.1886620  -0.5174731), wk =   0.0025641
        k(  650) = (   0.2479094  -0.1888075  -0.3449634), wk =   0.0025641
        k(  651) = (   0.2973352  -0.1889529  -0.1724536), wk =   0.0025641
        k(  652) = (  -0.5201173   0.0000000   0.0000000), wk =   0.0012821
        k(  653) = (  -0.4706915  -0.0001455   0.1725097), wk =   0.0025641
        k(  654) = (  -0.4212658  -0.0002909   0.3450194), wk =   0.0025641
        k(  655) = (  -0.3718400  -0.0004364   0.5175291), wk =   0.0025641
        k(  656) = (  -0.3224142  -0.0005818   0.6900388), wk =   0.0025641
        k(  657) = (  -0.2729885  -0.0007273   0.8625486), wk =   0.0025641
        k(  658) = (  -0.2235627  -0.0008727   1.0350583), wk =   0.0025641
        k(  659) = (  -0.5201334   0.1890984  -0.0000561), wk =   0.0025641
        k(  660) = (  -0.4707076   0.1889529   0.1724536), wk =   0.0025641
        k(  661) = (  -0.4212818   0.1888075   0.3449634), wk =   0.0025641
        k(  662) = (  -0.3718561   0.1886620   0.5174731), wk =   0.0025641
        k(  663) = (  -0.3224303   0.1885166   0.6899828), wk =   0.0025641
        k(  664) = (  -0.2730046   0.1883711   0.8624925), wk =   0.0025641
        k(  665) = (  -0.2235788   0.1882256   1.0350022), wk =   0.0025641
        k(  666) = (  -0.8166879   0.1899711  -1.0351143), wk =   0.0025641
        k(  667) = (  -0.7672622   0.1898257  -0.8626046), wk =   0.0025641
        k(  668) = (  -0.7178364   0.1896802  -0.6900949), wk =   0.0025641
        k(  669) = (  -0.6684106   0.1895348  -0.5175852), wk =   0.0025641
        k(  670) = (  -0.6189849   0.1893893  -0.3450755), wk =   0.0025641
        k(  671) = (  -0.5695591   0.1892438  -0.1725658), wk =   0.0025641
        k(  672) = (  -0.5201494   0.3781968  -0.0001121), wk =   0.0025641
        k(  673) = (  -0.4707237   0.3780513   0.1723976), wk =   0.0025641
        k(  674) = (  -0.4212979   0.3779059   0.3449073), wk =   0.0025641
        k(  675) = (  -0.3718721   0.3777604   0.5174170), wk =   0.0025641
        k(  676) = (  -0.3224464   0.3776149   0.6899267), wk =   0.0025641
        k(  677) = (  -0.2730206   0.3774695   0.8624364), wk =   0.0025641
        k(  678) = (  -0.2235949   0.3773240   1.0349461), wk =   0.0025641
        k(  679) = (  -0.8167040   0.3790695  -1.0351704), wk =   0.0025641
        k(  680) = (  -0.7672782   0.3789241  -0.8626607), wk =   0.0025641
        k(  681) = (  -0.7178525   0.3787786  -0.6901510), wk =   0.0025641
        k(  682) = (  -0.6684267   0.3786331  -0.5176413), wk =   0.0025641
        k(  683) = (  -0.6190009   0.3784877  -0.3451316), wk =   0.0025641
        k(  684) = (  -0.5695752   0.3783422  -0.1726218), wk =   0.0025641
        k(  685) = (  -0.5201655   0.5672952  -0.0001682), wk =   0.0025641
        k(  686) = (  -0.4707397   0.5671497   0.1723415), wk =   0.0025641
        k(  687) = (  -0.4213140   0.5670042   0.3448512), wk =   0.0025641
        k(  688) = (  -0.3718882   0.5668588   0.5173609), wk =   0.0025641
        k(  689) = (  -0.3224624   0.5667133   0.6898706), wk =   0.0025641
        k(  690) = (  -0.2730367   0.5665679   0.8623803), wk =   0.0025641
        k(  691) = (  -0.2236109   0.5664224   1.0348901), wk =   0.0025641
        k(  692) = (  -0.8167201   0.5681679  -1.0352265), wk =   0.0025641
        k(  693) = (  -0.7672943   0.5680224  -0.8627168), wk =   0.0025641
        k(  694) = (  -0.7178685   0.5678770  -0.6902071), wk =   0.0025641
        k(  695) = (  -0.6684428   0.5677315  -0.5176973), wk =   0.0025641
        k(  696) = (  -0.6190170   0.5675861  -0.3451876), wk =   0.0025641
        k(  697) = (  -0.5695912   0.5674406  -0.1726779), wk =   0.0025641
        k(  698) = (  -0.5201816   0.7563935  -0.0002243), wk =   0.0025641
        k(  699) = (  -0.4707558   0.7562481   0.1722854), wk =   0.0025641
        k(  700) = (  -0.4213300   0.7561026   0.3447951), wk =   0.0025641
        k(  701) = (  -0.3719043   0.7559572   0.5173049), wk =   0.0025641
        k(  702) = (  -0.3224785   0.7558117   0.6898146), wk =   0.0025641
        k(  703) = (  -0.2730527   0.7556663   0.8623243), wk =   0.0025641
        k(  704) = (  -0.2236270   0.7555208   1.0348340), wk =   0.0025641
        k(  705) = (  -0.8167361   0.7572663  -1.0352825), wk =   0.0025641
        k(  706) = (  -0.7673104   0.7571208  -0.8627728), wk =   0.0025641
        k(  707) = (  -0.7178846   0.7569754  -0.6902631), wk =   0.0025641
        k(  708) = (  -0.6684588   0.7568299  -0.5177534), wk =   0.0025641
        k(  709) = (  -0.6190331   0.7566845  -0.3452437), wk =   0.0025641
        k(  710) = (  -0.5696073   0.7565390  -0.1727340), wk =   0.0025641
        k(  711) = (  -0.5201976   0.9454919  -0.0002803), wk =   0.0025641
        k(  712) = (  -0.4707719   0.9453465   0.1722294), wk =   0.0025641
        k(  713) = (  -0.4213461   0.9452010   0.3447391), wk =   0.0025641
        k(  714) = (  -0.3719203   0.9450556   0.5172488), wk =   0.0025641
        k(  715) = (  -0.3224946   0.9449101   0.6897585), wk =   0.0025641
        k(  716) = (  -0.2730688   0.9447646   0.8622682), wk =   0.0025641
        k(  717) = (  -0.2236430   0.9446192   1.0347779), wk =   0.0025641
        k(  718) = (  -0.8167522   0.9463647  -1.0353386), wk =   0.0025641
        k(  719) = (  -0.7673264   0.9462192  -0.8628289), wk =   0.0025641
        k(  720) = (  -0.7179007   0.9460738  -0.6903192), wk =   0.0025641
        k(  721) = (  -0.6684749   0.9459283  -0.5178095), wk =   0.0025641
        k(  722) = (  -0.6190491   0.9457828  -0.3452998), wk =   0.0025641
        k(  723) = (  -0.5696234   0.9456374  -0.1727901), wk =   0.0025641
        k(  724) = (  -0.5202137   1.1345903  -0.0003364), wk =   0.0025641
        k(  725) = (  -0.4707879   1.1344449   0.1721733), wk =   0.0025641
        k(  726) = (  -0.4213622   1.1342994   0.3446830), wk =   0.0025641
        k(  727) = (  -0.3719364   1.1341539   0.5171927), wk =   0.0025641
        k(  728) = (  -0.3225106   1.1340085   0.6897024), wk =   0.0025641
        k(  729) = (  -0.2730849   1.1338630   0.8622121), wk =   0.0025641
        k(  730) = (  -0.2236591   1.1337176   1.0347219), wk =   0.0025641
        k(  731) = (  -0.8167682   1.1354630  -1.0353947), wk =   0.0025641
        k(  732) = (  -0.7673425   1.1353176  -0.8628850), wk =   0.0025641
        k(  733) = (  -0.7179167   1.1351721  -0.6903753), wk =   0.0025641
        k(  734) = (  -0.6684910   1.1350267  -0.5178655), wk =   0.0025641
        k(  735) = (  -0.6190652   1.1348812  -0.3453558), wk =   0.0025641
        k(  736) = (  -0.5696394   1.1347358  -0.1728461), wk =   0.0025641
        k(  737) = (  -0.5202297   1.3236887  -0.0003925), wk =   0.0025641
        k(  738) = (  -0.4708040   1.3235432   0.1721172), wk =   0.0025641
        k(  739) = (  -0.4213782   1.3233978   0.3446269), wk =   0.0025641
        k(  740) = (  -0.3719525   1.3232523   0.5171366), wk =   0.0025641
        k(  741) = (  -0.3225267   1.3231069   0.6896464), wk =   0.0025641
        k(  742) = (  -0.2731009   1.3229614   0.8621561), wk =   0.0025641
        k(  743) = (  -0.2236752   1.3228160   1.0346658), wk =   0.0025641
        k(  744) = (  -0.8167843   1.3245614  -1.0354508), wk =   0.0025641
        k(  745) = (  -0.7673586   1.3244160  -0.8629410), wk =   0.0025641
        k(  746) = (  -0.7179328   1.3242705  -0.6904313), wk =   0.0025641
        k(  747) = (  -0.6685070   1.3241251  -0.5179216), wk =   0.0025641
        k(  748) = (  -0.6190813   1.3239796  -0.3454119), wk =   0.0025641
        k(  749) = (  -0.5696555   1.3238342  -0.1729022), wk =   0.0025641
        k(  750) = (  -0.5202458   1.5127871  -0.0004486), wk =   0.0025641
        k(  751) = (  -0.4708200   1.5126416   0.1720612), wk =   0.0025641
        k(  752) = (  -0.4213943   1.5124962   0.3445709), wk =   0.0025641
        k(  753) = (  -0.3719685   1.5123507   0.5170806), wk =   0.0025641
        k(  754) = (  -0.3225428   1.5122053   0.6895903), wk =   0.0025641
        k(  755) = (  -0.2731170   1.5120598   0.8621000), wk =   0.0025641
        k(  756) = (  -0.2236912   1.5119143   1.0346097), wk =   0.0025641
        k(  757) = (  -0.8168004   1.5136598  -1.0355068), wk =   0.0025641
        k(  758) = (  -0.7673746   1.5135144  -0.8629971), wk =   0.0025641
        k(  759) = (  -0.7179489   1.5133689  -0.6904874), wk =   0.0025641
        k(  760) = (  -0.6685231   1.5132235  -0.5179777), wk =   0.0025641
        k(  761) = (  -0.6190973   1.5130780  -0.3454680), wk =   0.0025641
        k(  762) = (  -0.5696716   1.5129325  -0.1729583), wk =   0.0025641
        k(  763) = (  -0.5202619   1.7018855  -0.0005046), wk =   0.0025641
        k(  764) = (  -0.4708361   1.7017400   0.1720051), wk =   0.0025641
        k(  765) = (  -0.4214103   1.7015946   0.3445148), wk =   0.0025641
        k(  766) = (  -0.3719846   1.7014491   0.5170245), wk =   0.0025641
        k(  767) = (  -0.3225588   1.7013036   0.6895342), wk =   0.0025641
        k(  768) = (  -0.2731331   1.7011582   0.8620439), wk =   0.0025641
        k(  769) = (  -0.2237073   1.7010127   1.0345536), wk =   0.0025641
        k(  770) = (  -0.8168164   1.7027582  -1.0355629), wk =   0.0025641
        k(  771) = (  -0.7673907   1.7026127  -0.8630532), wk =   0.0025641
        k(  772) = (  -0.7179649   1.7024673  -0.6905435), wk =   0.0025641
        k(  773) = (  -0.6685392   1.7023218  -0.5180338), wk =   0.0025641
        k(  774) = (  -0.6191134   1.7021764  -0.3455240), wk =   0.0025641
        k(  775) = (  -0.5696876   1.7020309  -0.1730143), wk =   0.0025641
        k(  776) = (  -0.5199566  -1.8909839   0.0005607), wk =   0.0012821
        k(  777) = (  -0.4705309  -1.8911293   0.1730704), wk =   0.0025641
        k(  778) = (  -0.4211051  -1.8912748   0.3455801), wk =   0.0025641
        k(  779) = (  -0.3716794  -1.8914202   0.5180898), wk =   0.0025641
        k(  780) = (  -0.3222536  -1.8915657   0.6905995), wk =   0.0025641
        k(  781) = (  -0.2728278  -1.8917111   0.8631092), wk =   0.0025641
        k(  782) = (  -0.2234021  -1.8918566   1.0356190), wk =   0.0025641

                       cryst. coord.
        k(    1) = (   0.0000000   0.0000000   0.0000000), wk =   0.0012821
        k(    2) = (   0.0000000   0.0000000   0.0769231), wk =   0.0025641
        k(    3) = (   0.0000000   0.0000000   0.1538462), wk =   0.0025641
        k(    4) = (  -0.0000000   0.0000000   0.2307692), wk =   0.0025641
        k(    5) = (   0.0000000   0.0000000   0.3076923), wk =   0.0025641
        k(    6) = (  -0.0000000   0.0000000   0.3846154), wk =   0.0025641
        k(    7) = (  -0.0000000   0.0000000   0.4615385), wk =   0.0025641
        k(    8) = (   0.0000000   0.0500000  -0.0000000), wk =   0.0025641
        k(    9) = (  -0.0000000   0.0500000   0.0769231), wk =   0.0025641
        k(   10) = (  -0.0000000   0.0500000   0.1538462), wk =   0.0025641
        k(   11) = (  -0.0000000   0.0500000   0.2307692), wk =   0.0025641
        k(   12) = (  -0.0000000   0.0500000   0.3076923), wk =   0.0025641
        k(   13) = (   0.0000000   0.0500000   0.3846154), wk =   0.0025641
        k(   14) = (  -0.0000000   0.0500000   0.4615385), wk =   0.0025641
        k(   15) = (  -0.0000000   0.0500000  -0.4615385), wk =   0.0025641
        k(   16) = (   0.0000000   0.0500000  -0.3846154), wk =   0.0025641
        k(   17) = (  -0.0000000   0.0500000  -0.3076923), wk =   0.0025641
        k(   18) = (   0.0000000   0.0500000  -0.2307692), wk =   0.0025641
        k(   19) = (   0.0000000   0.0500000  -0.1538462), wk =   0.0025641
        k(   20) = (   0.0000000   0.0500000  -0.0769231), wk =   0.0025641
        k(   21) = (   0.0000000   0.1000000  -0.0000000), wk =   0.0025641
        k(   22) = (  -0.0000000   0.1000000   0.0769231), wk =   0.0025641
        k(   23) = (  -0.0000000   0.1000000   0.1538462), wk =   0.0025641
        k(   24) = (  -0.0000000   0.1000000   0.2307692), wk =   0.0025641
        k(   25) = (  -0.0000000   0.1000000   0.3076923), wk =   0.0025641
        k(   26) = (  -0.0000000   0.1000000   0.3846154), wk =   0.0025641
        k(   27) = (  -0.0000000   0.1000000   0.4615385), wk =   0.0025641
        k(   28) = (   0.0000000   0.1000000  -0.4615385), wk =   0.0025641
        k(   29) = (   0.0000000   0.1000000  -0.3846154), wk =   0.0025641
        k(   30) = (   0.0000000   0.1000000  -0.3076923), wk =   0.0025641
        k(   31) = (   0.0000000   0.1000000  -0.2307692), wk =   0.0025641
        k(   32) = (   0.0000000   0.1000000  -0.1538462), wk =   0.0025641
        k(   33) = (   0.0000000   0.1000000  -0.0769231), wk =   0.0025641
        k(   34) = (   0.0000000   0.1500000   0.0000000), wk =   0.0025641
        k(   35) = (  -0.0000000   0.1500000   0.0769231), wk =   0.0025641
        k(   36) = (  -0.0000000   0.1500000   0.1538462), wk =   0.0025641
        k(   37) = (  -0.0000000   0.1500000   0.2307692), wk =   0.0025641
        k(   38) = (  -0.0000000   0.1500000   0.3076923), wk =   0.0025641
        k(   39) = (  -0.0000000   0.1500000   0.3846154), wk =   0.0025641
        k(   40) = (  -0.0000000   0.1500000   0.4615385), wk =   0.0025641
        k(   41) = (   0.0000000   0.1500000  -0.4615385), wk =   0.0025641
        k(   42) = (   0.0000000   0.1500000  -0.3846154), wk =   0.0025641
        k(   43) = (   0.0000000   0.1500000  -0.3076923), wk =   0.0025641
        k(   44) = (   0.0000000   0.1500000  -0.2307692), wk =   0.0025641
        k(   45) = (  -0.0000000   0.1500000  -0.1538462), wk =   0.0025641
        k(   46) = (   0.0000000   0.1500000  -0.0769231), wk =   0.0025641
        k(   47) = (   0.0000000   0.2000000  -0.0000000), wk =   0.0025641
        k(   48) = (  -0.0000000   0.2000000   0.0769231), wk =   0.0025641
        k(   49) = (  -0.0000000   0.2000000   0.1538462), wk =   0.0025641
        k(   50) = (  -0.0000000   0.2000000   0.2307692), wk =   0.0025641
        k(   51) = (  -0.0000000   0.2000000   0.3076923), wk =   0.0025641
        k(   52) = (  -0.0000000   0.2000000   0.3846154), wk =   0.0025641
        k(   53) = (  -0.0000000   0.2000000   0.4615385), wk =   0.0025641
        k(   54) = (   0.0000000   0.2000000  -0.4615385), wk =   0.0025641
        k(   55) = (   0.0000000   0.2000000  -0.3846154), wk =   0.0025641
        k(   56) = (   0.0000000   0.2000000  -0.3076923), wk =   0.0025641
        k(   57) = (   0.0000000   0.2000000  -0.2307692), wk =   0.0025641
        k(   58) = (   0.0000000   0.2000000  -0.1538462), wk =   0.0025641
        k(   59) = (   0.0000000   0.2000000  -0.0769231), wk =   0.0025641
        k(   60) = (   0.0000000   0.2500000  -0.0000000), wk =   0.0025641
        k(   61) = (  -0.0000000   0.2500000   0.0769231), wk =   0.0025641
        k(   62) = (  -0.0000000   0.2500000   0.1538462), wk =   0.0025641
        k(   63) = (  -0.0000000   0.2500000   0.2307692), wk =   0.0025641
        k(   64) = (   0.0000000   0.2500000   0.3076923), wk =   0.0025641
        k(   65) = (   0.0000000   0.2500000   0.3846154), wk =   0.0025641
        k(   66) = (  -0.0000000   0.2500000   0.4615385), wk =   0.0025641
        k(   67) = (  -0.0000000   0.2500000  -0.4615385), wk =   0.0025641
        k(   68) = (  -0.0000000   0.2500000  -0.3846154), wk =   0.0025641
        k(   69) = (   0.0000000   0.2500000  -0.3076923), wk =   0.0025641
        k(   70) = (   0.0000000   0.2500000  -0.2307692), wk =   0.0025641
        k(   71) = (   0.0000000   0.2500000  -0.1538462), wk =   0.0025641
        k(   72) = (  -0.0000000   0.2500000  -0.0769231), wk =   0.0025641
        k(   73) = (   0.0000000   0.3000000   0.0000000), wk =   0.0025641
        k(   74) = (  -0.0000000   0.3000000   0.0769231), wk =   0.0025641
        k(   75) = (  -0.0000000   0.3000000   0.1538462), wk =   0.0025641
        k(   76) = (  -0.0000000   0.3000000   0.2307692), wk =   0.0025641
        k(   77) = (  -0.0000000   0.3000000   0.3076923), wk =   0.0025641
        k(   78) = (  -0.0000000   0.3000000   0.3846154), wk =   0.0025641
        k(   79) = (  -0.0000000   0.3000000   0.4615385), wk =   0.0025641
        k(   80) = (   0.0000000   0.3000000  -0.4615385), wk =   0.0025641
        k(   81) = (   0.0000000   0.3000000  -0.3846154), wk =   0.0025641
        k(   82) = (  -0.0000000   0.3000000  -0.3076923), wk =   0.0025641
        k(   83) = (  -0.0000000   0.3000000  -0.2307692), wk =   0.0025641
        k(   84) = (  -0.0000000   0.3000000  -0.1538462), wk =   0.0025641
        k(   85) = (   0.0000000   0.3000000  -0.0769231), wk =   0.0025641
        k(   86) = (   0.0000000   0.3500000   0.0000000), wk =   0.0025641
        k(   87) = (  -0.0000000   0.3500000   0.0769231), wk =   0.0025641
        k(   88) = (  -0.0000000   0.3500000   0.1538462), wk =   0.0025641
        k(   89) = (  -0.0000000   0.3500000   0.2307692), wk =   0.0025641
        k(   90) = (  -0.0000000   0.3500000   0.3076923), wk =   0.0025641
        k(   91) = (   0.0000000   0.3500000   0.3846154), wk =   0.0025641
        k(   92) = (   0.0000000   0.3500000   0.4615385), wk =   0.0025641
        k(   93) = (   0.0000000   0.3500000  -0.4615385), wk =   0.0025641
        k(   94) = (   0.0000000   0.3500000  -0.3846154), wk =   0.0025641
        k(   95) = (   0.0000000   0.3500000  -0.3076923), wk =   0.0025641
        k(   96) = (   0.0000000   0.3500000  -0.2307692), wk =   0.0025641
        k(   97) = (   0.0000000   0.3500000  -0.1538462), wk =   0.0025641
        k(   98) = (   0.0000000   0.3500000  -0.0769231), wk =   0.0025641
        k(   99) = (   0.0000000   0.4000000  -0.0000000), wk =   0.0025641
        k(  100) = (  -0.0000000   0.4000000   0.0769231), wk =   0.0025641
        k(  101) = (  -0.0000000   0.4000000   0.1538462), wk =   0.0025641
        k(  102) = (  -0.0000000   0.4000000   0.2307692), wk =   0.0025641
        k(  103) = (  -0.0000000   0.4000000   0.3076923), wk =   0.0025641
        k(  104) = (  -0.0000000   0.4000000   0.3846154), wk =   0.0025641
        k(  105) = (  -0.0000000   0.4000000   0.4615385), wk =   0.0025641
        k(  106) = (   0.0000000   0.4000000  -0.4615385), wk =   0.0025641
        k(  107) = (   0.0000000   0.4000000  -0.3846154), wk =   0.0025641
        k(  108) = (   0.0000000   0.4000000  -0.3076923), wk =   0.0025641
        k(  109) = (   0.0000000   0.4000000  -0.2307692), wk =   0.0025641
        k(  110) = (   0.0000000   0.4000000  -0.1538462), wk =   0.0025641
        k(  111) = (  -0.0000000   0.4000000  -0.0769231), wk =   0.0025641
        k(  112) = (   0.0000000   0.4500000   0.0000000), wk =   0.0025641
        k(  113) = (  -0.0000000   0.4500000   0.0769231), wk =   0.0025641
        k(  114) = (  -0.0000000   0.4500000   0.1538462), wk =   0.0025641
        k(  115) = (  -0.0000000   0.4500000   0.2307692), wk =   0.0025641
        k(  116) = (  -0.0000000   0.4500000   0.3076923), wk =   0.0025641
        k(  117) = (  -0.0000000   0.4500000   0.3846154), wk =   0.0025641
        k(  118) = (   0.0000000   0.4500000   0.4615385), wk =   0.0025641
        k(  119) = (   0.0000000   0.4500000  -0.4615385), wk =   0.0025641
        k(  120) = (   0.0000000   0.4500000  -0.3846154), wk =   0.0025641
        k(  121) = (   0.0000000   0.4500000  -0.3076923), wk =   0.0025641
        k(  122) = (   0.0000000   0.4500000  -0.2307692), wk =   0.0025641
        k(  123) = (  -0.0000000   0.4500000  -0.1538462), wk =   0.0025641
        k(  124) = (   0.0000000   0.4500000  -0.0769231), wk =   0.0025641
        k(  125) = (  -0.0000000  -0.5000000   0.0000000), wk =   0.0012821
        k(  126) = (   0.0000000  -0.5000000   0.0769231), wk =   0.0025641
        k(  127) = (  -0.0000000  -0.5000000   0.1538462), wk =   0.0025641
        k(  128) = (  -0.0000000  -0.5000000   0.2307692), wk =   0.0025641
        k(  129) = (  -0.0000000  -0.5000000   0.3076923), wk =   0.0025641
        k(  130) = (  -0.0000000  -0.5000000   0.3846154), wk =   0.0025641
        k(  131) = (   0.0000000  -0.5000000   0.4615385), wk =   0.0025641
        k(  132) = (   0.1666667   0.0000000   0.0000000), wk =   0.0025641
        k(  133) = (   0.1666667   0.0000000   0.0769231), wk =   0.0025641
        k(  134) = (   0.1666667   0.0000000   0.1538462), wk =   0.0025641
        k(  135) = (   0.1666667   0.0000000   0.2307692), wk =   0.0025641
        k(  136) = (   0.1666667   0.0000000   0.3076923), wk =   0.0025641
        k(  137) = (   0.1666667   0.0000000   0.3846154), wk =   0.0025641
        k(  138) = (   0.1666667   0.0000000   0.4615385), wk =   0.0025641
        k(  139) = (   0.1666667  -0.0000000  -0.4615385), wk =   0.0025641
        k(  140) = (   0.1666667  -0.0000000  -0.3846154), wk =   0.0025641
        k(  141) = (   0.1666667  -0.0000000  -0.3076923), wk =   0.0025641
        k(  142) = (   0.1666667  -0.0000000  -0.2307692), wk =   0.0025641
        k(  143) = (   0.1666667  -0.0000000  -0.1538462), wk =   0.0025641
[...]
     0.8264   0.8250   0.1976   0.1970   0.0979   0.0933

          k =-0.2234-1.8919 1.0356 ( 11800 PWs)   bands (ev):

    -3.1487  -3.1483  -2.1728  -2.1701  -1.9591  -1.9559  -1.1662  -1.1633
     0.0102   0.0150   0.7620   0.7643   0.8618   0.8670   2.0024   2.0051
     2.0935   2.0962   2.7356   2.7367   3.4984   3.4986   3.8143   3.8149
     4.2524   4.2548   4.6366   4.6381   4.8847   4.8875   5.5810   5.5817
     6.1425   6.1458   6.4933   6.5025   6.7924   6.7948

     occupation numbers 
     1.0000   1.0000   1.0000   1.0000   1.0000   1.0000   1.0000   1.0000
     1.0000   1.0000   1.0000   1.0000   1.0000   1.0000   1.0000   1.0000
     1.0000   1.0000   1.0000   1.0000   1.0000   1.0000   1.0000   1.0000
     1.0000   1.0000   1.0002   1.0002   1.0012   1.0013   1.0342   1.0342
     0.8019   0.7983   0.3363   0.3243   0.0415   0.0401

     the Fermi energy is     6.3747 ev

!    total energy              =    -585.64458202 Ry
     Harris-Foulkes estimate   =    -585.64458202 Ry
     estimated scf accuracy    <          1.6E-13 Ry

     The total energy is the sum of the following terms:

     one-electron contribution =      41.79281588 Ry
     hartree contribution      =       8.28209544 Ry
     xc contribution           =     -75.85994046 Ry
     ewald contribution        =    -108.26521069 Ry
     one-center paw contrib.   =    -451.59065077 Ry
      -> PAW hartree energy AE =       0.84497829 Ry
      -> PAW hartree energy PS =      -0.84305818 Ry
      -> PAW xc energy AE      =     -32.63762423 Ry
      -> PAW xc energy PS      =       1.33921849 Ry
      -> total E_H with PAW    =       8.28401554 Ry
      -> total E_XC with PAW   =    -107.15834620 Ry
     smearing contrib. (-TS)   =      -0.00369142 Ry

     convergence has been achieved in  18 iterations

     Forces acting on atoms (cartesian axes, Ry/au):

     atom    1 type  1   force =     0.00000939   -0.00000031    0.00000873
     atom    2 type  1   force =    -0.00083215    0.00000327    0.00014777
     atom    3 type  1   force =    -0.00127129    0.00000725   -0.00047832
     atom    4 type  1   force =     0.00126719   -0.00000721    0.00048080
     atom    5 type  1   force =     0.00083341   -0.00000336   -0.00015235
     atom    6 type  2   force =    -0.00051804   -0.00001321   -0.00056312
     atom    7 type  2   force =     0.00024237    0.00003142    0.00028368
     atom    8 type  3   force =    -0.00057073    0.00000793   -0.00044669
     atom    9 type  3   force =     0.00057202   -0.00000779    0.00045126
     atom   10 type  2   force =    -0.00024431   -0.00003164   -0.00028186
     atom   11 type  2   force =     0.00052003    0.00001326    0.00056074
     atom   12 type  1   force =    -0.00000605    0.00000031   -0.00001215
     atom   13 type  1   force =    -0.00082655    0.00000213    0.00015420
     atom   14 type  1   force =    -0.00126157    0.00000640   -0.00047236
     atom   15 type  1   force =     0.00125742   -0.00000641    0.00047497
     atom   16 type  1   force =     0.00082762   -0.00000217   -0.00015919
     atom   17 type  2   force =    -0.00053786   -0.00001219   -0.00054108
     atom   18 type  2   force =     0.00018139    0.00003263    0.00023646
     atom   19 type  3   force =    -0.00060685    0.00000889   -0.00045730
     atom   20 type  3   force =     0.00060882   -0.00000894    0.00046165
     atom   21 type  2   force =    -0.00018390   -0.00003251   -0.00023449
     atom   22 type  2   force =     0.00053963    0.00001222    0.00053867
     The non-local contrib.  to forces
     atom    1 type  1   force =     0.00001930   -0.00000060    0.00001648
     atom    2 type  1   force =     0.01377529    0.00003141   -0.00083607
     atom    3 type  1   force =     0.00757984    0.00004118    0.01111588
     atom    4 type  1   force =    -0.00759839   -0.00004135   -0.01110727
     atom    5 type  1   force =    -0.01377201   -0.00003156    0.00081683
     atom    6 type  2   force =    -0.02248730   -0.00005531   -0.05443951
     atom    7 type  2   force =     0.01671909    0.00005874    0.02118395
     atom    8 type  3   force =     0.00597856    0.00005783   -0.01079847
     atom    9 type  3   force =    -0.00597927   -0.00005775    0.01080758
     atom   10 type  2   force =    -0.01672779   -0.00005879   -0.02117607
     atom   11 type  2   force =     0.02250633    0.00005541    0.05443009
     atom   12 type  1   force =    -0.00001561    0.00000061   -0.00002592
     atom   13 type  1   force =     0.01379545    0.00002843   -0.00082688
     atom   14 type  1   force =     0.00760802    0.00003954    0.01114756
     atom   15 type  1   force =    -0.00762570   -0.00003908   -0.01113922
     atom   16 type  1   force =    -0.01379163   -0.00002857    0.00080782
     atom   17 type  2   force =    -0.02252604   -0.00005408   -0.05439525
     atom   18 type  2   force =     0.01662224    0.00005985    0.02111848
     atom   19 type  3   force =     0.00593264    0.00005935   -0.01082120
     atom   20 type  3   force =    -0.00593275   -0.00005916    0.01082896
     atom   21 type  2   force =    -0.01662954   -0.00006004   -0.02111052
     atom   22 type  2   force =     0.02254478    0.00005398    0.05438579
     The ionic contribution  to forces
     atom    1 type  1   force =     0.00013768   -0.00000087    0.00007939
     atom    2 type  1   force =    -0.16011263    0.00046376   -0.31373985
     atom    3 type  1   force =    -0.15632032    0.00003262    0.17808658
     atom    4 type  1   force =     0.15631506   -0.00003248   -0.17807939
     atom    5 type  1   force =     0.16015201   -0.00046426    0.31371711
     atom    6 type  2   force =     0.14430275    0.00001751    0.85247848
     atom    7 type  2   force =    -0.62532917    0.00055929   -0.77583783
     atom    8 type  3   force =    -0.05420667   -0.00021750    0.33528774
     atom    9 type  3   force =     0.05414289    0.00021788   -0.33528392
     atom   10 type  2   force =     0.62526640   -0.00055962    0.77585163
     atom   11 type  2   force =    -0.14422766   -0.00001731   -0.85248319
     atom   12 type  1   force =    -0.00011006    0.00000096   -0.00007372
     atom   13 type  1   force =    -0.16037898    0.00045620   -0.31378347
     atom   14 type  1   force =    -0.15650764    0.00002819    0.17823000
     atom   15 type  1   force =     0.15650373   -0.00002791   -0.17822198
     atom   16 type  1   force =     0.16041887   -0.00045673    0.31376086
     atom   17 type  2   force =     0.14365734    0.00002412    0.85260370
     atom   18 type  2   force =    -0.62567988    0.00056635   -0.77628039
     atom   19 type  3   force =    -0.05437119   -0.00021187    0.33545016
     atom   20 type  3   force =     0.05430971    0.00021215   -0.33544713
     atom   21 type  2   force =     0.62562046   -0.00056668    0.77629423
     atom   22 type  2   force =    -0.14358270   -0.00002380   -0.85260902
     The local contribution  to forces
     atom    1 type  1   force =    -0.00014585    0.00000110   -0.00008525
     atom    2 type  1   force =     0.14720854   -0.00048698    0.31415940
     atom    3 type  1   force =     0.14818080   -0.00006107   -0.18811394
     atom    4 type  1   force =    -0.14816373    0.00006116    0.18810149
     atom    5 type  1   force =    -0.14724999    0.00048755   -0.31412432
     atom    6 type  2   force =    -0.12446552    0.00001872   -0.80397838
     atom    7 type  2   force =     0.61047360   -0.00057945    0.75696917
     atom    8 type  3   force =     0.04828204    0.00017446   -0.32585905
     atom    9 type  3   force =    -0.04821700   -0.00017474    0.32585167
     atom   10 type  2   force =    -0.61041205    0.00057957   -0.75698584
     atom   11 type  2   force =     0.12438769   -0.00001900    0.80398797
     atom   12 type  1   force =     0.00011777   -0.00000118    0.00008463
     atom   13 type  1   force =     0.14746244   -0.00047795    0.31420107
     atom   14 type  1   force =     0.14835257   -0.00005606   -0.18827903
     atom   15 type  1   force =    -0.14833765    0.00005537    0.18826613
     atom   16 type  1   force =    -0.14750505    0.00047857   -0.31416670
     atom   17 type  2   force =    -0.12380550    0.00001203   -0.80412100
     atom   18 type  2   force =     0.61084960   -0.00058629    0.75742260
     atom   19 type  3   force =     0.04845100    0.00016844   -0.32601176
     atom   20 type  3   force =    -0.04838813   -0.00016892    0.32600615
     atom   21 type  2   force =    -0.61079290    0.00058687   -0.75743925
     atom   22 type  2   force =     0.12372819   -0.00001227    0.80413123
     The core correction contribution to forces
     atom    1 type  1   force =    -0.00000202    0.00000007   -0.00000193
     atom    2 type  1   force =    -0.00170364   -0.00000490    0.00056420
     atom    3 type  1   force =    -0.00071192   -0.00000546   -0.00156684
     atom    4 type  1   force =     0.00071395    0.00000548    0.00156589
     atom    5 type  1   force =     0.00170309    0.00000492   -0.00056196
     atom    6 type  2   force =     0.00213178    0.00000588    0.00537637
     atom    7 type  2   force =    -0.00162150   -0.00000715   -0.00203174
     atom    8 type  3   force =    -0.00062493   -0.00000685    0.00092309
     atom    9 type  3   force =     0.00062508    0.00000684   -0.00092414
     atom   10 type  2   force =     0.00162889    0.00000722    0.00202848
     atom   11 type  2   force =    -0.00214667   -0.00000583   -0.00537430
     atom   12 type  1   force =     0.00000155   -0.00000007    0.00000283
     atom   13 type  1   force =    -0.00170577   -0.00000455    0.00056337
     atom   14 type  1   force =    -0.00071482   -0.00000526   -0.00157089
     atom   15 type  1   force =     0.00071676    0.00000522    0.00156996
     atom   16 type  1   force =     0.00170517    0.00000456   -0.00056115
     atom   17 type  2   force =     0.00213605    0.00000574    0.00537155
     atom   18 type  2   force =    -0.00161094   -0.00000728   -0.00202438
     atom   19 type  3   force =    -0.00061958   -0.00000703    0.00092549
     atom   20 type  3   force =     0.00061968    0.00000701   -0.00092640
     atom   21 type  2   force =     0.00161786    0.00000736    0.00202111
     atom   22 type  2   force =    -0.00215091   -0.00000567   -0.00536948
     The Hubbard contrib.    to forces
     atom    1 type  1   force =     0.00000000    0.00000000    0.00000000
     atom    2 type  1   force =     0.00000000    0.00000000    0.00000000
     atom    3 type  1   force =     0.00000000    0.00000000    0.00000000
     atom    4 type  1   force =     0.00000000    0.00000000    0.00000000
     atom    5 type  1   force =     0.00000000    0.00000000    0.00000000
     atom    6 type  2   force =     0.00000000    0.00000000    0.00000000
     atom    7 type  2   force =     0.00000000    0.00000000    0.00000000
     atom    8 type  3   force =     0.00000000    0.00000000    0.00000000
     atom    9 type  3   force =     0.00000000    0.00000000    0.00000000
     atom   10 type  2   force =     0.00000000    0.00000000    0.00000000
     atom   11 type  2   force =     0.00000000    0.00000000    0.00000000
     atom   12 type  1   force =     0.00000000    0.00000000    0.00000000
     atom   13 type  1   force =     0.00000000    0.00000000    0.00000000
     atom   14 type  1   force =     0.00000000    0.00000000    0.00000000
     atom   15 type  1   force =     0.00000000    0.00000000    0.00000000
     atom   16 type  1   force =     0.00000000    0.00000000    0.00000000
     atom   17 type  2   force =     0.00000000    0.00000000    0.00000000
     atom   18 type  2   force =     0.00000000    0.00000000    0.00000000
     atom   19 type  3   force =     0.00000000    0.00000000    0.00000000
     atom   20 type  3   force =     0.00000000    0.00000000    0.00000000
     atom   21 type  2   force =     0.00000000    0.00000000    0.00000000
     atom   22 type  2   force =     0.00000000    0.00000000    0.00000000
     The SCF correction term to forces
     atom    1 type  1   force =    -0.00000001    0.00000000   -0.00000000
     atom    2 type  1   force =     0.00000000   -0.00000000    0.00000005
     atom    3 type  1   force =     0.00000000   -0.00000000   -0.00000003
     atom    4 type  1   force =     0.00000000    0.00000000    0.00000004
     atom    5 type  1   force =     0.00000000    0.00000000   -0.00000006
     atom    6 type  2   force =    -0.00000004    0.00000000   -0.00000012
     atom    7 type  2   force =     0.00000005    0.00000001    0.00000010
     atom    8 type  3   force =    -0.00000003    0.00000001   -0.00000004
     atom    9 type  3   force =     0.00000003   -0.00000001    0.00000003
     atom   10 type  2   force =    -0.00000005   -0.00000001   -0.00000010
     atom   11 type  2   force =     0.00000005   -0.00000000    0.00000013
     atom   12 type  1   force =     0.00000001    0.00000000   -0.00000000
     atom   13 type  1   force =     0.00000002   -0.00000000    0.00000006
     atom   14 type  1   force =     0.00000001   -0.00000000   -0.00000004
     atom   15 type  1   force =    -0.00000001    0.00000000    0.00000003
     atom   16 type  1   force =    -0.00000003    0.00000000   -0.00000005
     atom   17 type  2   force =    -0.00000001    0.00000000   -0.00000013
     atom   18 type  2   force =     0.00000008    0.00000000    0.00000010
     atom   19 type  3   force =    -0.00000001    0.00000000   -0.00000004
     atom   20 type  3   force =     0.00000002   -0.00000000    0.00000004
     atom   21 type  2   force =    -0.00000007   -0.00000001   -0.00000010
     atom   22 type  2   force =    -0.00000001   -0.00000000    0.00000012

     Total force =     0.003894     Total SCF correction =     0.000000


     Computing stress (Cartesian axis) and pressure

          total   stress  (Ry/bohr**3)                   (kbar)     P=   -3.25
  -0.00001425  -0.00000054  -0.00000441         -2.10     -0.08     -0.65
  -0.00000054  -0.00001137  -0.00000174         -0.08     -1.67     -0.26
  -0.00000441  -0.00000174  -0.00004059         -0.65     -0.26     -5.97

     kinetic stress (kbar)   1353.47     -0.03    -14.80
                               -0.03   1371.51      0.02
                              -14.80      0.02   1354.30

     local   stress (kbar)    -94.30      0.10    -56.92
                                0.10     58.11      0.21
                              -56.92      0.21    151.98

     nonloc. stress (kbar)   1078.86     -0.10     -0.12
                               -0.10   1066.64     -0.31
                               -0.12     -0.31   1073.91

     hartree stress (kbar)    181.74      0.07      2.98
                                0.07    167.20      0.28
                                2.98      0.28     92.92

     exc-cor stress (kbar)   1447.06     -0.00      0.09
                               -0.00   1446.41     -0.01
                                0.09     -0.01   1446.64

     corecor stress (kbar)  -2144.22      0.01      0.27
                                0.01  -2142.56      0.05
                                0.27      0.05  -2143.41

     ewald   stress (kbar)  -1824.71     -0.13     67.86
                               -0.13  -1968.97     -0.49
                               67.86     -0.49  -1982.31

     hubbard stress (kbar)      0.00      0.00      0.00
                                0.00      0.00      0.00
                                0.00      0.00      0.00

     london  stress (kbar)      0.00      0.00      0.00
                                0.00      0.00      0.00
                                0.00      0.00      0.00

     DFT-D3  stress (kbar)      0.00      0.00      0.00
                                0.00      0.00      0.00
                                0.00      0.00      0.00

     XDM     stress (kbar)      0.00      0.00      0.00
                                0.00      0.00      0.00
                                0.00      0.00      0.00

     dft-nl  stress (kbar)      0.00      0.00      0.00
                                0.00      0.00      0.00
                                0.00      0.00      0.00

     TS-vdW  stress (kbar)      0.00      0.00      0.00
                                0.00      0.00      0.00
                                0.00      0.00      0.00



     Writing output data file aiida.save/
 
     init_run     :     23.92s CPU     24.33s WALL (       1 calls)
     electrons    :    807.17s CPU    820.15s WALL (       1 calls)
     forces       :      9.45s CPU      9.55s WALL (       1 calls)
     stress       :     65.59s CPU     66.53s WALL (       1 calls)

     Called by init_run:
     wfcinit      :     21.16s CPU     21.50s WALL (       1 calls)
     wfcinit:atom :      0.17s CPU      0.19s WALL (     196 calls)
     wfcinit:wfcr :     19.65s CPU     19.89s WALL (     196 calls)
     potinit      :      0.95s CPU      0.96s WALL (       1 calls)
     hinit0       :      1.62s CPU      1.64s WALL (       1 calls)

     Called by electrons:
     c_bands      :    721.86s CPU    731.81s WALL (      18 calls)
     sum_band     :     78.89s CPU     80.93s WALL (      18 calls)
     v_of_rho     :      1.72s CPU      1.86s WALL (      19 calls)
     v_h          :      0.13s CPU      0.14s WALL (      19 calls)
     v_xc         :      1.73s CPU      1.88s WALL (      21 calls)
     newd         :      1.67s CPU      2.43s WALL (      19 calls)
     PAW_pot      :      2.41s CPU      2.43s WALL (      19 calls)
     mix_rho      :      0.61s CPU      0.66s WALL (      18 calls)

     Called by c_bands:
     init_us_2    :     24.45s CPU     24.76s WALL (    7644 calls)
     cegterg      :    560.74s CPU    568.29s WALL (    3528 calls)

     Called by sum_band:
     sum_band:bec :      0.46s CPU      0.46s WALL (    3528 calls)
     addusdens    :      1.45s CPU      2.37s WALL (      18 calls)

     Called by *egterg:
     h_psi        :    385.80s CPU    391.92s WALL (   16644 calls)
     s_psi        :     55.52s CPU     55.68s WALL (   16644 calls)
     g_psi        :      2.73s CPU      2.76s WALL (   12920 calls)
     cdiaghg      :     60.01s CPU     60.95s WALL (   16448 calls)
     cegterg:over :     29.59s CPU     29.79s WALL (   12920 calls)
     cegterg:upda :     23.25s CPU     23.52s WALL (   12920 calls)
     cegterg:last :      9.54s CPU      9.60s WALL (    4021 calls)
     cdiaghg:chol :      3.76s CPU      3.80s WALL (   16448 calls)
     cdiaghg:inve :      0.80s CPU      0.81s WALL (   16448 calls)
     cdiaghg:para :      7.70s CPU      7.77s WALL (   32896 calls)

     Called by h_psi:
     h_psi:pot    :    383.67s CPU    389.77s WALL (   16644 calls)
     h_psi:calbec :     56.02s CPU     56.68s WALL (   16644 calls)
     vloc_psi     :    271.47s CPU    276.78s WALL (   16644 calls)
     add_vuspsi   :     56.01s CPU     56.19s WALL (   16644 calls)

     General routines
     calbec       :    106.66s CPU    108.40s WALL (   21152 calls)
     fft          :      1.49s CPU      1.58s WALL (     271 calls)
     ffts         :      0.20s CPU      0.21s WALL (     292 calls)
     fftw         :    287.16s CPU    292.65s WALL (  939002 calls)
     interpolate  :      0.15s CPU      0.15s WALL (      19 calls)
 
     Parallel routines
     fft_scatt_xy :     36.13s CPU     36.83s WALL (  939565 calls)
     fft_scatt_yz :    112.34s CPU    114.65s WALL (  939565 calls)

     PAW routines
     PAW_pot      :      2.41s CPU      2.43s WALL (      19 calls)
 
     PWSCF        :  15m29.99s CPU  16m 5.68s WALL

 
   This run was terminated on:  14:28:46  22Feb2020            

=------------------------------------------------------------------------------=
   JOB DONE.
=------------------------------------------------------------------------------=
