begin
comment 22 atoms, species Al4Mg10Si8
lattice     27.8548472421     0.0000000000    -7.9742232972
lattice      0.0000000000     7.6615092262     0.0000000000
lattice      0.0139363910     0.0000000000    12.9163978497
atom      0.0532769975     0.0000000000    12.7563959119   Mg  0.0 0.0   -1.76499987e-06  1.49999989e-08 -4.09499969e-06
atom      2.1174535275     3.8307546131     3.8853701995   Mg  0.0 0.0   -4.21439968e-04 -6.49999951e-08  7.12499946e-05
atom      4.3626350926     3.8307546131    10.4037737540   Mg  0.0 0.0   -6.28974953e-04  1.49999989e-08 -2.38474982e-04
atom      9.6573163137     0.0000000000    -1.7960502181   Mg  0.0 0.0    6.28734953e-04  0.00000000e+00  2.38689982e-04
atom     11.9024689050     0.0000000000     4.7224083866   Mg  0.0 0.0    4.21294968e-04  1.49999989e-08 -7.14749946e-05
atom      1.6571209148     0.0000000000     7.8797571657   Si  0.0 0.0   -2.67824980e-04 -5.49999959e-08 -2.80764979e-04
atom      5.2142760678     0.0000000000     1.2327824363   Si  0.0 0.0    1.08799992e-04 -9.49999929e-08  1.29749990e-04
atom      6.0864681494     0.0000000000     6.0833621596   Al  0.0 0.0   -2.94359978e-04  4.49999966e-08 -2.29829983e-04
atom      7.9334397962     3.8307546131     2.5243961449   Al  0.0 0.0    2.94274978e-04  9.99999925e-09  2.30104983e-04
atom      8.8056898253     3.8307546131     7.3749497917   Si  0.0 0.0   -1.09274992e-04  3.99999970e-08 -1.29834990e-04
atom     12.3627493649     3.8307546131     0.7280069335   Si  0.0 0.0    2.67799980e-04 -8.99999932e-08  2.80629979e-04
atom     13.9805644417     3.8307546131     8.7677689344   Mg  0.0 0.0    3.53499973e-06 -9.99999925e-09  4.11499969e-06
atom     16.0445526421     0.0000000000    -0.1034856710   Mg  0.0 0.0   -4.14639969e-04  3.99999970e-08  8.15499939e-05
atom     18.2896994387     0.0000000000     6.4159522477   Mg  0.0 0.0   -6.27729953e-04  4.99999962e-09 -2.36059982e-04
atom     23.5850876201     3.8307546131    -5.7824578037   Mg  0.0 0.0    6.27509953e-04 -2.49999981e-08  2.36314982e-04
atom     25.8302083403     3.8307546131     0.7370351652   Mg  0.0 0.0    4.14559969e-04  9.99999925e-09 -8.18949938e-05
atom     15.5843706932     3.8307546131     3.8912576728   Si  0.0 0.0   -2.62494980e-04  4.49999966e-08 -2.75854979e-04
atom     19.1418503526     3.8307546131    -2.7548275614   Si  0.0 0.0    1.01419992e-04 -3.99999970e-08  1.25694991e-04
atom     20.0140511263     3.8307546131     2.0958216989   Al  0.0 0.0   -3.04874977e-04 -7.99999940e-08 -2.25919983e-04
atom     21.8606953693     0.0000000000    -1.4622924864   Al  0.0 0.0    3.04749977e-04  1.99999985e-08  2.26129983e-04
atom     22.7329482958     0.0000000000     3.3883306975   Si  0.0 0.0   -1.01734992e-04  1.09999992e-07 -1.25784991e-04
atom     26.2903352391     0.0000000000    -3.2577226655   Si  0.0 0.0    2.62429980e-04  8.99999932e-08  2.75759979e-04
energy -2.928222731390804e+02
charge 0.0000
end
