begin
comment 484 atoms, species Al484
lattice     84.3328076478     0.0000000000     0.0000000000
lattice      0.0000000000     7.6666112104     0.0000000000
lattice      0.0000000000     0.0000000000    84.3328076478
atom      0.0000000000     0.0000000000     0.0000000000   Al  0.0 0.0    1.69999987e-07  1.49999989e-08 -1.44999989e-07
atom      3.8333056052     3.8333056052     0.0000000000   Al  0.0 0.0   -2.44999982e-07  1.99999985e-08 -4.99999962e-09
atom      3.8333056052     0.0000000000     3.8333056052   Al  0.0 0.0    1.04999992e-07 -2.49999981e-08  1.59999988e-07
atom      0.0000000000     3.8333056052     3.8333056052   Al  0.0 0.0   -3.49999974e-08  1.49999989e-08  2.99999977e-08
atom      0.0000000000     0.0000000000     7.6666196437   Al  0.0 0.0   -3.49999974e-08  1.99999985e-08  9.99999925e-08
atom      3.8333056052     3.8333056052     7.6666196437   Al  0.0 0.0   -3.99999970e-08 -2.99999977e-08 -9.99999925e-08
atom      3.8333056052     0.0000000000    11.4999252490   Al  0.0 0.0   -1.29999990e-07  0.00000000e+00  2.04999985e-07
atom      0.0000000000     3.8333056052    11.4999252490   Al  0.0 0.0    1.14999991e-07 -9.99999925e-09 -3.49999974e-08
atom      0.0000000000     0.0000000000    15.3332392875   Al  0.0 0.0    3.49999974e-08  0.00000000e+00  3.49999974e-08
atom      3.8333056052     3.8333056052    15.3332392875   Al  0.0 0.0    1.99999985e-08 -1.99999985e-08  1.74999987e-07
atom      3.8333056052     0.0000000000    19.1665448927   Al  0.0 0.0    1.09999992e-07 -1.99999985e-08 -2.14999984e-07
atom      0.0000000000     3.8333056052    19.1665448927   Al  0.0 0.0   -4.99999962e-09  1.49999989e-08 -3.54999973e-07
atom      0.0000000000     0.0000000000    22.9998589312   Al  0.0 0.0    1.49999989e-08 -3.99999970e-08 -2.49999981e-08
atom      3.8333056052     3.8333056052    22.9998589312   Al  0.0 0.0   -1.39999989e-07  3.49999974e-08 -1.44999989e-07
atom      3.8333056052     0.0000000000    26.8331645364   Al  0.0 0.0   -1.44999989e-07 -4.99999962e-09  1.49999989e-08
atom      0.0000000000     3.8333056052    26.8331645364   Al  0.0 0.0    1.19999991e-07  4.99999962e-09 -9.49999929e-08
atom      0.0000000000     0.0000000000    30.6664785749   Al  0.0 0.0   -2.29999983e-07 -9.99999925e-09  9.49999929e-08
atom      3.8333056052     3.8333056052    30.6664785749   Al  0.0 0.0    4.99999962e-09  2.49999981e-08  3.49999974e-08
atom      3.8333056052     0.0000000000    34.4997841801   Al  0.0 0.0   -2.19999983e-07 -0.00000000e+00 -1.34999990e-07
atom      0.0000000000     3.8333056052    34.4997841801   Al  0.0 0.0   -1.69999987e-07 -2.99999977e-08  4.99999962e-09
atom      0.0000000000     0.0000000000    38.3330982187   Al  0.0 0.0    9.99999925e-08  1.49999989e-08 -1.09999992e-07
atom      3.8333056052     3.8333056052    38.3330982187   Al  0.0 0.0   -4.19999968e-07  9.99999925e-09  1.94999985e-07
atom      3.8333056052     0.0000000000    42.1664038239   Al  0.0 0.0   -1.19999991e-07 -3.49999974e-08  1.54999988e-07
atom      0.0000000000     3.8333056052    42.1664038239   Al  0.0 0.0    2.19999983e-07  0.00000000e+00  1.04999992e-07
atom      0.0000000000     0.0000000000    45.9997094291   Al  0.0 0.0    1.19999991e-07  1.99999985e-08 -4.99999962e-08
atom      3.8333056052     3.8333056052    45.9997094291   Al  0.0 0.0   -1.24999991e-07  9.99999925e-09 -3.14999976e-07
atom      3.8333056052     0.0000000000    49.8330234676   Al  0.0 0.0   -2.04999985e-07 -1.49999989e-08 -4.99999962e-09
atom      0.0000000000     3.8333056052    49.8330234676   Al  0.0 0.0   -7.49999944e-08 -9.99999925e-09  1.44999989e-07
atom      0.0000000000     0.0000000000    53.6663290728   Al  0.0 0.0    1.84999986e-07  4.99999962e-08 -2.19999983e-07
atom      3.8333056052     3.8333056052    53.6663290728   Al  0.0 0.0   -2.94999978e-07 -1.99999985e-08 -9.99999925e-08
atom      3.8333056052     0.0000000000    57.4996431113   Al  0.0 0.0   -1.29999990e-07  4.99999962e-09 -2.99999977e-08
atom      0.0000000000     3.8333056052    57.4996431113   Al  0.0 0.0    2.04999985e-07 -2.49999981e-08 -7.99999940e-08
atom      0.0000000000     0.0000000000    61.3329487166   Al  0.0 0.0   -1.24999991e-07  0.00000000e+00  3.29999975e-07
atom      3.8333056052     3.8333056052    61.3329487166   Al  0.0 0.0   -2.99999977e-08 -4.99999962e-09  7.99999940e-08
atom      3.8333056052     0.0000000000    65.1662627551   Al  0.0 0.0   -2.39999982e-07  4.99999962e-09 -1.49999989e-07
atom      0.0000000000     3.8333056052    65.1662627551   Al  0.0 0.0   -1.29999990e-07 -1.99999985e-08 -2.09999984e-07
atom      0.0000000000     0.0000000000    68.9995683603   Al  0.0 0.0    4.99999962e-08 -2.49999981e-08  1.59999988e-07
atom      3.8333056052     3.8333056052    68.9995683603   Al  0.0 0.0   -4.09999969e-07  3.99999970e-08  3.54999973e-07
atom      3.8333056052     0.0000000000    72.8328823988   Al  0.0 0.0   -1.49999989e-08 -3.49999974e-08  9.49999929e-08
atom      0.0000000000     3.8333056052    72.8328823988   Al  0.0 0.0    3.59999973e-07  1.49999989e-08 -3.99999970e-08
atom      0.0000000000     0.0000000000    76.6661880040   Al  0.0 0.0   -9.99999925e-09 -1.99999985e-08 -6.99999947e-08
atom      3.8333056052     3.8333056052    76.6661880040   Al  0.0 0.0   -4.99999962e-09  6.99999947e-08 -3.44999974e-07
atom      3.8333056052     0.0000000000    80.4995020425   Al  0.0 0.0   -2.34999982e-07 -1.99999985e-08  5.99999955e-08
atom      0.0000000000     3.8333056052    80.4995020425   Al  0.0 0.0   -8.99999932e-08  4.99999962e-09  4.19999968e-07
atom      7.6666196437     0.0000000000     0.0000000000   Al  0.0 0.0   -2.19999983e-07  1.99999985e-08  2.49999981e-07
atom     11.4999252490     3.8333056052     0.0000000000   Al  0.0 0.0    4.09999969e-07 -2.49999981e-08 -2.29999983e-07
atom     11.4999252490     0.0000000000     3.8333056052   Al  0.0 0.0   -1.99999985e-08  3.99999970e-08  1.29999990e-07
atom      7.6666196437     3.8333056052     3.8333056052   Al  0.0 0.0   -3.74999972e-07 -1.49999989e-08  4.34999967e-07
atom      7.6666196437     0.0000000000     7.6666196437   Al  0.0 0.0   -0.00000000e+00  3.99999970e-08 -2.39999982e-07
atom     11.4999252490     3.8333056052     7.6666196437   Al  0.0 0.0    1.99999985e-08 -5.49999959e-08 -9.99999925e-09
atom     11.4999252490     0.0000000000    11.4999252490   Al  0.0 0.0    2.94999978e-07  3.99999970e-08 -7.49999944e-08
atom      7.6666196437     3.8333056052    11.4999252490   Al  0.0 0.0   -2.24999983e-07 -3.99999970e-08 -3.49999974e-08
atom      7.6666196437     0.0000000000    15.3332392875   Al  0.0 0.0   -3.14999976e-07  4.99999962e-09  2.84999979e-07
atom     11.4999252490     3.8333056052    15.3332392875   Al  0.0 0.0    2.49999981e-08 -4.99999962e-09 -9.99999925e-09
atom     11.4999252490     0.0000000000    19.1665448927   Al  0.0 0.0    9.99999925e-08 -3.99999970e-08 -2.49999981e-08
atom      7.6666196437     3.8333056052    19.1665448927   Al  0.0 0.0   -1.29999990e-07  9.99999925e-09 -3.14999976e-07
atom      7.6666196437     0.0000000000    22.9998589312   Al  0.0 0.0   -1.09999992e-07 -1.49999989e-08 -2.69999980e-07
atom     11.4999252490     3.8333056052    22.9998589312   Al  0.0 0.0    2.29999983e-07  3.99999970e-08 -1.49999989e-07
atom     11.4999252490     0.0000000000    26.8331645364   Al  0.0 0.0    1.89999986e-07 -2.99999977e-08 -4.99999962e-08
atom      7.6666196437     3.8333056052    26.8331645364   Al  0.0 0.0   -9.99999925e-08  0.00000000e+00  5.99999955e-08
atom      7.6666196437     0.0000000000    30.6664785749   Al  0.0 0.0    3.49999974e-08  9.99999925e-09  1.94999985e-07
atom     11.4999252490     3.8333056052    30.6664785749   Al  0.0 0.0    1.44999989e-07  1.99999985e-08  2.04999985e-07
atom     11.4999252490     0.0000000000    34.4997841801   Al  0.0 0.0    2.44999982e-07  1.49999989e-08 -2.94999978e-07
atom      7.6666196437     3.8333056052    34.4997841801   Al  0.0 0.0    1.14999991e-07 -1.99999985e-08 -5.19999961e-07
atom      7.6666196437     0.0000000000    38.3330982187   Al  0.0 0.0   -6.49999951e-08  1.49999989e-08  1.84999986e-07
atom     11.4999252490     3.8333056052    38.3330982187   Al  0.0 0.0    2.09999984e-07 -2.49999981e-08 -8.99999932e-08
atom     11.4999252490     0.0000000000    42.1664038239   Al  0.0 0.0    7.99999940e-08  4.99999962e-09  1.29999990e-07
atom      7.6666196437     3.8333056052    42.1664038239   Al  0.0 0.0   -1.94999985e-07 -4.99999962e-09  1.39999989e-07
atom      7.6666196437     0.0000000000    45.9997094291   Al  0.0 0.0    2.49999981e-08 -4.99999962e-09 -1.64999988e-07
atom     11.4999252490     3.8333056052    45.9997094291   Al  0.0 0.0   -3.99999970e-08 -1.99999985e-08  3.99999970e-08
atom     11.4999252490     0.0000000000    49.8330234676   Al  0.0 0.0   -3.99999970e-08  9.99999925e-09  1.34999990e-07
atom      7.6666196437     3.8333056052    49.8330234676   Al  0.0 0.0    2.69999980e-07 -9.99999925e-09 -3.49999974e-08
atom      7.6666196437     0.0000000000    53.6663290728   Al  0.0 0.0    1.44999989e-07  1.99999985e-08 -3.04999977e-07
atom     11.4999252490     3.8333056052    53.6663290728   Al  0.0 0.0    3.49999974e-08 -4.99999962e-08 -4.29999968e-07
atom     11.4999252490     0.0000000000    57.4996431113   Al  0.0 0.0    2.49999981e-08  1.49999989e-08  1.64999988e-07
atom      7.6666196437     3.8333056052    57.4996431113   Al  0.0 0.0   -1.64999988e-07 -1.49999989e-08  1.69999987e-07
atom      7.6666196437     0.0000000000    61.3329487166   Al  0.0 0.0    2.39999982e-07 -0.00000000e+00  2.19999983e-07
atom     11.4999252490     3.8333056052    61.3329487166   Al  0.0 0.0   -1.99999985e-07  9.99999925e-09  3.89999971e-07
atom     11.4999252490     0.0000000000    65.1662627551   Al  0.0 0.0    4.49999966e-08  4.99999962e-09 -3.34999975e-07
atom      7.6666196437     3.8333056052    65.1662627551   Al  0.0 0.0    3.24999976e-07  0.00000000e+00 -4.69999965e-07
atom      7.6666196437     0.0000000000    68.9995683603   Al  0.0 0.0   -2.39999982e-07 -1.49999989e-08  2.79999979e-07
atom     11.4999252490     3.8333056052    68.9995683603   Al  0.0 0.0    3.19999976e-07  3.99999970e-08  1.49999989e-07
atom     11.4999252490     0.0000000000    72.8328823988   Al  0.0 0.0    1.84999986e-07 -2.49999981e-08  2.24999983e-07
atom      7.6666196437     3.8333056052    72.8328823988   Al  0.0 0.0   -2.39999982e-07  3.49999974e-08  3.64999973e-07
atom      7.6666196437     0.0000000000    76.6661880040   Al  0.0 0.0   -3.49999974e-08 -1.99999985e-08 -9.99999925e-09
atom     11.4999252490     3.8333056052    76.6661880040   Al  0.0 0.0   -1.04999992e-07  3.49999974e-08  5.99999955e-08
atom     11.4999252490     0.0000000000    80.4995020425   Al  0.0 0.0    3.94999970e-07  0.00000000e+00  6.49999951e-08
atom      7.6666196437     3.8333056052    80.4995020425   Al  0.0 0.0   -4.99999962e-08  1.49999989e-08 -1.94999985e-07
atom     15.3332392875     0.0000000000     0.0000000000   Al  0.0 0.0   -6.99999947e-08  2.49999981e-08 -1.59999988e-07
atom     19.1665448927     3.8333056052     0.0000000000   Al  0.0 0.0   -3.09999977e-07 -6.49999951e-08  1.29999990e-07
atom     19.1665448927     0.0000000000     3.8333056052   Al  0.0 0.0    4.99999962e-08  6.49999951e-08  1.94999985e-07
atom     15.3332392875     3.8333056052     3.8333056052   Al  0.0 0.0    3.49999974e-08 -4.99999962e-08 -9.99999925e-09
atom     15.3332392875     0.0000000000     7.6666196437   Al  0.0 0.0   -2.49999981e-08  5.49999959e-08  1.44999989e-07
atom     19.1665448927     3.8333056052     7.6666196437   Al  0.0 0.0    1.54999988e-07 -7.49999944e-08 -1.74999987e-07
atom     19.1665448927     0.0000000000    11.4999252490   Al  0.0 0.0   -3.04999977e-07  5.99999955e-08 -1.49999989e-08
atom     15.3332392875     3.8333056052    11.4999252490   Al  0.0 0.0   -2.89999978e-07 -2.99999977e-08  1.94999985e-07
atom     15.3332392875     0.0000000000    15.3332392875   Al  0.0 0.0   -7.99999940e-08  1.49999989e-08 -4.99999962e-08
atom     19.1665448927     3.8333056052    15.3332392875   Al  0.0 0.0   -2.09999984e-07 -4.99999962e-09  4.49999966e-07
atom     19.1665448927     0.0000000000    19.1665448927   Al  0.0 0.0    9.99999925e-08 -1.49999989e-08 -8.49999936e-08
atom     15.3332392875     3.8333056052    19.1665448927   Al  0.0 0.0    8.49999936e-08  3.49999974e-08  4.99999962e-09
atom     15.3332392875     0.0000000000    22.9998589312   Al  0.0 0.0   -1.59999988e-07 -2.49999981e-08 -2.24999983e-07
atom     19.1665448927     3.8333056052    22.9998589312   Al  0.0 0.0   -7.49999944e-08  2.49999981e-08 -3.64999973e-07
atom     19.1665448927     0.0000000000    26.8331645364   Al  0.0 0.0   -1.29999990e-07 -0.00000000e+00  1.59999988e-07
atom     15.3332392875     3.8333056052    26.8331645364   Al  0.0 0.0   -1.99999985e-07  1.49999989e-08 -1.19999991e-07
atom     15.3332392875     0.0000000000    30.6664785749   Al  0.0 0.0   -1.49999989e-08  4.99999962e-09  1.79999986e-07
atom     19.1665448927     3.8333056052    30.6664785749   Al  0.0 0.0    2.49999981e-08 -1.99999985e-08  1.09999992e-07
atom     19.1665448927     0.0000000000    34.4997841801   Al  0.0 0.0    3.99999970e-08  2.99999977e-08 -3.99999970e-07
atom     15.3332392875     3.8333056052    34.4997841801   Al  0.0 0.0   -1.89999986e-07 -2.49999981e-08 -3.19999976e-07
atom     15.3332392875     0.0000000000    38.3330982187   Al  0.0 0.0   -2.79999979e-07  1.99999985e-08  2.04999985e-07
atom     19.1665448927     3.8333056052    38.3330982187   Al  0.0 0.0    2.49999981e-08 -4.99999962e-08  1.84999986e-07
atom     19.1665448927     0.0000000000    42.1664038239   Al  0.0 0.0   -1.14999991e-07  3.49999974e-08 -5.99999955e-08
atom     15.3332392875     3.8333056052    42.1664038239   Al  0.0 0.0   -4.49999966e-08 -1.49999989e-08  1.49999989e-08
atom     15.3332392875     0.0000000000    45.9997094291   Al  0.0 0.0   -2.19999983e-07  4.99999962e-09 -1.59999988e-07
atom     19.1665448927     3.8333056052    45.9997094291   Al  0.0 0.0    6.49999951e-08 -3.99999970e-08 -4.59999965e-07
atom     19.1665448927     0.0000000000    49.8330234676   Al  0.0 0.0   -5.49999959e-08  4.49999966e-08  2.59999980e-07
atom     15.3332392875     3.8333056052    49.8330234676   Al  0.0 0.0   -4.59999965e-07 -2.49999981e-08  1.94999985e-07
atom     15.3332392875     0.0000000000    53.6663290728   Al  0.0 0.0   -2.09999984e-07  4.49999966e-08 -2.89999978e-07
atom     19.1665448927     3.8333056052    53.6663290728   Al  0.0 0.0    9.99999925e-09 -5.99999955e-08 -3.99999970e-08
atom     19.1665448927     0.0000000000    57.4996431113   Al  0.0 0.0    2.49999981e-08  4.49999966e-08  4.49999966e-08
atom     15.3332392875     3.8333056052    57.4996431113   Al  0.0 0.0    0.00000000e+00 -4.49999966e-08 -2.49999981e-08
atom     15.3332392875     0.0000000000    61.3329487166   Al  0.0 0.0   -1.84999986e-07  4.49999966e-08 -9.99999925e-09
atom     19.1665448927     3.8333056052    61.3329487166   Al  0.0 0.0    4.04999970e-07 -4.99999962e-08  4.99999962e-08
atom     19.1665448927     0.0000000000    65.1662627551   Al  0.0 0.0    2.54999981e-07  5.49999959e-08 -3.49999974e-08
atom     15.3332392875     3.8333056052    65.1662627551   Al  0.0 0.0   -3.69999972e-07 -2.99999977e-08  6.49999951e-08
atom     15.3332392875     0.0000000000    68.9995683603   Al  0.0 0.0   -6.99999947e-08  2.99999977e-08  2.94999978e-07
atom     19.1665448927     3.8333056052    68.9995683603   Al  0.0 0.0   -1.89999986e-07 -3.49999974e-08  2.49999981e-07
atom     19.1665448927     0.0000000000    72.8328823988   Al  0.0 0.0    7.49999944e-08  1.49999989e-08 -2.99999977e-08
atom     15.3332392875     3.8333056052    72.8328823988   Al  0.0 0.0   -4.99999962e-09 -4.99999962e-09 -2.39999982e-07
atom     15.3332392875     0.0000000000    76.6661880040   Al  0.0 0.0   -2.24999983e-07 -1.49999989e-08  8.49999936e-08
atom     19.1665448927     3.8333056052    76.6661880040   Al  0.0 0.0    2.09999984e-07 -9.99999925e-09 -1.84999986e-07
atom     19.1665448927     0.0000000000    80.4995020425   Al  0.0 0.0   -2.94999978e-07  3.49999974e-08  9.99999925e-09
atom     15.3332392875     3.8333056052    80.4995020425   Al  0.0 0.0   -2.44999982e-07 -1.49999989e-08  2.24999983e-07
atom     22.9998589312     0.0000000000     0.0000000000   Al  0.0 0.0   -9.49999929e-08  3.49999974e-08  8.99999932e-08
atom     26.8331645364     3.8333056052     0.0000000000   Al  0.0 0.0    3.79999971e-07 -4.99999962e-08 -2.89999978e-07
atom     26.8331645364     0.0000000000     3.8333056052   Al  0.0 0.0   -1.49999989e-08  6.49999951e-08  4.99999962e-08
atom     22.9998589312     3.8333056052     3.8333056052   Al  0.0 0.0   -2.29999983e-07 -6.99999947e-08  3.09999977e-07
atom     22.9998589312     0.0000000000     7.6666196437   Al  0.0 0.0   -7.49999944e-08  9.49999929e-08 -2.14999984e-07
atom     26.8331645364     3.8333056052     7.6666196437   Al  0.0 0.0   -1.89999986e-07 -9.99999925e-08  3.84999971e-07
atom     26.8331645364     0.0000000000    11.4999252490   Al  0.0 0.0    1.84999986e-07  7.99999940e-08  7.49999944e-08
atom     22.9998589312     3.8333056052    11.4999252490   Al  0.0 0.0    2.24999983e-07 -6.99999947e-08 -1.39999989e-07
atom     22.9998589312     0.0000000000    15.3332392875   Al  0.0 0.0    8.49999936e-08  6.49999951e-08  2.19999983e-07
atom     26.8331645364     3.8333056052    15.3332392875   Al  0.0 0.0    3.59999973e-07 -3.99999970e-08 -7.49999944e-08
atom     26.8331645364     0.0000000000    19.1665448927   Al  0.0 0.0   -9.99999925e-09  2.99999977e-08  6.49999951e-08
atom     22.9998589312     3.8333056052    19.1665448927   Al  0.0 0.0   -1.34999990e-07 -1.49999989e-08  1.39999989e-07
atom     22.9998589312     0.0000000000    22.9998589312   Al  0.0 0.0    2.64999980e-07  2.99999977e-08 -3.99999970e-07
atom     26.8331645364     3.8333056052    22.9998589312   Al  0.0 0.0   -1.39999989e-07 -9.99999925e-09 -2.24999983e-07
atom     26.8331645364     0.0000000000    26.8331645364   Al  0.0 0.0    2.49999981e-07  4.99999962e-08 -1.39999989e-07
atom     22.9998589312     3.8333056052    26.8331645364   Al  0.0 0.0    8.49999936e-08 -3.49999974e-08  9.99999925e-09
atom     22.9998589312     0.0000000000    30.6664785749   Al  0.0 0.0   -1.04999992e-07  3.49999974e-08  3.19999976e-07
atom     26.8331645364     3.8333056052    30.6664785749   Al  0.0 0.0    1.49999989e-07 -5.49999959e-08  1.24999991e-07
atom     26.8331645364     0.0000000000    34.4997841801   Al  0.0 0.0    9.99999925e-09  6.99999947e-08 -2.09999984e-07
atom     22.9998589312     3.8333056052    34.4997841801   Al  0.0 0.0    6.99999947e-08 -4.99999962e-08 -3.54999973e-07
atom     22.9998589312     0.0000000000    38.3330982187   Al  0.0 0.0    2.49999981e-08  3.99999970e-08  1.59999988e-07
atom     26.8331645364     3.8333056052    38.3330982187   Al  0.0 0.0    5.49999959e-08 -7.49999944e-08 -4.49999966e-08
atom     26.8331645364     0.0000000000    42.1664038239   Al  0.0 0.0    2.09999984e-07  4.49999966e-08 -3.99999970e-08
atom     22.9998589312     3.8333056052    42.1664038239   Al  0.0 0.0   -1.89999986e-07 -3.99999970e-08 -1.64999988e-07
atom     22.9998589312     0.0000000000    45.9997094291   Al  0.0 0.0   -3.99999970e-08  4.99999962e-08 -8.99999932e-08
atom     26.8331645364     3.8333056052    45.9997094291   Al  0.0 0.0    2.14999984e-07 -5.49999959e-08 -7.99999940e-08
atom     26.8331645364     0.0000000000    49.8330234676   Al  0.0 0.0    4.99999962e-09  7.49999944e-08  1.99999985e-08
atom     22.9998589312     3.8333056052    49.8330234676   Al  0.0 0.0    1.34999990e-07 -5.99999955e-08  1.19999991e-07
atom     22.9998589312     0.0000000000    53.6663290728   Al  0.0 0.0   -1.64999988e-07  8.49999936e-08 -2.14999984e-07
atom     26.8331645364     3.8333056052    53.6663290728   Al  0.0 0.0    1.79999986e-07 -6.49999951e-08 -4.04999970e-07
atom     26.8331645364     0.0000000000    57.4996431113   Al  0.0 0.0    4.99999962e-09  5.99999955e-08  1.74999987e-07
atom     22.9998589312     3.8333056052    57.4996431113   Al  0.0 0.0   -2.34999982e-07 -6.49999951e-08  2.94999978e-07
atom     22.9998589312     0.0000000000    61.3329487166   Al  0.0 0.0    7.49999944e-08  8.99999932e-08  2.19999983e-07
atom     26.8331645364     3.8333056052    61.3329487166   Al  0.0 0.0   -2.29999983e-07 -5.49999959e-08  2.84999979e-07
atom     26.8331645364     0.0000000000    65.1662627551   Al  0.0 0.0   -0.00000000e+00  5.49999959e-08  9.99999925e-08
atom     22.9998589312     3.8333056052    65.1662627551   Al  0.0 0.0   -4.99999962e-09 -8.99999932e-08 -2.49999981e-07
atom     22.9998589312     0.0000000000    68.9995683603   Al  0.0 0.0    5.49999959e-08  5.49999959e-08  1.79999986e-07
atom     26.8331645364     3.8333056052    68.9995683603   Al  0.0 0.0    2.29999983e-07 -3.99999970e-08  4.99999962e-08
atom     26.8331645364     0.0000000000    72.8328823988   Al  0.0 0.0    2.04999985e-07  9.99999925e-09 -2.49999981e-08
atom     22.9998589312     3.8333056052    72.8328823988   Al  0.0 0.0   -2.24999983e-07 -2.99999977e-08  6.99999947e-08
atom     22.9998589312     0.0000000000    76.6661880040   Al  0.0 0.0   -2.49999981e-08 -9.99999925e-09 -8.49999936e-08
atom     26.8331645364     3.8333056052    76.6661880040   Al  0.0 0.0   -7.49999944e-08 -1.99999985e-08 -0.00000000e+00
atom     26.8331645364     0.0000000000    80.4995020425   Al  0.0 0.0    1.39999989e-07  2.99999977e-08  2.04999985e-07
atom     22.9998589312     3.8333056052    80.4995020425   Al  0.0 0.0    5.99999955e-08 -3.49999974e-08 -2.19999983e-07
atom     30.6664785749     0.0000000000     0.0000000000   Al  0.0 0.0    8.99999932e-08  4.49999966e-08 -7.49999944e-08
atom     34.4997841801     3.8333056052     0.0000000000   Al  0.0 0.0   -4.64999965e-07 -6.99999947e-08  2.24999983e-07
atom     34.4997841801     0.0000000000     3.8333056052   Al  0.0 0.0   -1.79999986e-07  8.49999936e-08  4.99999962e-09
atom     30.6664785749     3.8333056052     3.8333056052   Al  0.0 0.0    5.74999957e-07 -6.99999947e-08 -1.34999990e-07
atom     30.6664785749     0.0000000000     7.6666196437   Al  0.0 0.0    1.04999992e-07  1.24999991e-07  1.59999988e-07
atom     34.4997841801     3.8333056052     7.6666196437   Al  0.0 0.0   -7.99999940e-08 -1.19999991e-07 -2.89999978e-07
atom     34.4997841801     0.0000000000    11.4999252490   Al  0.0 0.0   -2.84999979e-07  9.99999925e-08  2.94999978e-07
atom     30.6664785749     3.8333056052    11.4999252490   Al  0.0 0.0   -1.44999989e-07 -7.99999940e-08  3.74999972e-07
atom     30.6664785749     0.0000000000    15.3332392875   Al  0.0 0.0    2.24999983e-07  5.99999955e-08 -2.99999977e-08
atom     34.4997841801     3.8333056052    15.3332392875   Al  0.0 0.0   -3.94999970e-07 -7.99999940e-08  2.49999981e-07
atom     34.4997841801     0.0000000000    19.1665448927   Al  0.0 0.0   -1.74999987e-07  4.49999966e-08 -1.99999985e-07
atom     30.6664785749     3.8333056052    19.1665448927   Al  0.0 0.0    6.49999951e-08 -9.99999925e-09 -2.89999978e-07
atom     30.6664785749     0.0000000000    22.9998589312   Al  0.0 0.0   -1.34999990e-07  4.99999962e-09 -1.94999985e-07
atom     34.4997841801     3.8333056052    22.9998589312   Al  0.0 0.0    4.49999966e-08 -2.49999981e-08 -2.34999982e-07
atom     34.4997841801     0.0000000000    26.8331645364   Al  0.0 0.0   -3.24999976e-07  5.49999959e-08  2.34999982e-07
atom     30.6664785749     3.8333056052    26.8331645364   Al  0.0 0.0   -4.99999962e-08 -2.99999977e-08  2.44999982e-07
atom     30.6664785749     0.0000000000    30.6664785749   Al  0.0 0.0    1.54999988e-07  1.49999989e-08 -3.49999974e-08
atom     34.4997841801     3.8333056052    30.6664785749   Al  0.0 0.0   -4.74999964e-07 -3.99999970e-08  1.79999986e-07
atom     34.4997841801     0.0000000000    34.4997841801   Al  0.0 0.0   -1.49999989e-07  7.99999940e-08 -3.99999970e-07
atom     30.6664785749     3.8333056052    34.4997841801   Al  0.0 0.0    8.99999932e-08 -5.99999955e-08 -3.89999971e-07
atom     30.6664785749     0.0000000000    38.3330982187   Al  0.0 0.0    8.49999936e-08  4.49999966e-08  2.69999980e-07
atom     34.4997841801     3.8333056052    38.3330982187   Al  0.0 0.0   -2.39999982e-07 -6.99999947e-08  1.24999991e-07
atom     34.4997841801     0.0000000000    42.1664038239   Al  0.0 0.0   -3.94999970e-07  4.99999962e-08 -1.29999990e-07
atom     30.6664785749     3.8333056052    42.1664038239   Al  0.0 0.0    1.84999986e-07 -4.99999962e-08 -1.19999991e-07
atom     30.6664785749     0.0000000000    45.9997094291   Al  0.0 0.0    4.99999962e-08  5.99999955e-08 -4.99999962e-08
atom     34.4997841801     3.8333056052    45.9997094291   Al  0.0 0.0   -1.44999989e-07 -5.49999959e-08 -4.99999962e-08
atom     34.4997841801     0.0000000000    49.8330234676   Al  0.0 0.0   -1.14999991e-07  4.99999962e-08  2.14999984e-07
atom     30.6664785749     3.8333056052    49.8330234676   Al  0.0 0.0    1.69999987e-07 -3.99999970e-08  1.64999988e-07
atom     30.6664785749     0.0000000000    53.6663290728   Al  0.0 0.0    1.29999990e-07  9.49999929e-08 -2.94999978e-07
atom     34.4997841801     3.8333056052    53.6663290728   Al  0.0 0.0   -1.59999988e-07 -6.49999951e-08 -4.44999967e-07
atom     34.4997841801     0.0000000000    57.4996431113   Al  0.0 0.0   -1.54999988e-07  4.49999966e-08  8.49999936e-08
atom     30.6664785749     3.8333056052    57.4996431113   Al  0.0 0.0    1.14999991e-07 -2.49999981e-08 -2.49999981e-08
atom     30.6664785749     0.0000000000    61.3329487166   Al  0.0 0.0    2.54999981e-07  2.49999981e-08  3.59999973e-07
atom     34.4997841801     3.8333056052    61.3329487166   Al  0.0 0.0   -1.34999990e-07 -1.99999985e-08  2.94999978e-07
atom     34.4997841801     0.0000000000    65.1662627551   Al  0.0 0.0   -4.44999967e-07  1.99999985e-08 -1.04999992e-07
atom     30.6664785749     3.8333056052    65.1662627551   Al  0.0 0.0    3.99999970e-08 -2.49999981e-08  7.49999944e-08
atom     30.6664785749     0.0000000000    68.9995683603   Al  0.0 0.0    6.49999951e-08 -2.99999977e-08  3.99999970e-08
atom     34.4997841801     3.8333056052    68.9995683603   Al  0.0 0.0   -4.69999965e-07 -4.99999962e-09  2.49999981e-08
atom     34.4997841801     0.0000000000    72.8328823988   Al  0.0 0.0   -3.59999973e-07  4.99999962e-09  2.24999983e-07
atom     30.6664785749     3.8333056052    72.8328823988   Al  0.0 0.0    1.99999985e-07 -4.99999962e-09 -1.79999986e-07
atom     30.6664785749     0.0000000000    76.6661880040   Al  0.0 0.0    3.29999975e-07 -3.49999974e-08 -9.99999925e-08
atom     34.4997841801     3.8333056052    76.6661880040   Al  0.0 0.0   -1.94999985e-07 -1.49999989e-08 -2.09999984e-07
atom     34.4997841801     0.0000000000    80.4995020425   Al  0.0 0.0   -3.44999974e-07  2.49999981e-08 -9.99999925e-08
atom     30.6664785749     3.8333056052    80.4995020425   Al  0.0 0.0   -1.99999985e-08 -2.49999981e-08  2.24999983e-07
atom     38.3330982187     0.0000000000     0.0000000000   Al  0.0 0.0    7.99999940e-08  6.99999947e-08  4.99999962e-09
atom     42.1664038239     3.8333056052     0.0000000000   Al  0.0 0.0    1.79999986e-07 -2.99999977e-08 -3.89999971e-07
atom     42.1664038239     0.0000000000     3.8333056052   Al  0.0 0.0    3.69999972e-07  9.99999925e-09 -1.49999989e-08
atom     38.3330982187     3.8333056052     3.8333056052   Al  0.0 0.0   -2.09999984e-07 -5.99999955e-08  1.74999987e-07
atom     38.3330982187     0.0000000000     7.6666196437   Al  0.0 0.0    9.49999929e-08  1.09999992e-07  1.14999991e-07
atom     42.1664038239     3.8333056052     7.6666196437   Al  0.0 0.0   -2.49999981e-08 -5.49999959e-08  1.99999985e-07
atom     42.1664038239     0.0000000000    11.4999252490   Al  0.0 0.0    1.69999987e-07  4.99999962e-08  3.99999970e-08
atom     38.3330982187     3.8333056052    11.4999252490   Al  0.0 0.0    2.19999983e-07 -7.49999944e-08 -1.09999992e-07
atom     38.3330982187     0.0000000000    15.3332392875   Al  0.0 0.0    6.99999947e-08  5.49999959e-08  1.44999989e-07
atom     42.1664038239     3.8333056052    15.3332392875   Al  0.0 0.0    1.49999989e-07 -4.99999962e-08 -1.49999989e-07
atom     42.1664038239     0.0000000000    19.1665448927   Al  0.0 0.0   -1.29999990e-07  4.99999962e-09 -4.99999962e-08
atom     38.3330982187     3.8333056052    19.1665448927   Al  0.0 0.0    3.99999970e-08 -2.49999981e-08  3.99999970e-08
atom     38.3330982187     0.0000000000    22.9998589312   Al  0.0 0.0    1.74999987e-07 -1.49999989e-08 -3.59999973e-07
atom     42.1664038239     3.8333056052    22.9998589312   Al  0.0 0.0   -3.54999973e-07  1.99999985e-08 -4.49999966e-08
atom     42.1664038239     0.0000000000    26.8331645364   Al  0.0 0.0   -1.99999985e-08 -9.99999925e-09 -2.99999977e-08
atom     38.3330982187     3.8333056052    26.8331645364   Al  0.0 0.0    2.19999983e-07 -2.49999981e-08 -2.69999980e-07
atom     38.3330982187     0.0000000000    30.6664785749   Al  0.0 0.0    5.99999955e-08  4.99999962e-09  1.04999992e-07
atom     42.1664038239     3.8333056052    30.6664785749   Al  0.0 0.0    1.74999987e-07  2.49999981e-08  3.99999970e-08
atom     42.1664038239     0.0000000000    34.4997841801   Al  0.0 0.0   -1.99999985e-08  1.49999989e-08 -2.29999983e-07
atom     38.3330982187     3.8333056052    34.4997841801   Al  0.0 0.0    2.49999981e-08 -5.49999959e-08 -1.94999985e-07
atom     38.3330982187     0.0000000000    38.3330982187   Al  0.0 0.0    8.49999936e-08  5.99999955e-08 -1.09999992e-07
atom     42.1664038239     3.8333056052    38.3330982187   Al  0.0 0.0   -1.89999986e-07  4.99999962e-09  2.24999983e-07
atom     42.1664038239     0.0000000000    42.1664038239   Al  0.0 0.0    1.64999988e-07 -0.00000000e+00  7.49999944e-08
atom     38.3330982187     3.8333056052    42.1664038239   Al  0.0 0.0    2.39999982e-07 -3.49999974e-08  2.49999981e-08
atom     38.3330982187     0.0000000000    45.9997094291   Al  0.0 0.0    1.69999987e-07  5.99999955e-08  4.49999966e-08
atom     42.1664038239     3.8333056052    45.9997094291   Al  0.0 0.0   -9.49999929e-08 -1.99999985e-08 -7.99999940e-08