LAMMPS positionsfile from: Al6xxxDB_structures_calc.input.data

4 atoms
3 atom types

0.0 4.080351533048228 xlo xhi
0.0 4.080351533048228 ylo yhi
0.0 4.080351533048228 zlo zhi
0.0 0.0 0.0 xy xz yz

Masses

1 24.305
2 26.9815385
3 28.085

Atoms

    1     2 0.0  2.0401760590003586  2.0401760590003586
    2     2 2.1865909263280043  0.0990408067291285  2.0332496584912882
    3     2 2.0879406523802717  2.1479541106531066  4.021698115981821
    4     1 0.0553122479341855  4.039385335067707  0.0641500365278122

