
     Program PWSCF v.6.3 starts on 26Feb2020 at 23:32:54 

     This program is part of the open-source Quantum ESPRESSO suite
     for quantum simulation of materials; please cite
         "P. Giannozzi et al., J. Phys.:Condens. Matter 21 395502 (2009);
         "P. Giannozzi et al., J. Phys.:Condens. Matter 29 465901 (2017);
          URL http://www.quantum-espresso.org", 
     in publications or presentations arising from this work. More details at
     http://www.quantum-espresso.org/quote

 *** WARNING: using old-style file format, will disappear from next version ***

     Parallel version (MPI & OpenMP), running on     288 processor cores
     Number of MPI processes:               288
     Threads/MPI process:                     1

     MPI processes distributed on     8 nodes
     K-points division:     npool     =      36
     R & G space division:  proc/nbgrp/npool/nimage =       8
     Reading input from aiida.in
Warning: card &IONS ignored
Warning: card   !PRESS_CONV_THR = 0.05                 ! JUST FOR VOLUME RELAXATIONS ignored
Warning: card / ignored

     Current dimensions of program PWSCF are:
     Max number of different atomic species (ntypx) = 10
     Max number of k-points (npk) =  40000
     Max angular momentum in pseudopotentials (lmaxx) =  3
               file Al.pbe-n-kjpaw_psl.1.0.0.UPF: wavefunction(s)  3S 3P renormalized

     Subspace diagonalization in iterative solution of the eigenvalue problem:
     one sub-group per band group will be used
     scalapack distributed-memory algorithm (size of sub-group:  2*  2 procs)

 
     Parallelization info
     --------------------
     sticks:   dense  smooth     PW     G-vecs:    dense   smooth      PW
     Min        3740    1497    390               486920   123201   16474
     Max        3741    1498    391               486925   123204   16481
     Sum       29921   11977   3125              3895379   985619  131827
 


     bravais-lattice index     =            0
     lattice parameter (alat)  =      30.6665  a.u.
     unit-cell volume          =   28839.7502 (a.u.)^3
     number of atoms/cell      =          255
     number of atomic types    =            2
     number of electrons       =       766.00
     number of Kohn-Sham states=          460
     kinetic-energy cutoff     =      40.0000  Ry
     charge density cutoff     =     400.0000  Ry
     convergence threshold     =      1.0E-12
     mixing beta               =       0.4000
     number of iterations used =            8  local-TF  mixing
     Exchange-correlation      = PBE ( 1  4  3  4 0 0)

     celldm(1)=  30.666473  celldm(2)=   0.000000  celldm(3)=   0.000000
     celldm(4)=   0.000000  celldm(5)=   0.000000  celldm(6)=   0.000000

     crystal axes: (cart. coord. in units of alat)
               a(1) = (   1.000000   0.000000   0.000000 )  
               a(2) = (   0.000000   1.000000   0.000000 )  
               a(3) = (   0.000000   0.000000   1.000000 )  

     reciprocal axes: (cart. coord. in units 2 pi/alat)
               b(1) = (  1.000000  0.000000  0.000000 )  
               b(2) = (  0.000000  1.000000  0.000000 )  
               b(3) = (  0.000000  0.000000  1.000000 )  


     PseudoPot. # 1 for Al read from file:
     /users/aglensk/Dropbox/Albert/scripts/dotfiles/scripts/potentials/quantum_espresso/pseudo_SSSPefV1.1_alalloy/Al.pbe-n-kjpaw_psl.1.0.0.UPF
     MD5 check sum: cfc449ca30b5f3223ec38ddd88ac046d
     Pseudo is Projector augmented-wave + core cor, Zval =  3.0
     Generated using "atomic" code by A. Dal Corso v.5.1
     Shape of augmentation charge: PSQ
     Using radial grid of 1135 points,  6 beta functions with: 
                l(1) =   0
                l(2) =   0
                l(3) =   1
                l(4) =   1
                l(5) =   2
                l(6) =   2
     Q(r) pseudized with 0 coefficients 


     PseudoPot. # 2 for Si read from file:
     /users/aglensk/Dropbox/Albert/scripts/dotfiles/scripts/potentials/quantum_espresso/pseudo_SSSPefV1.1_alalloy/Si.pbe-n-rrkjus_psl.1.0.0.UPF
     MD5 check sum: 0b0bb1205258b0d07b9f9672cf965d36
     Pseudo is Ultrasoft + core correction, Zval =  4.0
     Generated using "atomic" code by A. Dal Corso v.5.1
     Using radial grid of 1141 points,  6 beta functions with: 
                l(1) =   0
                l(2) =   0
                l(3) =   1
                l(4) =   1
                l(5) =   2
                l(6) =   2
     Q(r) pseudized with 0 coefficients 


     atomic species   valence    mass     pseudopotential
        Al             3.00    26.98154     Al( 1.00)
        Si             4.00    28.08500     Si( 1.00)

     No symmetry found


                                    s                        frac. trans.

      isym =  1     identity                                     

 cryst.   s( 1) = (     1          0          0      )
                  (     0          1          0      )
                  (     0          0          1      )

 cart.    s( 1) = (  1.0000000  0.0000000  0.0000000 )
                  (  0.0000000  1.0000000  0.0000000 )
                  (  0.0000000  0.0000000  1.0000000 )


   Cartesian axes

     site n.     atom                  positions (alat units)
         1           Al  tau(   1) = (   0.1227811   0.0004084   0.1227811  )
         2           Al  tau(   2) = (   0.1229130   0.1235376   0.0006069  )
         3           Al  tau(   3) = (   0.0006069   0.1235376   0.1229130  )
         4           Al  tau(   4) = (   0.0000692   0.0002120   0.2497065  )
         5           Al  tau(   5) = (   0.1248987   0.1256498   0.2490775  )
         6           Al  tau(   6) = (   0.1249756   0.0002903   0.3747555  )
         7           Al  tau(   7) = (   0.0000720   0.1250290   0.3748105  )
         8           Al  tau(   8) = (   0.0000286   0.0000296   0.4999620  )
         9           Al  tau(   9) = (   0.1250351   0.1250781   0.4998902  )
        10           Al  tau(  10) = (   0.1249661   0.0000412   0.6249613  )
        11           Al  tau(  11) = (   0.0000065   0.1249726   0.6249591  )
        12           Al  tau(  12) = (   0.0000141   0.0000240   0.7502477  )
        13           Al  tau(  13) = (   0.1249052   0.1249527   0.7502487  )
        14           Al  tau(  14) = (   0.1228356   0.0002997   0.8774529  )
        15           Al  tau(  15) = (   0.0000799   0.1229087   0.8773893  )
        16           Al  tau(  16) = (   0.0008406   0.2497316   0.0008406  )
        17           Al  tau(  17) = (   0.1249538   0.3743069   0.0007194  )
        18           Si  tau(  18) = (   0.1250812   0.2503943   0.1250812  )
        19           Al  tau(  19) = (   0.0007194   0.3743069   0.1249538  )
        20           Al  tau(  20) = (   0.0007866   0.2491093   0.2483438  )
        21           Al  tau(  21) = (   0.1249051   0.3741590   0.2492675  )
        22           Al  tau(  22) = (   0.1249212   0.2500092   0.3745498  )
        23           Al  tau(  23) = (   0.0000748   0.3748194   0.3746531  )
        24           Al  tau(  24) = (   0.0000428   0.2500274   0.4998846  )
        25           Al  tau(  25) = (   0.1250119   0.3749768   0.4998777  )
        26           Al  tau(  26) = (   0.1249192   0.2500088   0.6250773  )
        27           Al  tau(  27) = (   0.0000071   0.3748890   0.6251000  )
        28           Al  tau(  28) = (   0.0000382   0.2491672   0.7509463  )
        29           Al  tau(  29) = (   0.1249171   0.3748795   0.7501095  )
        30           Al  tau(  30) = (   0.1249036   0.2498574   0.8754797  )
        31           Al  tau(  31) = (   0.0000620   0.3749614   0.8752569  )
        32           Al  tau(  32) = (   0.0000653   0.4997784   0.0000653  )
        33           Al  tau(  33) = (   0.1249670   0.6248456   0.0000423  )
        34           Al  tau(  34) = (   0.1250399   0.4995921   0.1250399  )
        35           Al  tau(  35) = (   0.0000423   0.6248456   0.1249670  )
        36           Al  tau(  36) = (   0.0000682   0.4997652   0.2499616  )
        37           Al  tau(  37) = (   0.1249209   0.6249489   0.2499667  )
        38           Al  tau(  38) = (   0.1250116   0.4997115   0.3747327  )
        39           Al  tau(  39) = (   0.0000281   0.6250713   0.3748649  )
        40           Al  tau(  40) = (   0.0000244   0.4999745   0.4999697  )
        41           Al  tau(  41) = (   0.1250152   0.6249525   0.4999739  )
        42           Al  tau(  42) = (   0.1250136   0.4999629   0.6249807  )
        43           Al  tau(  43) = (   0.9999982   0.6251078   0.6251022  )
        44           Al  tau(  44) = (   0.0000274   0.4999696   0.7500114  )
        45           Al  tau(  45) = (   0.1249180   0.6250485   0.7500180  )
        46           Al  tau(  46) = (   0.1250365   0.4997157   0.8752483  )
        47           Al  tau(  47) = (   0.0000258   0.6249338   0.8750619  )
        48           Al  tau(  48) = (   0.0000056   0.7502529   0.0000056  )
        49           Al  tau(  49) = (   0.1228389   0.8773065   0.0000506  )
        50           Al  tau(  50) = (   0.1249111   0.7501372   0.1249111  )
        51           Al  tau(  51) = (   0.0000506   0.8773065   0.1228389  )
        52           Al  tau(  52) = (   0.0000067   0.7508325   0.2491654  )
        53           Al  tau(  53) = (   0.1249209   0.8752037   0.2498273  )
        54           Al  tau(  54) = (   0.1249195   0.7499930   0.3748808  )
        55           Al  tau(  55) = (   0.0000320   0.8750753   0.3750051  )
        56           Al  tau(  56) = (   0.9999997   0.7499682   0.5000021  )
        57           Al  tau(  57) = (   0.1250346   0.8749900   0.4999722  )
        58           Al  tau(  58) = (   0.1249212   0.7499870   0.6250710  )
        59           Al  tau(  59) = (   0.0000030   0.8750306   0.6249647  )
        60           Al  tau(  60) = (   0.0000013   0.7508340   0.7508305  )
        61           Al  tau(  61) = (   0.1249038   0.8751191   0.7501680  )
        62           Al  tau(  62) = (   0.1249091   0.7501435   0.8751316  )
        63           Al  tau(  63) = (   0.0000370   0.8772102   0.8771842  )
        64           Al  tau(  64) = (   0.2497065   0.0002120   0.0000692  )
        65           Al  tau(  65) = (   0.3748105   0.1250290   0.0000720  )
        66           Al  tau(  66) = (   0.3747555   0.0002903   0.1249756  )
        67           Al  tau(  67) = (   0.2490775   0.1256498   0.1248987  )
        68           Al  tau(  68) = (   0.2490750   0.0002445   0.2490750  )
        69           Al  tau(  69) = (   0.3747188   0.1249835   0.2499458  )
        70           Al  tau(  70) = (   0.3749494   0.9999404   0.3749494  )
        71           Al  tau(  71) = (   0.2499458   0.1249835   0.3747188  )
        72           Al  tau(  72) = (   0.2500003   0.0000292   0.4999693  )
        73           Al  tau(  73) = (   0.3749935   0.1250403   0.4999630  )
        74           Al  tau(  74) = (   0.3748902   0.0000056   0.6251022  )
        75           Al  tau(  75) = (   0.2500034   0.1249252   0.6250770  )
        76           Al  tau(  76) = (   0.2491428   0.0000439   0.7508681  )
        77           Al  tau(  77) = (   0.3748956   0.1249487   0.7500276  )
        78           Al  tau(  78) = (   0.3750810   0.9999587   0.8749835  )
        79           Al  tau(  79) = (   0.2497676   0.1249745   0.8753370  )
        80           Al  tau(  80) = (   0.2483438   0.2491093   0.0007866  )
        81           Al  tau(  81) = (   0.3746531   0.3748194   0.0000748  )
        82           Al  tau(  82) = (   0.3745498   0.2500092   0.1249212  )
        83           Al  tau(  83) = (   0.2492675   0.3741590   0.1249051  )
        84           Al  tau(  84) = (   0.2493867   0.2500818   0.2493867  )
        85           Al  tau(  85) = (   0.3747667   0.3749352   0.2499091  )
        86           Al  tau(  86) = (   0.3747271   0.2499856   0.3747271  )
        87           Al  tau(  87) = (   0.2499091   0.3749352   0.3747667  )
        88           Al  tau(  88) = (   0.2499446   0.2499871   0.4998901  )
        89           Al  tau(  89) = (   0.3749520   0.3749576   0.4999674  )
        90           Al  tau(  90) = (   0.3749797   0.2499811   0.6249796  )
        91           Al  tau(  91) = (   0.2499730   0.3750137   0.6249796  )
        92           Al  tau(  92) = (   0.2501122   0.2501465   0.7499661  )
        93           Al  tau(  93) = (   0.3749843   0.3749855   0.7500626  )
        94           Al  tau(  94) = (   0.3746319   0.2499939   0.8753711  )
        95           Al  tau(  95) = (   0.2499374   0.3748586   0.8753024  )
        96           Al  tau(  96) = (   0.2499616   0.4997652   0.0000682  )
        97           Al  tau(  97) = (   0.3748649   0.6250713   0.0000281  )
        98           Al  tau(  98) = (   0.3747327   0.4997115   0.1250116  )
        99           Al  tau(  99) = (   0.2499667   0.6249489   0.1249209  )
       100           Al  tau( 100) = (   0.2499150   0.4997594   0.2499150  )
       101           Al  tau( 101) = (   0.3749897   0.6249462   0.2499502  )
       102           Al  tau( 102) = (   0.3750311   0.5000505   0.3750311  )
       103           Al  tau( 103) = (   0.2499502   0.6249462   0.3749897  )
       104           Al  tau( 104) = (   0.2500328   0.4999659   0.4999632  )
       105           Al  tau( 105) = (   0.3749705   0.6250306   0.5000068  )
       106           Al  tau( 106) = (   0.3749675   0.4999863   0.6250239  )
       107           Al  tau( 107) = (   0.2499826   0.6249838   0.6249802  )
       108           Al  tau( 108) = (   0.2499546   0.4999716   0.7500527  )
       109           Al  tau( 109) = (   0.3750152   0.6249901   0.7500088  )
       110           Al  tau( 110) = (   0.3750708   0.5000466   0.8749425  )
       111           Al  tau( 111) = (   0.2499841   0.6250403   0.8751077  )
       112           Al  tau( 112) = (   0.2491654   0.7508325   0.0000067  )
       113           Al  tau( 113) = (   0.3750051   0.8750753   0.0000320  )
       114           Al  tau( 114) = (   0.3748808   0.7499930   0.1249195  )
       115           Al  tau( 115) = (   0.2498273   0.8752037   0.1249209  )
       116           Al  tau( 116) = (   0.2501551   0.7498380   0.2501551  )
       117           Al  tau( 117) = (   0.3749030   0.8751128   0.2499942  )
       118           Al  tau( 118) = (   0.3750141   0.7500142   0.3750141  )
       119           Al  tau( 119) = (   0.2499942   0.8751128   0.3749030  )
       120           Al  tau( 120) = (   0.2499830   0.7500174   0.5000026  )
       121           Al  tau( 121) = (   0.3750159   0.8749761   0.5000133  )
       122           Al  tau( 122) = (   0.3750243   0.7500234   0.6249829  )
       123           Al  tau( 123) = (   0.2500039   0.8750787   0.6250813  )
       124           Al  tau( 124) = (   0.2501494   0.7498463   0.7498418  )
       125           Al  tau( 125) = (   0.3749132   0.8750771   0.7499861  )
       126           Al  tau( 126) = (   0.3749147   0.7499892   0.8750935  )
       127           Al  tau( 127) = (   0.2498434   0.8751185   0.8751222  )
       128           Al  tau( 128) = (   0.4999620   0.0000296   0.0000286  )
       129           Al  tau( 129) = (   0.6249591   0.1249726   0.0000065  )
       130           Al  tau( 130) = (   0.6249613   0.0000412   0.1249661  )
       131           Al  tau( 131) = (   0.4998902   0.1250781   0.1250351  )
       132           Al  tau( 132) = (   0.4999693   0.0000292   0.2500003  )
       133           Al  tau( 133) = (   0.6250770   0.1249252   0.2500034  )
       134           Al  tau( 134) = (   0.6251022   0.0000056   0.3748902  )
       135           Al  tau( 135) = (   0.4999630   0.1250403   0.3749935  )
       136           Al  tau( 136) = (   0.5000073   0.0000086   0.5000073  )
       137           Al  tau( 137) = (   0.6249826   0.1250131   0.5000018  )
       138           Al  tau( 138) = (   0.6251095   0.9999972   0.6251095  )
       139           Al  tau( 139) = (   0.5000018   0.1250131   0.6249826  )
       140           Al  tau( 140) = (   0.5000085   0.0000053   0.7499632  )
       141           Al  tau( 141) = (   0.6250742   0.1249209   0.7499843  )
       142           Al  tau( 142) = (   0.6249564   0.0000075   0.8750406  )
       143           Al  tau( 143) = (   0.4999631   0.1250643   0.8749954  )
       144           Al  tau( 144) = (   0.4998846   0.2500274   0.0000428  )
       145           Al  tau( 145) = (   0.6251000   0.3748890   0.0000071  )
       146           Al  tau( 146) = (   0.6250773   0.2500088   0.1249192  )
       147           Al  tau( 147) = (   0.4998777   0.3749768   0.1250119  )
       148           Al  tau( 148) = (   0.4998901   0.2499871   0.2499446  )
       149           Al  tau( 149) = (   0.6249796   0.3750137   0.2499730  )
       150           Al  tau( 150) = (   0.6249796   0.2499811   0.3749797  )
       151           Al  tau( 151) = (   0.4999674   0.3749576   0.3749520  )
       152           Al  tau( 152) = (   0.4999697   0.2500571   0.4999697  )
       153           Al  tau( 153) = (   0.6250178   0.3749758   0.5000037  )
       154           Al  tau( 154) = (   0.6249820   0.2499781   0.6249820  )
       155           Al  tau( 155) = (   0.5000037   0.3749758   0.6250178  )
       156           Al  tau( 156) = (   0.4999754   0.2499889   0.7500398  )
       157           Al  tau( 157) = (   0.6249783   0.3750208   0.7500174  )
       158           Al  tau( 158) = (   0.6250727   0.2500077   0.8751221  )
       159           Al  tau( 159) = (   0.4999566   0.3749933   0.8750199  )
       160           Al  tau( 160) = (   0.4999697   0.4999745   0.0000244  )
       161           Al  tau( 161) = (   0.6251022   0.6251078   0.9999982  )
       162           Al  tau( 162) = (   0.6249807   0.4999629   0.1250136  )
       163           Al  tau( 163) = (   0.4999739   0.6249525   0.1250152  )
       164           Al  tau( 164) = (   0.4999632   0.4999659   0.2500328  )
       165           Al  tau( 165) = (   0.6249802   0.6249838   0.2499826  )
       166           Al  tau( 166) = (   0.6250239   0.4999863   0.3749675  )
       167           Al  tau( 167) = (   0.5000068   0.6250306   0.3749705  )
       168           Al  tau( 168) = (   0.5000120   0.5000004   0.5000120  )
       169           Al  tau( 169) = (   0.6250214   0.6250074   0.4999844  )
       170           Al  tau( 170) = (   0.6250212   0.5000091   0.6250212  )
       171           Al  tau( 171) = (   0.4999844   0.6250074   0.6250214  )
       172           Al  tau( 172) = (   0.5000065   0.4999913   0.7499297  )
       173           Al  tau( 173) = (   0.6249823   0.6249666   0.7500388  )
       174           Al  tau( 174) = (   0.6249809   0.4999880   0.8749968  )
       175           Al  tau( 175) = (   0.5000081   0.6249890   0.8749871  )
       176           Al  tau( 176) = (   0.5000021   0.7499682   0.9999997  )
       177           Al  tau( 177) = (   0.6249647   0.8750306   0.0000030  )
       178           Al  tau( 178) = (   0.6250710   0.7499870   0.1249212  )
       179           Al  tau( 179) = (   0.4999722   0.8749900   0.1250346  )
       180           Al  tau( 180) = (   0.5000026   0.7500174   0.2499830  )
       181           Al  tau( 181) = (   0.6250813   0.8750787   0.2500039  )
       182           Al  tau( 182) = (   0.6249829   0.7500234   0.3750243  )
       183           Al  tau( 183) = (   0.5000133   0.8749761   0.3750159  )
       184           Al  tau( 184) = (   0.4999847   0.7499385   0.4999847  )
       185           Al  tau( 185) = (   0.6249792   0.8750043   0.4999890  )
       186           Al  tau( 186) = (   0.6249788   0.7500168   0.6249788  )
       187           Al  tau( 187) = (   0.4999890   0.8750043   0.6249792  )
       188           Al  tau( 188) = (   0.4999830   0.7500191   0.7500341  )
       189           Al  tau( 189) = (   0.6250683   0.8750897   0.7500033  )
       190           Al  tau( 190) = (   0.6250787   0.7499965   0.8750776  )
       191           Al  tau( 191) = (   0.5000075   0.8749549   0.8749725  )
       192           Al  tau( 192) = (   0.7502477   0.0000240   0.0000141  )
       193           Al  tau( 193) = (   0.8773893   0.1229087   0.0000799  )
       194           Al  tau( 194) = (   0.8774529   0.0002997   0.1228356  )
       195           Al  tau( 195) = (   0.7502487   0.1249527   0.1249052  )
       196           Al  tau( 196) = (   0.7508681   0.0000439   0.2491428  )
       197           Al  tau( 197) = (   0.8753370   0.1249745   0.2497676  )
       198           Al  tau( 198) = (   0.8749835   0.9999587   0.3750810  )
       199           Al  tau( 199) = (   0.7500276   0.1249487   0.3748956  )
       200           Al  tau( 200) = (   0.7499632   0.0000053   0.5000085  )
       201           Al  tau( 201) = (   0.8749954   0.1250643   0.4999631  )
       202           Al  tau( 202) = (   0.8750406   0.0000075   0.6249564  )
       203           Al  tau( 203) = (   0.7499843   0.1249209   0.6250742  )
       204           Al  tau( 204) = (   0.7508260   0.9999936   0.7508260  )
       205           Al  tau( 205) = (   0.8751131   0.1249293   0.7501616  )
       206           Al  tau( 206) = (   0.8771960   0.0000098   0.8771960  )
       207           Al  tau( 207) = (   0.7501616   0.1249293   0.8751131  )
       208           Al  tau( 208) = (   0.7509463   0.2491672   0.0000382  )
       209           Al  tau( 209) = (   0.8752569   0.3749614   0.0000620  )
       210           Al  tau( 210) = (   0.8754797   0.2498574   0.1249036  )
       211           Al  tau( 211) = (   0.7501095   0.3748795   0.1249171  )
       212           Al  tau( 212) = (   0.7499661   0.2501465   0.2501122  )
       213           Al  tau( 213) = (   0.8753024   0.3748586   0.2499374  )
       214           Al  tau( 214) = (   0.8753711   0.2499939   0.3746319  )
       215           Al  tau( 215) = (   0.7500626   0.3749855   0.3749843  )
       216           Al  tau( 216) = (   0.7500398   0.2499889   0.4999754  )
       217           Al  tau( 217) = (   0.8750199   0.3749933   0.4999566  )
       218           Al  tau( 218) = (   0.8751221   0.2500077   0.6250727  )
       219           Al  tau( 219) = (   0.7500174   0.3750208   0.6249783  )
       220           Al  tau( 220) = (   0.7498687   0.2501629   0.7498687  )
       221           Al  tau( 221) = (   0.8751032   0.3748967   0.7500240  )
       222           Al  tau( 222) = (   0.8754017   0.2498458   0.8754017  )
       223           Al  tau( 223) = (   0.7500240   0.3748967   0.8751032  )
       224           Al  tau( 224) = (   0.7500114   0.4999696   0.0000274  )
       225           Al  tau( 225) = (   0.8750619   0.6249338   0.0000258  )
       226           Al  tau( 226) = (   0.8752483   0.4997157   0.1250365  )
       227           Al  tau( 227) = (   0.7500180   0.6250485   0.1249180  )
       228           Al  tau( 228) = (   0.7500527   0.4999716   0.2499546  )
       229           Al  tau( 229) = (   0.8751077   0.6250403   0.2499841  )
       230           Al  tau( 230) = (   0.8749425   0.5000466   0.3750708  )
       231           Al  tau( 231) = (   0.7500088   0.6249901   0.3750152  )
       232           Al  tau( 232) = (   0.7499297   0.4999913   0.5000065  )
       233           Al  tau( 233) = (   0.8749871   0.6249890   0.5000081  )
       234           Al  tau( 234) = (   0.8749968   0.4999880   0.6249809  )
       235           Al  tau( 235) = (   0.7500388   0.6249666   0.6249823  )
       236           Al  tau( 236) = (   0.7500052   0.4999978   0.7500052  )
       237           Al  tau( 237) = (   0.8750879   0.6250854   0.7499800  )
       238           Al  tau( 238) = (   0.8749111   0.5000500   0.8749111  )
       239           Al  tau( 239) = (   0.7499800   0.6250854   0.8750879  )
       240           Al  tau( 240) = (   0.7508305   0.7508340   0.0000013  )
       241           Al  tau( 241) = (   0.8771842   0.8772102   0.0000370  )
       242           Al  tau( 242) = (   0.8751316   0.7501435   0.1249091  )
       243           Al  tau( 243) = (   0.7501680   0.8751191   0.1249038  )
       244           Al  tau( 244) = (   0.7498418   0.7498463   0.2501494  )
       245           Al  tau( 245) = (   0.8751222   0.8751185   0.2498434  )
       246           Al  tau( 246) = (   0.8750935   0.7499892   0.3749147  )
       247           Al  tau( 247) = (   0.7499861   0.8750771   0.3749132  )
       248           Al  tau( 248) = (   0.7500341   0.7500191   0.4999830  )
       249           Al  tau( 249) = (   0.8749725   0.8749549   0.5000075  )
       250           Al  tau( 250) = (   0.8750776   0.7499965   0.6250787  )
       251           Al  tau( 251) = (   0.7500033   0.8750897   0.6250683  )
       252           Al  tau( 252) = (   0.7498526   0.7498394   0.7498526  )
       253           Al  tau( 253) = (   0.8750873   0.8750931   0.7501443  )
       254           Al  tau( 254) = (   0.8750958   0.7501334   0.8750958  )
       255           Al  tau( 255) = (   0.7501443   0.8750931   0.8750873  )

   Crystallographic axes

     site n.     atom                  positions (cryst. coord.)
         1           Al  tau(   1) = (  0.1227811  0.0004084  0.1227811  )
         2           Al  tau(   2) = (  0.1229130  0.1235376  0.0006069  )
         3           Al  tau(   3) = (  0.0006069  0.1235376  0.1229130  )
         4           Al  tau(   4) = (  0.0000692  0.0002120  0.2497065  )
         5           Al  tau(   5) = (  0.1248987  0.1256498  0.2490775  )
         6           Al  tau(   6) = (  0.1249756  0.0002903  0.3747555  )
         7           Al  tau(   7) = (  0.0000720  0.1250290  0.3748105  )
         8           Al  tau(   8) = (  0.0000286  0.0000296  0.4999620  )
         9           Al  tau(   9) = (  0.1250351  0.1250781  0.4998902  )
        10           Al  tau(  10) = (  0.1249661  0.0000412  0.6249613  )
        11           Al  tau(  11) = (  0.0000065  0.1249726  0.6249591  )
        12           Al  tau(  12) = (  0.0000141  0.0000240  0.7502477  )
        13           Al  tau(  13) = (  0.1249052  0.1249527  0.7502487  )
        14           Al  tau(  14) = (  0.1228356  0.0002997  0.8774529  )
        15           Al  tau(  15) = (  0.0000799  0.1229087  0.8773893  )
        16           Al  tau(  16) = (  0.0008406  0.2497316  0.0008406  )
        17           Al  tau(  17) = (  0.1249538  0.3743069  0.0007194  )
        18           Si  tau(  18) = (  0.1250812  0.2503943  0.1250812  )
        19           Al  tau(  19) = (  0.0007194  0.3743069  0.1249538  )
        20           Al  tau(  20) = (  0.0007866  0.2491093  0.2483438  )
        21           Al  tau(  21) = (  0.1249051  0.3741590  0.2492675  )
        22           Al  tau(  22) = (  0.1249212  0.2500092  0.3745498  )
        23           Al  tau(  23) = (  0.0000748  0.3748194  0.3746531  )
        24           Al  tau(  24) = (  0.0000428  0.2500274  0.4998846  )
        25           Al  tau(  25) = (  0.1250119  0.3749768  0.4998777  )
        26           Al  tau(  26) = (  0.1249192  0.2500088  0.6250773  )
        27           Al  tau(  27) = (  0.0000071  0.3748890  0.6251000  )
        28           Al  tau(  28) = (  0.0000382  0.2491672  0.7509463  )
        29           Al  tau(  29) = (  0.1249171  0.3748795  0.7501095  )
        30           Al  tau(  30) = (  0.1249036  0.2498574  0.8754797  )
        31           Al  tau(  31) = (  0.0000620  0.3749614  0.8752569  )
        32           Al  tau(  32) = (  0.0000653  0.4997784  0.0000653  )
        33           Al  tau(  33) = (  0.1249670  0.6248456  0.0000423  )
        34           Al  tau(  34) = (  0.1250399  0.4995921  0.1250399  )
        35           Al  tau(  35) = (  0.0000423  0.6248456  0.1249670  )
        36           Al  tau(  36) = (  0.0000682  0.4997652  0.2499616  )
        37           Al  tau(  37) = (  0.1249209  0.6249489  0.2499667  )
        38           Al  tau(  38) = (  0.1250116  0.4997115  0.3747327  )
        39           Al  tau(  39) = (  0.0000281  0.6250713  0.3748649  )
        40           Al  tau(  40) = (  0.0000244  0.4999745  0.4999697  )
        41           Al  tau(  41) = (  0.1250152  0.6249525  0.4999739  )
        42           Al  tau(  42) = (  0.1250136  0.4999629  0.6249807  )
        43           Al  tau(  43) = (  0.9999982  0.6251078  0.6251022  )
        44           Al  tau(  44) = (  0.0000274  0.4999696  0.7500114  )
        45           Al  tau(  45) = (  0.1249180  0.6250485  0.7500180  )
        46           Al  tau(  46) = (  0.1250365  0.4997157  0.8752483  )
        47           Al  tau(  47) = (  0.0000258  0.6249338  0.8750619  )
        48           Al  tau(  48) = (  0.0000056  0.7502529  0.0000056  )
        49           Al  tau(  49) = (  0.1228389  0.8773065  0.0000506  )
        50           Al  tau(  50) = (  0.1249111  0.7501372  0.1249111  )
        51           Al  tau(  51) = (  0.0000506  0.8773065  0.1228389  )
        52           Al  tau(  52) = (  0.0000067  0.7508325  0.2491654  )
        53           Al  tau(  53) = (  0.1249209  0.8752037  0.2498273  )
        54           Al  tau(  54) = (  0.1249195  0.7499930  0.3748808  )
        55           Al  tau(  55) = (  0.0000320  0.8750753  0.3750051  )
        56           Al  tau(  56) = (  0.9999997  0.7499682  0.5000021  )
        57           Al  tau(  57) = (  0.1250346  0.8749900  0.4999722  )
        58           Al  tau(  58) = (  0.1249212  0.7499870  0.6250710  )
        59           Al  tau(  59) = (  0.0000030  0.8750306  0.6249647  )
        60           Al  tau(  60) = (  0.0000013  0.7508340  0.7508305  )
        61           Al  tau(  61) = (  0.1249038  0.8751191  0.7501680  )
        62           Al  tau(  62) = (  0.1249091  0.7501435  0.8751316  )
        63           Al  tau(  63) = (  0.0000370  0.8772102  0.8771842  )
        64           Al  tau(  64) = (  0.2497065  0.0002120  0.0000692  )
        65           Al  tau(  65) = (  0.3748105  0.1250290  0.0000720  )
        66           Al  tau(  66) = (  0.3747555  0.0002903  0.1249756  )
        67           Al  tau(  67) = (  0.2490775  0.1256498  0.1248987  )
        68           Al  tau(  68) = (  0.2490750  0.0002445  0.2490750  )
        69           Al  tau(  69) = (  0.3747188  0.1249835  0.2499458  )
        70           Al  tau(  70) = (  0.3749494  0.9999404  0.3749494  )
        71           Al  tau(  71) = (  0.2499458  0.1249835  0.3747188  )
        72           Al  tau(  72) = (  0.2500003  0.0000292  0.4999693  )
        73           Al  tau(  73) = (  0.3749935  0.1250403  0.4999630  )
        74           Al  tau(  74) = (  0.3748902  0.0000056  0.6251022  )
        75           Al  tau(  75) = (  0.2500034  0.1249252  0.6250770  )
        76           Al  tau(  76) = (  0.2491428  0.0000439  0.7508681  )
        77           Al  tau(  77) = (  0.3748956  0.1249487  0.7500276  )
        78           Al  tau(  78) = (  0.3750810  0.9999587  0.8749835  )
        79           Al  tau(  79) = (  0.2497676  0.1249745  0.8753370  )
        80           Al  tau(  80) = (  0.2483438  0.2491093  0.0007866  )
        81           Al  tau(  81) = (  0.3746531  0.3748194  0.0000748  )
        82           Al  tau(  82) = (  0.3745498  0.2500092  0.1249212  )
        83           Al  tau(  83) = (  0.2492675  0.3741590  0.1249051  )
        84           Al  tau(  84) = (  0.2493867  0.2500818  0.2493867  )
        85           Al  tau(  85) = (  0.3747667  0.3749352  0.2499091  )
        86           Al  tau(  86) = (  0.3747271  0.2499856  0.3747271  )
        87           Al  tau(  87) = (  0.2499091  0.3749352  0.3747667  )
        88           Al  tau(  88) = (  0.2499446  0.2499871  0.4998901  )
        89           Al  tau(  89) = (  0.3749520  0.3749576  0.4999674  )
        90           Al  tau(  90) = (  0.3749797  0.2499811  0.6249796  )
        91           Al  tau(  91) = (  0.2499730  0.3750137  0.6249796  )
        92           Al  tau(  92) = (  0.2501122  0.2501465  0.7499661  )
        93           Al  tau(  93) = (  0.3749843  0.3749855  0.7500626  )
        94           Al  tau(  94) = (  0.3746319  0.2499939  0.8753711  )
        95           Al  tau(  95) = (  0.2499374  0.3748586  0.8753024  )
        96           Al  tau(  96) = (  0.2499616  0.4997652  0.0000682  )
        97           Al  tau(  97) = (  0.3748649  0.6250713  0.0000281  )
        98           Al  tau(  98) = (  0.3747327  0.4997115  0.1250116  )
        99           Al  tau(  99) = (  0.2499667  0.6249489  0.1249209  )
       100           Al  tau( 100) = (  0.2499150  0.4997594  0.2499150  )
       101           Al  tau( 101) = (  0.3749897  0.6249462  0.2499502  )
       102           Al  tau( 102) = (  0.3750311  0.5000505  0.3750311  )
       103           Al  tau( 103) = (  0.2499502  0.6249462  0.3749897  )
       104           Al  tau( 104) = (  0.2500328  0.4999659  0.4999632  )
       105           Al  tau( 105) = (  0.3749705  0.6250306  0.5000068  )
       106           Al  tau( 106) = (  0.3749675  0.4999863  0.6250239  )
       107           Al  tau( 107) = (  0.2499826  0.6249838  0.6249802  )
       108           Al  tau( 108) = (  0.2499546  0.4999716  0.7500527  )
       109           Al  tau( 109) = (  0.3750152  0.6249901  0.7500088  )
       110           Al  tau( 110) = (  0.3750708  0.5000466  0.8749425  )
       111           Al  tau( 111) = (  0.2499841  0.6250403  0.8751077  )
       112           Al  tau( 112) = (  0.2491654  0.7508325  0.0000067  )
       113           Al  tau( 113) = (  0.3750051  0.8750753  0.0000320  )
       114           Al  tau( 114) = (  0.3748808  0.7499930  0.1249195  )
       115           Al  tau( 115) = (  0.2498273  0.8752037  0.1249209  )
       116           Al  tau( 116) = (  0.2501551  0.7498380  0.2501551  )
       117           Al  tau( 117) = (  0.3749030  0.8751128  0.2499942  )
       118           Al  tau( 118) = (  0.3750141  0.7500142  0.3750141  )
       119           Al  tau( 119) = (  0.2499942  0.8751128  0.3749030  )
       120           Al  tau( 120) = (  0.2499830  0.7500174  0.5000026  )
       121           Al  tau( 121) = (  0.3750159  0.8749761  0.5000133  )
       122           Al  tau( 122) = (  0.3750243  0.7500234  0.6249829  )
       123           Al  tau( 123) = (  0.2500039  0.8750787  0.6250813  )
       124           Al  tau( 124) = (  0.2501494  0.7498463  0.7498418  )
       125           Al  tau( 125) = (  0.3749132  0.8750771  0.7499861  )
       126           Al  tau( 126) = (  0.3749147  0.7499892  0.8750935  )
       127           Al  tau( 127) = (  0.2498434  0.8751185  0.8751222  )
       128           Al  tau( 128) = (  0.4999620  0.0000296  0.0000286  )
       129           Al  tau( 129) = (  0.6249591  0.1249726  0.0000065  )
       130           Al  tau( 130) = (  0.6249613  0.0000412  0.1249661  )
       131           Al  tau( 131) = (  0.4998902  0.1250781  0.1250351  )
       132           Al  tau( 132) = (  0.4999693  0.0000292  0.2500003  )
       133           Al  tau( 133) = (  0.6250770  0.1249252  0.2500034  )
       134           Al  tau( 134) = (  0.6251022  0.0000056  0.3748902  )
       135           Al  tau( 135) = (  0.4999630  0.1250403  0.3749935  )
       136           Al  tau( 136) = (  0.5000073  0.0000086  0.5000073  )
       137           Al  tau( 137) = (  0.6249826  0.1250131  0.5000018  )
       138           Al  tau( 138) = (  0.6251095  0.9999972  0.6251095  )
       139           Al  tau( 139) = (  0.5000018  0.1250131  0.6249826  )
       140           Al  tau( 140) = (  0.5000085  0.0000053  0.7499632  )
       141           Al  tau( 141) = (  0.6250742  0.1249209  0.7499843  )
       142           Al  tau( 142) = (  0.6249564  0.0000075  0.8750406  )
       143           Al  tau( 143) = (  0.4999631  0.1250643  0.8749954  )
       144           Al  tau( 144) = (  0.4998846  0.2500274  0.0000428  )
       145           Al  tau( 145) = (  0.6251000  0.3748890  0.0000071  )
       146           Al  tau( 146) = (  0.6250773  0.2500088  0.1249192  )
       147           Al  tau( 147) = (  0.4998777  0.3749768  0.1250119  )
       148           Al  tau( 148) = (  0.4998901  0.2499871  0.2499446  )
       149           Al  tau( 149) = (  0.6249796  0.3750137  0.2499730  )
       150           Al  tau( 150) = (  0.6249796  0.2499811  0.3749797  )
       151           Al  tau( 151) = (  0.4999674  0.3749576  0.3749520  )
       152           Al  tau( 152) = (  0.4999697  0.2500571  0.4999697  )
       153           Al  tau( 153) = (  0.6250178  0.3749758  0.5000037  )
       154           Al  tau( 154) = (  0.6249820  0.2499781  0.6249820  )
       155           Al  tau( 155) = (  0.5000037  0.3749758  0.6250178  )
       156           Al  tau( 156) = (  0.4999754  0.2499889  0.7500398  )
       157           Al  tau( 157) = (  0.6249783  0.3750208  0.7500174  )
       158           Al  tau( 158) = (  0.6250727  0.2500077  0.8751221  )
       159           Al  tau( 159) = (  0.4999566  0.3749933  0.8750199  )
       160           Al  tau( 160) = (  0.4999697  0.4999745  0.0000244  )
       161           Al  tau( 161) = (  0.6251022  0.6251078  0.9999982  )
       162           Al  tau( 162) = (  0.6249807  0.4999629  0.1250136  )
       163           Al  tau( 163) = (  0.4999739  0.6249525  0.1250152  )
       164           Al  tau( 164) = (  0.4999632  0.4999659  0.2500328  )
       165           Al  tau( 165) = (  0.6249802  0.6249838  0.2499826  )
       166           Al  tau( 166) = (  0.6250239  0.4999863  0.3749675  )
       167           Al  tau( 167) = (  0.5000068  0.6250306  0.3749705  )
       168           Al  tau( 168) = (  0.5000120  0.5000004  0.5000120  )
       169           Al  tau( 169) = (  0.6250214  0.6250074  0.4999844  )
       170           Al  tau( 170) = (  0.6250212  0.5000091  0.6250212  )
       171           Al  tau( 171) = (  0.4999844  0.6250074  0.6250214  )
       172           Al  tau( 172) = (  0.5000065  0.4999913  0.7499297  )
       173           Al  tau( 173) = (  0.6249823  0.6249666  0.7500388  )
       174           Al  tau( 174) = (  0.6249809  0.4999880  0.8749968  )
       175           Al  tau( 175) = (  0.5000081  0.6249890  0.8749871  )
       176           Al  tau( 176) = (  0.5000021  0.7499682  0.9999997  )
       177           Al  tau( 177) = (  0.6249647  0.8750306  0.0000030  )
       178           Al  tau( 178) = (  0.6250710  0.7499870  0.1249212  )
       179           Al  tau( 179) = (  0.4999722  0.8749900  0.1250346  )
       180           Al  tau( 180) = (  0.5000026  0.7500174  0.2499830  )
       181           Al  tau( 181) = (  0.6250813  0.8750787  0.2500039  )
       182           Al  tau( 182) = (  0.6249829  0.7500234  0.3750243  )
       183           Al  tau( 183) = (  0.5000133  0.8749761  0.3750159  )
       184           Al  tau( 184) = (  0.4999847  0.7499385  0.4999847  )
       185           Al  tau( 185) = (  0.6249792  0.8750043  0.4999890  )
       186           Al  tau( 186) = (  0.6249788  0.7500168  0.6249788  )
       187           Al  tau( 187) = (  0.4999890  0.8750043  0.6249792  )
       188           Al  tau( 188) = (  0.4999830  0.7500191  0.7500341  )
       189           Al  tau( 189) = (  0.6250683  0.8750897  0.7500033  )
       190           Al  tau( 190) = (  0.6250787  0.7499965  0.8750776  )
       191           Al  tau( 191) = (  0.5000075  0.8749549  0.8749725  )
       192           Al  tau( 192) = (  0.7502477  0.0000240  0.0000141  )
       193           Al  tau( 193) = (  0.8773893  0.1229087  0.0000799  )
       194           Al  tau( 194) = (  0.8774529  0.0002997  0.1228356  )
       195           Al  tau( 195) = (  0.7502487  0.1249527  0.1249052  )
       196           Al  tau( 196) = (  0.7508681  0.0000439  0.2491428  )
       197           Al  tau( 197) = (  0.8753370  0.1249745  0.2497676  )
       198           Al  tau( 198) = (  0.8749835  0.9999587  0.3750810  )
       199           Al  tau( 199) = (  0.7500276  0.1249487  0.3748956  )
       200           Al  tau( 200) = (  0.7499632  0.0000053  0.5000085  )
       201           Al  tau( 201) = (  0.8749954  0.1250643  0.4999631  )
       202           Al  tau( 202) = (  0.8750406  0.0000075  0.6249564  )
       203           Al  tau( 203) = (  0.7499843  0.1249209  0.6250742  )
       204           Al  tau( 204) = (  0.7508260  0.9999936  0.7508260  )
       205           Al  tau( 205) = (  0.8751131  0.1249293  0.7501616  )
       206           Al  tau( 206) = (  0.8771960  0.0000098  0.8771960  )
       207           Al  tau( 207) = (  0.7501616  0.1249293  0.8751131  )
       208           Al  tau( 208) = (  0.7509463  0.2491672  0.0000382  )
       209           Al  tau( 209) = (  0.8752569  0.3749614  0.0000620  )
       210           Al  tau( 210) = (  0.8754797  0.2498574  0.1249036  )
       211           Al  tau( 211) = (  0.7501095  0.3748795  0.1249171  )
       212           Al  tau( 212) = (  0.7499661  0.2501465  0.2501122  )
       213           Al  tau( 213) = (  0.8753024  0.3748586  0.2499374  )
       214           Al  tau( 214) = (  0.8753711  0.2499939  0.3746319  )
       215           Al  tau( 215) = (  0.7500626  0.3749855  0.3749843  )
       216           Al  tau( 216) = (  0.7500398  0.2499889  0.4999754  )
       217           Al  tau( 217) = (  0.8750199  0.3749933  0.4999566  )
       218           Al  tau( 218) = (  0.8751221  0.2500077  0.6250727  )
       219           Al  tau( 219) = (  0.7500174  0.3750208  0.6249783  )
       220           Al  tau( 220) = (  0.7498687  0.2501629  0.7498687  )
       221           Al  tau( 221) = (  0.8751032  0.3748967  0.7500240  )
       222           Al  tau( 222) = (  0.8754017  0.2498458  0.8754017  )
       223           Al  tau( 223) = (  0.7500240  0.3748967  0.8751032  )
       224           Al  tau( 224) = (  0.7500114  0.4999696  0.0000274  )
       225           Al  tau( 225) = (  0.8750619  0.6249338  0.0000258  )
       226           Al  tau( 226) = (  0.8752483  0.4997157  0.1250365  )
       227           Al  tau( 227) = (  0.7500180  0.6250485  0.1249180  )
       228           Al  tau( 228) = (  0.7500527  0.4999716  0.2499546  )
       229           Al  tau( 229) = (  0.8751077  0.6250403  0.2499841  )
       230           Al  tau( 230) = (  0.8749425  0.5000466  0.3750708  )
       231           Al  tau( 231) = (  0.7500088  0.6249901  0.3750152  )
       232           Al  tau( 232) = (  0.7499297  0.4999913  0.5000065  )
       233           Al  tau( 233) = (  0.8749871  0.6249890  0.5000081  )
       234           Al  tau( 234) = (  0.8749968  0.4999880  0.6249809  )
       235           Al  tau( 235) = (  0.7500388  0.6249666  0.6249823  )
       236           Al  tau( 236) = (  0.7500052  0.4999978  0.7500052  )
       237           Al  tau( 237) = (  0.8750879  0.6250854  0.7499800  )
       238           Al  tau( 238) = (  0.8749111  0.5000500  0.8749111  )
       239           Al  tau( 239) = (  0.7499800  0.6250854  0.8750879  )
       240           Al  tau( 240) = (  0.7508305  0.7508340  0.0000013  )
       241           Al  tau( 241) = (  0.8771842  0.8772102  0.0000370  )
       242           Al  tau( 242) = (  0.8751316  0.7501435  0.1249091  )
       243           Al  tau( 243) = (  0.7501680  0.8751191  0.1249038  )
       244           Al  tau( 244) = (  0.7498418  0.7498463  0.2501494  )
       245           Al  tau( 245) = (  0.8751222  0.8751185  0.2498434  )
       246           Al  tau( 246) = (  0.8750935  0.7499892  0.3749147  )
       247           Al  tau( 247) = (  0.7499861  0.8750771  0.3749132  )
       248           Al  tau( 248) = (  0.7500341  0.7500191  0.4999830  )
       249           Al  tau( 249) = (  0.8749725  0.8749549  0.5000075  )
       250           Al  tau( 250) = (  0.8750776  0.7499965  0.6250787  )
       251           Al  tau( 251) = (  0.7500033  0.8750897  0.6250683  )
       252           Al  tau( 252) = (  0.7498526  0.7498394  0.7498526  )
       253           Al  tau( 253) = (  0.8750873  0.8750931  0.7501443  )
       254           Al  tau( 254) = (  0.8750958  0.7501334  0.8750958  )
       255           Al  tau( 255) = (  0.7501443  0.8750931  0.8750873  )

     number of k points=    63  Methfessel-Paxton smearing, width (Ry)=  0.0441
                       cart. coord. in units 2pi/alat
        k(    1) = (   0.0000000   0.0000000   0.0000000), wk =   0.0160000
        k(    2) = (   0.0000000   0.0000000   0.2000000), wk =   0.0320000
        k(    3) = (   0.0000000   0.0000000   0.4000000), wk =   0.0320000
        k(    4) = (   0.0000000   0.2000000   0.0000000), wk =   0.0320000
        k(    5) = (   0.0000000   0.2000000   0.2000000), wk =   0.0320000
        k(    6) = (   0.0000000   0.2000000   0.4000000), wk =   0.0320000
        k(    7) = (   0.0000000   0.2000000  -0.4000000), wk =   0.0320000
        k(    8) = (   0.0000000   0.2000000  -0.2000000), wk =   0.0320000
        k(    9) = (   0.0000000   0.4000000   0.0000000), wk =   0.0320000
        k(   10) = (   0.0000000   0.4000000   0.2000000), wk =   0.0320000
        k(   11) = (   0.0000000   0.4000000   0.4000000), wk =   0.0320000
        k(   12) = (   0.0000000   0.4000000  -0.4000000), wk =   0.0320000
        k(   13) = (   0.0000000   0.4000000  -0.2000000), wk =   0.0320000
        k(   14) = (   0.2000000   0.0000000   0.0000000), wk =   0.0320000
        k(   15) = (   0.2000000   0.0000000   0.2000000), wk =   0.0320000
        k(   16) = (   0.2000000   0.0000000   0.4000000), wk =   0.0320000
        k(   17) = (   0.2000000   0.0000000  -0.4000000), wk =   0.0320000
        k(   18) = (   0.2000000   0.0000000  -0.2000000), wk =   0.0320000
        k(   19) = (   0.2000000   0.2000000   0.0000000), wk =   0.0320000
        k(   20) = (   0.2000000   0.2000000   0.2000000), wk =   0.0320000
        k(   21) = (   0.2000000   0.2000000   0.4000000), wk =   0.0320000
        k(   22) = (   0.2000000   0.2000000  -0.4000000), wk =   0.0320000
        k(   23) = (   0.2000000   0.2000000  -0.2000000), wk =   0.0320000
        k(   24) = (   0.2000000   0.4000000   0.0000000), wk =   0.0320000
        k(   25) = (   0.2000000   0.4000000   0.2000000), wk =   0.0320000
        k(   26) = (   0.2000000   0.4000000   0.4000000), wk =   0.0320000
        k(   27) = (   0.2000000   0.4000000  -0.4000000), wk =   0.0320000
        k(   28) = (   0.2000000   0.4000000  -0.2000000), wk =   0.0320000
        k(   29) = (   0.2000000  -0.4000000   0.0000000), wk =   0.0320000
        k(   30) = (   0.2000000  -0.4000000   0.2000000), wk =   0.0320000
        k(   31) = (   0.2000000  -0.4000000   0.4000000), wk =   0.0320000
        k(   32) = (   0.2000000  -0.4000000  -0.4000000), wk =   0.0320000
        k(   33) = (   0.2000000  -0.4000000  -0.2000000), wk =   0.0320000
        k(   34) = (   0.2000000  -0.2000000   0.0000000), wk =   0.0320000
        k(   35) = (   0.2000000  -0.2000000   0.2000000), wk =   0.0320000
        k(   36) = (   0.2000000  -0.2000000   0.4000000), wk =   0.0320000
        k(   37) = (   0.2000000  -0.2000000  -0.4000000), wk =   0.0320000
        k(   38) = (   0.2000000  -0.2000000  -0.2000000), wk =   0.0320000
        k(   39) = (   0.4000000   0.0000000   0.0000000), wk =   0.0320000
        k(   40) = (   0.4000000   0.0000000   0.2000000), wk =   0.0320000
        k(   41) = (   0.4000000   0.0000000   0.4000000), wk =   0.0320000
        k(   42) = (   0.4000000   0.0000000  -0.4000000), wk =   0.0320000
        k(   43) = (   0.4000000   0.0000000  -0.2000000), wk =   0.0320000
        k(   44) = (   0.4000000   0.2000000   0.0000000), wk =   0.0320000
        k(   45) = (   0.4000000   0.2000000   0.2000000), wk =   0.0320000
        k(   46) = (   0.4000000   0.2000000   0.4000000), wk =   0.0320000
        k(   47) = (   0.4000000   0.2000000  -0.4000000), wk =   0.0320000
        k(   48) = (   0.4000000   0.2000000  -0.2000000), wk =   0.0320000
        k(   49) = (   0.4000000   0.4000000   0.0000000), wk =   0.0320000
        k(   50) = (   0.4000000   0.4000000   0.2000000), wk =   0.0320000
        k(   51) = (   0.4000000   0.4000000   0.4000000), wk =   0.0320000
        k(   52) = (   0.4000000   0.4000000  -0.4000000), wk =   0.0320000
        k(   53) = (   0.4000000   0.4000000  -0.2000000), wk =   0.0320000
        k(   54) = (   0.4000000  -0.4000000   0.0000000), wk =   0.0320000
        k(   55) = (   0.4000000  -0.4000000   0.2000000), wk =   0.0320000
        k(   56) = (   0.4000000  -0.4000000   0.4000000), wk =   0.0320000
        k(   57) = (   0.4000000  -0.4000000  -0.4000000), wk =   0.0320000
        k(   58) = (   0.4000000  -0.4000000  -0.2000000), wk =   0.0320000
        k(   59) = (   0.4000000  -0.2000000   0.0000000), wk =   0.0320000
        k(   60) = (   0.4000000  -0.2000000   0.2000000), wk =   0.0320000
        k(   61) = (   0.4000000  -0.2000000   0.4000000), wk =   0.0320000
        k(   62) = (   0.4000000  -0.2000000  -0.4000000), wk =   0.0320000
        k(   63) = (   0.4000000  -0.2000000  -0.2000000), wk =   0.0320000

                       cryst. coord.
        k(    1) = (   0.0000000   0.0000000   0.0000000), wk =   0.0160000
        k(    2) = (   0.0000000   0.0000000   0.2000000), wk =   0.0320000
        k(    3) = (   0.0000000   0.0000000   0.4000000), wk =   0.0320000
        k(    4) = (   0.0000000   0.2000000   0.0000000), wk =   0.0320000
        k(    5) = (   0.0000000   0.2000000   0.2000000), wk =   0.0320000
        k(    6) = (   0.0000000   0.2000000   0.4000000), wk =   0.0320000
        k(    7) = (   0.0000000   0.2000000  -0.4000000), wk =   0.0320000
        k(    8) = (   0.0000000   0.2000000  -0.2000000), wk =   0.0320000
        k(    9) = (   0.0000000   0.4000000   0.0000000), wk =   0.0320000
        k(   10) = (   0.0000000   0.4000000   0.2000000), wk =   0.0320000
        k(   11) = (   0.0000000   0.4000000   0.4000000), wk =   0.0320000
        k(   12) = (   0.0000000   0.4000000  -0.4000000), wk =   0.0320000
        k(   13) = (   0.0000000   0.4000000  -0.2000000), wk =   0.0320000
        k(   14) = (   0.2000000   0.0000000   0.0000000), wk =   0.0320000
        k(   15) = (   0.2000000   0.0000000   0.2000000), wk =   0.0320000
        k(   16) = (   0.2000000   0.0000000   0.4000000), wk =   0.0320000
        k(   17) = (   0.2000000   0.0000000  -0.4000000), wk =   0.0320000
        k(   18) = (   0.2000000   0.0000000  -0.2000000), wk =   0.0320000
        k(   19) = (   0.2000000   0.2000000   0.0000000), wk =   0.0320000
        k(   20) = (   0.2000000   0.2000000   0.2000000), wk =   0.0320000
        k(   21) = (   0.2000000   0.2000000   0.4000000), wk =   0.0320000
        k(   22) = (   0.2000000   0.2000000  -0.4000000), wk =   0.0320000
        k(   23) = (   0.2000000   0.2000000  -0.2000000), wk =   0.0320000
        k(   24) = (   0.2000000   0.4000000   0.0000000), wk =   0.0320000
        k(   25) = (   0.2000000   0.4000000   0.2000000), wk =   0.0320000
        k(   26) = (   0.2000000   0.4000000   0.4000000), wk =   0.0320000
        k(   27) = (   0.2000000   0.4000000  -0.4000000), wk =   0.0320000
        k(   28) = (   0.2000000   0.4000000  -0.2000000), wk =   0.0320000
        k(   29) = (   0.2000000  -0.4000000   0.0000000), wk =   0.0320000
        k(   30) = (   0.2000000  -0.4000000   0.2000000), wk =   0.0320000
        k(   31) = (   0.2000000  -0.4000000   0.4000000), wk =   0.0320000
        k(   32) = (   0.2000000  -0.4000000  -0.4000000), wk =   0.0320000
        k(   33) = (   0.2000000  -0.4000000  -0.2000000), wk =   0.0320000
        k(   34) = (   0.2000000  -0.2000000   0.0000000), wk =   0.0320000
        k(   35) = (   0.2000000  -0.2000000   0.2000000), wk =   0.0320000
        k(   36) = (   0.2000000  -0.2000000   0.4000000), wk =   0.0320000
        k(   37) = (   0.2000000  -0.2000000  -0.4000000), wk =   0.0320000
        k(   38) = (   0.2000000  -0.2000000  -0.2000000), wk =   0.0320000
        k(   39) = (   0.4000000   0.0000000   0.0000000), wk =   0.0320000
        k(   40) = (   0.4000000   0.0000000   0.2000000), wk =   0.0320000
        k(   41) = (   0.4000000   0.0000000   0.4000000), wk =   0.0320000
        k(   42) = (   0.4000000   0.0000000  -0.4000000), wk =   0.0320000
        k(   43) = (   0.4000000   0.0000000  -0.2000000), wk =   0.0320000
        k(   44) = (   0.4000000   0.2000000   0.0000000), wk =   0.0320000
        k(   45) = (   0.4000000   0.2000000   0.2000000), wk =   0.0320000
        k(   46) = (   0.4000000   0.2000000   0.4000000), wk =   0.0320000
        k(   47) = (   0.4000000   0.2000000  -0.4000000), wk =   0.0320000
        k(   48) = (   0.4000000   0.2000000  -0.2000000), wk =   0.0320000
        k(   49) = (   0.4000000   0.4000000   0.0000000), wk =   0.0320000
        k(   50) = (   0.4000000   0.4000000   0.2000000), wk =   0.0320000
        k(   51) = (   0.4000000   0.4000000   0.4000000), wk =   0.0320000
        k(   52) = (   0.4000000   0.4000000  -0.4000000), wk =   0.0320000
        k(   53) = (   0.4000000   0.4000000  -0.2000000), wk =   0.0320000
        k(   54) = (   0.4000000  -0.4000000   0.0000000), wk =   0.0320000
        k(   55) = (   0.4000000  -0.4000000   0.2000000), wk =   0.0320000
        k(   56) = (   0.4000000  -0.4000000   0.4000000), wk =   0.0320000
        k(   57) = (   0.4000000  -0.4000000  -0.4000000), wk =   0.0320000
        k(   58) = (   0.4000000  -0.4000000  -0.2000000), wk =   0.0320000
        k(   59) = (   0.4000000  -0.2000000   0.0000000), wk =   0.0320000
        k(   60) = (   0.4000000  -0.2000000   0.2000000), wk =   0.0320000
        k(   61) = (   0.4000000  -0.2000000   0.4000000), wk =   0.0320000
        k(   62) = (   0.4000000  -0.2000000  -0.4000000), wk =   0.0320000
        k(   63) = (   0.4000000  -0.2000000  -0.2000000), wk =   0.0320000

     Dense  grid:  3895379 G-vectors     FFT dimensions: ( 200, 200, 200)

     Smooth grid:   985619 G-vectors     FFT dimensions: ( 125, 125, 125)

     Dynamical RAM for                 wfc:     108.09 MB

     Dynamical RAM for     wfc (w. buffer):     324.28 MB

     Dynamical RAM for           str. fact:      14.86 MB

     Dynamical RAM for           local pot:       0.00 MB

     Dynamical RAM for          nlocal pot:    1078.58 MB

     Dynamical RAM for                qrad:      15.65 MB

     Dynamical RAM for          rho,v,vnew:      45.18 MB

     Dynamical RAM for               rhoin:      15.06 MB

     Dynamical RAM for            rho*nmix:     118.88 MB

     Dynamical RAM for           G-vectors:      28.80 MB

     Dynamical RAM for          h,s,v(r/c):      38.75 MB

     Dynamical RAM for          <psi|beta>:      32.22 MB

     Dynamical RAM for                 psi:     432.37 MB

     Dynamical RAM for                hpsi:     432.37 MB

     Dynamical RAM for                spsi:     432.37 MB

     Dynamical RAM for      wfcinit/wfcrot:     503.19 MB

     Dynamical RAM for           addusdens:      98.03 MB

     Dynamical RAM for          addusforce:     200.56 MB

     Dynamical RAM for         addusstress:      45.09 MB

     Estimated static dynamical RAM per process >       1.66 GB

     Estimated max dynamical RAM per process >       3.00 GB

     Estimated total dynamical RAM >     863.38 GB

     Initial potential from superposition of free atoms

     starting charge  765.41773, renormalised to  766.00000
     Starting wfcs are 1020 randomized atomic wfcs
     Checking if some PAW data can be deallocated... 
       PAW data deallocated on    2 nodes for type:  1

     total cpu time spent up to now is      204.2 secs

     Self-consistent Calculation

     iteration #  1     ecut=    40.00 Ry     beta= 0.40
     Davidson diagonalization with overlap
     ethr =  1.00E-02,  avg # of iterations =  3.0

     Threshold (ethr) on eigenvalues was too large:
     Diagonalizing with lowered threshold

     Davidson diagonalization with overlap
     ethr =  1.91E-04,  avg # of iterations =  8.4

     total cpu time spent up to now is      981.5 secs

     total energy              =  -10045.22159936 Ry
     Harris-Foulkes estimate   =  -10045.39047477 Ry
     estimated scf accuracy    <       1.49701739 Ry

     iteration #  2     ecut=    40.00 Ry     beta= 0.40
     Davidson diagonalization with overlap
     ethr =  1.95E-04,  avg # of iterations =  1.0

     total cpu time spent up to now is     1208.4 secs

     total energy              =  -10045.01068238 Ry
     Harris-Foulkes estimate   =  -10045.22851779 Ry
     estimated scf accuracy    <       0.78081673 Ry

     iteration #  3     ecut=    40.00 Ry     beta= 0.40
     Davidson diagonalization with overlap
     ethr =  1.02E-04,  avg # of iterations =  1.0

     total cpu time spent up to now is     1435.1 secs

     total energy              =  -10045.02757891 Ry
     Harris-Foulkes estimate   =  -10045.02992071 Ry
     estimated scf accuracy    <       0.00392699 Ry

     iteration #  4     ecut=    40.00 Ry     beta= 0.40
     Davidson diagonalization with overlap
     c_bands:  2 eigenvalues not converged
     ethr =  5.13E-07,  avg # of iterations = 18.7

     total cpu time spent up to now is     2153.1 secs

     total energy              =  -10045.03148419 Ry
     Harris-Foulkes estimate   =  -10045.03137091 Ry
     estimated scf accuracy    <       0.00756993 Ry

     iteration #  5     ecut=    40.00 Ry     beta= 0.40
     Davidson diagonalization with overlap
     c_bands:  2 eigenvalues not converged
     ethr =  5.13E-07,  avg # of iterations =  8.2

     total cpu time spent up to now is     2439.4 secs

     total energy              =  -10045.02941956 Ry
     Harris-Foulkes estimate   =  -10045.03148886 Ry
     estimated scf accuracy    <       0.00890554 Ry

     iteration #  6     ecut=    40.00 Ry     beta= 0.40
     Davidson diagonalization with overlap
     c_bands:  2 eigenvalues not converged
     ethr =  5.13E-07,  avg # of iterations =  5.3

     total cpu time spent up to now is     2779.5 secs

     total energy              =  -10045.03034691 Ry
     Harris-Foulkes estimate   =  -10045.03046150 Ry
     estimated scf accuracy    <       0.00173271 Ry

     iteration #  7     ecut=    40.00 Ry     beta= 0.40
     Davidson diagonalization with overlap
     ethr =  2.26E-07,  avg # of iterations =  1.2

     total cpu time spent up to now is     3006.5 secs

     total energy              =  -10045.03034386 Ry
     Harris-Foulkes estimate   =  -10045.03038337 Ry
     estimated scf accuracy    <       0.00070707 Ry

     iteration #  8     ecut=    40.00 Ry     beta= 0.40
     Davidson diagonalization with overlap
     ethr =  9.23E-08,  avg # of iterations =  1.6

     total cpu time spent up to now is     3237.2 secs

     total energy              =  -10045.03033052 Ry
     Harris-Foulkes estimate   =  -10045.03035906 Ry
     estimated scf accuracy    <       0.00028890 Ry

     iteration #  9     ecut=    40.00 Ry     beta= 0.40
     Davidson diagonalization with overlap
     ethr =  3.77E-08,  avg # of iterations =  3.0

     total cpu time spent up to now is     3486.8 secs

     total energy              =  -10045.03034883 Ry
     Harris-Foulkes estimate   =  -10045.03035047 Ry
     estimated scf accuracy    <       0.00001555 Ry

     iteration # 10     ecut=    40.00 Ry     beta= 0.40
     Davidson diagonalization with overlap
     ethr =  2.03E-09,  avg # of iterations =  5.9

     total cpu time spent up to now is     3881.2 secs

     total energy              =  -10045.03035098 Ry
     Harris-Foulkes estimate   =  -10045.03035072 Ry
     estimated scf accuracy    <       0.00000340 Ry

     iteration # 11     ecut=    40.00 Ry     beta= 0.40
     Davidson diagonalization with overlap
     ethr =  4.44E-10,  avg # of iterations =  2.0

     total cpu time spent up to now is     4118.0 secs

     total energy              =  -10045.03034930 Ry
     Harris-Foulkes estimate   =  -10045.03035103 Ry
     estimated scf accuracy    <       0.00001197 Ry

     iteration # 12     ecut=    40.00 Ry     beta= 0.40
     Davidson diagonalization with overlap
     ethr =  4.44E-10,  avg # of iterations =  3.0

     total cpu time spent up to now is     4391.0 secs

     total energy              =  -10045.03035005 Ry
     Harris-Foulkes estimate   =  -10045.03035003 Ry
     estimated scf accuracy    <       0.00000006 Ry

     iteration # 13     ecut=    40.00 Ry     beta= 0.40
     Davidson diagonalization with overlap
     ethr =  8.25E-12,  avg # of iterations =  5.5

     total cpu time spent up to now is     4795.2 secs

     total energy              =  -10045.03034893 Ry
     Harris-Foulkes estimate   =  -10045.03034895 Ry
     estimated scf accuracy    <       0.00000012 Ry

     iteration # 14     ecut=    40.00 Ry     beta= 0.40
     Davidson diagonalization with overlap
     ethr =  8.25E-12,  avg # of iterations =  2.0

     total cpu time spent up to now is     5029.2 secs

     total energy              =  -10045.03034885 Ry
     Harris-Foulkes estimate   =  -10045.03034888 Ry
     estimated scf accuracy    <       0.00000002 Ry

     iteration # 15     ecut=    40.00 Ry     beta= 0.40
     Davidson diagonalization with overlap
     ethr =  2.64E-12,  avg # of iterations =  4.3

     total cpu time spent up to now is     5381.6 secs

     total energy              =  -10045.03034876 Ry
     Harris-Foulkes estimate   =  -10045.03034878 Ry
     estimated scf accuracy    <       0.00000014 Ry

     iteration # 16     ecut=    40.00 Ry     beta= 0.40
     Davidson diagonalization with overlap
     ethr =  2.64E-12,  avg # of iterations =  3.3

     total cpu time spent up to now is     5677.4 secs

     total energy              =  -10045.03034872 Ry
     Harris-Foulkes estimate   =  -10045.03034872 Ry
     estimated scf accuracy    <          1.1E-09 Ry

     iteration # 17     ecut=    40.00 Ry     beta= 0.40
     Davidson diagonalization with overlap
     ethr =  1.40E-13,  avg # of iterations =  4.0

     total cpu time spent up to now is     5966.3 secs

     total energy              =  -10045.03034869 Ry
     Harris-Foulkes estimate   =  -10045.03034869 Ry
     estimated scf accuracy    <          6.8E-10 Ry

     iteration # 18     ecut=    40.00 Ry     beta= 0.40
     Davidson diagonalization with overlap
     ethr =  1.00E-13,  avg # of iterations =  1.2

     total cpu time spent up to now is     6193.3 secs

     total energy              =  -10045.03034868 Ry
     Harris-Foulkes estimate   =  -10045.03034868 Ry
     estimated scf accuracy    <          2.3E-10 Ry

     iteration # 19     ecut=    40.00 Ry     beta= 0.40
     Davidson diagonalization with overlap
     ethr =  1.00E-13,  avg # of iterations =  1.0

     total cpu time spent up to now is     6419.6 secs

     total energy              =  -10045.03034868 Ry
     Harris-Foulkes estimate   =  -10045.03034868 Ry
     estimated scf accuracy    <          1.3E-11 Ry

     iteration # 20     ecut=    40.00 Ry     beta= 0.40
     Davidson diagonalization with overlap
     ethr =  1.00E-13,  avg # of iterations =  1.0

     total cpu time spent up to now is     6646.2 secs

     total energy              =  -10045.03034867 Ry
     Harris-Foulkes estimate   =  -10045.03034867 Ry
     estimated scf accuracy    <          2.5E-11 Ry

     iteration # 21     ecut=    40.00 Ry     beta= 0.40
     Davidson diagonalization with overlap
     ethr =  1.00E-13,  avg # of iterations =  1.0

     total cpu time spent up to now is     6874.2 secs

     total energy              =  -10045.03034867 Ry
     Harris-Foulkes estimate   =  -10045.03034867 Ry
     estimated scf accuracy    <          3.0E-12 Ry

     iteration # 22     ecut=    40.00 Ry     beta= 0.40
     Davidson diagonalization with overlap
     ethr =  1.00E-13,  avg # of iterations =  1.0

     total cpu time spent up to now is     7099.7 secs

     End of self-consistent calculation

          k = 0.0000 0.0000 0.0000 (123065 PWs)   bands (ev):

    -3.3203  -2.8970  -2.7451  -2.7451  -2.7396  -2.7391  -2.6952  -2.3824
    -2.1912  -2.1896  -2.1863  -2.1848  -2.1833  -2.1826  -2.1823  -2.1791
    -2.1726  -2.1723  -2.0686  -1.7360  -1.6313  -1.6294  -1.6258  -1.6213
    -1.6205  -1.6187  -1.5452  -1.1588  -1.0747  -1.0696  -1.0691  -1.0647
    -1.0299  -0.7788  -0.5478  -0.5432  -0.5348  -0.5247  -0.5233  -0.5222
    -0.5218  -0.5213  -0.5206  -0.5201  -0.5198  -0.5197  -0.5186  -0.5183
    -0.5151  -0.5146  -0.5142  -0.5141  -0.5123  -0.4921  -0.4827  -0.4808
    -0.3461  -0.1261   0.0029   0.0036   0.0116   0.0273   0.0292   0.0294
     0.0301   0.0302   0.0309   0.0309   0.0320   0.0324   0.0326   0.0330
     0.0333   0.0333   0.0360   0.0408   0.0421   0.0674   0.0736   0.0748
     0.3287   1.0026   1.1104   1.1114   1.1189   1.1278   1.1281   1.1288
     1.1295   1.1366   1.1435   1.1451   1.2079   1.4594   1.6185   1.6257
     1.6260   1.6619   1.6621   1.6640   1.6642   1.6657   1.6664   1.6665
     1.6678   1.6688   1.6692   1.6694   1.6699   1.6709   1.6711   1.6719
     1.6728   1.6728   1.6733   1.6734   1.6781   1.6822   1.6828   1.7275
     1.7287   1.7298   1.8725   2.0953   2.1657   2.1685   2.1791   2.1997
     2.2013   2.2025   2.2027   2.2034   2.2042   2.2049   2.2061   2.2069
     2.2078   2.2079   2.2084   2.2096   2.2103   2.2148   2.2171   2.2550
     2.2624   2.2673   2.4053   2.6379   2.7049   2.7079   2.7108   2.7386
     2.7415   2.7419   2.7440   2.7442   2.7449   2.7451   2.7452   2.7469
     2.7478   2.7479   2.7490   2.7502   2.7522   2.7528   2.7534   2.8036
     2.8139   2.8167   2.9981   3.1913   3.2138   3.2175   3.2261   3.3415
     3.3926   3.3929   3.4595   3.7183   3.7743   3.7772   3.7825   3.8118
     3.8140   3.8145   3.8152   3.8161   3.8170   3.8175   3.8192   3.8195
     3.8201   3.8211   3.8221   3.8249   3.8259   3.8285   3.8299   3.8662
     3.8689   3.8751   3.9790   4.1741   4.1744   4.1917   4.2385   4.2388
     4.2397   4.2410   4.2418   4.2425   4.2431   4.2434   4.2439   4.2445
     4.2446   4.2449   4.2461   4.2489   4.2514   4.2515   4.2572   4.2579
     4.2853   4.3406   4.3579   4.3590   4.4617   4.4627   4.4669   4.4677
     4.4702   4.4724   4.4728   4.4738   4.4748   4.4754   4.4756   4.4765
     4.4769   4.4773   4.4781   4.4804   4.4933   4.5009   4.5032   4.5187
     4.5215   4.5248   4.8678   4.8694   4.8697   4.9638   5.3276   5.3281
     5.3438   5.3706   5.3708   5.3715   5.3729   5.3780   5.3789   5.4213
     5.4308   5.4336   5.8229   5.8275   5.8312   5.8343   5.8859   5.8866
     5.8877   5.8923   5.8945   5.8979   5.9058   5.9088   5.9100   5.9313
     5.9359   5.9451   5.9518   5.9554   5.9572   5.9583   5.9591   5.9599
     5.9606   5.9613   5.9616   5.9620   5.9622   5.9635   5.9638   5.9808
     5.9972   5.9981   6.0624   6.0630   6.0656   6.0686   6.1437   6.1622
     6.2178   6.3946   6.3950   6.3977   6.4125   6.4135   6.4156   6.4167
     6.4192   6.4229   6.4546   6.4604   6.4646   6.5804   6.6845   6.6859
     6.6905   6.6930   6.6935   6.6967   6.6976   6.7003   6.7229   6.7354
     6.7917   6.8723   6.8735   6.8806   6.9196   6.9202   6.9233   6.9240
     6.9242   6.9271   6.9294   6.9385   6.9408   6.9556   6.9767   6.9809
     6.9836   6.9938   6.9989   6.9999   7.0002   7.0005   7.0032   7.0033
     7.0053   7.0061   7.0075   7.0083   7.0102   7.0110   7.0300   7.0367
     7.0377   7.0983   7.1037   7.1083   7.1130   7.2415   7.3316   7.3317
     7.3347   7.3356   7.3365   7.3366   7.3377   7.3391   7.3615   7.3645
     7.3817   7.3827   7.3845   7.4263   7.4294   7.4318   7.4325   7.4346
     7.4355   7.4385   7.4386   7.4390   7.4393   7.4403   7.4405   7.4435
     7.4465   7.4470   7.4753   7.4837   7.4855   7.5991   7.6034   7.6073
     7.6699   7.9436   7.9535   7.9599   7.9609   7.9677   7.9738   8.4247
     8.5240   8.5315   8.5433   8.5709   8.5737   8.5743   8.5781   8.5805
     8.5809   8.5818   8.5822   8.5829   8.5829   8.5829   8.5838   8.5845
     8.6112   8.6154   8.6231   8.6302   8.6495   8.6500   8.6524   8.7003
     8.7948   8.7960   8.7983   8.7988   8.8221   8.8383   8.8553   8.8586
     8.8635   8.8749   8.8768   8.8823   8.8824   8.8839   8.8842   8.8849
     8.8856   8.8880   8.8882   8.8898   8.8928   8.8949   8.8968   8.9010
     8.9077   8.9110   8.9354   8.9384

     occupation numbers 
     1.0000   1.0000   1.0000   1.0000   1.0000   1.0000   1.0000   1.0000
     1.0000   1.0000   1.0000   1.0000   1.0000   1.0000   1.0000   1.0000
     1.0000   1.0000   1.0000   1.0000   1.0000   1.0000   1.0000   1.0000
     1.0000   1.0000   1.0000   1.0000   1.0000   1.0000   1.0000   1.0000
     1.0000   1.0000   1.0000   1.0000   1.0000   1.0000   1.0000   1.0000
     1.0000   1.0000   1.0000   1.0000   1.0000   1.0000   1.0000   1.0000
     1.0000   1.0000   1.0000   1.0000   1.0000   1.0000   1.0000   1.0000
     1.0000   1.0000   1.0000   1.0000   1.0000   1.0000   1.0000   1.0000
     1.0000   1.0000   1.0000   1.0000   1.0000   1.0000   1.0000   1.0000
     1.0000   1.0000   1.0000   1.0000   1.0000   1.0000   1.0000   1.0000
     1.0000   1.0000   1.0000   1.0000   1.0000   1.0000   1.0000   1.0000
     1.0000   1.0000   1.0000   1.0000   1.0000   1.0000   1.0000   1.0000
     1.0000   1.0000   1.0000   1.0000   1.0000   1.0000   1.0000   1.0000
     1.0000   1.0000   1.0000   1.0000   1.0000   1.0000   1.0000   1.0000
     1.0000   1.0000   1.0000   1.0000   1.0000   1.0000   1.0000   1.0000
     1.0000   1.0000   1.0000   1.0000   1.0000   1.0000   1.0000   1.0000
     1.0000   1.0000   1.0000   1.0000   1.0000   1.0000   1.0000   1.0000
     1.0000   1.0000   1.0000   1.0000   1.0000   1.0000   1.0000   1.0000
     1.0000   1.0000   1.0000   1.0000   1.0000   1.0000   1.0000   1.0000
     1.0000   1.0000   1.0000   1.0000   1.0000   1.0000   1.0000   1.0000
     1.0000   1.0000   1.0000   1.0000   1.0000   1.0000   1.0000   1.0000
     1.0000   1.0000   1.0000   1.0000   1.0000   1.0000   1.0000   1.0000
     1.0000   1.0000   1.0000   1.0000   1.0000   1.0000   1.0000   1.0000
     1.0000   1.0000   1.0000   1.0000   1.0000   1.0000   1.0000   1.0000
     1.0000   1.0000   1.0000   1.0000   1.0000   1.0000   1.0000   1.0000
     1.0000   1.0000   1.0000   1.0000   1.0000   1.0000   1.0000   1.0000
     1.0000   1.0000   1.0000   1.0000   1.0000   1.0000   1.0000   1.0000
     1.0000   1.0000   1.0000   1.0000   1.0000   1.0000   1.0000   1.0000
     1.0000   1.0000   1.0000   1.0000   1.0000   1.0000   1.0000   1.0000
     1.0000   1.0000   1.0000   1.0000   1.0000   1.0000   1.0000   1.0000
     1.0000   1.0000   1.0000   1.0000   1.0000   1.0000   1.0000   1.0000
     1.0000   1.0000   1.0000   1.0000   1.0000   1.0000   1.0000   1.0000
     1.0000   1.0000   1.0000   1.0000   1.0000   1.0000   1.0000   1.0000
     1.0000   1.0000   1.0000   1.0000   1.0000   1.0000   1.0001   1.0001
     1.0001   1.0001   1.0001   1.0001   1.0001   1.0001   1.0001   1.0001
     1.0001   1.0001   1.0001   1.0001   1.0001   1.0001   1.0001   1.0001
     1.0001   1.0001   1.0001   1.0001   1.0001   1.0001   1.0001   1.0001
     1.0001   1.0001   1.0003   1.0003   1.0003   1.0003   1.0005   1.0006
     1.0009   1.0032   1.0032   1.0032   1.0036   1.0036   1.0036   1.0037
     1.0037   1.0038   1.0046   1.0048   1.0049   1.0094   1.0154   1.0155
     1.0158   1.0160   1.0160   1.0162   1.0163   1.0165   1.0181   1.0190
     1.0232   1.0293   1.0294   1.0299   1.0324   1.0324   1.0326   1.0326
     1.0326   1.0328   1.0329   1.0334   1.0335   1.0342   1.0349   1.0350
     1.0351   1.0353   1.0354   1.0354   1.0354   1.0354   1.0354   1.0354
     1.0354   1.0354   1.0354   1.0354   1.0354   1.0355   1.0354   1.0352
     1.0352   1.0319   1.0314   1.0309   1.0304   1.0011   0.9588   0.9587
     0.9569   0.9564   0.9558   0.9557   0.9551   0.9542   0.9399   0.9380
     0.9259   0.9251   0.9238   0.8907   0.8881   0.8860   0.8854   0.8836
     0.8828   0.8801   0.8801   0.8797   0.8794   0.8785   0.8784   0.8757
     0.8729   0.8725   0.8458   0.8373   0.8355   0.7051   0.6997   0.6946
     0.6114   0.2417   0.2301   0.2226   0.2215   0.2138   0.2070  -0.0337
    -0.0348  -0.0346  -0.0342  -0.0329  -0.0327  -0.0327  -0.0325  -0.0323
    -0.0323  -0.0322  -0.0322  -0.0322  -0.0322  -0.0322  -0.0321  -0.0321
    -0.0304  -0.0301  -0.0296  -0.0291  -0.0277  -0.0276  -0.0274  -0.0238
    -0.0168  -0.0167  -0.0165  -0.0165  -0.0149  -0.0139  -0.0128  -0.0127
    -0.0124  -0.0117  -0.0116  -0.0113  -0.0113  -0.0112  -0.0112  -0.0112
    -0.0111  -0.0110  -0.0110  -0.0109  -0.0107  -0.0106  -0.0105  -0.0103
    -0.0100  -0.0098  -0.0086  -0.0085

          k = 0.0000 0.0000 0.2000 (123202 PWs)   bands (ev):

    -3.2986  -2.9790  -2.8218  -2.7225  -2.7169  -2.6876  -2.5305  -2.4470
    -2.3869  -2.3811  -2.3493  -2.2237  -2.1607  -2.1570  -2.1254  -2.0036
    -1.9405  -1.9346  -1.9022  -1.8627  -1.8262  -1.8224  -1.7728  -1.5075
    -1.4370  -1.3818  -1.3781  -1.3405  -1.1199  -1.0481  -1.0471  -1.0284
    -0.9856  -0.9412  -0.9356  -0.8994  -0.7699  -0.7167  -0.7158  -0.6938
    -0.6289  -0.5692  -0.5100  -0.5033  -0.4968  -0.4951  -0.4856  -0.4795
    -0.4536  -0.4197  -0.3860  -0.3823  -0.3431  -0.3097  -0.2749  -0.2742
    -0.2549  -0.2078  -0.1781  -0.1719  -0.1661  -0.1643  -0.1519  -0.1448
    -0.0940  -0.0788  -0.0588  -0.0531   0.0246   0.2117   0.2610   0.2673
     0.2734   0.2752   0.2861   0.2932   0.3565   0.4605   0.4931   0.4970
     0.5771   0.6779   0.7135   0.7139   0.7533   1.0180   1.1009   1.1406
     1.1576   1.1628   1.2013   1.2452   1.2512   1.2576   1.2593   1.2687
     1.2756   1.3243   1.4404   1.4682   1.4858   1.4910   1.5416   1.5599
     1.5777   1.5818   1.5852   1.5868   1.6071   1.6397   1.6760   1.6847
     1.6957   1.7314   1.8741   1.9021   1.9187   1.9251   1.9861   2.0050
     2.0177   2.0268   2.0635   2.0943   2.1121   2.1177   2.1229   2.1253
     2.1266   2.1281   2.1380   2.1435   2.1716   2.1753   2.2065   2.2111
     2.2193   2.2276   2.2322   2.2526   2.2590   2.3053   2.3564   2.4303
     2.4401   2.4528   2.4760   2.5214   2.5345   2.5421   2.5516   2.5563
     2.5776   2.5867   2.6543   2.8188   2.8622   2.8658   2.8699   2.8722
     2.8894   2.9027   2.9116   2.9564   2.9652   2.9727   2.9820   2.9869
     3.0088   3.0182   3.0888   3.1776   3.2036   3.2044   3.2506   3.3636
     3.3977   3.4034   3.4065   3.4125   3.4234   3.4380   3.4831   3.6537
     3.7103   3.7192   3.7289   3.7293   3.7310   3.7386   3.7464   3.7548
     3.7657   3.7836   3.7924   3.8185   3.8216   3.8331   3.8378   3.8459
     3.8539   3.8670   3.8950   3.9178   3.9224   3.9302   3.9376   3.9434
     3.9698   3.9776   4.0314   4.1276   4.1328   4.1458   4.1488   4.1570
     4.1787   4.1943   4.2335   4.2543   4.2687   4.2819   4.3119   4.4380
     4.4626   4.4743   4.4750   4.5045   4.5724   4.5904   4.6045   4.6083
     4.6166   4.6267   4.6408   4.6804   4.7799   4.8070   4.8129   4.8247
     4.8270   4.8398   4.8443   4.8954   4.8981   4.9009   4.9258   4.9714
     4.9768   4.9853   5.0216   5.0258   5.0294   5.0322   5.0334   5.0442
     5.0497   5.1871   5.1909   5.2566   5.3169   5.3429   5.3569   5.3686
     5.3809   5.3887   5.4161   5.4220   5.4535   5.4908   5.4945   5.5264
     5.5338   5.5434   5.5524   5.5567   5.5648   5.5723   5.5828   5.6066
     5.6170   5.6603   5.6877   5.6984   5.7379   5.7459   5.8312   5.8521
     5.8601   5.8871   6.0942   6.1028   6.1379   6.1448   6.1552   6.1948
     6.3138   6.3604   6.3687   6.3758   6.3936   6.3978   6.4013   6.4026
     6.4041   6.4130   6.4147   6.4177   6.4242   6.4296   6.4328   6.4444
     6.4710   6.4739   6.4837   6.4915   6.5009   6.5119   6.5278   6.5299
     6.5337   6.5531   6.5626   6.5790   6.5998   6.6048   6.6236   6.6252
     6.6544   6.6925   6.7145   6.7276   6.7604   6.8060   6.8100   6.8196
     6.8333   6.8557   6.8635   6.8653   6.8905   6.9207   6.9302   6.9491
     6.9556   6.9696   6.9727   7.0143   7.0287   7.0379   7.0592   7.0640
     7.0652   7.0684   7.0712   7.0733   7.0844   7.1063   7.1116   7.1295
     7.1367   7.1807   7.2210   7.2266   7.2289   7.2336   7.2475   7.2529
     7.2680   7.2983   7.3002   7.3115   7.3422   7.3428   7.3735   7.3867
     7.4041   7.5040   7.5413   7.5554   7.5915   7.6095   7.6239   7.6302
     7.6440   7.6484   7.6538   7.6541   7.6602   7.6758   7.6992   7.7006
     7.7095   7.7251   7.7399   7.7419   7.7837   7.8051   7.8574   7.8669
     7.9193   7.9254   7.9356   7.9505   7.9629   7.9770   7.9785   7.9883
     8.0124   8.0229   8.0547   8.1611   8.1661   8.1683   8.1788   8.1859
     8.2141   8.2216   8.2303   8.4441   8.4863   8.5010   8.5352   8.5839
     8.5969   8.6052   8.6188   8.6277   8.6311   8.6532   8.6643   8.6790
     8.6988   8.7000   8.7503   8.8784   8.9216   8.9243   9.0016   9.0077
     9.0153   9.0194   9.0256   9.0272   9.0300   9.0352   9.0720   9.1111
     9.1229   9.1321   9.1341   9.1568   9.1613   9.1722   9.1891   9.1986
     9.2130   9.2180   9.2192   9.2388

     occupation numbers 
     1.0000   1.0000   1.0000   1.0000   1.0000   1.0000   1.0000   1.0000
     1.0000   1.0000   1.0000   1.0000   1.0000   1.0000   1.0000   1.0000
     1.0000   1.0000   1.0000   1.0000   1.0000   1.0000   1.0000   1.0000
     1.0000   1.0000   1.0000   1.0000   1.0000   1.0000   1.0000   1.0000
     1.0000   1.0000   1.0000   1.0000   1.0000   1.0000   1.0000   1.0000
     1.0000   1.0000   1.0000   1.0000   1.0000   1.0000   1.0000   1.0000
     1.0000   1.0000   1.0000   1.0000   1.0000   1.0000   1.0000   1.0000
     1.0000   1.0000   1.0000   1.0000   1.0000   1.0000   1.0000   1.0000
     1.0000   1.0000   1.0000   1.0000   1.0000   1.0000   1.0000   1.0000
     1.0000   1.0000   1.0000   1.0000   1.0000   1.0000   1.0000   1.0000
     1.0000   1.0000   1.0000   1.0000   1.0000   1.0000   1.0000   1.0000
     1.0000   1.0000   1.0000   1.0000   1.0000   1.0000   1.0000   1.0000
     1.0000   1.0000   1.0000   1.0000   1.0000   1.0000   1.0000   1.0000
     1.0000   1.0000   1.0000   1.0000   1.0000   1.0000   1.0000   1.0000
     1.0000   1.0000   1.0000   1.0000   1.0000   1.0000   1.0000   1.0000
     1.0000   1.0000   1.0000   1.0000   1.0000   1.0000   1.0000   1.0000
     1.0000   1.0000   1.0000   1.0000   1.0000   1.0000   1.0000   1.0000
     1.0000   1.0000   1.0000   1.0000   1.0000   1.0000   1.0000   1.0000
     1.0000   1.0000   1.0000   1.0000   1.0000   1.0000   1.0000   1.0000
     1.0000   1.0000   1.0000   1.0000   1.0000   1.0000   1.0000   1.0000
     1.0000   1.0000   1.0000   1.0000   1.0000   1.0000   1.0000   1.0000
     1.0000   1.0000   1.0000   1.0000   1.0000   1.0000   1.0000   1.0000
     1.0000   1.0000   1.0000   1.0000   1.0000   1.0000   1.0000   1.0000
     1.0000   1.0000   1.0000   1.0000   1.0000   1.0000   1.0000   1.0000
     1.0000   1.0000   1.0000   1.0000   1.0000   1.0000   1.0000   1.0000
     1.0000   1.0000   1.0000   1.0000   1.0000   1.0000   1.0000   1.0000
     1.0000   1.0000   1.0000   1.0000   1.0000   1.0000   1.0000   1.0000
     1.0000   1.0000   1.0000   1.0000   1.0000   1.0000   1.0000   1.0000
     1.0000   1.0000   1.0000   1.0000   1.0000   1.0000   1.0000   1.0000
     1.0000   1.0000   1.0000   1.0000   1.0000   1.0000   1.0000   1.0000
     1.0000   1.0000   1.0000   1.0000   1.0000   1.0000   1.0000   1.0000
     1.0000   1.0000   1.0000   1.0000   1.0000   1.0000   1.0000   1.0000
     1.0000   1.0000   1.0000   1.0000   1.0000   1.0000   1.0000   1.0000
     1.0000   1.0000   1.0000   1.0000   1.0000   1.0000   1.0000   1.0000
     1.0000   1.0000   1.0000   1.0000   1.0000   1.0000   1.0000   1.0000
[...]
     atom   74 type  1   force =     0.00000000    0.00000000   -0.00000001
     atom   75 type  1   force =     0.00000001    0.00000002   -0.00000004
     atom   76 type  1   force =    -0.00000000   -0.00000001   -0.00000002
     atom   77 type  1   force =     0.00000003    0.00000001   -0.00000003
     atom   78 type  1   force =     0.00000006   -0.00000002   -0.00000002
     atom   79 type  1   force =    -0.00000006   -0.00000001    0.00000001
     atom   80 type  1   force =    -0.00000005   -0.00000001    0.00000003
     atom   81 type  1   force =     0.00000003    0.00000002   -0.00000002
     atom   82 type  1   force =     0.00000002    0.00000001    0.00000001
     atom   83 type  1   force =    -0.00000001   -0.00000001    0.00000001
     atom   84 type  1   force =    -0.00000001    0.00000000    0.00000000
     atom   85 type  1   force =     0.00000003    0.00000001    0.00000003
     atom   86 type  1   force =     0.00000002    0.00000001    0.00000002
     atom   87 type  1   force =     0.00000002    0.00000001    0.00000003
     atom   88 type  1   force =     0.00000001    0.00000001    0.00000002
     atom   89 type  1   force =    -0.00000001    0.00000000    0.00000000
     atom   90 type  1   force =    -0.00000001    0.00000001   -0.00000001
     atom   91 type  1   force =    -0.00000000    0.00000000   -0.00000001
     atom   92 type  1   force =     0.00000002    0.00000003   -0.00000005
     atom   93 type  1   force =     0.00000001    0.00000001   -0.00000001
     atom   94 type  1   force =     0.00000005    0.00000003   -0.00000003
     atom   95 type  1   force =     0.00000002    0.00000004   -0.00000003
     atom   96 type  1   force =     0.00000001    0.00000002   -0.00000002
     atom   97 type  1   force =     0.00000002   -0.00000000    0.00000000
     atom   98 type  1   force =     0.00000002    0.00000003    0.00000001
     atom   99 type  1   force =     0.00000003   -0.00000000    0.00000002
     atom  100 type  1   force =     0.00000002    0.00000003    0.00000003
     atom  101 type  1   force =     0.00000000    0.00000001    0.00000001
     atom  102 type  1   force =    -0.00000000    0.00000001    0.00000000
     atom  103 type  1   force =     0.00000001    0.00000000   -0.00000000
     atom  104 type  1   force =     0.00000000   -0.00000001    0.00000000
     atom  105 type  1   force =    -0.00000001   -0.00000001   -0.00000002
     atom  106 type  1   force =    -0.00000001   -0.00000001    0.00000000
     atom  107 type  1   force =    -0.00000001   -0.00000002    0.00000000
     atom  108 type  1   force =    -0.00000000    0.00000000   -0.00000001
     atom  109 type  1   force =    -0.00000001   -0.00000001    0.00000000
     atom  110 type  1   force =     0.00000001    0.00000001   -0.00000002
     atom  111 type  1   force =     0.00000001   -0.00000002   -0.00000002
     atom  112 type  1   force =     0.00000001   -0.00000002   -0.00000001
     atom  113 type  1   force =     0.00000005   -0.00000003   -0.00000001
     atom  114 type  1   force =     0.00000003   -0.00000003    0.00000002
     atom  115 type  1   force =    -0.00000003   -0.00000001   -0.00000001
     atom  116 type  1   force =     0.00000003   -0.00000004    0.00000004
     atom  117 type  1   force =     0.00000004   -0.00000003    0.00000004
     atom  118 type  1   force =    -0.00000000   -0.00000001   -0.00000001
     atom  119 type  1   force =     0.00000002   -0.00000003    0.00000004
     atom  120 type  1   force =    -0.00000000   -0.00000000   -0.00000001
     atom  121 type  1   force =    -0.00000001    0.00000000   -0.00000001
     atom  122 type  1   force =    -0.00000001   -0.00000000    0.00000000
     atom  123 type  1   force =    -0.00000000   -0.00000001   -0.00000003
     atom  124 type  1   force =     0.00000001   -0.00000003   -0.00000001
     atom  125 type  1   force =     0.00000003   -0.00000001   -0.00000001
     atom  126 type  1   force =     0.00000003   -0.00000002   -0.00000001
     atom  127 type  1   force =    -0.00000004    0.00000000   -0.00000000
     atom  128 type  1   force =     0.00000004   -0.00000001   -0.00000002
     atom  129 type  1   force =    -0.00000002    0.00000001   -0.00000001
     atom  130 type  1   force =    -0.00000002    0.00000001    0.00000000
     atom  131 type  1   force =     0.00000004    0.00000001    0.00000001
     atom  132 type  1   force =     0.00000002   -0.00000001    0.00000002
     atom  133 type  1   force =    -0.00000002    0.00000002    0.00000002
     atom  134 type  1   force =    -0.00000001   -0.00000000    0.00000000
     atom  135 type  1   force =     0.00000001    0.00000001    0.00000000
     atom  136 type  1   force =    -0.00000000    0.00000000   -0.00000001
     atom  137 type  1   force =     0.00000001    0.00000000   -0.00000001
     atom  138 type  1   force =     0.00000000    0.00000000    0.00000000
     atom  139 type  1   force =    -0.00000000    0.00000001    0.00000000
     atom  140 type  1   force =     0.00000002   -0.00000000    0.00000001
     atom  141 type  1   force =    -0.00000001    0.00000001    0.00000000
     atom  142 type  1   force =    -0.00000003    0.00000000   -0.00000001
     atom  143 type  1   force =     0.00000003    0.00000000   -0.00000001
     atom  144 type  1   force =     0.00000004    0.00000001   -0.00000001
     atom  145 type  1   force =    -0.00000001    0.00000000   -0.00000001
     atom  146 type  1   force =    -0.00000002    0.00000001    0.00000001
     atom  147 type  1   force =     0.00000003    0.00000000    0.00000001
     atom  148 type  1   force =     0.00000003    0.00000001    0.00000002
     atom  149 type  1   force =    -0.00000000   -0.00000001    0.00000001
     atom  150 type  1   force =    -0.00000001    0.00000000   -0.00000001
     atom  151 type  1   force =     0.00000000   -0.00000000   -0.00000000
     atom  152 type  1   force =    -0.00000000    0.00000001   -0.00000001
     atom  153 type  1   force =     0.00000001   -0.00000000   -0.00000001
     atom  154 type  1   force =     0.00000000    0.00000001    0.00000001
     atom  155 type  1   force =    -0.00000000   -0.00000000    0.00000001
     atom  156 type  1   force =     0.00000001    0.00000001    0.00000000
     atom  157 type  1   force =     0.00000000   -0.00000000    0.00000001
     atom  158 type  1   force =    -0.00000002    0.00000002   -0.00000001
     atom  159 type  1   force =     0.00000002   -0.00000000   -0.00000001
     atom  160 type  1   force =     0.00000001   -0.00000000   -0.00000001
     atom  161 type  1   force =    -0.00000001   -0.00000001    0.00000000
     atom  162 type  1   force =     0.00000001   -0.00000000   -0.00000000
     atom  163 type  1   force =    -0.00000000    0.00000001    0.00000000
     atom  164 type  1   force =    -0.00000000   -0.00000000    0.00000001
     atom  165 type  1   force =     0.00000001    0.00000001    0.00000000
     atom  166 type  1   force =     0.00000000   -0.00000001   -0.00000000
     atom  167 type  1   force =    -0.00000001    0.00000000   -0.00000001
     atom  168 type  1   force =    -0.00000001   -0.00000001   -0.00000001
     atom  169 type  1   force =     0.00000001   -0.00000000   -0.00000000
     atom  170 type  1   force =     0.00000001   -0.00000001    0.00000001
     atom  171 type  1   force =     0.00000000   -0.00000001    0.00000001
     atom  172 type  1   force =    -0.00000000   -0.00000001    0.00000001
     atom  173 type  1   force =     0.00000001   -0.00000000    0.00000000
     atom  174 type  1   force =     0.00000000   -0.00000001   -0.00000000
     atom  175 type  1   force =     0.00000000   -0.00000000   -0.00000000
     atom  176 type  1   force =     0.00000001   -0.00000000    0.00000000
     atom  177 type  1   force =    -0.00000004   -0.00000000   -0.00000001
     atom  178 type  1   force =    -0.00000002   -0.00000002    0.00000002
     atom  179 type  1   force =     0.00000002   -0.00000002    0.00000000
     atom  180 type  1   force =     0.00000000   -0.00000000    0.00000000
     atom  181 type  1   force =    -0.00000002   -0.00000002    0.00000002
     atom  182 type  1   force =     0.00000000    0.00000000   -0.00000001
     atom  183 type  1   force =     0.00000000   -0.00000000   -0.00000001
     atom  184 type  1   force =     0.00000000    0.00000000   -0.00000001
     atom  185 type  1   force =     0.00000001   -0.00000000   -0.00000001
     atom  186 type  1   force =     0.00000001    0.00000000    0.00000001
     atom  187 type  1   force =     0.00000001    0.00000000    0.00000001
     atom  188 type  1   force =     0.00000001    0.00000000    0.00000001
     atom  189 type  1   force =    -0.00000002   -0.00000000   -0.00000000
     atom  190 type  1   force =    -0.00000002   -0.00000001   -0.00000001
     atom  191 type  1   force =     0.00000002    0.00000000   -0.00000000
     atom  192 type  1   force =     0.00000010    0.00000001   -0.00000001
     atom  193 type  1   force =     0.00000015   -0.00000012    0.00000000
     atom  194 type  1   force =     0.00000013    0.00000001   -0.00000014
     atom  195 type  1   force =     0.00000002   -0.00000002   -0.00000002
     atom  196 type  1   force =    -0.00000002   -0.00000000    0.00000001
     atom  197 type  1   force =     0.00000002   -0.00000001   -0.00000005
     atom  198 type  1   force =    -0.00000002   -0.00000002    0.00000005
     atom  199 type  1   force =    -0.00000003    0.00000001    0.00000003
     atom  200 type  1   force =     0.00000001   -0.00000000    0.00000000
     atom  201 type  1   force =    -0.00000001   -0.00000000    0.00000002
     atom  202 type  1   force =    -0.00000000    0.00000000   -0.00000004
     atom  203 type  1   force =    -0.00000000    0.00000001   -0.00000001
     atom  204 type  1   force =    -0.00000000    0.00000001   -0.00000000
     atom  205 type  1   force =     0.00000001   -0.00000001    0.00000003
     atom  206 type  1   force =     0.00000012    0.00000001    0.00000012
     atom  207 type  1   force =     0.00000003   -0.00000001    0.00000001
     atom  208 type  1   force =    -0.00000001    0.00000000   -0.00000001
     atom  209 type  1   force =    -0.00000002    0.00000002   -0.00000001
     atom  210 type  1   force =     0.00000004   -0.00000005   -0.00000003
     atom  211 type  1   force =    -0.00000003    0.00000003    0.00000000
     atom  212 type  1   force =    -0.00000004    0.00000002    0.00000002
     atom  213 type  1   force =    -0.00000002    0.00000002    0.00000002
     atom  214 type  1   force =    -0.00000002    0.00000002    0.00000004
     atom  215 type  1   force =    -0.00000001    0.00000001    0.00000001
     atom  216 type  1   force =     0.00000000    0.00000001    0.00000000
     atom  217 type  1   force =    -0.00000001    0.00000001    0.00000001
     atom  218 type  1   force =    -0.00000001    0.00000002   -0.00000001
     atom  219 type  1   force =     0.00000001    0.00000001    0.00000000
     atom  220 type  1   force =    -0.00000002    0.00000002   -0.00000001
     atom  221 type  1   force =    -0.00000001    0.00000003   -0.00000003
     atom  222 type  1   force =     0.00000001   -0.00000004    0.00000001
     atom  223 type  1   force =    -0.00000002    0.00000002   -0.00000001
     atom  224 type  1   force =    -0.00000001   -0.00000000   -0.00000001
     atom  225 type  1   force =    -0.00000002   -0.00000004   -0.00000002
     atom  226 type  1   force =    -0.00000003    0.00000002    0.00000000
     atom  227 type  1   force =    -0.00000002   -0.00000002    0.00000002
     atom  228 type  1   force =    -0.00000000    0.00000001    0.00000001
     atom  229 type  1   force =    -0.00000002   -0.00000002    0.00000003
     atom  230 type  1   force =    -0.00000001    0.00000001    0.00000001
     atom  231 type  1   force =     0.00000001    0.00000000   -0.00000001
     atom  232 type  1   force =     0.00000001   -0.00000001    0.00000000
     atom  233 type  1   force =     0.00000000    0.00000000    0.00000000
     atom  234 type  1   force =     0.00000000   -0.00000000    0.00000001
     atom  235 type  1   force =     0.00000001   -0.00000001    0.00000001
     atom  236 type  1   force =     0.00000001   -0.00000001   -0.00000000
     atom  237 type  1   force =     0.00000000   -0.00000003   -0.00000001
     atom  238 type  1   force =    -0.00000001    0.00000001   -0.00000002
     atom  239 type  1   force =    -0.00000001   -0.00000003   -0.00000001
     atom  240 type  1   force =    -0.00000001   -0.00000001    0.00000000
     atom  241 type  1   force =     0.00000013    0.00000013   -0.00000000
     atom  242 type  1   force =     0.00000001    0.00000003   -0.00000000
     atom  243 type  1   force =     0.00000003    0.00000001   -0.00000001
     atom  244 type  1   force =    -0.00000002   -0.00000003    0.00000003
     atom  245 type  1   force =     0.00000001    0.00000000   -0.00000002
     atom  246 type  1   force =    -0.00000001   -0.00000002    0.00000003
     atom  247 type  1   force =    -0.00000001   -0.00000002    0.00000002
     atom  248 type  1   force =     0.00000001    0.00000000   -0.00000000
     atom  249 type  1   force =     0.00000001   -0.00000000    0.00000000
     atom  250 type  1   force =     0.00000000   -0.00000001   -0.00000002
     atom  251 type  1   force =    -0.00000000   -0.00000001   -0.00000002
     atom  252 type  1   force =    -0.00000001   -0.00000002   -0.00000002
     atom  253 type  1   force =     0.00000002    0.00000001    0.00000002
     atom  254 type  1   force =     0.00000002    0.00000002    0.00000000
     atom  255 type  1   force =     0.00000002    0.00000002    0.00000001

     Total force =     0.003386     Total SCF correction =     0.000001


     Computing stress (Cartesian axis) and pressure

          total   stress  (Ry/bohr**3)                   (kbar)     P=  -11.28
  -0.00007670  -0.00000003   0.00000009        -11.28     -0.00      0.01
  -0.00000003  -0.00007667  -0.00000003         -0.00    -11.28     -0.00
   0.00000009  -0.00000003  -0.00007670          0.01     -0.00    -11.28

     kinetic stress (kbar)   1431.76      0.01      0.00
                                0.01   1431.74      0.01
                                0.00      0.01   1431.76

     local   stress (kbar)    614.23      1.67      0.88
                                1.67    617.74      1.67
                                0.88      1.67    614.23

     nonloc. stress (kbar)   1037.15      0.01     -0.01
                                0.01   1037.17      0.01
                               -0.01      0.01   1037.15

     hartree stress (kbar)      6.60     -0.78     -0.39
                               -0.78      4.95     -0.78
                               -0.39     -0.78      6.60

     exc-cor stress (kbar)    511.48      0.00     -0.00
                                0.00    511.48      0.00
                               -0.00      0.00    511.48

     corecor stress (kbar)  -1279.82     -0.00      0.00
                               -0.00  -1279.82     -0.00
                                0.00     -0.00  -1279.82

     ewald   stress (kbar)  -2332.67     -0.91     -0.47
                               -0.91  -2334.53     -0.91
                               -0.47     -0.91  -2332.67

     hubbard stress (kbar)      0.00      0.00      0.00
                                0.00      0.00      0.00
                                0.00      0.00      0.00

     london  stress (kbar)      0.00      0.00      0.00
                                0.00      0.00      0.00
                                0.00      0.00      0.00

     DFT-D3  stress (kbar)      0.00      0.00      0.00
                                0.00      0.00      0.00
                                0.00      0.00      0.00

     XDM     stress (kbar)      0.00      0.00      0.00
                                0.00      0.00      0.00
                                0.00      0.00      0.00

     dft-nl  stress (kbar)      0.00      0.00      0.00
                                0.00      0.00      0.00
                                0.00      0.00      0.00

     TS-vdW  stress (kbar)      0.00      0.00      0.00
                                0.00      0.00      0.00
                                0.00      0.00      0.00



     Writing output data file aiida.save/
 
     init_run     :    199.96s CPU    202.28s WALL (       1 calls)
     electrons    :   6841.04s CPU   6895.90s WALL (       1 calls)
     forces       :     97.35s CPU     98.22s WALL (       1 calls)
     stress       :   1174.39s CPU   1176.07s WALL (       1 calls)

     Called by init_run:
     wfcinit      :    186.61s CPU    188.50s WALL (       1 calls)
     wfcinit:atom :      0.36s CPU      0.61s WALL (       2 calls)
     wfcinit:wfcr :    184.07s CPU    184.93s WALL (       2 calls)
     potinit      :      2.14s CPU      2.37s WALL (       1 calls)
     hinit0       :      2.71s CPU      2.78s WALL (       1 calls)

     Called by electrons:
     c_bands      :   5967.06s CPU   6012.46s WALL (      23 calls)
     sum_band     :    802.20s CPU    806.10s WALL (      23 calls)
     v_of_rho     :     33.93s CPU     35.35s WALL (      23 calls)
     v_h          :      3.52s CPU      3.52s WALL (      23 calls)
     v_xc         :     32.68s CPU     34.18s WALL (      25 calls)
     newd         :      7.45s CPU      9.41s WALL (      23 calls)
     PAW_pot      :      4.31s CPU      4.79s WALL (      23 calls)
     mix_rho      :     21.48s CPU     23.05s WALL (      23 calls)

     Called by c_bands:
     init_us_2    :     73.37s CPU     73.94s WALL (      98 calls)
     cegterg      :   5105.13s CPU   5147.53s WALL (      47 calls)

     Called by sum_band:
     sum_band:bec :      1.35s CPU      1.35s WALL (      46 calls)
     addusdens    :      5.90s CPU      8.27s WALL (      23 calls)

     Called by *egterg:
     h_psi        :   3339.33s CPU   3353.08s WALL (     245 calls)
     s_psi        :   1032.18s CPU   1034.34s WALL (     245 calls)
     g_psi        :      4.15s CPU      4.15s WALL (     196 calls)
     cdiaghg      :    271.61s CPU    276.77s WALL (     241 calls)
     cegterg:over :    265.83s CPU    267.79s WALL (     196 calls)
     cegterg:upda :    174.28s CPU    181.86s WALL (     196 calls)
     cegterg:last :    104.96s CPU    105.05s WALL (      49 calls)
     cdiaghg:chol :     12.43s CPU     12.55s WALL (     241 calls)
     cdiaghg:inve :      5.70s CPU      5.70s WALL (     241 calls)
     cdiaghg:para :     62.94s CPU     64.20s WALL (     482 calls)

     Called by h_psi:
     h_psi:pot    :   3334.92s CPU   3342.46s WALL (     245 calls)
     h_psi:calbec :   1018.05s CPU   1018.22s WALL (     245 calls)
     vloc_psi     :   1281.32s CPU   1286.31s WALL (     245 calls)
     add_vuspsi   :   1035.55s CPU   1037.92s WALL (     245 calls)

     General routines
     calbec       :   1500.44s CPU   1500.73s WALL (     301 calls)
     fft          :     36.88s CPU     38.21s WALL (     324 calls)
     ffts         :     10.09s CPU     10.15s WALL (     357 calls)
     fftw         :   1320.09s CPU   1324.97s WALL (  128926 calls)
     interpolate  :      3.43s CPU      3.66s WALL (      23 calls)
 
     Parallel routines
     fft_scatt_xy :    444.13s CPU    445.52s WALL (  129607 calls)
     fft_scatt_yz :    261.61s CPU    263.67s WALL (  129607 calls)

     PAW routines
     PAW_pot      :      4.31s CPU      4.79s WALL (      23 calls)
 
     PWSCF        :      2h21m CPU      2h23m WALL

 
   This run was terminated on:   1:56:27  27Feb2020            

=------------------------------------------------------------------------------=
   JOB DONE.
=------------------------------------------------------------------------------=
