begin
comment 255 atoms, species Al254Si
lattice     30.6664728719     0.0000000000     0.0000000000
lattice      0.0000000000    30.6664728719     0.0000000000
lattice      0.0000000000     0.0000000000    30.6664728719
atom      3.7652632723     0.0125241875     3.7652632723   Al  0.0 0.0    5.02299962e-05  8.28199938e-05  5.02349962e-05
atom      3.7693081801     3.7884624591     0.0186114824   Al  0.0 0.0   -1.83549986e-05  1.16049991e-04  1.57399988e-04
atom      0.0186114824     3.7884624591     3.7693081801   Al  0.0 0.0    1.57344988e-04  1.16074991e-04 -1.83249986e-05
atom      0.0021221199     0.0065012922     7.6576176082   Al  0.0 0.0   -2.16499984e-06 -6.66449950e-05  9.92099925e-05
atom      3.8302025953     3.8532361831     7.6383283968   Al  0.0 0.0   -6.37999952e-06  3.82699971e-05  8.25499938e-06
atom      3.8325608471     0.0089024771    11.4924293743   Al  0.0 0.0    2.14999984e-06 -1.91699986e-05 -2.94549978e-05
atom      0.0022079860     3.8341984367    11.4941160304   Al  0.0 0.0   -9.31499930e-06 -4.56999966e-06 -1.60299988e-05
atom      0.0008770611     0.0009077276    15.3320711100   Al  0.0 0.0    2.38299982e-05  4.76749964e-05 -4.79449964e-05
atom      3.8343855022     3.8357041605    15.3298692572   Al  0.0 0.0   -1.67499987e-06 -9.55999928e-06 -1.66449987e-05
atom      3.8322695156     0.0012634587    19.1653587524   Al  0.0 0.0   -2.99999977e-06  4.59599965e-05  5.10999962e-05
atom      0.0001993321     3.8324688476    19.1652912862   Al  0.0 0.0    1.03949992e-05  1.79949986e-05  5.20949961e-05
atom      0.0004323973     0.0007359953    23.0074507393   Al  0.0 0.0    2.53599981e-05  4.77899964e-05 -1.25999991e-05
atom      3.8304019274     3.8318585848    23.0074814057   Al  0.0 0.0   -8.66499935e-06 -1.99249985e-05 -6.89449948e-05
atom      3.7669345951     0.0091907419    26.9083855542   Al  0.0 0.0    6.16849954e-05 -7.24899946e-05 -1.37164990e-04
atom      0.0024502512     3.7691763143    26.9064351666   Al  0.0 0.0   -3.24649976e-05  8.34449937e-05 -1.07364992e-04
atom      0.0257782371     7.6583873367     0.0257782371   Al  0.0 0.0    1.04729992e-04  7.73999942e-06  1.04739992e-04
atom      3.8318923179    11.4786723946     0.0220614606   Al  0.0 0.0   -3.95499970e-06 -1.21699991e-05 -1.25099991e-05
atom      3.8357992266     7.6787100082     3.8357992266   Si  0.0 0.0   -2.69049980e-05 -2.16849984e-05 -2.68599980e-05
atom      0.0220614606    11.4786723946     3.8318923179   Al  0.0 0.0   -1.25499991e-05 -1.21599991e-05 -3.96999970e-06
atom      0.0241222476     7.6393035906     7.6158284056   Al  0.0 0.0    6.78449949e-05  5.41299959e-05 -1.37399990e-05
atom      3.8303988607    11.4741368233     7.6441550266   Al  0.0 0.0   -3.43449974e-05 -1.12119992e-04 -6.92549948e-05
atom      3.8308925909     7.6669003495    11.4861212809   Al  0.0 0.0   -4.04499970e-05 -1.03774992e-04 -1.69014987e-04
atom      0.0022938522    11.4943889620    11.4892891275   Al  0.0 0.0   -8.16499939e-06 -1.13964991e-04 -8.27349938e-05
atom      0.0013125250     7.6674584793    15.3296975250   Al  0.0 0.0   -7.59999943e-07  1.75799987e-05 -1.89449986e-05
atom      3.8336740400    11.4992158648    15.3294859263   Al  0.0 0.0   -2.86199978e-05 -9.10499932e-06 -1.86499986e-05
atom      3.8308312580     7.6668880829    19.1689160633   Al  0.0 0.0   -3.64999973e-05 -9.17549931e-05  1.38764990e-04
atom      0.0002177320    11.4965233485    19.1696121922   Al  0.0 0.0    1.62949988e-05 -1.15204991e-04  9.44449929e-05
atom      0.0011714593     7.6410791794    23.0288743372   Al  0.0 0.0   -5.07999962e-06  1.05849992e-05  5.37499960e-06
atom      3.8307668584    11.4962320170    23.0032126327   Al  0.0 0.0   -3.59549973e-05 -1.37294990e-04  1.09209992e-04
atom      3.8303528610     7.6622451789    26.8478744700   Al  0.0 0.0   -2.33499982e-05  1.10469992e-04  2.87499978e-06
atom      0.0019013213    11.4987436011    26.8410419798   Al  0.0 0.0   -1.25049991e-05 -5.21799961e-05 -3.25549976e-05
atom      0.0020025207    15.3264407456     0.0020025207   Al  0.0 0.0   -1.28649990e-05  5.04799962e-05 -1.28399990e-05
atom      3.8322971154    19.1618106415     0.0012971918   Al  0.0 0.0    2.41499982e-06  3.72649972e-05 -7.07499947e-06
atom      3.8345327013    15.3207275817     3.8345327013   Al  0.0 0.0   -6.57499951e-06 -2.05499985e-05 -6.56499951e-06
atom      0.0012971918    19.1618106415     3.8322971154   Al  0.0 0.0   -7.07999947e-06  3.72899972e-05  2.40999982e-06
atom      0.0020914534    15.3260359481     7.6654406254   Al  0.0 0.0   -9.06499932e-06  4.05399970e-05  2.82699979e-05
atom      3.8308833910    19.1649784882     7.6655970244   Al  0.0 0.0   -3.24649976e-05  1.21119991e-04 -8.65349935e-05
atom      3.8336648401    15.3243891585    11.4917301788   Al  0.0 0.0   -3.12199977e-05  3.19849976e-05  2.38249982e-05
atom      0.0008617279    19.1687320645    11.4957842865   Al  0.0 0.0    2.11799984e-05  4.99149962e-05 -1.46539989e-04
atom      0.0007482619    15.3324544409    15.3323072418   Al  0.0 0.0    1.68999987e-05 -4.31399968e-05 -4.14549969e-05
atom      3.8337752394    19.1650888875    15.3324360410   Al  0.0 0.0   -3.21249976e-05 -2.64999980e-05 -2.86649978e-05
atom      3.8337261730    15.3320987098    19.1659536820   Al  0.0 0.0   -3.02799977e-05 -3.86699971e-05  5.61499958e-06
atom     30.6664176723    19.1698513907    19.1696796585   Al  0.0 0.0    1.63799988e-05  9.64949927e-05  9.07399932e-05
atom      0.0008402614    15.3323041752    23.0002042517   Al  0.0 0.0    1.95849985e-05 -4.95049963e-05  3.61349973e-05
atom      3.8307944582    19.1680328689    23.0004066504   Al  0.0 0.0   -3.55949973e-05  1.04319992e-04  1.24554991e-04
atom      3.8344284352    15.3245179577    26.8407782481   Al  0.0 0.0   -7.08999947e-06  3.31599975e-05 -2.73349979e-05
atom      0.0007911950    19.1645154244    26.8350620176   Al  0.0 0.0    1.96599985e-05  3.21999976e-06  4.53299966e-05
atom      0.0001717322    23.0076102049     0.0001717322   Al  0.0 0.0    1.72249987e-05 -4.94399963e-05  1.72449987e-05
atom      3.7670357945    26.9038959826     0.0015517235   Al  0.0 0.0    9.95799925e-05 -1.00224992e-04 -7.32499945e-06
atom      3.8305828596    23.0040620940     3.8305828596   Al  0.0 0.0   -1.18599991e-05 -7.62199943e-05 -1.18549991e-05
atom      0.0015517235    26.9038959826     3.7670357945   Al  0.0 0.0   -7.29499945e-06 -1.00234992e-04  9.95699925e-05
atom      0.0002054654    23.0253844926     7.6410239797   Al  0.0 0.0    1.81649986e-05 -1.21999991e-05  1.34999990e-06
atom      3.8308833910    26.8394105234     7.6613221181   Al  0.0 0.0   -1.44299989e-05  2.64999980e-05  8.58499935e-05
atom      3.8308404579    22.9996399886    11.4962718834   Al  0.0 0.0   -3.29749975e-05  9.22099931e-05 -1.85819986e-04
atom      0.0009813271    26.8354729483    11.5000837260   Al  0.0 0.0    2.26249983e-05  4.96849963e-05 -9.78499926e-05
atom     30.6664636720    22.9988794601    15.3333008355   Al  0.0 0.0    1.51449989e-05 -2.55199981e-05  2.68999980e-06
atom      3.8343701690    26.8328570982    15.3323839080   Al  0.0 0.0   -5.48499959e-06  3.90849971e-05 -3.16649976e-05
atom      3.8308925909    22.9994559898    19.1687228645   Al  0.0 0.0   -3.17499976e-05  8.81249934e-05  1.31339990e-04
atom      0.0000919994    26.8341021570    19.1654630185   Al  0.0 0.0    1.26749990e-05  2.15999984e-06  5.10649962e-05
atom      0.0000398664    23.0254304923    23.0253231597   Al  0.0 0.0    1.33299990e-05 -1.62149988e-05 -1.59849988e-05
atom      3.8303589943    26.8368161398    23.0050066214   Al  0.0 0.0   -1.12149992e-05  5.51999959e-05 -4.05599970e-05
atom      3.8305215266    23.0042552928    26.8371994708   Al  0.0 0.0   -1.07999992e-05 -7.74799942e-05  5.79149956e-05
atom      0.0011346595    26.9009428013    26.9001454730   Al  0.0 0.0    2.71999980e-05 -6.80199949e-05 -6.64149950e-05
atom      7.6576176082     0.0065012922     0.0021221199   Al  0.0 0.0    9.92599925e-05 -6.66799950e-05 -2.14999984e-06
atom     11.4941160304     3.8341984367     0.0022079860   Al  0.0 0.0   -1.60099988e-05 -4.61999965e-06 -9.32999930e-06
atom     11.4924293743     0.0089024771     3.8325608471   Al  0.0 0.0   -2.94849978e-05 -1.91549986e-05  2.12499984e-06
atom      7.6383283968     3.8532361831     3.8302025953   Al  0.0 0.0    8.24499938e-06  3.82399971e-05 -6.37999952e-06
atom      7.6382517306     0.0074979526     7.6382517306   Al  0.0 0.0    9.44999929e-06 -1.79949986e-05  9.43999929e-06
atom     11.4913039148     3.8328031122     7.6649560951   Al  0.0 0.0   -9.74249927e-05 -4.93199963e-05 -9.56799928e-05
atom     11.4983756034    30.6646451501    11.4983756034   Al  0.0 0.0   -1.15369991e-04  2.14899984e-05 -1.15319991e-04
atom      7.6649560951     3.8328031122    11.4913039148   Al  0.0 0.0   -9.56749928e-05 -4.93799963e-05 -9.74699927e-05
atom      7.6666274179     0.0008954610    15.3322949752   Al  0.0 0.0   -4.48499966e-06  4.74549964e-05 -4.62149965e-05
atom     11.4997279949     3.8345449678    15.3321017765   Al  0.0 0.0   -4.97999963e-05 -9.80999926e-06 -5.15799961e-05
atom     11.4965601482     0.0001717322    19.1696796585   Al  0.0 0.0   -9.73099927e-05  4.22499968e-06  1.00314992e-04
atom      7.6667224840     3.8310152568    19.1689068634   Al  0.0 0.0   -1.10824992e-04 -1.80499986e-05  1.37179990e-04
atom      7.6403309174     0.0013462582    23.0264762190   Al  0.0 0.0   -1.84199986e-05  4.86949963e-05  4.08599969e-05
atom     11.4967257472     3.8317359189    23.0007010486   Al  0.0 0.0   -1.72709987e-04 -1.24749991e-05  1.28184990e-04
atom     11.5024113113    30.6652063466    26.8326577661   Al  0.0 0.0   -7.27499945e-05  2.15549984e-05  2.70649980e-05
atom      7.6594913297     3.8325271139    26.8434983643   Al  0.0 0.0    1.27174990e-04 -2.51549981e-05 -6.13549954e-05
atom      7.6158284056     7.6393035906     0.0241222476   Al  0.0 0.0   -1.37249990e-05  5.41549959e-05  6.78499949e-05
atom     11.4892891275    11.4943889620     0.0022938522   Al  0.0 0.0   -8.27249938e-05 -1.13974991e-04 -8.17999939e-06
atom     11.4861212809     7.6669003495     3.8308925909   Al  0.0 0.0   -1.68989987e-04 -1.03779992e-04 -4.04249970e-05
atom      7.6441550266    11.4741368233     3.8303988607   Al  0.0 0.0   -6.92949948e-05 -1.12094992e-04 -3.43449974e-05
atom      7.6478104702     7.6691267355     7.6478104702   Al  0.0 0.0   -7.11199947e-05 -1.00069992e-04 -7.11099947e-05
atom     11.4927728388    11.4979401395     7.6638306356   Al  0.0 0.0    3.93249970e-05  4.84499964e-06  2.90999978e-06
atom     11.4915584465     7.6661766208    11.4915584465   Al  0.0 0.0    4.10449969e-05 -2.94499978e-06  4.09899969e-05
atom      7.6638306356    11.4979401395    11.4927728388   Al  0.0 0.0    2.86999978e-06  4.88999963e-06  3.93249970e-05
atom      7.6649192954     7.6662226205    15.3298661906   Al  0.0 0.0   -7.61499943e-06 -5.44999959e-06 -1.55049988e-05
atom     11.4984553363    11.4986270685    15.3322367089   Al  0.0 0.0   -6.23299953e-05 -3.38849975e-05 -5.06899962e-05
atom     11.4993047976     7.6660386216    19.1659199489   Al  0.0 0.0   -4.02199970e-05 -2.54999981e-06  2.72499980e-06
atom      7.6657902232    11.5003474576    19.1659199489   Al  0.0 0.0   -1.94249985e-05 -1.29799990e-05 -9.29999930e-07
atom      7.6700589962     7.6711108563    22.9988150605   Al  0.0 0.0   -8.17099939e-05 -7.93599940e-05  9.72549927e-05
atom     11.4994458633    11.4994826631    23.0017743751   Al  0.0 0.0   -4.97349963e-05 -2.27099983e-05  5.49949959e-05
atom     11.4886389983     7.6664311525    26.8445440910   Al  0.0 0.0   -1.34659990e-04 -9.96049925e-05  3.20749976e-05
atom      7.6646984968    11.4955910877    26.8424373043   Al  0.0 0.0   -8.53799936e-05 -1.48394989e-04  6.67499950e-06
atom      7.6654406254    15.3260359481     0.0020914534   Al  0.0 0.0    2.82349979e-05  4.05549970e-05 -9.09999932e-06
atom     11.4957842865    19.1687320645     0.0008617279   Al  0.0 0.0   -1.46514989e-04  4.99149962e-05  2.12099984e-05
atom     11.4917301788    15.3243891585     3.8336648401   Al  0.0 0.0    2.38249982e-05  3.20799976e-05 -3.12399977e-05
atom      7.6655970244    19.1649784882     3.8308833910   Al  0.0 0.0   -8.65149935e-05  1.21134991e-04 -3.24449976e-05
atom      7.6640115678    15.3258580826     7.6640115678   Al  0.0 0.0   -3.26999975e-06  3.11099977e-05 -3.23499976e-06
atom     11.4996114623    19.1648956887     7.6650910276   Al  0.0 0.0   -4.76149964e-05 -5.30699960e-05 -2.23099983e-05
atom     11.5008810543    15.3347850928    11.5008810543   Al  0.0 0.0   -4.43949967e-05 -3.08599977e-05 -4.43799967e-05
atom      7.6650910276    19.1648956887    11.4996114623   Al  0.0 0.0   -2.23149983e-05 -5.31049960e-05 -4.75999964e-05
atom      7.6676240783    15.3321907092    15.3321079098   Al  0.0 0.0   -1.24699991e-05 -5.24349961e-05 -4.74049964e-05
atom     11.4990226660    19.1674839390    15.3334449680   Al  0.0 0.0   -2.07499984e-05  9.16499931e-06 -5.81999956e-06
atom     11.4989306666    15.3328163053    19.1672784736   Al  0.0 0.0   -2.16799984e-05 -9.61499928e-06  1.34649990e-05
atom      7.6660846213    19.1660487481    19.1659383488   Al  0.0 0.0   -1.99349985e-05 -7.09999947e-07 -3.41999974e-06
atom      7.6652259601    15.3323655081    23.0014707771   Al  0.0 0.0   -3.06399977e-05 -4.87149963e-05  5.77899957e-05
atom     11.5003934574    19.1662419469    23.0001245189   Al  0.0 0.0   -2.94999978e-06 -6.80499949e-06  5.25499961e-06
atom     11.5020985132    15.3346654936    26.8314004407   Al  0.0 0.0   -3.23049976e-05 -2.61049980e-05  5.82849956e-05
atom      7.6661306211    19.1677814038    26.8364665420   Al  0.0 0.0   -1.15639991e-04  8.76449934e-05  8.36249937e-05
atom      7.6410239797    23.0253844926     0.0002054654   Al  0.0 0.0    1.38999990e-06 -1.21599991e-05  1.81799986e-05
atom     11.5000837260    26.8354729483     0.0009813271   Al  0.0 0.0   -9.78849926e-05  4.96949963e-05  2.26299983e-05
atom     11.4962718834    22.9996399886     3.8308404579   Al  0.0 0.0   -1.85809986e-04  9.22099931e-05 -3.29949975e-05
atom      7.6613221181    26.8394105234     3.8308833910   Al  0.0 0.0    8.58649935e-05  2.65249980e-05 -1.44549989e-05
atom      7.6713745879    22.9948866853     7.6713745879   Al  0.0 0.0   -9.56699928e-05  7.57499943e-05 -9.56699928e-05
atom     11.4969526791    26.8366229411     7.6664403524   Al  0.0 0.0   -1.80064986e-04  7.88099941e-05 -1.08939992e-04
atom     11.5003597242    23.0002901178    11.5003597242   Al  0.0 0.0   -2.30999983e-06  2.54499981e-06 -2.30999983e-06
atom      7.6664403524    26.8366229411    11.4969526791   Al  0.0 0.0   -1.08944992e-04  7.87949941e-05 -1.80029986e-04
atom      7.6660968879    23.0003882506    15.3333161688   Al  0.0 0.0   -2.52199981e-05  8.03999940e-06  3.14499976e-06
atom     11.5004149239    26.8324308342    15.3336443000   Al  0.0 0.0   -9.86999926e-06  3.70749972e-05 -5.70999957e-06
atom     11.5006725223    23.0005722494    19.1660211483   Al  0.0 0.0   -4.09499969e-06  1.67499987e-06 -1.54999988e-06
atom      7.6667378172    26.8355772143    19.1690387292   Al  0.0 0.0   -1.07024992e-04  2.88549978e-05  1.36834990e-04
atom      7.6711997890    22.9951412171    22.9950032179   Al  0.0 0.0   -9.37799930e-05  7.83599941e-05  7.96949940e-05
atom     11.4972654771    26.8355281480    22.9994283900   Al  0.0 0.0   -1.47599989e-04  4.05499970e-05  1.00584992e-04
atom     11.4973114768    22.9995234560    26.8360310781   Al  0.0 0.0   -1.47559989e-04  9.42049929e-05  4.22399968e-05
atom      7.6618158483    26.8367977400    26.8369112059   Al  0.0 0.0    5.70849957e-05  6.48799951e-05  5.88699956e-05
atom     15.3320711100     0.0009077276     0.0008770611   Al  0.0 0.0   -4.79699964e-05  4.76749964e-05  2.38749982e-05
atom     19.1652912862     3.8324688476     0.0001993321   Al  0.0 0.0    5.21149961e-05  1.79849986e-05  1.04049992e-05
atom     19.1653587524     0.0012634587     3.8322695156   Al  0.0 0.0    5.10799962e-05  4.59899965e-05 -3.04999977e-06
atom     15.3298692572     3.8357041605     3.8343855022   Al  0.0 0.0   -1.66499987e-05 -9.55999928e-06 -1.69499987e-06
atom     15.3322949752     0.0008954610     7.6666274179   Al  0.0 0.0   -4.62199965e-05  4.74799964e-05 -4.47999966e-06
atom     19.1689068634     3.8310152568     7.6667224840   Al  0.0 0.0    1.37179990e-04 -1.80199986e-05 -1.10839992e-04
atom     19.1696796585     0.0001717322    11.4965601482   Al  0.0 0.0    1.00334992e-04  4.18499969e-06 -9.73049927e-05
atom     15.3321017765     3.8345449678    11.4997279949   Al  0.0 0.0   -5.16149961e-05 -9.78999926e-06 -4.98299963e-05
atom     15.3334603012     0.0002637317    15.3334603012   Al  0.0 0.0   -1.04499992e-05  4.33999967e-06 -1.04399992e-05
atom     19.1660119483     3.8337108398    15.3332916356   Al  0.0 0.0    1.45699989e-05 -1.54099988e-05 -6.78499949e-06
atom     19.1699035237    30.6663870058    19.1699035237   Al  0.0 0.0    1.05409992e-04  6.12999954e-06  1.05399992e-04
atom     15.3332916356     3.8337108398    19.1660119483   Al  0.0 0.0   -6.78999949e-06 -1.53999988e-05  1.46049989e-05
atom     15.3334971010     0.0001625323    22.9987261277   Al  0.0 0.0   -9.03999932e-06  6.39999952e-06 -1.55949988e-05
atom     19.1688209972     3.8308833910    22.9993731903   Al  0.0 0.0    1.43319989e-04 -1.82149986e-05  8.84499934e-05
atom     19.1652084867     0.0002299985    26.8344088217   Al  0.0 0.0    4.93499963e-05  4.48999966e-06  6.76999949e-06
atom     15.3321048431     3.8352809632    26.8330226971   Al  0.0 0.0   -4.87799963e-05  1.50599989e-05  5.76649957e-05
atom     15.3296975250     7.6674584793     0.0013125250   Al  0.0 0.0   -1.89149986e-05  1.75599987e-05 -7.24999946e-07
atom     19.1696121922    11.4965233485     0.0002177320   Al  0.0 0.0    9.44399929e-05 -1.15209991e-04  1.62649988e-05
atom     19.1689160633     7.6668880829     3.8308312580   Al  0.0 0.0    1.38754990e-04 -9.17649931e-05 -3.65149973e-05
atom     15.3294859263    11.4992158648     3.8336740400   Al  0.0 0.0   -1.86349986e-05 -9.14499931e-06 -2.86299978e-05
atom     15.3298661906     7.6662226205     7.6649192954   Al  0.0 0.0   -1.55549988e-05 -5.49999959e-06 -7.57999943e-06
atom     19.1659199489    11.5003474576     7.6657902232   Al  0.0 0.0   -9.04999932e-07 -1.30249990e-05 -1.93799985e-05
atom     19.1659199489     7.6660386216    11.4993047976   Al  0.0 0.0    2.74499979e-06 -2.55499981e-06 -4.02649970e-05
atom     15.3322367089    11.4986270685    11.4984553363   Al  0.0 0.0   -5.07049962e-05 -3.39349974e-05 -6.23299953e-05
atom     15.3323072418     7.6683692736    15.3323072418   Al  0.0 0.0   -3.85099971e-05  7.97499940e-06 -3.84949971e-05
atom     19.1670914082    11.4991851983    15.3333499019   Al  0.0 0.0    1.04849992e-05 -3.16099976e-05  1.02499992e-06
atom     19.1659935484     7.6659466222    19.1659935484   Al  0.0 0.0    4.81499964e-06 -4.24999968e-07  4.82999964e-06
atom     15.3333499019    11.4991851983    19.1670914082   Al  0.0 0.0    9.94999925e-07 -3.15949976e-05  1.04599992e-05
atom     15.3324820407     7.6662778201    23.0010751796   Al  0.0 0.0   -3.53649973e-05 -3.81999971e-06  3.53449973e-05
atom     19.1658800825    11.5005651896    23.0003882506   Al  0.0 0.0    1.71499987e-06 -1.59099988e-05  1.77999987e-06
atom     19.1687749975     7.6668543498    26.8369081393   Al  0.0 0.0    1.39749989e-04 -9.50099929e-05  8.04149940e-05
atom     15.3319055110    11.4997218616    26.8337740257   Al  0.0 0.0   -4.97899963e-05 -2.32099983e-05  7.75499942e-05
atom     15.3323072418    15.3324544409     0.0007482619   Al  0.0 0.0   -4.14599969e-05 -4.31299968e-05  1.69099987e-05
atom     19.1696796585    19.1698513907    30.6664176723   Al  0.0 0.0    9.07399932e-05  9.64949927e-05  1.64099988e-05
atom     19.1659536820    15.3320987098     3.8337261730   Al  0.0 0.0    5.63499958e-06 -3.86799971e-05 -3.03149977e-05
atom     15.3324360410    19.1650888875     3.8337752394   Al  0.0 0.0   -2.86949978e-05 -2.64849980e-05 -3.21499976e-05
atom     15.3321079098    15.3321907092     7.6676240783   Al  0.0 0.0   -4.74299964e-05 -5.24249961e-05 -1.24699991e-05
atom     19.1659383488    19.1660487481     7.6660846213   Al  0.0 0.0   -3.42999974e-06 -7.19999946e-07 -1.99299985e-05
atom     19.1672784736    15.3328163053    11.4989306666   Al  0.0 0.0    1.35349990e-05 -9.61499928e-06 -2.16749984e-05
atom     15.3334449680    19.1674839390    11.4990226660   Al  0.0 0.0   -5.84999956e-06  9.20499931e-06 -2.07649984e-05
atom     15.3336044336    15.3332487025    15.3336044336   Al  0.0 0.0   -3.66499972e-06  4.94999963e-07 -3.62999973e-06
atom     19.1672018075    19.1667724768    15.3327580390   Al  0.0 0.0    1.37949990e-05 -1.57499988e-06 -1.48399989e-05
atom     19.1671956742    15.3335155009    19.1671956742   Al  0.0 0.0    1.45049989e-05 -3.24499976e-06  1.44799989e-05
atom     15.3327580390    19.1667724768    19.1672018075   Al  0.0 0.0   -1.48549989e-05 -1.52999989e-06  1.37999990e-05
atom     15.3334357680    15.3329696376    22.9976988009   Al  0.0 0.0   -4.79499964e-06 -5.50499959e-06 -5.17999961e-06
atom     19.1660027484    19.1655212848    23.0010445131   Al  0.0 0.0    7.74999942e-07 -1.77499987e-05  2.09099984e-05
atom     19.1659598153    15.3328684383    26.8330656302   Al  0.0 0.0    5.03499962e-06 -8.44499937e-06  3.88499971e-05
atom     15.3334848344    19.1662082137    26.8327681654   Al  0.0 0.0   -4.15999969e-06  9.54999928e-07  3.61999973e-05
atom     15.3333008355    22.9988794601    30.6664636720   Al  0.0 0.0    2.67999980e-06 -2.54899981e-05  1.51649989e-05
atom     19.1654630185    26.8341021570     0.0000919994   Al  0.0 0.0    5.11249962e-05  2.12999984e-06  1.26749990e-05
atom     19.1687228645    22.9994559898     3.8308925909   Al  0.0 0.0    1.31344990e-04  8.81199934e-05 -3.17899976e-05
atom     15.3323839080    26.8328570982     3.8343701690   Al  0.0 0.0   -3.16799976e-05  3.90699971e-05 -5.52999958e-06
atom     15.3333161688    23.0003882506     7.6660968879   Al  0.0 0.0    3.13999976e-06  8.00999940e-06 -2.52049981e-05
atom     19.1690387292    26.8355772143     7.6667378172   Al  0.0 0.0    1.36864990e-04  2.88449978e-05 -1.06994992e-04
atom     19.1660211483    23.0005722494    11.5006725223   Al  0.0 0.0   -1.57499988e-06  1.65499988e-06 -4.10999969e-06
atom     15.3336443000    26.8324308342    11.5004149239   Al  0.0 0.0   -5.71999957e-06  3.70699972e-05 -9.87499926e-06
atom     15.3327672389    22.9979686659    15.3327672389   Al  0.0 0.0   -1.66449987e-05 -9.62999928e-06 -1.66149988e-05
atom     19.1659076823    26.8332956288    15.3328991048   Al  0.0 0.0    6.96999948e-06  5.01649962e-05 -1.25149991e-05
atom     19.1658954157    23.0003698507    19.1658954157   Al  0.0 0.0   -1.43999989e-06 -2.11499984e-06 -1.38999990e-06
atom     15.3328991048    26.8332956288    19.1659076823   Al  0.0 0.0   -1.25149991e-05  5.01349962e-05  6.96499948e-06
atom     15.3327151059    23.0004403836    23.0009003807   Al  0.0 0.0   -1.53649988e-05  1.02499992e-05  2.63099980e-05
atom     19.1686400650    26.8359145455    22.9999558533   Al  0.0 0.0    1.37909990e-04  4.90599963e-05  1.11319992e-04
atom     19.1689589964    22.9997473213    26.8355434812   Al  0.0 0.0    1.39394990e-04  9.76449927e-05  3.93099970e-05
atom     15.3334664345    26.8317807050    26.8323204349   Al  0.0 0.0   -6.05999954e-06  1.04999992e-05  1.23899991e-05
atom     23.0074507393     0.0007359953     0.0004323973   Al  0.0 0.0   -1.26299991e-05  4.77899964e-05  2.53549981e-05
atom     26.9064351666     3.7691763143     0.0024502512   Al  0.0 0.0   -1.07359992e-04  8.34549937e-05 -3.24449976e-05
atom     26.9083855542     0.0091907419     3.7669345951   Al  0.0 0.0   -1.37139990e-04 -7.24349946e-05  6.16649954e-05
atom     23.0074814057     3.8318585848     3.8304019274   Al  0.0 0.0   -6.89349948e-05 -1.99099985e-05 -8.70499935e-06
atom     23.0264762190     0.0013462582     7.6403309174   Al  0.0 0.0    4.08299969e-05  4.87199963e-05 -1.84049986e-05
atom     26.8434983643     3.8325271139     7.6594913297   Al  0.0 0.0   -6.13299954e-05 -2.51199981e-05  1.27134990e-04
atom     26.8326577661    30.6652063466    11.5024113113   Al  0.0 0.0    2.70649980e-05  2.16199984e-05 -7.27249945e-05
atom     23.0007010486     3.8317359189    11.4967257472   Al  0.0 0.0    1.28219990e-04 -1.24349991e-05 -1.72744987e-04
atom     22.9987261277     0.0001625323    15.3334971010   Al  0.0 0.0   -1.55849988e-05  6.34499952e-06 -9.00499932e-06
atom     26.8330226971     3.8352809632    15.3321048431   Al  0.0 0.0    5.76749957e-05  1.50449989e-05 -4.87849963e-05
atom     26.8344088217     0.0002299985    19.1652084867   Al  0.0 0.0    6.78499949e-06  4.47999966e-06  4.93299963e-05
atom     22.9993731903     3.8308833910    19.1688209972   Al  0.0 0.0    8.84749934e-05 -1.82299986e-05  1.43344989e-04
atom     23.0251851605    30.6662766065    23.0251851605   Al  0.0 0.0   -1.85949986e-05  3.86999971e-06 -1.85799986e-05
atom     26.8366321410     3.8311409894    23.0048103559   Al  0.0 0.0    6.44799952e-05  9.18999931e-06 -3.61899973e-05
atom     26.9005073373     0.0003005314    26.9005073373   Al  0.0 0.0   -7.02149947e-05  4.52199966e-05 -7.01949947e-05
atom     23.0048103559     3.8311409894    26.8366321410   Al  0.0 0.0   -3.62099973e-05  9.20999931e-06  6.44799952e-05
atom     23.0288743372     7.6410791794     0.0011714593   Al  0.0 0.0    5.37499960e-06  1.05549992e-05 -5.08999962e-06
atom     26.8410419798    11.4987436011     0.0019013213   Al  0.0 0.0   -3.25199976e-05 -5.21399961e-05 -1.24749991e-05
atom     26.8478744700     7.6622451789     3.8303528610   Al  0.0 0.0    2.87499978e-06  1.10409992e-04 -2.33049982e-05
atom     23.0032126327    11.4962320170     3.8307668584   Al  0.0 0.0    1.09214992e-04 -1.37289990e-04 -3.59749973e-05
atom     22.9988150605     7.6711108563     7.6700589962   Al  0.0 0.0    9.72649927e-05 -7.93599940e-05 -8.16999939e-05
atom     26.8424373043    11.4955910877     7.6646984968   Al  0.0 0.0    6.68499950e-06 -1.48389989e-04 -8.53699936e-05
atom     26.8445440910     7.6664311525    11.4886389983   Al  0.0 0.0    3.20499976e-05 -9.95599925e-05 -1.34644990e-04
atom     23.0017743751    11.4994826631    11.4994458633   Al  0.0 0.0    5.50549959e-05 -2.27149983e-05 -4.97299963e-05
atom     23.0010751796     7.6662778201    15.3324820407   Al  0.0 0.0    3.53649973e-05 -3.76999972e-06 -3.53499973e-05
atom     26.8337740257    11.4997218616    15.3319055110   Al  0.0 0.0    7.74999942e-05 -2.31999983e-05 -4.98399963e-05
atom     26.8369081393     7.6668543498    19.1687749975   Al  0.0 0.0    8.03799940e-05 -9.50099929e-05  1.39699990e-04
atom     23.0003882506    11.5005651896    19.1658800825   Al  0.0 0.0    1.80999986e-06 -1.59199988e-05  1.65999988e-06
atom     22.9958281460     7.6716137864    22.9958281460   Al  0.0 0.0    1.04929992e-04 -7.59299943e-05  1.04939992e-04
atom     26.8363285429    11.4967594803    23.0005906493   Al  0.0 0.0    7.78349942e-05 -1.56944988e-04  1.36369990e-04
atom     26.8454824851     7.6618894479    26.8454824851   Al  0.0 0.0    1.43899989e-05  6.53549951e-05  1.44049989e-05
atom     23.0005906493    11.4967594803    26.8363285429   Al  0.0 0.0    1.36334990e-04 -1.56924988e-04  7.78449941e-05
atom     23.0002042517    15.3323041752     0.0008402614   Al  0.0 0.0    3.61849973e-05 -4.95299963e-05  1.95699985e-05
atom     26.8350620176    19.1645154244     0.0007911950   Al  0.0 0.0    4.53499966e-05  3.19999976e-06  1.96849985e-05
atom     26.8407782481    15.3245179577     3.8344284352   Al  0.0 0.0   -2.73499979e-05  3.31199975e-05 -7.09999947e-06
atom     23.0004066504    19.1680328689     3.8307944582   Al  0.0 0.0    1.24549991e-04  1.04294992e-04 -3.56199973e-05
atom     23.0014707771    15.3323655081     7.6652259601   Al  0.0 0.0    5.78199957e-05 -4.86949963e-05 -3.06299977e-05
atom     26.8364665420    19.1677814038     7.6661306211   Al  0.0 0.0    8.36699937e-05  8.76699934e-05 -1.15649991e-04
atom     26.8314004407    15.3346654936    11.5020985132   Al  0.0 0.0    5.82799956e-05 -2.61349980e-05 -3.22699976e-05
atom     23.0001245189    19.1662419469    11.5003934574   Al  0.0 0.0    5.23499961e-06 -6.85499948e-06 -2.91999978e-06
atom     22.9976988009    15.3329696376    15.3334357680   Al  0.0 0.0   -5.16999961e-06 -5.50499959e-06 -4.78999964e-06
atom     26.8327681654    19.1662082137    15.3334848344   Al  0.0 0.0    3.61999973e-05  9.19999931e-07 -4.10499969e-06
atom     26.8330656302    15.3328684383    19.1659598153   Al  0.0 0.0    3.88149971e-05 -8.41499937e-06  5.00999962e-06
atom     23.0010445131    19.1655212848    19.1660027484   Al  0.0 0.0    2.09499984e-05 -1.78199987e-05  7.64999943e-07
atom     23.0000141196    15.3331689697    23.0000141196   Al  0.0 0.0    1.06149992e-05 -6.02499955e-06  1.05949992e-05
atom     26.8358593459    19.1691644617    22.9992413245   Al  0.0 0.0    3.87299971e-05  1.36289990e-04  9.54749928e-05
atom     26.8304375135    15.3347697596    26.8304375135   Al  0.0 0.0    3.28899975e-05 -2.72999979e-05  3.29099975e-05
atom     22.9992413245    19.1691644617    26.8358593459   Al  0.0 0.0    9.54799928e-05  1.36289990e-04  3.86949971e-05
atom     23.0253231597    23.0254304923     0.0000398664   Al  0.0 0.0   -1.60199988e-05 -1.61849988e-05  1.33399990e-05
atom     26.9001454730    26.9009428013     0.0011346595   Al  0.0 0.0   -6.63949950e-05 -6.80399949e-05  2.71899980e-05
atom     26.8371994708    23.0042552928     3.8305215266   Al  0.0 0.0    5.79449956e-05 -7.75399942e-05 -1.08099992e-05
atom     23.0050066214    26.8368161398     3.8303589943   Al  0.0 0.0   -4.06299969e-05  5.51949959e-05 -1.12399992e-05
atom     22.9950032179    22.9951412171     7.6711997890   Al  0.0 0.0    7.96899940e-05  7.83899941e-05 -9.37849930e-05
atom     26.8369112059    26.8367977400     7.6618158483   Al  0.0 0.0    5.89099956e-05  6.48499951e-05  5.71049957e-05
atom     26.8360310781    22.9995234560    11.4973114768   Al  0.0 0.0    4.22499968e-05  9.42299929e-05 -1.47564989e-04