begin
comment 107 atoms, species Al107
lattice     22.8943366515    -0.0000000000    -0.0000000000
lattice     -0.0000000000    22.8943366514    -0.0000000000
lattice     -0.0000000000    -0.0000000000    22.8943366516
atom     -0.0062577557    -0.0062577557    -0.0085613567   Al  0.0 0.0    2.74003042e-07  2.74003050e-07  6.03879737e-07
atom     -0.0067298642     3.8121504631     3.8157227753   Al  0.0 0.0   -1.12048956e-07  1.79459435e-07 -4.38662963e-15
atom      3.8121504631    -0.0067298642     3.8157227753   Al  0.0 0.0    1.79459420e-07 -1.12048976e-07  5.13797557e-15
atom      3.8127499785     3.8127499785    -0.0029727968   Al  0.0 0.0   -1.30049365e-07 -1.30049379e-07 -1.30049382e-07
atom     -0.0062577557    -0.0062577557     7.6400069072   Al  0.0 0.0    2.74003043e-07  2.74003051e-07 -6.03879706e-07
atom     -0.0062577557     3.8071614185    11.4534260815   Al  0.0 0.0    2.74003034e-07  6.03879741e-07 -2.74003048e-07
atom      3.8071614185    -0.0062577557    11.4534260815   Al  0.0 0.0    6.03879724e-07  2.74003016e-07 -2.74003043e-07
atom      3.8127499785     3.8127499785     7.6344183473   Al  0.0 0.0   -1.30049366e-07 -1.30049379e-07  1.30049351e-07
atom     -0.0682044436    -0.0682044436    15.2628911010   Al  0.0 0.0    1.09157373e-06  1.09157379e-06  1.70179332e-14
atom     -0.0062577557     3.8071614185    19.0723561206   Al  0.0 0.0    2.74003033e-07  6.03879742e-07  2.74003041e-07
atom      3.8071614185    -0.0062577557    19.0723561206   Al  0.0 0.0    6.03879724e-07  2.74003015e-07  2.74003053e-07
atom      3.7914227450     3.7914227450    15.2628911010   Al  0.0 0.0    5.09259279e-07  5.09259271e-07 -1.66631085e-14
atom     -0.0067298642     7.6314455505    -0.0035723121   Al  0.0 0.0   -1.12048971e-07  1.55037967e-14  1.79459423e-07
atom     -0.0067298642    11.4507406378     3.8157227753   Al  0.0 0.0   -1.12048956e-07 -1.79459405e-07  5.13364062e-15
atom      3.8117602144     7.6314455505     3.8157227753   Al  0.0 0.0   -3.51791040e-07 -1.47829472e-14 -4.68726074e-15
atom      3.8127499785    11.4501411225    -0.0029727968   Al  0.0 0.0   -1.30049366e-07  1.30049349e-07 -1.30049371e-07
atom     -0.0067298642     7.6314455505     7.6350178627   Al  0.0 0.0   -1.12048970e-07  1.44018767e-14 -1.79459410e-07
atom     -0.0062577557    11.4557296824    11.4534260815   Al  0.0 0.0    2.74003035e-07 -6.03879711e-07 -2.74003037e-07
atom      3.8121504631     7.6314455505    11.4538981900   Al  0.0 0.0    1.79459416e-07 -1.44666479e-14  1.12048959e-07
atom      3.8127499785    11.4501411225     7.6344183473   Al  0.0 0.0   -1.30049364e-07  1.30049349e-07  1.30049361e-07
atom     -0.0072597633     7.6314455505    15.2628911010   Al  0.0 0.0    5.01516050e-08  1.46971254e-14  6.45599501e-15
atom     -0.0062577557    11.4557296824    19.0723561206   Al  0.0 0.0    2.74003033e-07 -6.03879711e-07  2.74003050e-07
atom      3.8121504631     7.6314455505    19.0718840121   Al  0.0 0.0    1.79459416e-07 -1.43217223e-14 -1.12048969e-07
atom      3.7914227450    11.4714683560    15.2628911010   Al  0.0 0.0    5.09259277e-07 -5.09259299e-07 -6.42824289e-15
atom     -0.0062577557    15.2691488566    -0.0085613567   Al  0.0 0.0    2.74003043e-07 -2.74003019e-07  6.03879727e-07
atom     -0.0072597633    19.0786138762     3.8157227753   Al  0.0 0.0    5.01516131e-08  1.50475583e-14  4.31954742e-15
atom      3.8121504631    15.2696209652     3.8157227753   Al  0.0 0.0    1.79459420e-07  1.12048945e-07 -5.93907431e-15
atom      3.7914227450    19.0786138762    -0.0243000303   Al  0.0 0.0    5.09259313e-07 -1.56394125e-14  5.09259298e-07
atom     -0.0062577557    15.2691488566     7.6400069072   Al  0.0 0.0    2.74003044e-07 -2.74003019e-07 -6.03879716e-07
atom     -0.0682044436    19.0786138762    11.5153727694   Al  0.0 0.0    1.09157399e-06  1.36737330e-14 -1.09157392e-06
atom      3.8071614185    15.2691488566    11.4534260815   Al  0.0 0.0    6.03879723e-07 -2.74003045e-07 -2.74003054e-07
atom      3.7914227450    19.0786138762     7.6557455808   Al  0.0 0.0    5.09259313e-07 -1.61803975e-14 -5.09259310e-07
atom     -0.0682044436    15.3310955446    15.2628911010   Al  0.0 0.0    1.09157374e-06 -1.09157377e-06  3.87242177e-15
atom     -0.0682044436    19.0786138762    19.0104094327   Al  0.0 0.0    1.09157399e-06  1.73366752e-14  1.09157393e-06
atom      3.8071614185    15.2691488566    19.0723561206   Al  0.0 0.0    6.03879723e-07 -2.74003044e-07  2.74003043e-07
atom      3.7956372846    19.0786138762    15.2628911010   Al  0.0 0.0    5.97878197e-07 -1.53782382e-14 -6.50358103e-15
atom      7.6314455505    -0.0067298642    -0.0035723121   Al  0.0 0.0    7.58902579e-16 -1.12048968e-07  1.79459429e-07
atom      7.6314455505     3.8117602144     3.8157227753   Al  0.0 0.0    2.65561927e-16 -3.51791039e-07 -9.31810715e-15
atom     11.4507406379    -0.0067298642     3.8157227753   Al  0.0 0.0   -1.79459419e-07 -1.12048962e-07  1.10604881e-14
atom     11.4501411225     3.8127499785    -0.0029727968   Al  0.0 0.0    1.30049365e-07 -1.30049365e-07 -1.30049376e-07
atom      7.6314455505    -0.0067298642     7.6350178627   Al  0.0 0.0    6.41234896e-16 -1.12048968e-07 -1.79459407e-07
atom      7.6314455505     3.8121504631    11.4538981900   Al  0.0 0.0    5.50555214e-16  1.79459419e-07  1.12048947e-07
atom     11.4557296825    -0.0062577557    11.4534260815   Al  0.0 0.0   -6.03879723e-07  2.74003031e-07 -2.74003038e-07
atom     11.4501411225     3.8127499785     7.6344183473   Al  0.0 0.0    1.30049366e-07 -1.30049365e-07  1.30049356e-07
atom      7.6314455505    -0.0072597633    15.2628911010   Al  0.0 0.0    6.72540977e-16  5.01516085e-08  1.05024142e-14
atom      7.6314455505     3.8121504631    19.0718840121   Al  0.0 0.0    1.82438884e-16  1.79459418e-07 -1.12048968e-07
atom     11.4557296825    -0.0062577557    19.0723561206   Al  0.0 0.0   -6.03879723e-07  2.74003029e-07  2.74003059e-07
atom     11.4714683560     3.7914227450    15.2628911010   Al  0.0 0.0   -5.09259278e-07  5.09259285e-07 -1.11993730e-14
atom      7.6314455505     7.6314455505    -0.0039625608   Al  0.0 0.0   -4.27489931e-16  1.37824826e-15 -3.51791039e-07
atom      7.6314455505    11.4511308866     3.8157227753   Al  0.0 0.0   -2.75277607e-16  3.51791040e-07  1.13093928e-15
atom     11.4511308866     7.6314455505     3.8157227753   Al  0.0 0.0    3.51791040e-07 -1.59060529e-16  1.46635058e-15
atom     11.4501411225    11.4501411225    -0.0029727968   Al  0.0 0.0    1.30049365e-07  1.30049365e-07 -1.30049366e-07
atom      7.6314455505     7.6314455505     7.6354081114   Al  0.0 0.0   -4.10217610e-17  7.66355805e-16  3.51791042e-07
atom      7.6314455505    11.4507406378    11.4538981900   Al  0.0 0.0    5.42998573e-16 -1.79459416e-07  1.12048959e-07
atom     11.4507406379     7.6314455505    11.4538981900   Al  0.0 0.0   -1.79459415e-07  3.96875417e-16  1.12048965e-07
atom     11.4501411225    11.4501411225     7.6344183473   Al  0.0 0.0    1.30049365e-07  1.30049365e-07  1.30049367e-07
atom      7.6314455505     7.6314455505    15.2628911010   Al  0.0 0.0    9.01399222e-16  1.52682094e-15  1.12034815e-15
atom      7.6314455505    11.4507406378    19.0718840121   Al  0.0 0.0    3.30333128e-16 -1.79459416e-07 -1.12048958e-07
atom     11.4507406379     7.6314455505    19.0718840121   Al  0.0 0.0   -1.79459416e-07  4.88103293e-16 -1.12048964e-07
atom     11.4714683560    11.4714683560    15.2628911010   Al  0.0 0.0   -5.09259277e-07 -5.09259284e-07 -4.95826406e-16
atom      7.6314455505    15.2696209652    -0.0035723121   Al  0.0 0.0    6.74700017e-16  1.12048970e-07  1.79459419e-07
atom      7.6314455505    19.0786138762     3.8157227753   Al  0.0 0.0    9.87760824e-16  1.45942273e-15 -2.41028411e-16
atom     11.4507406379    15.2696209652     3.8157227753   Al  0.0 0.0   -1.79459420e-07  1.12048962e-07  1.59596336e-16
atom     11.4714683560    19.0786138762    -0.0243000303   Al  0.0 0.0   -5.09259313e-07  3.21975282e-16  5.09259304e-07
atom      7.6314455505    15.2696209652     7.6350178627   Al  0.0 0.0    2.16983525e-16  1.12048970e-07 -1.79459418e-07
atom      7.6314455505    19.0786138762    11.4544280891   Al  0.0 0.0    6.61745776e-16  9.95083875e-16 -5.01516118e-08
atom     11.4557296825    15.2691488566    11.4534260815   Al  0.0 0.0   -6.03879724e-07 -2.74003030e-07 -2.74003048e-07
atom     11.4714683560    19.0786138762     7.6557455808   Al  0.0 0.0   -5.09259312e-07  4.59348422e-16 -5.09259305e-07
atom      7.6314455505    15.2701508643    15.2628911010   Al  0.0 0.0    9.13273942e-16 -5.01516067e-08 -2.41730127e-16
atom      7.6314455505    19.0786138762    19.0713541130   Al  0.0 0.0    8.07480980e-16  1.14612209e-15  5.01516107e-08
atom     11.4557296825    15.2691488566    19.0723561206   Al  0.0 0.0   -6.03879723e-07 -2.74003029e-07  2.74003048e-07
atom     11.4672538164    19.0786138762    15.2628911010   Al  0.0 0.0   -5.97878197e-07 -5.79453459e-16 -1.32891402e-15
atom     15.2691488567    -0.0062577557    -0.0085613567   Al  0.0 0.0   -2.74003043e-07  2.74003033e-07  6.03879732e-07
atom     15.2696209652     3.8121504631     3.8157227753   Al  0.0 0.0    1.12048956e-07  1.79459419e-07 -9.53895311e-15
atom     19.0786138762    -0.0072597633     3.8157227753   Al  0.0 0.0   -6.11273998e-16  5.01516103e-08  9.73251807e-15
atom     19.0786138762     3.7914227450    -0.0243000303   Al  0.0 0.0    1.05620914e-15  5.09259305e-07  5.09259280e-07
atom     15.2691488567    -0.0062577557     7.6400069072   Al  0.0 0.0   -2.74003043e-07  2.74003035e-07 -6.03879711e-07
atom     15.2691488567     3.8071614185    11.4534260815   Al  0.0 0.0   -2.74003035e-07  6.03879725e-07 -2.74003054e-07
atom     19.0786138762    -0.0682044436    11.5153727694   Al  0.0 0.0    5.84711902e-16  1.09157393e-06 -1.09157381e-06
atom     19.0786138762     3.7914227450     7.6557455808   Al  0.0 0.0   -1.45760505e-16  5.09259303e-07 -5.09259299e-07
atom     15.3310955446    -0.0682044436    15.2628911010   Al  0.0 0.0   -1.09157374e-06  1.09157378e-06  9.35539359e-15
atom     15.2691488567     3.8071614185    19.0723561206   Al  0.0 0.0   -2.74003034e-07  6.03879725e-07  2.74003034e-07
atom     19.0786138762    -0.0682044436    19.0104094327   Al  0.0 0.0    3.48718282e-15  1.09157392e-06  1.09157382e-06
atom     19.0786138762     3.7956372846    15.2628911010   Al  0.0 0.0    5.36854586e-16  5.97878184e-07 -1.14298860e-14
atom     15.2696209652     7.6314455505    -0.0035723121   Al  0.0 0.0    1.12048971e-07 -1.00074880e-16  1.79459417e-07
atom     15.2696209652    11.4507406378     3.8157227753   Al  0.0 0.0    1.12048956e-07 -1.79459420e-07  3.90214072e-16
atom     19.0786138762     7.6314455505     3.8157227753   Al  0.0 0.0    1.56488235e-16 -1.65006121e-15 -3.34482270e-16
atom     19.0786138762    11.4714683560    -0.0243000303   Al  0.0 0.0    4.50914672e-16 -5.09259306e-07  5.09259288e-07
atom     15.2696209652     7.6314455505     7.6350178627   Al  0.0 0.0    1.12048970e-07 -8.30774998e-16 -1.79459415e-07
atom     15.2691488567    11.4557296824    11.4534260815   Al  0.0 0.0   -2.74003035e-07 -6.03879726e-07 -2.74003044e-07
atom     19.0786138762     7.6314455505    11.4544280891   Al  0.0 0.0   -9.19489616e-17 -1.65658135e-15 -5.01516067e-08
atom     19.0786138762    11.4714683560     7.6557455808   Al  0.0 0.0   -5.42277488e-16 -5.09259306e-07 -5.09259289e-07
atom     15.2701508643     7.6314455505    15.2628911010   Al  0.0 0.0   -5.01516055e-08  2.93182458e-16  4.87157581e-16
atom     15.2691488567    11.4557296824    19.0723561206   Al  0.0 0.0   -2.74003034e-07 -6.03879725e-07  2.74003043e-07
atom     19.0786138762     7.6314455505    19.0713541130   Al  0.0 0.0    4.69241211e-16 -8.66293087e-16  5.01516080e-08
atom     19.0786138762    11.4672538164    15.2628911010   Al  0.0 0.0   -1.61093063e-16 -5.97878185e-07 -1.63077638e-16
atom     15.2691488567    15.2691488566    -0.0085613567   Al  0.0 0.0   -2.74003043e-07 -2.74003035e-07  6.03879721e-07
atom     15.2701508643    19.0786138762     3.8157227753   Al  0.0 0.0   -5.01516142e-08  1.41687003e-17 -1.08018735e-15
atom     19.0786138762    15.2701508643     3.8157227753   Al  0.0 0.0   -5.23820225e-17 -5.01516122e-08 -8.10704781e-16
atom     19.0786138762    19.0786138762    -0.0200854906   Al  0.0 0.0   -8.86555822e-17 -1.06059278e-15  5.97878213e-07
atom     15.2691488567    15.2691488566     7.6400069072   Al  0.0 0.0   -2.74003043e-07 -2.74003035e-07 -6.03879722e-07
atom     15.3310955446    19.0786138762    11.5153727694   Al  0.0 0.0   -1.09157399e-06 -4.60447761e-15 -1.09157393e-06
atom     19.0786138762    15.3310955446    11.5153727694   Al  0.0 0.0   -4.93777520e-15 -1.09157392e-06 -1.09157381e-06
atom     19.0786138762    19.0786138762     7.6515310412   Al  0.0 0.0   -8.86070881e-16 -9.46222193e-16 -5.97878215e-07
atom     15.3310955446    15.3310955446    15.2628911010   Al  0.0 0.0   -1.09157373e-06 -1.09157378e-06 -2.63037908e-15
atom     15.3310955446    19.0786138762    19.0104094327   Al  0.0 0.0   -1.09157399e-06 -1.68385727e-15  1.09157393e-06
atom     19.0786138762    15.3310955446    19.0104094327   Al  0.0 0.0   -2.39165553e-15 -1.09157393e-06  1.09157382e-06
energy -2.113373498142601e+03
charge 0.0000
end
