begin
comment 108 atoms, species Al107Mg
lattice     22.9305990668     0.0000000000    -0.0000000000
lattice      0.0000000000    22.9305990668    -0.0000000000
lattice     -0.0000000000    -0.0000000000    22.9305990667
atom      0.0000000000    -0.0000000000     0.0000000000   Mg  0.0 0.0   -8.16117140e-16  1.59898506e-14 -2.25349806e-15
atom      0.0000000000     3.8652550083     3.8652550083   Al  0.0 0.0   -5.93736015e-16 -1.34687137e-06 -1.34687139e-06
atom      3.8652550083     0.0000000000     3.8652550083   Al  0.0 0.0   -1.34687139e-06  5.87946245e-16 -1.34687141e-06
atom      3.8652550083     3.8652550083    -0.0000000000   Al  0.0 0.0   -1.34687142e-06 -1.34687143e-06  1.88226548e-16
atom     -0.0000000000    -0.0000000000     7.6400468166   Al  0.0 0.0    3.23856008e-17  1.02138787e-14 -7.33247412e-07
atom      0.0000000000     3.8189051458    11.4652995334   Al  0.0 0.0   -3.45446408e-17 -1.56997060e-07  4.84277836e-16
atom      3.8189051458     0.0000000000    11.4652995334   Al  0.0 0.0   -1.56997069e-07 -5.67179189e-16 -1.07085085e-15
atom      3.8275509822     3.8275509822     7.6568534267   Al  0.0 0.0    4.48879969e-07  4.48879969e-07  8.46661106e-08
atom     -0.0000000000    -0.0000000000    15.2905522501   Al  0.0 0.0    4.60955051e-16  1.03474693e-14  7.33247408e-07
atom      0.0000000000     3.8652550083    19.0653440585   Al  0.0 0.0   -6.19644495e-16 -1.34687137e-06  1.34687139e-06
atom      3.8652550083    -0.0000000000    19.0653440585   Al  0.0 0.0   -1.34687139e-06 -1.23953462e-16  1.34687141e-06
atom      3.8275509822     3.8275509822    15.2737456400   Al  0.0 0.0    4.48879970e-07  4.48879969e-07 -8.46661112e-08
atom      0.0000000000     7.6400468166    -0.0000000000   Al  0.0 0.0   -8.58218421e-16 -7.33247387e-07  6.10681527e-16
atom      0.0000000000    11.4652995334     3.8189051458   Al  0.0 0.0   -7.62141139e-16  1.03606091e-14 -1.56997069e-07
atom      3.8275509822     7.6568534267     3.8275509822   Al  0.0 0.0    4.48879965e-07  8.46661089e-08  4.48879968e-07
atom      3.8189051458    11.4652995334    -0.0000000000   Al  0.0 0.0   -1.56997068e-07 -8.43412639e-16  4.09896337e-16
atom      0.0000000000     7.6541141623     7.6541141623   Al  0.0 0.0   -4.04820010e-16  4.27071591e-07  4.27071580e-07
atom      0.0000000000    11.4652995334    11.4652995334   Al  0.0 0.0   -1.67325604e-16  1.01802281e-14  1.78626829e-17
atom      3.8227407335     7.6456629297    11.4652995334   Al  0.0 0.0    1.06551785e-06  6.71405029e-07  1.81567149e-16
atom      3.8227407335    11.4652995334     7.6456629297   Al  0.0 0.0    1.06551785e-06 -9.47415554e-16  6.71405030e-07
atom      0.0000000000     7.6541141623    15.2764849044   Al  0.0 0.0   -5.50555214e-16  4.27071591e-07 -4.27071581e-07
atom      0.0000000000    11.4652995334    19.1116939209   Al  0.0 0.0   -8.22594260e-16  1.04374068e-14  1.56997070e-07
atom      3.8275509822     7.6568534267    19.1030480845   Al  0.0 0.0    4.48879966e-07  8.46661086e-08 -4.48879968e-07
atom      3.8227407335    11.4652995334    15.2849361370   Al  0.0 0.0    1.06551785e-06 -8.51388186e-16 -6.71405032e-07
atom      0.0000000000    15.2905522501    -0.0000000000   Al  0.0 0.0   -2.99027047e-16  7.33247406e-07  2.05291226e-16
atom      0.0000000000    19.0653440585     3.8652550083   Al  0.0 0.0    1.92154565e-16  1.34687139e-06 -1.34687139e-06
atom      3.8275509822    15.2737456400     3.8275509822   Al  0.0 0.0    4.48879965e-07 -8.46661113e-08  4.48879968e-07
atom      3.8652550083    19.0653440585    -0.0000000000   Al  0.0 0.0   -1.34687142e-06  1.34687142e-06  8.86639200e-16
atom      0.0000000000    15.2764849044     7.6541141623   Al  0.0 0.0   -5.34362413e-16 -4.27071571e-07  4.27071580e-07
atom      0.0000000000    19.1116939209    11.4652995334   Al  0.0 0.0    4.44762251e-16  1.56997080e-07  1.16862584e-15
atom      3.8227407335    15.2849361370    11.4652995334   Al  0.0 0.0    1.06551785e-06 -6.71405031e-07  5.29808162e-16
atom      3.8275509822    19.1030480845     7.6568534267   Al  0.0 0.0    4.48879969e-07 -4.48879970e-07  8.46661121e-08
atom      0.0000000000    15.2764849044    15.2764849044   Al  0.0 0.0    3.43287368e-16 -4.27071571e-07 -4.27071581e-07
atom      0.0000000000    19.0653440585    19.0653440585   Al  0.0 0.0    9.45659543e-16  1.34687139e-06  1.34687139e-06
atom      3.8275509822    15.2737456400    19.1030480845   Al  0.0 0.0    4.48879965e-07 -8.46661106e-08 -4.48879968e-07
atom      3.8275509822    19.1030480845    15.2737456400   Al  0.0 0.0    4.48879969e-07 -4.48879971e-07 -8.46661096e-08
atom      7.6400468166     0.0000000000    -0.0000000000   Al  0.0 0.0   -7.33247387e-07  1.00066446e-16 -1.40975142e-15
atom      7.6568534267     3.8275509822     3.8275509822   Al  0.0 0.0    8.46661102e-08  4.48879963e-07  4.48879966e-07
atom     11.4652995334     0.0000000000     3.8189051458   Al  0.0 0.0   -1.92964205e-17 -1.08251401e-16 -1.56997071e-07
atom     11.4652995334     3.8189051458    -0.0000000000   Al  0.0 0.0    1.61253304e-17 -1.56997070e-07 -3.99775837e-16
atom      7.6541141623     0.0000000000     7.6541141623   Al  0.0 0.0    4.27071580e-07  2.46345627e-16  4.27071576e-07
atom      7.6456629297     3.8227407335    11.4652995334   Al  0.0 0.0    6.71405030e-07  1.06551785e-06 -1.51516952e-16
atom     11.4652995334     0.0000000000    11.4652995334   Al  0.0 0.0    3.19402988e-16  2.45498035e-16 -1.16736070e-15
atom     11.4652995334     3.8227407335     7.6456629297   Al  0.0 0.0   -4.04718805e-16  1.06551785e-06  6.71405031e-07
atom      7.6541141623     0.0000000000    15.2764849044   Al  0.0 0.0    4.27071580e-07 -1.48687016e-17 -4.27071579e-07
atom      7.6568534267     3.8275509822    19.1030480845   Al  0.0 0.0    8.46661099e-08  4.48879963e-07 -4.48879965e-07
atom     11.4652995334     0.0000000000    19.1116939209   Al  0.0 0.0    5.67962474e-16  1.45874360e-16  1.56997068e-07
atom     11.4652995334     3.8227407335    15.2849361370   Al  0.0 0.0    3.90921190e-16  1.06551785e-06 -6.71405030e-07
atom      7.6541141623     7.6541141623    -0.0000000000   Al  0.0 0.0    4.27071577e-07  4.27071575e-07  1.10495437e-16
atom      7.6456629297    11.4652995334     3.8227407335   Al  0.0 0.0    6.71405029e-07 -2.21091816e-16  1.06551786e-06
atom     11.4652995334     7.6456629297     3.8227407335   Al  0.0 0.0   -3.76347669e-16  6.71405029e-07  1.06551785e-06
atom     11.4652995334    11.4652995334    -0.0000000000   Al  0.0 0.0   -4.72290012e-19  9.29220056e-17 -3.51825750e-17
atom      7.6447307657     7.6447307657     7.6447307657   Al  0.0 0.0    4.31684006e-07  4.31684005e-07  4.31684006e-07
atom      7.6423628553    11.4652995334    11.4652995334   Al  0.0 0.0    3.56771952e-07  1.91208930e-16 -1.89486456e-16
atom     11.4652995334     7.6423628553    11.4652995334   Al  0.0 0.0   -3.20954798e-16  3.56771951e-07 -1.33348159e-16
atom     11.4652995334    11.4652995334     7.6423628553   Al  0.0 0.0   -5.34733498e-16  2.25347697e-16  3.56771952e-07
atom      7.6447307657     7.6447307657    15.2858683011   Al  0.0 0.0    4.31684005e-07  4.31684004e-07 -4.31684006e-07
atom      7.6456629297    11.4652995334    19.1078583332   Al  0.0 0.0    6.71405029e-07 -3.60584990e-16 -1.06551785e-06
atom     11.4652995334     7.6456629297    19.1078583332   Al  0.0 0.0    1.26843603e-16  6.71405029e-07 -1.06551785e-06
atom     11.4652995334    11.4652995334    15.2882362114   Al  0.0 0.0    2.34458256e-16  1.35119221e-16 -3.56771953e-07
atom      7.6541141623    15.2764849044    -0.0000000000   Al  0.0 0.0    4.27071576e-07 -4.27071575e-07  4.58629445e-16
atom      7.6568534267    19.1030480845     3.8275509822   Al  0.0 0.0    8.46661110e-08 -4.48879963e-07  4.48879967e-07
atom     11.4652995334    15.2849361370     3.8227407335   Al  0.0 0.0    6.14044485e-16 -6.71405029e-07  1.06551785e-06
atom     11.4652995334    19.1116939209    -0.0000000000   Al  0.0 0.0    6.56179501e-16  1.56997070e-07  1.43641947e-15
atom      7.6447307657    15.2858683011     7.6447307657   Al  0.0 0.0    4.31684006e-07 -4.31684005e-07  4.31684006e-07
atom      7.6456629297    19.1078583332    11.4652995334   Al  0.0 0.0    6.71405029e-07 -1.06551786e-06  1.52433021e-15
atom     11.4652995334    15.2882362114    11.4652995334   Al  0.0 0.0   -2.83610152e-16 -3.56771952e-07 -8.83708488e-17
atom     11.4652995334    19.1078583332     7.6456629297   Al  0.0 0.0    5.21172028e-16 -1.06551785e-06  6.71405031e-07
atom      7.6447307657    15.2858683011    15.2858683011   Al  0.0 0.0    4.31684005e-07 -4.31684005e-07 -4.31684006e-07
atom      7.6568534267    19.1030480845    19.1030480845   Al  0.0 0.0    8.46661104e-08 -4.48879963e-07 -4.48879964e-07
atom     11.4652995334    15.2849361370    19.1078583332   Al  0.0 0.0    8.78020867e-16 -6.71405028e-07 -1.06551785e-06
atom     11.4652995334    19.1078583332    15.2849361370   Al  0.0 0.0    7.65379699e-16 -1.06551785e-06 -6.71405028e-07
atom     15.2905522501     0.0000000000    -0.0000000000   Al  0.0 0.0    7.33247386e-07  1.39984546e-15 -1.61295663e-15
atom     15.2737456400     3.8275509822     3.8275509822   Al  0.0 0.0   -8.46661107e-08  4.48879964e-07  4.48879965e-07
atom     19.0653440585     0.0000000000     3.8652550083   Al  0.0 0.0    1.34687139e-06 -8.49906117e-15 -1.34687141e-06
atom     19.0653440585     3.8652550083    -0.0000000000   Al  0.0 0.0    1.34687142e-06 -1.34687144e-06 -2.40976490e-16
atom     15.2764849045     0.0000000000     7.6541141623   Al  0.0 0.0   -4.27071580e-07  5.92666510e-16  4.27071577e-07
atom     15.2849361370     3.8227407335    11.4652995334   Al  0.0 0.0   -6.71405030e-07  1.06551786e-06  6.65803037e-16
atom     19.1116939209     0.0000000000    11.4652995334   Al  0.0 0.0    1.56997069e-07 -9.64132830e-15 -1.10607474e-15
atom     19.1030480845     3.8275509822     7.6568534267   Al  0.0 0.0   -4.48879969e-07  4.48879960e-07  8.46661106e-08
atom     15.2764849045     0.0000000000    15.2764849044   Al  0.0 0.0   -4.27071580e-07  1.05171659e-15 -4.27071579e-07
atom     15.2737456400     3.8275509822    19.1030480845   Al  0.0 0.0   -8.46661099e-08  4.48879964e-07 -4.48879966e-07
atom     19.0653440585     0.0000000000    19.0653440585   Al  0.0 0.0    1.34687139e-06 -8.35305609e-15  1.34687141e-06
atom     19.1030480845     3.8275509822    15.2737456400   Al  0.0 0.0   -4.48879970e-07  4.48879960e-07 -8.46661107e-08
atom     15.2764849045     7.6541141623    -0.0000000000   Al  0.0 0.0   -4.27071576e-07  4.27071577e-07  4.51890878e-17
atom     15.2849361370    11.4652995334     3.8227407335   Al  0.0 0.0   -6.71405028e-07  1.78216362e-15  1.06551785e-06
atom     19.1030480845     7.6568534267     3.8275509822   Al  0.0 0.0   -4.48879964e-07  8.46660997e-08  4.48879968e-07
atom     19.1116939209    11.4652995334    -0.0000000000   Al  0.0 0.0    1.56997068e-07 -9.60954993e-15  3.40247001e-16
atom     15.2858683011     7.6447307657     7.6447307657   Al  0.0 0.0   -4.31684005e-07  4.31684006e-07  4.31684005e-07
atom     15.2882362114    11.4652995334    11.4652995334   Al  0.0 0.0   -3.56771951e-07  1.23539434e-15  1.48761786e-16
atom     19.1078583332     7.6456629297    11.4652995334   Al  0.0 0.0   -1.06551785e-06  6.71405019e-07  5.37112493e-16
atom     19.1078583332    11.4652995334     7.6456629297   Al  0.0 0.0   -1.06551785e-06 -1.00909821e-14  6.71405030e-07
atom     15.2858683011     7.6447307657    15.2858683011   Al  0.0 0.0   -4.31684005e-07  4.31684005e-07 -4.31684006e-07
atom     15.2849361370    11.4652995334    19.1078583332   Al  0.0 0.0   -6.71405028e-07  1.38661993e-15 -1.06551785e-06
atom     19.1030480845     7.6568534267    19.1030480845   Al  0.0 0.0   -4.48879966e-07  8.46660993e-08 -4.48879968e-07
atom     19.1078583332    11.4652995334    15.2849361370   Al  0.0 0.0   -1.06551785e-06 -1.04970841e-14 -6.71405030e-07
atom     15.2764849045    15.2764849044    -0.0000000000   Al  0.0 0.0   -4.27071576e-07 -4.27071575e-07  4.37992585e-16
atom     15.2737456400    19.1030480845     3.8275509822   Al  0.0 0.0   -8.46661107e-08 -4.48879963e-07  4.48879968e-07
atom     19.1030480845    15.2737456400     3.8275509822   Al  0.0 0.0   -4.48879966e-07 -8.46661212e-08  4.48879969e-07
atom     19.0653440585    19.0653440585    -0.0000000000   Al  0.0 0.0    1.34687142e-06  1.34687141e-06  1.40698412e-15
atom     15.2858683011    15.2858683011     7.6447307657   Al  0.0 0.0   -4.31684005e-07 -4.31684003e-07  4.31684005e-07
atom     15.2849361370    19.1078583332    11.4652995334   Al  0.0 0.0   -6.71405030e-07 -1.06551785e-06  1.67161756e-15
atom     19.1078583332    15.2849361370    11.4652995334   Al  0.0 0.0   -1.06551785e-06 -6.71405040e-07 -1.89393588e-16
atom     19.1030480845    19.1030480845     7.6568534267   Al  0.0 0.0   -4.48879970e-07 -4.48879980e-07  8.46661119e-08
atom     15.2858683011    15.2858683011    15.2858683011   Al  0.0 0.0   -4.31684005e-07 -4.31684004e-07 -4.31684005e-07
atom     15.2737456400    19.1030480845    19.1030480845   Al  0.0 0.0   -8.46661106e-08 -4.48879962e-07 -4.48879965e-07
atom     19.1030480845    15.2737456400    19.1030480845   Al  0.0 0.0   -4.48879966e-07 -8.46661209e-08 -4.48879968e-07
atom     19.1030480845    19.1030480845    15.2737456400   Al  0.0 0.0   -4.48879970e-07 -4.48879980e-07 -8.46661090e-08
energy -2.130203316418114e+03
charge 0.0000
end
