begin
comment 108 atoms, species Al107Si
lattice     22.8973294315     0.0000000000    -0.0000000000
lattice      0.0000000000    22.8973294315    -0.0000000000
lattice     -0.0000000000    -0.0000000000    22.8973294315
atom      0.0000000000     0.0000000000    -0.0000000000   Si  0.0 0.0    4.66352651e-16  1.13133699e-15 -9.61582464e-15
atom     -0.0000000000     3.7952760663     3.7952760663   Al  0.0 0.0   -1.72723204e-17  5.00125848e-07  5.00125838e-07
atom      3.7952760663    -0.0000000000     3.7952760663   Al  0.0 0.0    5.00125845e-07 -3.13060808e-16  5.00125837e-07
atom      3.7952760663     3.7952760663    -0.0000000000   Al  0.0 0.0    5.00125850e-07  5.00125851e-07 -5.25780229e-15
atom     -0.0000000000    -0.0000000000     7.6260128775   Al  0.0 0.0    2.31017286e-16 -1.05792963e-16  1.03188733e-06
atom     -0.0000000000     3.8142450304    11.4486647157   Al  0.0 0.0   -5.07374412e-17  1.48180272e-06 -4.98124275e-15
atom      3.8142450304    -0.0000000000    11.4486647157   Al  0.0 0.0    1.48180272e-06 -7.86868894e-17 -4.91249082e-15
atom      3.8150983230     3.8150983230     7.6287977541   Al  0.0 0.0    8.84580628e-08  8.84580620e-08  1.87423739e-07
atom     -0.0000000000    -0.0000000000    15.2713165539   Al  0.0 0.0   -5.61350414e-17  5.54873294e-16 -1.03188735e-06
atom     -0.0000000000     3.7952760663    19.1020533652   Al  0.0 0.0    1.07952003e-17  5.00125846e-07 -5.00125848e-07
atom      3.7952760663    -0.0000000000    19.1020533652   Al  0.0 0.0    5.00125844e-07  2.65561927e-16 -5.00125846e-07
atom      3.8150983230     3.8150983230    15.2685316774   Al  0.0 0.0    8.84580627e-08  8.84580612e-08 -1.87423743e-07
atom      0.0000000000     7.6260128776    -0.0000000000   Al  0.0 0.0   -4.25330890e-16  1.03188734e-06 -4.81250028e-15
atom     -0.0000000000    11.4486647157     3.8142450304   Al  0.0 0.0   -1.29542403e-16 -1.55113534e-16  1.48180271e-06
atom      3.8150983230     7.6287977541     3.8150983230   Al  0.0 0.0    8.84580625e-08  1.87423743e-07  8.84580626e-08
atom      3.8142450304    11.4486647157    -0.0000000000   Al  0.0 0.0    1.48180272e-06  3.95644090e-16 -1.46490868e-15
atom     -0.0000000000     7.6252605617     7.6252605617   Al  0.0 0.0    2.39653446e-16  4.17749022e-07  4.17749018e-07
atom     -0.0000000000    11.4486647157    11.4486647157   Al  0.0 0.0    6.05610735e-16  8.06401460e-16 -3.43071464e-15
atom      3.8136088787     7.6315515412    11.4486647157   Al  0.0 0.0    2.60942587e-07  2.10354726e-08 -1.90191188e-15
atom      3.8136088787    11.4486647157     7.6315515412   Al  0.0 0.0    2.60942587e-07  1.59634024e-16  2.10354716e-08
atom     -0.0000000000     7.6252605617    15.2720688698   Al  0.0 0.0    1.40337603e-17  4.17749021e-07 -4.17749025e-07
atom     -0.0000000000    11.4486647157    19.0830844011   Al  0.0 0.0    6.58507216e-17  4.31808011e-16 -1.48180272e-06
atom      3.8150983230     7.6287977541    19.0822311085   Al  0.0 0.0    8.84580623e-08  1.87423742e-07 -8.84580651e-08
atom      3.8136088787    11.4486647157    15.2657778903   Al  0.0 0.0    2.60942585e-07  6.31519216e-16 -2.10354745e-08
atom      0.0000000000    15.2713165539    -0.0000000000   Al  0.0 0.0    2.39653446e-16 -1.03188734e-06 -2.62323366e-15
atom     -0.0000000000    19.1020533652     3.7952760663   Al  0.0 0.0    5.07374412e-16 -5.00125848e-07  5.00125844e-07
atom      3.8150983230    15.2685316774     3.8150983230   Al  0.0 0.0    8.84580630e-08 -1.87423743e-07  8.84580631e-08
atom      3.7952760663    19.1020533652    -0.0000000000   Al  0.0 0.0    5.00125851e-07 -5.00125851e-07  8.09235200e-16
atom     -0.0000000000    15.2720688698     7.6252605617   Al  0.0 0.0    4.21012810e-17 -4.17749020e-07  4.17749020e-07
atom     -0.0000000000    19.0830844011    11.4486647157   Al  0.0 0.0    1.67325604e-16 -1.48180272e-06  4.64193611e-17
atom      3.8136088787    15.2657778903    11.4486647157   Al  0.0 0.0    2.60942586e-07 -2.10354726e-08  1.87836485e-16
atom      3.8150983230    19.0822311085     7.6287977541   Al  0.0 0.0    8.84580620e-08 -8.84580613e-08  1.87423744e-07
atom     -0.0000000000    15.2720688698    15.2720688698   Al  0.0 0.0    2.90390887e-16 -4.17749021e-07 -4.17749025e-07
atom     -0.0000000000    19.1020533652    19.1020533652   Al  0.0 0.0    2.43971526e-16 -5.00125845e-07 -5.00125843e-07
atom      3.8150983230    15.2685316774    19.0822311085   Al  0.0 0.0    8.84580627e-08 -1.87423742e-07 -8.84580643e-08
atom      3.8150983230    19.0822311085    15.2685316774   Al  0.0 0.0    8.84580623e-08 -8.84580613e-08 -1.87423739e-07
atom      7.6260128776     0.0000000000    -0.0000000000   Al  0.0 0.0    1.03188734e-06 -5.22892513e-16 -5.38303505e-15
atom      7.6287977541     3.8150983230     3.8150983230   Al  0.0 0.0    1.87423743e-07  8.84580620e-08  8.84580626e-08
atom     11.4486647157    -0.0000000000     3.8142450304   Al  0.0 0.0    4.07097123e-16  1.29137583e-16  1.48180271e-06
atom     11.4486647157     3.8142450304    -0.0000000000   Al  0.0 0.0    1.34433978e-17  1.48180272e-06 -2.78437733e-15
atom      7.6252605617    -0.0000000000     7.6252605617   Al  0.0 0.0    4.17749020e-07  2.92549927e-16  4.17749018e-07
atom      7.6315515412     3.8136088787    11.4486647157   Al  0.0 0.0    2.10354735e-08  2.60942586e-07 -1.58330588e-15
atom     11.4486647157    -0.0000000000    11.4486647157   Al  0.0 0.0   -4.38934530e-16  8.25491253e-16 -2.66558796e-15
atom     11.4486647157     3.8136088787     7.6315515412   Al  0.0 0.0   -5.14914185e-16  2.60942587e-07  2.10354724e-08
atom      7.6252605617    -0.0000000000    15.2720688698   Al  0.0 0.0    4.17749021e-07  3.35798198e-16 -4.17749023e-07
atom      7.6287977541     3.8150983230    19.0822311085   Al  0.0 0.0    1.87423742e-07  8.84580608e-08 -8.84580653e-08
atom     11.4486647157    -0.0000000000    19.0830844011   Al  0.0 0.0   -4.51205636e-16 -4.89157512e-18 -1.48180272e-06
atom     11.4486647157     3.8136088787    15.2657778903   Al  0.0 0.0   -5.07273207e-16  2.60942585e-07 -2.10354736e-08
atom      7.6252605617     7.6252605617    -0.0000000000   Al  0.0 0.0    4.17749025e-07  4.17749024e-07 -5.37331093e-16
atom      7.6315515412    11.4486647157     3.8136088787   Al  0.0 0.0    2.10354742e-08  3.19807808e-16  2.60942587e-07
atom     11.4486647157     7.6315515412     3.8136088787   Al  0.0 0.0   -2.36676332e-16  2.10354735e-08  2.60942587e-07
atom     11.4486647157    11.4486647157    -0.0000000000   Al  0.0 0.0   -1.67899099e-16  1.15137558e-16  6.11308787e-16
atom      7.6324553292     7.6324553292     7.6324553292   Al  0.0 0.0    7.28007936e-08  7.28007923e-08  7.28007924e-08
atom      7.6323576825    11.4486647157    11.4486647157   Al  0.0 0.0   -3.35252182e-07 -4.83085212e-17 -8.83452202e-16
atom     11.4486647157     7.6323576825    11.4486647157   Al  0.0 0.0   -8.89760647e-16 -3.35252183e-07 -5.76286585e-16
atom     11.4486647157    11.4486647157     7.6323576825   Al  0.0 0.0   -6.99933797e-16 -2.94596166e-16 -3.35252183e-07
atom      7.6324553292     7.6324553292    15.2648741023   Al  0.0 0.0    7.28007931e-08  7.28007916e-08 -7.28007920e-08
atom      7.6315515412    11.4486647157    19.0837205528   Al  0.0 0.0    2.10354734e-08  1.10895381e-16 -2.60942586e-07
atom     11.4486647157     7.6315515412    19.0837205528   Al  0.0 0.0   -2.65612529e-16  2.10354722e-08 -2.60942587e-07
atom     11.4486647157    11.4486647157    15.2649717490   Al  0.0 0.0   -4.38689951e-16 -6.75003632e-16  3.35252183e-07
atom      7.6252605617    15.2720688698    -0.0000000000   Al  0.0 0.0    4.17749025e-07 -4.17749024e-07  1.62926560e-15
atom      7.6287977541    19.0822311085     3.8150983230   Al  0.0 0.0    1.87423742e-07 -8.84580621e-08  8.84580657e-08
atom     11.4486647157    15.2657778903     3.8136088787   Al  0.0 0.0   -8.99240182e-16 -2.10354738e-08  2.60942587e-07
atom     11.4486647157    19.0830844011    -0.0000000000   Al  0.0 0.0    1.11629118e-16 -1.48180272e-06  2.75090799e-15
atom      7.6324553292    15.2648741023     7.6324553292   Al  0.0 0.0    7.28007926e-08 -7.28007929e-08  7.28007934e-08
atom      7.6315515412    19.0837205528    11.4486647157   Al  0.0 0.0    2.10354724e-08 -2.60942586e-07  4.33737653e-15
atom     11.4486647157    15.2649717490    11.4486647157   Al  0.0 0.0   -3.27263243e-16  3.35252182e-07  8.57958556e-16
atom     11.4486647157    19.0837205528     7.6315515412   Al  0.0 0.0   -2.38219708e-16 -2.60942586e-07  2.10354769e-08
atom      7.6324553292    15.2648741023    15.2648741023   Al  0.0 0.0    7.28007920e-08 -7.28007922e-08 -7.28007909e-08
atom      7.6287977541    19.0822311085    19.0822311085   Al  0.0 0.0    1.87423742e-07 -8.84580606e-08 -8.84580597e-08
atom     11.4486647157    15.2657778903    19.0837205528   Al  0.0 0.0    1.49715934e-16 -2.10354726e-08 -2.60942584e-07
atom     11.4486647157    19.0837205528    15.2657778903   Al  0.0 0.0   -2.61277581e-16 -2.60942585e-07 -2.10354688e-08
atom     15.2713165539     0.0000000000    -0.0000000000   Al  0.0 0.0   -1.03188734e-06 -1.43947249e-16 -3.09287126e-15
atom     15.2685316774     3.8150983230     3.8150983230   Al  0.0 0.0   -1.87423742e-07  8.84580618e-08  8.84580636e-08
atom     19.1020533652    -0.0000000000     3.7952760663   Al  0.0 0.0   -5.00125846e-07 -2.30797481e-16  5.00125842e-07
atom     19.1020533652     3.7952760663    -0.0000000000   Al  0.0 0.0   -5.00125851e-07  5.00125851e-07  1.52090878e-15
atom     15.2720688698    -0.0000000000     7.6252605617   Al  0.0 0.0   -4.17749019e-07  3.73028989e-16  4.17749019e-07
atom     15.2657778903     3.8136088787    11.4486647157   Al  0.0 0.0   -2.10354733e-08  2.60942586e-07  2.13122976e-16
atom     19.0830844011    -0.0000000000    11.4486647157   Al  0.0 0.0   -1.48180272e-06 -3.35190968e-16  9.56454744e-16
atom     19.0822311085     3.8150983230     7.6287977541   Al  0.0 0.0   -8.84580626e-08  8.84580615e-08  1.87423744e-07
atom     15.2720688698    -0.0000000000    15.2720688698   Al  0.0 0.0   -4.17749020e-07  2.42512487e-16 -4.17749022e-07
atom     15.2685316774     3.8150983230    19.0822311085   Al  0.0 0.0   -1.87423743e-07  8.84580609e-08 -8.84580635e-08
atom     19.1020533652    -0.0000000000    19.1020533652   Al  0.0 0.0   -5.00125844e-07  2.50841606e-16 -5.00125840e-07
atom     19.0822311085     3.8150983230    15.2685316774   Al  0.0 0.0   -8.84580627e-08  8.84580611e-08 -1.87423738e-07
atom     15.2720688698     7.6252605617    -0.0000000000   Al  0.0 0.0   -4.17749025e-07  4.17749024e-07  1.43108301e-15
atom     15.2657778903    11.4486647157     3.8136088787   Al  0.0 0.0   -2.10354738e-08 -5.03726816e-16  2.60942588e-07
atom     19.0822311085     7.6287977541     3.8150983230   Al  0.0 0.0   -8.84580624e-08  1.87423742e-07  8.84580671e-08
atom     19.0830844011    11.4486647157    -0.0000000000   Al  0.0 0.0   -1.48180272e-06 -5.41781214e-16  3.96045958e-15
atom     15.2648741023     7.6324553292     7.6324553292   Al  0.0 0.0   -7.28007933e-08  7.28007917e-08  7.28007932e-08
atom     15.2649717490    11.4486647157    11.4486647157   Al  0.0 0.0    3.35252182e-07 -1.46241229e-17  1.26085831e-15
atom     19.0837205528     7.6315515412    11.4486647157   Al  0.0 0.0   -2.60942586e-07  2.10354715e-08  4.24804648e-15
atom     19.0837205528    11.4486647157     7.6315515412   Al  0.0 0.0   -2.60942586e-07 -7.14646751e-16  2.10354765e-08
atom     15.2648741023     7.6324553292    15.2648741023   Al  0.0 0.0   -7.28007929e-08  7.28007914e-08 -7.28007899e-08
atom     15.2657778903    11.4486647157    19.0837205528   Al  0.0 0.0   -2.10354736e-08 -2.27673304e-16 -2.60942585e-07
atom     19.0822311085     7.6287977541    19.0822311085   Al  0.0 0.0   -8.84580620e-08  1.87423742e-07 -8.84580602e-08
atom     19.0837205528    11.4486647157    15.2657778903   Al  0.0 0.0   -2.60942585e-07  3.10186217e-16 -2.10354683e-08
atom     15.2720688698    15.2720688698    -0.0000000000   Al  0.0 0.0   -4.17749025e-07 -4.17749024e-07  2.73478055e-15
atom     15.2685316774    19.0822311085     3.8150983230   Al  0.0 0.0   -1.87423742e-07 -8.84580616e-08  8.84580675e-08
atom     19.0822311085    15.2685316774     3.8150983230   Al  0.0 0.0   -8.84580624e-08 -1.87423742e-07  8.84580686e-08
atom     19.1020533652    19.1020533652    -0.0000000000   Al  0.0 0.0   -5.00125852e-07 -5.00125851e-07  6.23869725e-15
atom     15.2648741023    15.2648741023     7.6324553292   Al  0.0 0.0   -7.28007925e-08 -7.28007926e-08  7.28007952e-08
atom     15.2657778903    19.0837205528    11.4486647157   Al  0.0 0.0   -2.10354722e-08 -2.60942586e-07  5.49883254e-15
atom     19.0837205528    15.2657778903    11.4486647157   Al  0.0 0.0   -2.60942586e-07 -2.10354725e-08  5.76182112e-15
atom     19.0822311085    19.0822311085     7.6287977541   Al  0.0 0.0   -8.84580625e-08 -8.84580616e-08  1.87423749e-07
atom     15.2648741023    15.2648741023    15.2648741023   Al  0.0 0.0   -7.28007922e-08 -7.28007920e-08 -7.28007889e-08
atom     15.2685316774    19.0822311085    19.0822311085   Al  0.0 0.0   -1.87423743e-07 -8.84580612e-08 -8.84580580e-08
atom     19.0822311085    15.2685316774    19.0822311085   Al  0.0 0.0   -8.84580626e-08 -1.87423743e-07 -8.84580590e-08
atom     19.0822311085    19.0822311085    15.2685316774   Al  0.0 0.0   -8.84580621e-08 -8.84580619e-08 -1.87423733e-07
energy -2.119093072099606e+03
charge 0.0000
end
