begin
comment 22 atoms, species Al4Mg10Si8
lattice     27.8548479806     0.0038247746    -7.9806818835
lattice      0.0139372467     7.6615160363    -0.0039986280
lattice      0.0000000000     0.0000000000    12.9203782329
atom      0.0497742253     7.6610466322    12.7580918891   Mg  0.0 0.0   -1.85499986e-06 -2.86499978e-06  8.24999938e-07
atom      2.1149264805     3.8293063424     3.8869155605   Mg  0.0 0.0   -4.21464968e-04  5.79999956e-07  8.13099939e-05
atom      4.3545087387     3.8298452879    10.4065045849   Mg  0.0 0.0   -6.33389952e-04  1.32999990e-06 -2.37704982e-04
atom      9.6654371278     7.6624171764    -1.7987798872   Mg  0.0 0.0    6.33279952e-04 -1.31499990e-06  2.37954982e-04
atom     11.9049962055     7.6629561219     4.7208583957   Mg  0.0 0.0    4.21344968e-04 -5.39999959e-07 -8.15449939e-05
atom      1.6592306692     7.6607250034     7.8805423313   Si  0.0 0.0   -2.62939980e-04 -7.56499943e-06 -2.78524979e-04
atom      5.2068017992     0.0023122501     1.2353471306   Si  0.0 0.0    1.10009992e-04  3.94499970e-06  1.31799990e-04
atom      6.0883138192     7.6620028258     6.0826404036   Al  0.0 0.0   -2.92699978e-04 -5.40999959e-06 -2.30199983e-04
atom      7.9315972766     3.8302596385     2.5251248598   Al  0.0 0.0    2.92489978e-04  5.44999959e-06  2.30304983e-04
atom      8.7992386938     3.8284399730     7.3763761950   Si  0.0 0.0   -1.10434992e-04 -4.02999970e-06 -1.31764990e-04
atom     12.3606340657     3.8315316658     0.7272200347   Si  0.0 0.0    2.62809980e-04  7.59999943e-06  2.78384979e-04
atom     13.9701455631     3.8312216272     8.7700631975   Mg  0.0 0.0    3.65499973e-06  2.86499978e-06 -9.19999931e-07
atom     16.0489858752     7.6610495297    -0.1047843353   Mg  0.0 0.0   -4.12079969e-04  4.76999964e-06  7.36099945e-05
atom     18.2889766888     7.6618927187     6.4144366995   Mg  0.0 0.0   -6.34659952e-04  3.37499975e-06 -2.41304982e-04
atom     23.5858084656     3.8342003153    -5.7874025780   Mg  0.0 0.0    6.34499952e-04 -3.35499975e-06  2.41534982e-04
atom     25.8257760988     3.8350435042     0.7318677153   Mg  0.0 0.0    4.11904969e-04 -4.75499964e-06 -7.38249945e-05
atom     15.5797208068     3.8309405642     3.8924701763   Si  0.0 0.0   -2.64959980e-04 -1.16499991e-06 -2.74919979e-04
atom     19.1411770275     3.8347653388    -2.7568482473   Si  0.0 0.0    1.05059992e-04  5.59499958e-06  1.30189990e-04
atom     20.0088300349     3.8330992438     2.0942958783   Al  0.0 0.0   -2.97799978e-04 -2.30499983e-06 -2.25274983e-04
atom     21.8659174513     7.6629937902    -1.4672240886   Al  0.0 0.0    2.97509978e-04  2.30999983e-06  2.25429983e-04
atom     22.7336284098     7.6613247976     3.3838910615   Si  0.0 0.0   -1.05454992e-04 -5.61999958e-06 -1.30144990e-04
atom     26.2810517644     0.0036364334    -3.2614084512   Si  0.0 0.0    2.65184980e-04  1.10999992e-06  2.74784979e-04
energy -2.928222640890811e+02
charge 0.0000
end
