begin
comment 256 atoms, species Al254Si2
lattice     30.6664728719     0.0000000000     0.0000000000
lattice      0.0000000000    30.6664728719     0.0000000000
lattice      0.0000000000     0.0000000000    30.6664728719
atom      0.0000000000     0.0000000000     0.0000000000   Si  0.0 0.0    9.99999925e-09 -9.99999925e-09 -4.99999962e-09
atom      3.8118303114     0.0000000000     3.8118303114   Al  0.0 0.0    6.79799949e-05 -9.99999925e-09  6.79349949e-05
atom      3.8118303114     3.8118303114     0.0000000000   Al  0.0 0.0    6.80099949e-05  6.80049949e-05  4.99999962e-09
atom      0.0000000000     3.8118303114     3.8118303114   Al  0.0 0.0    1.99999985e-08  6.79899949e-05  6.79399949e-05
atom      0.0000000000     0.0000000000     7.6572925436   Al  0.0 0.0    4.49999966e-08  1.99999985e-08 -8.64899935e-05
atom      3.8330944437     3.8330944437     7.6644623649   Al  0.0 0.0   -8.27499938e-05 -8.27499938e-05 -1.53134988e-04
atom      3.8328736451     0.0000000000    11.4986056020   Al  0.0 0.0   -4.10799969e-05  4.99999962e-08 -7.03249947e-05
atom      0.0000000000     3.8328736451    11.4986056020   Al  0.0 0.0    3.49999974e-08 -4.10449969e-05 -7.02899947e-05
atom      0.0000000000     0.0000000000    15.3332364360   Al  0.0 0.0    4.49999966e-08  3.49999974e-08 -0.00000000e+00
atom      3.8331588433     3.8331588433    15.3332364360   Al  0.0 0.0    1.44049989e-05  1.44199989e-05 -3.99999970e-08
atom      3.8328736451     0.0000000000    19.1678672699   Al  0.0 0.0   -4.10699969e-05  0.00000000e+00  7.03049947e-05
atom      0.0000000000     3.8328736451    19.1678672699   Al  0.0 0.0    3.49999974e-08 -4.10549969e-05  7.02899947e-05
atom      0.0000000000     0.0000000000    23.0091803283   Al  0.0 0.0    9.99999925e-09 -1.49999989e-08  8.64999935e-05
atom      3.8330944437     3.8330944437    23.0020135736   Al  0.0 0.0   -8.27599938e-05 -8.27449938e-05  1.53164988e-04
atom      3.8118303114     0.0000000000    26.8546425605   Al  0.0 0.0    6.79499949e-05  4.49999966e-08 -6.79099949e-05
atom      0.0000000000     3.8118303114    26.8546425605   Al  0.0 0.0    9.99999925e-09  6.80099949e-05 -6.79299949e-05
atom      0.0000000000     7.6572925436     0.0000000000   Al  0.0 0.0   -1.49999989e-08 -8.65449935e-05  4.99999962e-09
atom      3.8328736451    11.4986056020     0.0000000000   Al  0.0 0.0   -4.10749969e-05 -7.02949947e-05  4.49999966e-08
atom      3.8330944437     7.6644623649     3.8330944437   Al  0.0 0.0   -8.27799938e-05 -1.53144988e-04 -8.27949938e-05
atom      0.0000000000    11.4986056020     3.8328736451   Al  0.0 0.0   -1.99999985e-08 -7.03349947e-05 -4.10949969e-05
atom      0.0000000000     7.6633307721     7.6633307721   Al  0.0 0.0    1.99999985e-08 -1.95029985e-04 -1.95044985e-04
atom      3.8331251102    11.5001174591     7.6666212846   Al  0.0 0.0    9.44999929e-06 -9.67499927e-06 -3.99999970e-08
atom      3.8331251102     7.6666212846    11.5001174591   Al  0.0 0.0    9.46999929e-06 -1.09999992e-07 -9.62999928e-06
atom      0.0000000000    11.5000867926    11.5000867926   Al  0.0 0.0    4.99999962e-09 -1.46749989e-05 -1.46549989e-05
atom      0.0000000000     7.6666212846    15.3332364360   Al  0.0 0.0    4.49999966e-08  4.99999962e-09 -1.49999989e-08
atom      3.8346339006    11.5003719908    15.3332364360   Al  0.0 0.0    7.01499947e-05  4.06749969e-05  3.99999970e-08
atom      3.8331251102     7.6666212846    19.1663554128   Al  0.0 0.0    9.48999929e-06 -4.49999966e-08  9.64499928e-06
atom      0.0000000000    11.5000867926    19.1663860793   Al  0.0 0.0    4.99999962e-09 -1.46499989e-05  1.46449989e-05
atom      0.0000000000     7.6633307721    23.0031420998   Al  0.0 0.0    2.49999981e-08 -1.95064985e-04  1.95074985e-04
atom      3.8331251102    11.5001174591    22.9998515873   Al  0.0 0.0    9.48999929e-06 -9.66999927e-06  1.99999985e-08
atom      3.8330944437     7.6644623649    26.8333784282   Al  0.0 0.0   -8.27749938e-05 -1.53179988e-04  8.27899938e-05
atom      0.0000000000    11.4986056020    26.8335992268   Al  0.0 0.0    0.00000000e+00 -7.03199947e-05  4.10999969e-05
atom      0.0000000000    15.3332364360     0.0000000000   Al  0.0 0.0    9.99999925e-09 -1.49999989e-08  2.49999981e-08
atom      3.8328736451    19.1678672699     0.0000000000   Al  0.0 0.0   -4.10899969e-05  7.03699947e-05 -3.99999970e-08
atom      3.8331588433    15.3332364360     3.8331588433   Al  0.0 0.0    1.43749989e-05 -3.49999974e-08  1.43849989e-05
atom      0.0000000000    19.1678672699     3.8328736451   Al  0.0 0.0    4.99999962e-09  7.03149947e-05 -4.11099969e-05
atom      0.0000000000    15.3332364360     7.6666212846   Al  0.0 0.0    4.49999966e-08 -1.49999989e-08 -1.49999989e-08
atom      3.8331251102    19.1663554128     7.6666212846   Al  0.0 0.0    9.46499929e-06  9.67499927e-06  4.99999962e-09
atom      3.8346339006    15.3332364360    11.5003719908   Al  0.0 0.0    7.01849947e-05  1.99999985e-08  4.06949969e-05
atom      0.0000000000    19.1663860793    11.5000867926   Al  0.0 0.0    2.99999977e-08  1.46649989e-05 -1.46399989e-05
atom      0.0000000000    15.3332364360    15.3332364360   Al  0.0 0.0    3.49999974e-08 -1.49999989e-08  9.99999925e-09
atom      3.8346339006    19.1661008811    15.3332364360   Al  0.0 0.0    7.01499947e-05 -4.06799969e-05 -1.99999985e-08
atom      3.8346339006    15.3332364360    19.1661008811   Al  0.0 0.0    7.01499947e-05 -2.99999977e-08 -4.07199969e-05
atom      0.0000000000    19.1663860793    19.1663860793   Al  0.0 0.0    4.99999962e-08  1.46799989e-05  1.46799989e-05
atom      0.0000000000    15.3332364360    22.9998515873   Al  0.0 0.0    3.99999970e-08 -4.99999962e-09  4.49999966e-08
atom      3.8331251102    19.1663554128    22.9998515873   Al  0.0 0.0    9.47999929e-06  9.70499927e-06  4.49999966e-08
atom      3.8331588433    15.3332364360    26.8333170953   Al  0.0 0.0    1.43899989e-05  3.49999974e-08 -1.44099989e-05
atom      0.0000000000    19.1678672699    26.8335992268   Al  0.0 0.0    2.99999977e-08  7.03599947e-05  4.11099969e-05
atom      0.0000000000    23.0091803283     0.0000000000   Al  0.0 0.0    2.49999981e-08  8.65299935e-05 -2.99999977e-08
atom      3.8118303114    26.8546425605     0.0000000000   Al  0.0 0.0    6.79849949e-05 -6.79799949e-05  3.49999974e-08
atom      3.8330944437    23.0020135736     3.8330944437   Al  0.0 0.0   -8.28099938e-05  1.53149988e-04 -8.28249938e-05
atom      0.0000000000    26.8546425605     3.8118303114   Al  0.0 0.0    2.49999981e-08 -6.79999949e-05  6.79449949e-05
atom      0.0000000000    23.0031420998     7.6633307721   Al  0.0 0.0    2.49999981e-08  1.95069985e-04 -1.95064985e-04
atom      3.8330944437    26.8333784282     7.6644623649   Al  0.0 0.0   -8.27499938e-05  8.27899938e-05 -1.53194988e-04
atom      3.8331251102    22.9998515873    11.5001174591   Al  0.0 0.0    9.47499929e-06 -9.99999925e-09 -9.64999927e-06
atom      0.0000000000    26.8335992268    11.4986056020   Al  0.0 0.0    2.49999981e-08  4.10449969e-05 -7.02899947e-05
atom      0.0000000000    22.9998515873    15.3332364360   Al  0.0 0.0    2.49999981e-08  2.49999981e-08 -0.00000000e+00
atom      3.8331588433    26.8333170953    15.3332364360   Al  0.0 0.0    1.44099989e-05 -1.44499989e-05  4.49999966e-08
atom      3.8331251102    22.9998515873    19.1663554128   Al  0.0 0.0    9.47499929e-06  5.99999955e-08  9.63499928e-06
atom      0.0000000000    26.8335992268    19.1678672699   Al  0.0 0.0    4.99999962e-09  4.10349969e-05  7.03049947e-05
atom      0.0000000000    23.0031420998    23.0031420998   Al  0.0 0.0    3.49999974e-08  1.95049985e-04  1.95049985e-04
atom      3.8330944437    26.8333784282    23.0020135736   Al  0.0 0.0   -8.27499938e-05  8.27649938e-05  1.53104988e-04
atom      3.8330944437    23.0020135736    26.8333784282   Al  0.0 0.0   -8.27849938e-05  1.53074988e-04  8.27999938e-05
atom      0.0000000000    26.8546425605    26.8546425605   Al  0.0 0.0   -9.99999925e-09 -6.79849949e-05 -6.79349949e-05
atom      7.6572925436     0.0000000000     0.0000000000   Al  0.0 0.0   -8.65299935e-05 -4.99999962e-09  1.99999985e-08
atom     11.4986056020     3.8328736451     0.0000000000   Al  0.0 0.0   -7.02549947e-05 -4.10449969e-05 -2.49999981e-08
atom     11.4986056020     0.0000000000     3.8328736451   Al  0.0 0.0   -7.02999947e-05 -2.49999981e-08 -4.10549969e-05
atom      7.6644623649     3.8330944437     3.8330944437   Al  0.0 0.0   -1.53209988e-04 -8.27899938e-05 -8.27949938e-05
atom      7.6633307721     0.0000000000     7.6633307721   Al  0.0 0.0   -1.95044985e-04  9.99999925e-09 -1.95074985e-04
atom     11.5001174591     3.8331251102     7.6666212846   Al  0.0 0.0   -9.61999928e-06  9.52999928e-06 -6.99999947e-08
atom     11.5000867926     0.0000000000    11.5000867926   Al  0.0 0.0   -1.46499989e-05  5.49999959e-08 -1.46249989e-05
atom      7.6666212846     3.8331251102    11.5001174591   Al  0.0 0.0   -8.49999936e-08  9.50499929e-06 -9.62999928e-06
atom      7.6666212846     0.0000000000    15.3332364360   Al  0.0 0.0    4.99999962e-09  2.49999981e-08  4.99999962e-09
atom     11.5003719908     3.8346339006    15.3332364360   Al  0.0 0.0    4.06999969e-05  7.02149947e-05 -3.49999974e-08
atom     11.5000867926     0.0000000000    19.1663860793   Al  0.0 0.0   -1.46549989e-05 -9.99999925e-09  1.46499989e-05
atom      7.6666212846     3.8331251102    19.1663554128   Al  0.0 0.0   -5.99999955e-08  9.48499929e-06  9.59999928e-06
atom      7.6633307721     0.0000000000    23.0031420998   Al  0.0 0.0   -1.95024985e-04  0.00000000e+00  1.95064985e-04
atom     11.5001174591     3.8331251102    22.9998515873   Al  0.0 0.0   -9.64499928e-06  9.50999929e-06  1.29999990e-07
atom     11.4986056020     0.0000000000    26.8335992268   Al  0.0 0.0   -7.03049947e-05  3.99999970e-08  4.10699969e-05
atom      7.6644623649     3.8330944437    26.8333784282   Al  0.0 0.0   -1.53164988e-04 -8.27699938e-05  8.27599938e-05
atom      7.6633307721     7.6633307721     0.0000000000   Al  0.0 0.0   -1.95074985e-04 -1.95094985e-04  1.99999985e-08
atom     11.5000867926    11.5000867926     0.0000000000   Al  0.0 0.0   -1.46399989e-05 -1.46549989e-05  6.99999947e-08
atom     11.5001174591     7.6666212846     3.8331251102   Al  0.0 0.0   -9.63999928e-06 -3.99999970e-08  9.47999929e-06
atom      7.6666212846    11.5001174591     3.8331251102   Al  0.0 0.0   -4.49999966e-08 -9.69999927e-06  9.43999929e-06
atom      7.6666212846     7.6666212846     7.6666212846   Al  0.0 0.0   -1.99999985e-08 -5.49999959e-08 -3.99999970e-08
atom     11.5001481256    11.5001481256     7.6687771377   Al  0.0 0.0    8.26949938e-05  8.26749938e-05  1.53234988e-04
atom     11.5001481256     7.6687771377    11.5001481256   Al  0.0 0.0    8.26849938e-05  1.53244988e-04  8.27299938e-05
atom      7.6687771377    11.5001481256    11.5001481256   Al  0.0 0.0    1.53289988e-04  8.26599938e-05  8.27249938e-05
atom      7.6699117972     7.6699117972    15.3332364360   Al  0.0 0.0    1.95024985e-04  1.95019985e-04 -2.49999981e-08
atom     11.5214030579    11.5214030579    15.3332364360   Al  0.0 0.0   -6.76249949e-05 -6.76349949e-05 -1.49999989e-08
atom     11.5001481256     7.6687771377    19.1663278130   Al  0.0 0.0    8.26799938e-05  1.53269988e-04 -8.27349938e-05
atom      7.6687771377    11.5001481256    19.1663278130   Al  0.0 0.0    1.53269988e-04  8.26549938e-05 -8.27199938e-05
atom      7.6666212846     7.6666212846    22.9998515873   Al  0.0 0.0   -3.49999974e-08 -2.99999977e-08  8.49999936e-08
atom     11.5001481256    11.5001481256    22.9976957342   Al  0.0 0.0    8.26749938e-05  8.26699938e-05 -1.53239988e-04
atom     11.5001174591     7.6666212846    26.8333477618   Al  0.0 0.0   -9.67499927e-06 -1.04999992e-07 -9.55999928e-06
atom      7.6666212846    11.5001174591    26.8333477618   Al  0.0 0.0   -5.49999959e-08 -9.69499927e-06 -9.52999928e-06
atom      7.6666212846    15.3332364360     0.0000000000   Al  0.0 0.0   -6.99999947e-08 -1.99999985e-08  1.49999989e-08
atom     11.5000867926    19.1663860793     0.0000000000   Al  0.0 0.0   -1.46449989e-05  1.46949989e-05  1.49999989e-08
atom     11.5003719908    15.3332364360     3.8346339006   Al  0.0 0.0    4.07249969e-05 -4.49999966e-08  7.01949947e-05
atom      7.6666212846    19.1663554128     3.8331251102   Al  0.0 0.0   -5.49999959e-08  9.66999927e-06  9.42499929e-06
atom      7.6699117972    15.3332364360     7.6699117972   Al  0.0 0.0    1.95004985e-04 -4.99999962e-09  1.95029985e-04
atom     11.5001481256    19.1663278130     7.6687771377   Al  0.0 0.0    8.27149938e-05 -8.26749938e-05  1.53294988e-04
atom     11.5214030579    15.3332364360    11.5214030579   Al  0.0 0.0   -6.76099949e-05  0.00000000e+00 -6.75649949e-05
atom      7.6687771377    19.1663278130    11.5001481256   Al  0.0 0.0    1.53259988e-04 -8.27049938e-05  8.27049938e-05
atom      7.6759377591    15.3332364360    15.3332364360   Al  0.0 0.0    8.71149935e-05 -1.49999989e-08 -1.49999989e-08
atom     11.5214030579    19.1450698140    15.3332364360   Al  0.0 0.0   -6.76249949e-05  6.76749949e-05 -3.49999974e-08
atom     11.5214030579    15.3332364360    19.1450698140   Al  0.0 0.0   -6.76049949e-05 -5.49999959e-08  6.75799949e-05
atom      7.6687771377    19.1663278130    19.1663278130   Al  0.0 0.0    1.53239988e-04 -8.26849938e-05 -8.27349938e-05
atom      7.6699117972    15.3332364360    22.9965610747   Al  0.0 0.0    1.95004985e-04  0.00000000e+00 -1.94949985e-04
atom     11.5001481256    19.1663278130    22.9976957342   Al  0.0 0.0    8.26849938e-05 -8.26549938e-05 -1.53164988e-04
atom     11.5003719908    15.3332364360    26.8318420379   Al  0.0 0.0    4.06949969e-05  9.99999925e-09 -7.02399947e-05
atom      7.6666212846    19.1663554128    26.8333477618   Al  0.0 0.0   -6.49999951e-08  9.68999927e-06 -9.53499928e-06
atom      7.6633307721    23.0031420998     0.0000000000   Al  0.0 0.0   -1.95069985e-04  1.95069985e-04  0.00000000e+00
atom     11.4986056020    26.8335992268     0.0000000000   Al  0.0 0.0   -7.02699947e-05  4.10599969e-05  6.49999951e-08
atom     11.5001174591    22.9998515873     3.8331251102   Al  0.0 0.0   -9.64999927e-06  1.09999992e-07  9.47499929e-06
atom      7.6644623649    26.8333784282     3.8330944437   Al  0.0 0.0   -1.53164988e-04  8.27699938e-05 -8.27899938e-05
atom      7.6666212846    22.9998515873     7.6666212846   Al  0.0 0.0   -1.99999985e-08  8.49999936e-08 -2.99999977e-08
atom     11.5001174591    26.8333477618     7.6666212846   Al  0.0 0.0   -9.63499928e-06 -9.52999928e-06 -1.09999992e-07
atom     11.5001481256    22.9976957342    11.5001481256   Al  0.0 0.0    8.26999938e-05 -1.53219988e-04  8.27399938e-05
atom      7.6666212846    26.8333477618    11.5001174591   Al  0.0 0.0   -4.99999962e-08 -9.54999928e-06 -9.63499928e-06
atom      7.6699117972    22.9965610747    15.3332364360   Al  0.0 0.0    1.95034985e-04 -1.94994985e-04  9.99999925e-09
atom     11.5003719908    26.8318420379    15.3332364360   Al  0.0 0.0    4.07049969e-05 -7.02349947e-05  5.49999959e-08
atom     11.5001481256    22.9976957342    19.1663278130   Al  0.0 0.0    8.26849938e-05 -1.53154988e-04 -8.27299938e-05
atom      7.6666212846    26.8333477618    19.1663554128   Al  0.0 0.0   -3.99999970e-08 -9.56499928e-06  9.59999928e-06
atom      7.6666212846    22.9998515873    22.9998515873   Al  0.0 0.0   -1.99999985e-08  5.99999955e-08  8.99999932e-08
atom     11.5001174591    26.8333477618    22.9998515873   Al  0.0 0.0   -9.62999928e-06 -9.54999928e-06  7.49999944e-08
atom     11.5001174591    22.9998515873    26.8333477618   Al  0.0 0.0   -9.66999927e-06  2.99999977e-08 -9.56499928e-06
atom      7.6644623649    26.8333784282    26.8333784282   Al  0.0 0.0   -1.53149988e-04  8.27549938e-05  8.27599938e-05
atom     15.3332364360     0.0000000000     0.0000000000   Al  0.0 0.0   -1.99999985e-08  9.99999925e-09  2.99999977e-08
atom     19.1678672699     3.8328736451     0.0000000000   Al  0.0 0.0    7.02699947e-05 -4.10049969e-05  0.00000000e+00
atom     19.1678672699     0.0000000000     3.8328736451   Al  0.0 0.0    7.02649947e-05 -1.49999989e-08 -4.10549969e-05
atom     15.3332364360     3.8331588433     3.8331588433   Al  0.0 0.0    9.99999925e-09  1.44199989e-05  1.44099989e-05
atom     15.3332364360     0.0000000000     7.6666212846   Al  0.0 0.0   -4.99999962e-09  3.49999974e-08 -7.99999940e-08
atom     19.1663554128     3.8331251102     7.6666212846   Al  0.0 0.0    9.60499928e-06  9.54499928e-06 -6.49999951e-08
atom     19.1663860793     0.0000000000    11.5000867926   Al  0.0 0.0    1.46399989e-05  6.49999951e-08 -1.46049989e-05
atom     15.3332364360     3.8346339006    11.5003719908   Al  0.0 0.0    1.49999989e-08  7.02149947e-05  4.07249969e-05
atom     15.3332364360     0.0000000000    15.3332364360   Al  0.0 0.0   -1.49999989e-08  1.99999985e-08 -9.99999925e-09
atom     19.1661008811     3.8346339006    15.3332364360   Al  0.0 0.0   -4.07399969e-05  7.02249947e-05 -4.49999966e-08
atom     19.1663860793     0.0000000000    19.1663860793   Al  0.0 0.0    1.46449989e-05  0.00000000e+00  1.46349989e-05
atom     15.3332364360     3.8346339006    19.1661008811   Al  0.0 0.0   -9.99999925e-09  7.02049947e-05 -4.07599969e-05
atom     15.3332364360     0.0000000000    22.9998515873   Al  0.0 0.0   -9.99999925e-09  1.99999985e-08  9.99999925e-08
atom     19.1663554128     3.8331251102    22.9998515873   Al  0.0 0.0    9.57999928e-06  9.53499928e-06  1.54999988e-07
atom     19.1678672699     0.0000000000    26.8335992268   Al  0.0 0.0    7.02999947e-05  6.99999947e-08  4.10499969e-05
atom     15.3332364360     3.8331588433    26.8333170953   Al  0.0 0.0    4.99999962e-09  1.44149989e-05 -1.44599989e-05
atom     15.3332364360     7.6666212846     0.0000000000   Al  0.0 0.0   -0.00000000e+00 -9.99999925e-08  4.49999966e-08
atom     19.1663860793    11.5000867926     0.0000000000   Al  0.0 0.0    1.46749989e-05 -1.46299989e-05  7.49999944e-08
atom     19.1663554128     7.6666212846     3.8331251102   Al  0.0 0.0    9.61999928e-06 -7.49999944e-08  9.50499929e-06
atom     15.3332364360    11.5003719908     3.8346339006   Al  0.0 0.0   -9.99999925e-09  4.06799969e-05  7.01699947e-05
atom     15.3332364360     7.6699117972     7.6699117972   Al  0.0 0.0    4.99999962e-09  1.94964985e-04  1.94974985e-04
atom     19.1663278130    11.5001481256     7.6687771377   Al  0.0 0.0   -8.26899938e-05  8.26649938e-05  1.53244988e-04
atom     19.1663278130     7.6687771377    11.5001481256   Al  0.0 0.0   -8.27199938e-05  1.53189988e-04  8.27249938e-05
atom     15.3332364360    11.5214030579    11.5214030579   Al  0.0 0.0   -1.99999985e-08 -6.76499949e-05 -6.75649949e-05
atom     15.3332364360     7.6759377591    15.3332364360   Al  0.0 0.0    4.99999962e-09  8.71099935e-05 -3.49999974e-08
atom     19.1450698140    11.5214030579    15.3332364360   Al  0.0 0.0    6.76399949e-05 -6.76199949e-05  3.99999970e-08
atom     19.1663278130     7.6687771377    19.1663278130   Al  0.0 0.0   -8.27499938e-05  1.53254988e-04 -8.27549938e-05
atom     15.3332364360    11.5214030579    19.1450698140   Al  0.0 0.0    0.00000000e+00 -6.76449949e-05  6.75999949e-05
atom     15.3332364360     7.6699117972    22.9965610747   Al  0.0 0.0    4.99999962e-09  1.94994985e-04 -1.94944985e-04
atom     19.1663278130    11.5001481256    22.9976957342   Al  0.0 0.0   -8.27149938e-05  8.26949938e-05 -1.53234988e-04
atom     19.1663554128     7.6666212846    26.8333477618   Al  0.0 0.0    9.60499928e-06 -9.99999925e-08 -9.52999928e-06
atom     15.3332364360    11.5003719908    26.8318420379   Al  0.0 0.0   -4.99999962e-09  4.06799969e-05 -7.02149947e-05
atom     15.3332364360    15.3332364360     0.0000000000   Al  0.0 0.0   -0.00000000e+00 -9.99999925e-09  1.99999985e-08
atom     19.1663860793    19.1663860793     0.0000000000   Al  0.0 0.0    1.46649989e-05  1.46899989e-05  0.00000000e+00
atom     19.1661008811    15.3332364360     3.8346339006   Al  0.0 0.0   -4.07199969e-05 -1.99999985e-08  7.01649947e-05
atom     15.3332364360    19.1661008811     3.8346339006   Al  0.0 0.0    4.99999962e-09 -4.06999969e-05  7.01449947e-05
atom     15.3332364360    15.3332364360     7.6759377591   Al  0.0 0.0   -1.49999989e-08 -1.99999985e-08  8.70649935e-05
atom     19.1663278130    19.1663278130     7.6687771377   Al  0.0 0.0   -8.26799938e-05 -8.26749938e-05  1.53294988e-04
atom     19.1450698140    15.3332364360    11.5214030579   Al  0.0 0.0    6.76099949e-05  2.49999981e-08 -6.75449949e-05
atom     15.3332364360    19.1450698140    11.5214030579   Al  0.0 0.0   -4.99999962e-09  6.76449949e-05 -6.75899949e-05
atom     15.3332364360    15.3332364360    15.3332364360   Si  0.0 0.0   -4.99999962e-09 -9.99999925e-09 -3.49999974e-08
atom     19.1450698140    19.1450698140    15.3332364360   Al  0.0 0.0    6.76499949e-05  6.76449949e-05  0.00000000e+00
atom     19.1450698140    15.3332364360    19.1450698140   Al  0.0 0.0    6.76149949e-05 -2.99999977e-08  6.75849949e-05
atom     15.3332364360    19.1450698140    19.1450698140   Al  0.0 0.0    1.49999989e-08  6.76399949e-05  6.75849949e-05
atom     15.3332364360    15.3332364360    22.9905351128   Al  0.0 0.0    2.49999981e-08  2.49999981e-08 -8.70349935e-05
atom     19.1663278130    19.1663278130    22.9976957342   Al  0.0 0.0   -8.26999938e-05 -8.26849938e-05 -1.53184988e-04
atom     19.1661008811    15.3332364360    26.8318420379   Al  0.0 0.0   -4.07449969e-05  5.99999955e-08 -7.02449947e-05
atom     15.3332364360    19.1661008811    26.8318420379   Al  0.0 0.0    1.49999989e-08 -4.07049969e-05 -7.02249947e-05
atom     15.3332364360    22.9998515873     0.0000000000   Al  0.0 0.0    4.99999962e-09  1.09999992e-07  2.99999977e-08
atom     19.1678672699    26.8335992268     0.0000000000   Al  0.0 0.0    7.02649947e-05  4.10349969e-05  5.49999959e-08
atom     19.1663554128    22.9998515873     3.8331251102   Al  0.0 0.0    9.62499928e-06  9.49999929e-08  9.46999929e-06
atom     15.3332364360    26.8333170953     3.8331588433   Al  0.0 0.0   -1.49999989e-08 -1.44299989e-05  1.43999989e-05
atom     15.3332364360    22.9965610747     7.6699117972   Al  0.0 0.0    9.99999925e-09 -1.94944985e-04  1.95004985e-04
atom     19.1663554128    26.8333477618     7.6666212846   Al  0.0 0.0    9.61999928e-06 -9.56499928e-06 -1.14999991e-07
atom     19.1663278130    22.9976957342    11.5001481256   Al  0.0 0.0   -8.27149938e-05 -1.53234988e-04  8.26899938e-05
atom     15.3332364360    26.8318420379    11.5003719908   Al  0.0 0.0   -4.99999962e-09 -7.02449947e-05  4.07349969e-05
atom     15.3332364360    22.9905351128    15.3332364360   Al  0.0 0.0   -2.49999981e-08 -8.70799935e-05  9.99999925e-09
atom     19.1661008811    26.8318420379    15.3332364360   Al  0.0 0.0   -4.07299969e-05 -7.02599947e-05  1.49999989e-08
atom     19.1663278130    22.9976957342    19.1663278130   Al  0.0 0.0   -8.27349938e-05 -1.53204988e-04 -8.27649938e-05
atom     15.3332364360    26.8318420379    19.1661008811   Al  0.0 0.0   -4.99999962e-08 -7.02699947e-05 -4.07499969e-05
atom     15.3332364360    22.9965610747    22.9965610747   Al  0.0 0.0   -0.00000000e+00 -1.94919985e-04 -1.94924985e-04
atom     19.1663554128    26.8333477618    22.9998515873   Al  0.0 0.0    9.57999928e-06 -9.55499928e-06  7.49999944e-08
atom     19.1663554128    22.9998515873    26.8333477618   Al  0.0 0.0    9.59499928e-06  2.49999981e-08 -9.54499928e-06
atom     15.3332364360    26.8333170953    26.8333170953   Al  0.0 0.0   -1.99999985e-08 -1.44749989e-05 -1.44699989e-05
atom     23.0091803283     0.0000000000     0.0000000000   Al  0.0 0.0    8.65649935e-05 -9.99999925e-09 -2.99999977e-08
atom     26.8546425605     3.8118303114     0.0000000000   Al  0.0 0.0   -6.79699949e-05  6.80249949e-05 -2.99999977e-08
atom     26.8546425605     0.0000000000     3.8118303114   Al  0.0 0.0   -6.79599949e-05 -3.99999970e-08  6.79199949e-05
atom     23.0020135736     3.8330944437     3.8330944437   Al  0.0 0.0    1.53134988e-04 -8.27449938e-05 -8.27749938e-05
atom     23.0031420998     0.0000000000     7.6633307721   Al  0.0 0.0    1.95064985e-04  1.49999989e-08 -1.95079985e-04
atom     26.8333784282     3.8330944437     7.6644623649   Al  0.0 0.0    8.27599938e-05 -8.27049938e-05 -1.53139988e-04
atom     26.8335992268     0.0000000000    11.4986056020   Al  0.0 0.0    4.10599969e-05  3.49999974e-08 -7.02999947e-05
atom     22.9998515873     3.8331251102    11.5001174591   Al  0.0 0.0    3.99999970e-08  9.51999928e-06 -9.62499928e-06
atom     22.9998515873     0.0000000000    15.3332364360   Al  0.0 0.0    3.49999974e-08  2.99999977e-08 -2.99999977e-08
atom     26.8333170953     3.8331588433    15.3332364360   Al  0.0 0.0   -1.44499989e-05  1.44499989e-05 -2.99999977e-08
atom     26.8335992268     0.0000000000    19.1678672699   Al  0.0 0.0    4.10849969e-05 -1.99999985e-08  7.03249947e-05
atom     22.9998515873     3.8331251102    19.1663554128   Al  0.0 0.0    6.99999947e-08  9.50999929e-06  9.57999928e-06
atom     23.0031420998     0.0000000000    23.0031420998   Al  0.0 0.0    1.95084985e-04  4.99999962e-09  1.95104985e-04
atom     26.8333784282     3.8330944437    23.0020135736   Al  0.0 0.0    8.27949938e-05 -8.27399938e-05  1.53174988e-04
atom     26.8546425605     0.0000000000    26.8546425605   Al  0.0 0.0   -6.79749949e-05  0.00000000e+00 -6.79149949e-05
atom     23.0020135736     3.8330944437    26.8333784282   Al  0.0 0.0    1.53129988e-04 -8.27749938e-05  8.28149938e-05
atom     23.0031420998     7.6633307721     0.0000000000   Al  0.0 0.0    1.95099985e-04 -1.95089985e-04  1.49999989e-08
atom     26.8335992268    11.4986056020     0.0000000000   Al  0.0 0.0    4.10799969e-05 -7.03099947e-05  6.99999947e-08
atom     26.8333784282     7.6644623649     3.8330944437   Al  0.0 0.0    8.27799938e-05 -1.53109988e-04 -8.28049938e-05
atom     22.9998515873    11.5001174591     3.8331251102   Al  0.0 0.0    7.49999944e-08 -9.66999927e-06  9.46499929e-06
atom     22.9998515873     7.6666212846     7.6666212846   Al  0.0 0.0    9.49999929e-08 -4.99999962e-08 -3.99999970e-08
atom     26.8333477618    11.5001174591     7.6666212846   Al  0.0 0.0   -9.51999928e-06 -9.66999927e-06 -4.99999962e-08
atom     26.8333477618     7.6666212846    11.5001174591   Al  0.0 0.0   -9.54999928e-06 -6.49999951e-08 -9.67499927e-06
atom     22.9976957342    11.5001481256    11.5001481256   Al  0.0 0.0   -1.53209988e-04  8.26799938e-05  8.26949938e-05
atom     22.9965610747     7.6699117972    15.3332364360   Al  0.0 0.0   -1.94954985e-04  1.95029985e-04 -1.49999989e-08
atom     26.8318420379    11.5003719908    15.3332364360   Al  0.0 0.0   -7.02249947e-05  4.07099969e-05  2.99999977e-08
atom     26.8333477618     7.6666212846    19.1663554128   Al  0.0 0.0   -9.53999928e-06 -9.99999925e-09  9.59499928e-06
atom     22.9976957342    11.5001481256    19.1663278130   Al  0.0 0.0   -1.53209988e-04  8.26849938e-05 -8.27599938e-05
atom     22.9998515873     7.6666212846    22.9998515873   Al  0.0 0.0    8.99999932e-08 -2.99999977e-08  7.99999940e-08
atom     26.8333477618    11.5001174591    22.9998515873   Al  0.0 0.0   -9.51499928e-06 -9.64999927e-06 -1.99999985e-08
atom     26.8333784282     7.6644623649    26.8333784282   Al  0.0 0.0    8.27949938e-05 -1.53174988e-04  8.28099938e-05
atom     22.9998515873    11.5001174591    26.8333477618   Al  0.0 0.0    4.99999962e-08 -9.68999927e-06 -9.49499929e-06
atom     22.9998515873    15.3332364360     0.0000000000   Al  0.0 0.0    1.09999992e-07 -1.49999989e-08  3.99999970e-08
atom     26.8335992268    19.1678672699     0.0000000000   Al  0.0 0.0    4.10799969e-05  7.03199947e-05  9.99999925e-09
atom     26.8333170953    15.3332364360     3.8331588433   Al  0.0 0.0   -1.44499989e-05 -4.49999966e-08  1.43549989e-05
atom     22.9998515873    19.1663554128     3.8331251102   Al  0.0 0.0    6.49999951e-08  9.61999928e-06  9.44999929e-06
atom     22.9965610747    15.3332364360     7.6699117972   Al  0.0 0.0   -1.94914985e-04 -9.99999925e-09  1.95019985e-04
atom     26.8333477618    19.1663554128     7.6666212846   Al  0.0 0.0   -9.52499928e-06  9.67999927e-06  9.99999925e-09
atom     26.8318420379    15.3332364360    11.5003719908   Al  0.0 0.0   -7.02499947e-05  9.99999925e-09  4.07049969e-05
atom     22.9976957342    19.1663278130    11.5001481256   Al  0.0 0.0   -1.53219988e-04 -8.27299938e-05  8.26949938e-05
atom     22.9905351128    15.3332364360    15.3332364360   Al  0.0 0.0   -8.70649935e-05 -9.99999925e-09  4.99999962e-09
atom     26.8318420379    19.1661008811    15.3332364360   Al  0.0 0.0   -7.02199947e-05 -4.06849969e-05 -1.99999985e-08
atom     26.8318420379    15.3332364360    19.1661008811   Al  0.0 0.0   -7.02699947e-05 -4.99999962e-08 -4.07249969e-05
atom     22.9976957342    19.1663278130    19.1663278130   Al  0.0 0.0   -1.53234988e-04 -8.27299938e-05 -8.27499938e-05
atom     22.9965610747    15.3332364360    22.9965610747   Al  0.0 0.0   -1.94939985e-04  1.49999989e-08 -1.94989985e-04
atom     26.8333477618    19.1663554128    22.9998515873   Al  0.0 0.0   -9.51999928e-06  9.66499927e-06  5.99999955e-08
atom     26.8333170953    15.3332364360    26.8333170953   Al  0.0 0.0   -1.44499989e-05  3.49999974e-08 -1.44049989e-05
atom     22.9998515873    19.1663554128    26.8333477618   Al  0.0 0.0    2.99999977e-08  9.63499928e-06 -9.51499928e-06
atom     23.0031420998    23.0031420998     0.0000000000   Al  0.0 0.0    1.95099985e-04  1.95094985e-04 -4.99999962e-09
atom     26.8546425605    26.8546425605     0.0000000000   Al  0.0 0.0   -6.79899949e-05 -6.79949949e-05  1.99999985e-08
atom     26.8333784282    23.0020135736     3.8330944437   Al  0.0 0.0    8.27599938e-05  1.53154988e-04 -8.27799938e-05
atom     23.0020135736    26.8333784282     3.8330944437   Al  0.0 0.0    1.53159988e-04  8.27399938e-05 -8.27699938e-05
atom     22.9998515873    22.9998515873     7.6666212846   Al  0.0 0.0    7.49999944e-08  7.99999940e-08 -4.49999966e-08
atom     26.8333784282    26.8333784282     7.6644623649   Al  0.0 0.0    8.27649938e-05  8.27499938e-05 -1.53174988e-04