begin
comment uuid: 99bcd47c-0c6e-4836-80d3-7eaf443a898b 
lattice 7.6666820000 0.0038330000 0.0000000000
lattice 0.0038330000 7.6666820000 0.0000000000
lattice 0.0000000000 0.0000000000 7.6666820000
atom   -0.000972    -0.000972   0.000000 Al  0.0   0.0  0.0000002900  0.0000002850  -0.0000015850
atom   3.834281    3.834281   0.000000 Al  0.0   0.0  -0.0000002650  -0.0000002800  -0.0000015800
atom   3.832381    0.000929   3.833309 Al  0.0   0.0  -0.0000008700  0.0000008550  0.0000015750
atom   0.000929    3.832381   3.833309 Al  0.0   0.0  0.0000008450  -0.0000008650  0.0000015850
energy -79.005450010000018
charge 0.000000000000000
end
begin
comment uuid: 66cdd86b-d103-4eab-bc51-3de08ed0a6e4 
lattice 7.6666820000 0.0076670000 0.0000000000
lattice 0.0076670000 7.6666820000 0.0000000000
lattice 0.0000000000 0.0000000000 7.6666820000
atom   -0.001925    -0.001925   0.000000 Al  0.0   0.0  -0.0000003750  -0.0000003800  -0.0000015850
atom   3.835234    3.835234   0.000000 Al  0.0   0.0  0.0000004000  0.0000003850  -0.0000015800
atom   3.831413    0.001897   3.833309 Al  0.0   0.0  -0.0000000600  0.0000000450  0.0000015750
atom   0.001897    3.831413   3.833309 Al  0.0   0.0  0.0000000300  -0.0000000500  0.0000015850
energy -79.005449300000024
charge 0.000000000000000
end
