begin
comment 2 atoms, species Mg2
lattice      6.0512161272    -0.0000000000    -0.0000000000
lattice     -3.0256080636     5.2405068900     0.0000000000
lattice     -0.0000000000    -0.0000000000     9.7481587793
atom     -0.0000000000     3.4936712600     7.3111190845   Mg  0.0 0.0       0.0000000000    -0.0000000000    -0.0000000000
atom      3.0256080636     1.7468356300     2.4370396948   Mg  0.0 0.0      -0.0000000000     0.0000000000     0.0000000000
energy -33.6169905028
charge 0.0000
end
