begin
comment 8 atoms, species Si8
lattice     10.3376309784     0.0000000000     0.0000000000
lattice      0.0000000000    10.3376309784     0.0000000000
lattice      0.0000000000     0.0000000000    10.3376309784
atom      0.0000000000     0.0000000000     0.0000000000   Si  0.0 0.0       0.0000000000     0.0000000000     0.0000000000
atom      0.0000000000     5.1688154892     5.1688154892   Si  0.0 0.0       0.0000000000    -0.0000000000    -0.0000000000
atom      5.1688154892     5.1688154892     0.0000000000   Si  0.0 0.0      -0.0000000000    -0.0000000000     0.0000000000
atom      5.1688154892     0.0000000000     5.1688154892   Si  0.0 0.0      -0.0000000000     0.0000000000    -0.0000000000
atom      7.7532232338     2.5844077446     7.7532232338   Si  0.0 0.0      -0.0000000000     0.0000000000    -0.0000000000
atom      2.5844077446     2.5844077446     2.5844077446   Si  0.0 0.0       0.0000000000     0.0000000000     0.0000000000
atom      2.5844077446     7.7532232338     7.7532232338   Si  0.0 0.0       0.0000000000    -0.0000000000    -0.0000000000
atom      7.7532232338     7.7532232338     2.5844077446   Si  0.0 0.0      -0.0000000000    -0.0000000000     0.0000000000
energy -45.6775941094
charge 0.0000
end
