begin
comment 255 atoms, species Al255
lattice     30.5962212394     0.0000000000     0.0000000000
lattice      0.0000000000    30.5962212394     0.0000000000
lattice      0.0000000000     0.0000000000    30.5962212394
atom     -0.0176681546    -0.0176681546    -0.0335642907   Al  0.0 0.0    2.71493754e-08  2.71493750e-08 -1.04091959e-06
atom     -0.0066977929     3.8119717107     3.8076282580   Al  0.0 0.0   -7.78795559e-08  3.48849069e-07 -1.99382703e-07
atom      3.8119717107    -0.0066977929     3.8076282580   Al  0.0 0.0    3.48849071e-07 -7.78795571e-08 -1.99382703e-07
atom      3.8113225962     3.8113225962    -0.0132050588   Al  0.0 0.0   -1.06413257e-06 -1.06413258e-06 -1.06413258e-06
atom     -0.0055519935    -0.0055519935     7.6490553099   Al  0.0 0.0   -7.82095846e-08 -7.82095860e-08 -1.52312179e-14
atom     -0.0066977929     3.8119717107    11.4904823617   Al  0.0 0.0   -7.78795609e-08  3.48849067e-07  1.99382728e-07
atom      3.8119717107    -0.0066977929    11.4904823617   Al  0.0 0.0    3.48849068e-07 -7.78795622e-08  1.99382726e-07
atom      3.8157710116     3.8157710116     7.6490553099   Al  0.0 0.0    5.34499165e-07  5.34499162e-07 -1.15111919e-14
atom     -0.0176681546    -0.0176681546    15.3316749103   Al  0.0 0.0    2.71493755e-08  2.71493750e-08  1.04091955e-06
atom     -0.0176681546     3.7909633643    19.1403064291   Al  0.0 0.0    2.71493852e-08 -1.04091955e-06 -2.71493728e-08
atom      3.7909633643    -0.0176681546    19.1403064291   Al  0.0 0.0   -1.04091955e-06  2.71493843e-08 -2.71493722e-08
atom      3.8113225962     3.8113225962    15.3113156784   Al  0.0 0.0   -1.06413257e-06 -1.06413257e-06  1.06413258e-06
atom     -0.0867426493    -0.0867426493    22.9471659295   Al  0.0 0.0    4.78577483e-07  4.78577481e-07 -3.34144171e-14
atom     -0.0176681546     3.7909633643    26.7540254299   Al  0.0 0.0    2.71493855e-08 -1.04091955e-06  2.71494099e-08
atom      3.7909633643    -0.0176681546    26.7540254299   Al  0.0 0.0   -1.04091955e-06  2.71493866e-08  2.71494096e-08
atom      3.7806171710     3.7806171710    22.9471659295   Al  0.0 0.0    3.55279014e-07  3.55279011e-07 -1.49877356e-14
atom     -0.0066977929     7.6321559129    -0.0125559443   Al  0.0 0.0   -7.78795617e-08 -1.99382730e-07  3.48849051e-07
atom     -0.0051101422    11.4735829648     3.8173012637   Al  0.0 0.0    1.14638898e-06  2.22892885e-14 -2.61265095e-07
atom      3.8194097256     7.6432769973     3.8187493423   Al  0.0 0.0   -1.04550171e-07 -2.99538074e-07 -2.99538033e-07
atom      3.8157710116    11.4735829648    -0.0087566434   Al  0.0 0.0    5.34499162e-07  2.15682366e-14  5.34499130e-07
atom     -0.0051101422     7.6418289186     7.6490553099   Al  0.0 0.0    1.14638900e-06 -2.61265119e-07 -5.47764169e-15
atom     -0.0051101422    11.4735829648    11.4808093560   Al  0.0 0.0    1.14638900e-06  1.95973367e-14  2.61265113e-07
atom      3.8194097256     7.6432769973    11.4793612774   Al  0.0 0.0   -1.04550176e-07 -2.99538059e-07  2.99538052e-07
atom      3.8227093859    11.4735829648     7.6490553099   Al  0.0 0.0    7.42385243e-07  2.34430762e-14 -2.89513777e-16
atom     -0.0066977929     7.6321559129    15.3106665639   Al  0.0 0.0   -7.78795556e-08 -1.99382728e-07 -3.48849067e-07
atom     -0.0055519935    11.4735829648    19.1281902681   Al  0.0 0.0   -7.82095912e-08  2.65584529e-14  7.82095753e-08
atom      3.8119717107     7.6321559129    19.1293360675   Al  0.0 0.0    3.48849066e-07 -1.99382733e-07  7.78795491e-08
atom      3.8157710116    11.4735829648    15.3068672630   Al  0.0 0.0    5.34499157e-07  1.86677350e-14 -5.34499159e-07
atom     -0.0113322938     7.6285693805    22.9471659295   Al  0.0 0.0    1.88965807e-07  8.61640393e-07 -9.84599222e-15
atom     -0.0055519935    11.4735829648    26.7661415909   Al  0.0 0.0   -7.82095755e-08  2.76907345e-14 -7.82095535e-08
atom      3.8119717107     7.6321559129    26.7649957915   Al  0.0 0.0    3.48849067e-07 -1.99382719e-07 -7.78795293e-08
atom      3.8134485771    11.4735829648    22.9471659295   Al  0.0 0.0   -3.21867830e-07  2.52507831e-14  3.71739152e-16
atom     -0.0066977929    15.3150100166    -0.0125559443   Al  0.0 0.0   -7.78795676e-08  1.99382691e-07  3.48849048e-07
atom     -0.0066977929    19.1351942189     3.8076282580   Al  0.0 0.0   -7.78795572e-08 -3.48849030e-07 -1.99382711e-07
atom      3.8194097256    15.3038889323     3.8187493423   Al  0.0 0.0   -1.04550171e-07  2.99538032e-07 -2.99538031e-07
atom      3.8113225962    19.1358433333    -0.0132050588   Al  0.0 0.0   -1.06413258e-06  1.06413262e-06 -1.06413258e-06
atom     -0.0051101422    15.3053370109     7.6490553099   Al  0.0 0.0    1.14638900e-06  2.61265077e-07 -8.47312986e-15
atom     -0.0066977929    19.1351942189    11.4904823617   Al  0.0 0.0   -7.78795643e-08 -3.48849027e-07  1.99382732e-07
atom      3.8194097256    15.3038889323    11.4793612774   Al  0.0 0.0   -1.04550173e-07  2.99538016e-07  2.99538048e-07
atom      3.8157710116    19.1313949180     7.6490553099   Al  0.0 0.0    5.34499166e-07 -5.34499130e-07 -1.22048029e-14
atom     -0.0066977929    15.3150100166    15.3106665639   Al  0.0 0.0   -7.78795630e-08  1.99382687e-07 -3.48849062e-07
atom     -0.0176681546    19.1562025652    19.1403064291   Al  0.0 0.0    2.71493874e-08  1.04091960e-06 -2.71493744e-08
atom      3.8119717107    15.3150100166    19.1293360675   Al  0.0 0.0    3.48849063e-07  1.99382691e-07  7.78795547e-08
atom      3.8113225962    19.1358433333    15.3113156784   Al  0.0 0.0   -1.06413258e-06  1.06413262e-06  1.06413258e-06
atom     -0.0113322938    15.3185965490    22.9471659295   Al  0.0 0.0    1.88965815e-07 -8.61640446e-07 -1.00249998e-14
atom     -0.0176681546    19.1562025652    26.7540254299   Al  0.0 0.0    2.71493855e-08  1.04091959e-06  2.71494145e-08
atom      3.8119717107    15.3150100166    26.7649957915   Al  0.0 0.0    3.48849061e-07  1.99382676e-07 -7.78795326e-08
atom      3.7806171710    19.1665487586    22.9471659295   Al  0.0 0.0    3.55279018e-07 -3.55278981e-07 -1.68636539e-14
atom     -0.0176681546    22.9648340841    -0.0335642907   Al  0.0 0.0    2.71493930e-08 -2.71494271e-08 -1.04091958e-06
atom     -0.0113322938    26.7716935844     3.8040417256   Al  0.0 0.0    1.88965826e-07  1.65117986e-14  8.61640434e-07
atom      3.8119717107    22.9538637224     3.8076282580   Al  0.0 0.0    3.48849065e-07  7.78795214e-08 -1.99382707e-07
atom      3.7806171710    26.7716935844    -0.0439104840   Al  0.0 0.0    3.55279021e-07  1.67735822e-14  3.55279000e-07
atom     -0.0055519935    22.9527179230     7.6490553099   Al  0.0 0.0   -7.82095856e-08  7.82095532e-08 -1.62560493e-14
atom     -0.0113322938    26.7716935844    11.4940688941   Al  0.0 0.0    1.88965817e-07  1.71357611e-14 -8.61640402e-07
atom      3.8119717107    22.9538637224    11.4904823617   Al  0.0 0.0    3.48849064e-07  7.78795287e-08  1.99382731e-07
atom      3.8134485771    26.7716935844     7.6490553099   Al  0.0 0.0   -3.21867832e-07  1.69365897e-14 -1.42729879e-14
atom     -0.0176681546    22.9648340841    15.3316749103   Al  0.0 0.0    2.71493932e-08 -2.71494242e-08  1.04091954e-06
atom     -0.0867426493    26.7716935844    19.2093809239   Al  0.0 0.0    4.78577470e-07  4.01343955e-14 -4.78577476e-07
atom      3.7909633643    22.9648340841    19.1403064291   Al  0.0 0.0   -1.04091954e-06 -2.71494324e-08 -2.71493911e-08
atom      3.7806171710    26.7716935844    15.3420211037   Al  0.0 0.0    3.55279015e-07  1.47640556e-14 -3.55279023e-07
atom     -0.0867426493    23.0339085788    22.9471659295   Al  0.0 0.0    4.78577425e-07 -4.78577546e-07 -3.46710269e-14
atom     -0.0867426493    26.7716935844    26.6849509352   Al  0.0 0.0    4.78577422e-07  4.06417700e-14  4.78577532e-07
atom      3.7909633643    22.9648340841    26.7540254299   Al  0.0 0.0   -1.04091954e-06 -2.71494329e-08  2.71494293e-08
atom      3.7757990859    26.7716935844    22.9471659295   Al  0.0 0.0   -2.59965470e-07  4.21903414e-14 -3.02395234e-14
atom      7.6321559129    -0.0066977929    -0.0125559443   Al  0.0 0.0   -1.99382731e-07 -7.78795595e-08  3.48849053e-07
atom      7.6432769973     3.8194097256     3.8187493423   Al  0.0 0.0   -2.99538074e-07 -1.04550175e-07 -2.99538034e-07
atom     11.4735829648    -0.0051101422     3.8173012637   Al  0.0 0.0    1.80510592e-14  1.14638898e-06 -2.61265093e-07
atom     11.4735829648     3.8157710116    -0.0087566434   Al  0.0 0.0    1.85771228e-14  5.34499162e-07  5.34499128e-07
atom      7.6418289186    -0.0051101422     7.6490553099   Al  0.0 0.0   -2.61265119e-07  1.14638900e-06 -7.49199338e-15
atom      7.6432769973     3.8194097256    11.4793612774   Al  0.0 0.0   -2.99538060e-07 -1.04550176e-07  2.99538051e-07
atom     11.4735829648    -0.0051101422    11.4808093560   Al  0.0 0.0    1.90064344e-14  1.14638900e-06  2.61265112e-07
atom     11.4735829648     3.8227093859     7.6490553099   Al  0.0 0.0    2.06583025e-14  7.42385240e-07  5.95152885e-16
atom      7.6321559129    -0.0066977929    15.3106665639   Al  0.0 0.0   -1.99382729e-07 -7.78795559e-08 -3.48849065e-07
atom      7.6321559129     3.8119717107    19.1293360675   Al  0.0 0.0   -1.99382732e-07  3.48849065e-07  7.78795506e-08
atom     11.4735829648    -0.0055519935    19.1281902681   Al  0.0 0.0    2.43549164e-14 -7.82095902e-08  7.82095765e-08
atom     11.4735829648     3.8157710116    15.3068672630   Al  0.0 0.0    2.02410005e-14  5.34499159e-07 -5.34499158e-07
atom      7.6285693805    -0.0113322938    22.9471659295   Al  0.0 0.0    8.61640392e-07  1.88965808e-07 -1.12607074e-14
atom      7.6321559129     3.8119717107    26.7649957915   Al  0.0 0.0   -1.99382718e-07  3.48849067e-07 -7.78795292e-08
atom     11.4735829648    -0.0055519935    26.7661415909   Al  0.0 0.0    2.47766039e-14 -7.82095723e-08 -7.82095550e-08
atom     11.4735829648     3.8134485771    22.9471659295   Al  0.0 0.0    2.41648534e-14 -3.21867829e-07  7.94622673e-17
atom      7.6432769973     7.6432769973    -0.0051179293   Al  0.0 0.0   -2.99538060e-07 -2.99538062e-07 -1.04550211e-07
atom      7.6479426029    11.4735829648     3.8234149480   Al  0.0 0.0    3.13907024e-07  2.34356039e-14  3.13907000e-07
atom     11.4735829648     7.6479426029     3.8234149480   Al  0.0 0.0    2.05285576e-14  3.13907026e-07  3.13906999e-07
atom     11.4735829648    11.4735829648    -0.0018182691   Al  0.0 0.0    2.08209052e-14  2.29038275e-14  7.42385181e-07
atom      7.6479426029     7.6479426029     7.6490553099   Al  0.0 0.0    3.13906994e-07  3.13906996e-07 -7.76747972e-15
atom      7.6479426029    11.4735829648    11.4746956717   Al  0.0 0.0    3.13906984e-07  2.28244522e-14 -3.13907002e-07
atom     11.4735829648     7.6479426029    11.4746956717   Al  0.0 0.0    2.30119260e-14  3.13906984e-07 -3.13907000e-07
atom     11.4735829648    11.4735829648     7.6490553099   Al  0.0 0.0    1.88464630e-14  2.14547184e-14 -2.00844514e-14
atom      7.6432769973     7.6432769973    15.3032285490   Al  0.0 0.0   -2.99538064e-07 -2.99538064e-07  1.04550176e-07
atom      7.6418289186    11.4735829648    19.1277484168   Al  0.0 0.0   -2.61265115e-07  2.02288011e-14 -1.14638899e-06
atom     11.4735829648     7.6418289186    19.1277484168   Al  0.0 0.0    2.11751227e-14 -2.61265116e-07 -1.14638899e-06
atom     11.4735829648    11.4735829648    15.2999288887   Al  0.0 0.0    2.39727663e-14  2.12936770e-14 -7.42385232e-07
atom      7.6334943702     7.6334943702    22.9471659295   Al  0.0 0.0   -2.65127561e-07 -2.65127562e-07 -5.78045971e-15
atom      7.6418289186    11.4735829648    26.7665834422   Al  0.0 0.0   -2.61265155e-07  1.97494689e-14  1.14638900e-06
atom     11.4735829648     7.6418289186    26.7665834422   Al  0.0 0.0    1.98503492e-14 -2.61265157e-07  1.14638900e-06
atom     11.4735829648    11.4735829648    22.9471659295   Al  0.0 0.0    2.19328783e-14  1.98485897e-14 -1.97474618e-14
atom      7.6432769973    15.3038889323    -0.0051179293   Al  0.0 0.0   -2.99538059e-07  2.99538017e-07 -1.04550207e-07
atom      7.6432769973    19.1277562039     3.8187493423   Al  0.0 0.0   -2.99538073e-07  1.04550205e-07 -2.99538029e-07
atom     11.4735829648    15.2992233266     3.8234149480   Al  0.0 0.0    1.93618664e-14 -3.13907066e-07  3.13906997e-07
atom     11.4735829648    19.1313949180    -0.0087566434   Al  0.0 0.0    2.16897838e-14 -5.34499129e-07  5.34499131e-07
atom      7.6479426029    15.2992233266     7.6490553099   Al  0.0 0.0    3.13906993e-07 -3.13907036e-07 -8.40274967e-15
atom      7.6432769973    19.1277562039    11.4793612774   Al  0.0 0.0   -2.99538059e-07  1.04550208e-07  2.99538048e-07
atom     11.4735829648    15.2992233266    11.4746956717   Al  0.0 0.0    2.09317584e-14 -3.13907026e-07 -3.13906999e-07
atom     11.4735829648    19.1244565436     7.6490553099   Al  0.0 0.0    2.04575117e-14 -7.42385206e-07 -5.81758011e-16
atom      7.6432769973    15.3038889323    15.3032285490   Al  0.0 0.0   -2.99538062e-07  2.99538020e-07  1.04550174e-07
atom      7.6321559129    19.1351942189    19.1293360675   Al  0.0 0.0   -1.99382736e-07 -3.48849024e-07  7.78795526e-08
atom     11.4735829648    15.3053370109    19.1277484168   Al  0.0 0.0    2.00553905e-14  2.61265074e-07 -1.14638899e-06
atom     11.4735829648    19.1313949180    15.3068672630   Al  0.0 0.0    1.90990032e-14 -5.34499122e-07 -5.34499161e-07
atom      7.6334943702    15.3136715593    22.9471659295   Al  0.0 0.0   -2.65127565e-07  2.65127523e-07 -7.83550982e-15
atom      7.6321559129    19.1351942189    26.7649957915   Al  0.0 0.0   -1.99382720e-07 -3.48849028e-07 -7.78795317e-08
atom     11.4735829648    15.3053370109    26.7665834422   Al  0.0 0.0    2.01595642e-14  2.61265114e-07  1.14638900e-06
atom     11.4735829648    19.1337173525    22.9471659295   Al  0.0 0.0    2.44090948e-14  3.21867866e-07  4.82121139e-17
atom      7.6321559129    22.9538637224    -0.0125559443   Al  0.0 0.0   -1.99382734e-07  7.78795282e-08  3.48849050e-07
atom      7.6334943702    26.7716935844     3.8089667153   Al  0.0 0.0   -2.65127560e-07  1.97426839e-14 -2.65127541e-07
atom     11.4735829648    22.9522760717     3.8173012637   Al  0.0 0.0    2.08589582e-14 -1.14638902e-06 -2.61265093e-07
atom     11.4735829648    26.7716935844    -0.0110790779   Al  0.0 0.0    2.32984711e-14  1.63358031e-14 -3.21867839e-07
atom      7.6418289186    22.9522760717     7.6490553099   Al  0.0 0.0   -2.61265120e-07 -1.14638903e-06 -7.45580205e-15
atom      7.6334943702    26.7716935844    11.4891439044   Al  0.0 0.0   -2.65127563e-07  1.78675745e-14  2.65127561e-07
atom     11.4735829648    22.9522760717    11.4808093560   Al  0.0 0.0    2.01209039e-14 -1.14638903e-06  2.61265112e-07
atom     11.4735829648    26.7716935844     7.6490553099   Al  0.0 0.0    2.00570098e-14  1.72780132e-14 -9.63190358e-15
atom      7.6321559129    22.9538637224    15.3106665639   Al  0.0 0.0   -1.99382733e-07  7.78795239e-08 -3.48849061e-07
atom      7.6285693805    26.7716935844    19.1339705683   Al  0.0 0.0    8.61640405e-07  1.73836459e-14 -1.88965808e-07
atom     11.4735829648    22.9527179230    19.1281902681   Al  0.0 0.0    2.44997745e-14  7.82095579e-08  7.82095762e-08
atom     11.4735829648    26.7716935844    15.3091896976   Al  0.0 0.0    2.32208131e-14  1.51578190e-14  3.21867832e-07
atom      7.6285693805    22.9584982232    22.9471659295   Al  0.0 0.0    8.61640401e-07 -1.88965848e-07 -1.38995724e-14
atom      7.6285693805    26.7716935844    26.7603612907   Al  0.0 0.0    8.61640401e-07  1.97153248e-14  1.88965841e-07
atom     11.4735829648    22.9527179230    26.7661415909   Al  0.0 0.0    2.70407622e-14  7.82095400e-08 -7.82095542e-08
atom     11.4735829648    26.7716935844    22.9471659295   Al  0.0 0.0    2.23916743e-14  1.70273115e-14 -1.89492565e-14
atom     15.3150100166    -0.0066977929    -0.0125559443   Al  0.0 0.0    1.99382690e-07 -7.78795633e-08  3.48849047e-07
atom     15.3038889323     3.8194097256     3.8187493423   Al  0.0 0.0    2.99538032e-07 -1.04550172e-07 -2.99538032e-07
atom     19.1351942189    -0.0066977929     3.8076282580   Al  0.0 0.0   -3.48849027e-07 -7.78795596e-08 -1.99382709e-07
atom     19.1358433333     3.8113225962    -0.0132050588   Al  0.0 0.0    1.06413262e-06 -1.06413258e-06 -1.06413259e-06
atom     15.3053370109    -0.0051101422     7.6490553099   Al  0.0 0.0    2.61265076e-07  1.14638899e-06 -6.26081818e-15
atom     15.3038889323     3.8194097256    11.4793612774   Al  0.0 0.0    2.99538016e-07 -1.04550173e-07  2.99538051e-07
atom     19.1351942189    -0.0066977929    11.4904823617   Al  0.0 0.0   -3.48849028e-07 -7.78795663e-08  1.99382733e-07
atom     19.1313949180     3.8157710116     7.6490553099   Al  0.0 0.0   -5.34499129e-07  5.34499168e-07 -1.05028189e-14
atom     15.3150100166    -0.0066977929    15.3106665639   Al  0.0 0.0    1.99382689e-07 -7.78795605e-08 -3.48849063e-07
atom     15.3150100166     3.8119717107    19.1293360675   Al  0.0 0.0    1.99382691e-07  3.48849062e-07  7.78795552e-08
atom     19.1562025652    -0.0176681546    19.1403064291   Al  0.0 0.0    1.04091960e-06  2.71493890e-08 -2.71493749e-08
atom     19.1358433333     3.8113225962    15.3113156784   Al  0.0 0.0    1.06413262e-06 -1.06413258e-06  1.06413258e-06
atom     15.3185965490    -0.0113322938    22.9471659295   Al  0.0 0.0   -8.61640446e-07  1.88965819e-07 -1.22080206e-14
atom     15.3150100166     3.8119717107    26.7649957915   Al  0.0 0.0    1.99382677e-07  3.48849065e-07 -7.78795332e-08
atom     19.1562025652    -0.0176681546    26.7540254299   Al  0.0 0.0    1.04091960e-06  2.71493903e-08  2.71494128e-08
atom     19.1665487586     3.7806171710    22.9471659295   Al  0.0 0.0   -3.55278982e-07  3.55279019e-07 -1.59227099e-14
atom     15.3038889323     7.6432769973    -0.0051179293   Al  0.0 0.0    2.99538019e-07 -2.99538060e-07 -1.04550210e-07
atom     15.2992233266    11.4735829648     3.8234149480   Al  0.0 0.0   -3.13907066e-07  2.15654040e-14  3.13906997e-07
atom     19.1277562039     7.6432769973     3.8187493423   Al  0.0 0.0    1.04550207e-07 -2.99538072e-07 -2.99538032e-07
atom     19.1313949180    11.4735829648    -0.0087566434   Al  0.0 0.0   -5.34499125e-07  2.07711860e-14  5.34499131e-07
atom     15.2992233266     7.6479426029     7.6490553099   Al  0.0 0.0   -3.13907034e-07  3.13906994e-07 -6.32263270e-15
atom     15.2992233266    11.4735829648    11.4746956717   Al  0.0 0.0   -3.13907023e-07  2.07825541e-14 -3.13906996e-07
atom     19.1277562039     7.6432769973    11.4793612774   Al  0.0 0.0    1.04550207e-07 -2.99538056e-07  2.99538050e-07
atom     19.1244565436    11.4735829648     7.6490553099   Al  0.0 0.0   -7.42385207e-07  2.05758900e-14  1.11133027e-15
atom     15.3038889323     7.6432769973    15.3032285490   Al  0.0 0.0    2.99538019e-07 -2.99538061e-07  1.04550174e-07
atom     15.3053370109    11.4735829648    19.1277484168   Al  0.0 0.0    2.61265075e-07  2.05226716e-14 -1.14638899e-06
atom     19.1351942189     7.6321559129    19.1293360675   Al  0.0 0.0   -3.48849025e-07 -1.99382736e-07  7.78795541e-08
atom     19.1313949180    11.4735829648    15.3068672630   Al  0.0 0.0   -5.34499125e-07  2.05160059e-14 -5.34499162e-07
atom     15.3136715593     7.6334943702    22.9471659295   Al  0.0 0.0    2.65127523e-07 -2.65127566e-07 -6.32189470e-15
atom     15.3053370109    11.4735829648    26.7665834422   Al  0.0 0.0    2.61265113e-07  1.99795874e-14  1.14638900e-06
atom     19.1351942189     7.6321559129    26.7649957915   Al  0.0 0.0   -3.48849026e-07 -1.99382723e-07 -7.78795316e-08
atom     19.1337173525    11.4735829648    22.9471659295   Al  0.0 0.0    3.21867868e-07  2.47620031e-14 -1.78846094e-15
atom     15.3038889323    15.3038889323    -0.0051179293   Al  0.0 0.0    2.99538016e-07  2.99538017e-07 -1.04550208e-07
atom     15.3038889323    19.1277562039     3.8187493423   Al  0.0 0.0    2.99538028e-07  1.04550208e-07 -2.99538031e-07
atom     19.1277562039    15.3038889323     3.8187493423   Al  0.0 0.0    1.04550208e-07  2.99538028e-07 -2.99538031e-07
atom     19.1358433333    19.1358433333    -0.0132050588   Al  0.0 0.0    1.06413263e-06  1.06413262e-06 -1.06413259e-06
atom     15.2992233266    15.2992233266     7.6490553099   Al  0.0 0.0   -3.13907035e-07 -3.13907034e-07 -7.42316659e-15
atom     15.3038889323    19.1277562039    11.4793612774   Al  0.0 0.0    2.99538014e-07  1.04550208e-07  2.99538046e-07
atom     19.1277562039    15.3038889323    11.4793612774   Al  0.0 0.0    1.04550207e-07  2.99538012e-07  2.99538047e-07
atom     19.1313949180    19.1313949180     7.6490553099   Al  0.0 0.0   -5.34499130e-07 -5.34499130e-07 -1.14406932e-14
atom     15.3038889323    15.3038889323    15.3032285490   Al  0.0 0.0    2.99538019e-07  2.99538015e-07  1.04550173e-07
atom     15.3150100166    19.1351942189    19.1293360675   Al  0.0 0.0    1.99382696e-07 -3.48849023e-07  7.78795602e-08
atom     19.1351942189    15.3150100166    19.1293360675   Al  0.0 0.0   -3.48849021e-07  1.99382694e-07  7.78795595e-08
atom     19.1358433333    19.1358433333    15.3113156784   Al  0.0 0.0    1.06413262e-06  1.06413262e-06  1.06413259e-06
atom     15.3136715593    15.3136715593    22.9471659295   Al  0.0 0.0    2.65127527e-07  2.65127526e-07 -7.31302852e-15
atom     15.3150100166    19.1351942189    26.7649957915   Al  0.0 0.0    1.99382682e-07 -3.48849022e-07 -7.78795356e-08
atom     19.1351942189    15.3150100166    26.7649957915   Al  0.0 0.0   -3.48849019e-07  1.99382683e-07 -7.78795356e-08
atom     19.1665487586    19.1665487586    22.9471659295   Al  0.0 0.0   -3.55278987e-07 -3.55278990e-07 -1.46302985e-14
atom     15.3150100166    22.9538637224    -0.0125559443   Al  0.0 0.0    1.99382692e-07  7.78795296e-08  3.48849045e-07
atom     15.3136715593    26.7716935844     3.8089667153   Al  0.0 0.0    2.65127522e-07  1.61506492e-14 -2.65127543e-07
atom     19.1351942189    22.9538637224     3.8076282580   Al  0.0 0.0   -3.48849023e-07  7.78795251e-08 -1.99382711e-07
atom     19.1665487586    26.7716935844    -0.0439104840   Al  0.0 0.0   -3.55278988e-07  1.48198037e-14  3.55279006e-07
atom     15.3053370109    22.9522760717     7.6490553099   Al  0.0 0.0    2.61265078e-07 -1.14638903e-06 -7.05584894e-15
atom     15.3136715593    26.7716935844    11.4891439044   Al  0.0 0.0    2.65127525e-07  1.76266072e-14  2.65127564e-07
atom     19.1351942189    22.9538637224    11.4904823617   Al  0.0 0.0   -3.48849022e-07  7.78795336e-08  1.99382734e-07
atom     19.1337173525    26.7716935844     7.6490553099   Al  0.0 0.0    3.21867871e-07  1.43915244e-14 -1.25990791e-14
atom     15.3150100166    22.9538637224    15.3106665639   Al  0.0 0.0    1.99382689e-07  7.78795300e-08 -3.48849060e-07
atom     15.3185965490    26.7716935844    19.1339705683   Al  0.0 0.0   -8.61640458e-07  1.85652847e-14 -1.88965816e-07
atom     19.1562025652    22.9648340841    19.1403064291   Al  0.0 0.0    1.04091959e-06 -2.71494377e-08 -2.71493925e-08
atom     19.1665487586    26.7716935844    15.3420211037   Al  0.0 0.0   -3.55278983e-07  1.63687277e-14 -3.55279034e-07
atom     15.3185965490    22.9584982232    22.9471659295   Al  0.0 0.0   -8.61640453e-07 -1.88965859e-07 -1.08352249e-14
atom     15.3185965490    26.7716935844    26.7603612907   Al  0.0 0.0   -8.61640455e-07  1.66798114e-14  1.88965850e-07
atom     19.1562025652    22.9648340841    26.7540254299   Al  0.0 0.0    1.04091959e-06 -2.71494393e-08  2.71494307e-08
atom     19.1713668436    26.7716935844    22.9471659295   Al  0.0 0.0    2.59965569e-07  4.20935389e-14 -2.83873535e-14
atom     22.9648340841    -0.0176681546    -0.0335642907   Al  0.0 0.0   -2.71494237e-08  2.71493946e-08 -1.04091958e-06
atom     22.9538637224     3.8119717107     3.8076282580   Al  0.0 0.0    7.78795216e-08  3.48849066e-07 -1.99382710e-07
atom     26.7716935844    -0.0113322938     3.8040417256   Al  0.0 0.0    1.72507300e-14  1.88965825e-07  8.61640434e-07
atom     26.7716935844     3.7806171710    -0.0439104840   Al  0.0 0.0    1.41028496e-14  3.55279021e-07  3.55278996e-07
atom     22.9527179230    -0.0055519935     7.6490553099   Al  0.0 0.0    7.82095529e-08 -7.82095890e-08 -1.63412244e-14
atom     22.9538637224     3.8119717107    11.4904823617   Al  0.0 0.0    7.78795278e-08  3.48849064e-07  1.99382732e-07
atom     26.7716935844    -0.0113322938    11.4940688941   Al  0.0 0.0    1.74558388e-14  1.88965815e-07 -8.61640402e-07
atom     26.7716935844     3.8134485771     7.6490553099   Al  0.0 0.0    1.66267674e-14 -3.21867833e-07 -1.25763050e-14
atom     22.9648340841    -0.0176681546    15.3316749103   Al  0.0 0.0   -2.71494245e-08  2.71493939e-08  1.04091954e-06
atom     22.9648340841     3.7909633643    19.1403064291   Al  0.0 0.0   -2.71494333e-08 -1.04091954e-06 -2.71493907e-08
atom     26.7716935844    -0.0867426493    19.2093809239   Al  0.0 0.0    4.03977984e-14  4.78577470e-07 -4.78577477e-07
atom     26.7716935844     3.7806171710    15.3420211037   Al  0.0 0.0    1.52644132e-14  3.55279015e-07 -3.55279024e-07
atom     23.0339085788    -0.0867426493    22.9471659295   Al  0.0 0.0   -4.78577547e-07  4.78577427e-07 -3.45378169e-14
atom     22.9648340841     3.7909633643    26.7540254299   Al  0.0 0.0   -2.71494333e-08 -1.04091954e-06  2.71494293e-08
atom     26.7716935844    -0.0867426493    26.6849509352   Al  0.0 0.0    4.08619920e-14  4.78577423e-07  4.78577533e-07
atom     26.7716935844     3.7757990859    22.9471659295   Al  0.0 0.0    4.01322365e-14 -2.59965470e-07 -2.79415015e-14
atom     22.9538637224     7.6321559129    -0.0125559443   Al  0.0 0.0    7.78795266e-08 -1.99382734e-07  3.48849047e-07
atom     22.9522760717    11.4735829648     3.8173012637   Al  0.0 0.0   -1.14638901e-06  2.05541288e-14 -2.61265097e-07
atom     26.7716935844     7.6334943702     3.8089667153   Al  0.0 0.0    1.63396151e-14 -2.65127559e-07 -2.65127543e-07
atom     26.7716935844    11.4735829648    -0.0110790779   Al  0.0 0.0    1.40316013e-14  2.79382229e-14 -3.21867841e-07
atom     22.9522760717     7.6418289186     7.6490553099   Al  0.0 0.0   -1.14638903e-06 -2.61265119e-07 -7.76739328e-15
atom     22.9522760717    11.4735829648    11.4808093560   Al  0.0 0.0   -1.14638903e-06  2.04976016e-14  2.61265114e-07
atom     26.7716935844     7.6334943702    11.4891439044   Al  0.0 0.0    1.87728533e-14 -2.65127563e-07  2.65127562e-07
atom     26.7716935844    11.4735829648     7.6490553099   Al  0.0 0.0    1.74148171e-14  1.97601840e-14 -1.07029087e-14
atom     22.9538637224     7.6321559129    15.3106665639   Al  0.0 0.0    7.78795237e-08 -1.99382731e-07 -3.48849061e-07
atom     22.9527179230    11.4735829648    19.1281902681   Al  0.0 0.0    7.82095560e-08  2.84319726e-14  7.82095778e-08
atom     26.7716935844     7.6285693805    19.1339705683   Al  0.0 0.0    1.65922228e-14  8.61640405e-07 -1.88965808e-07
atom     26.7716935844    11.4735829648    15.3091896976   Al  0.0 0.0    1.63180247e-14  2.44320177e-14  3.21867832e-07
atom     22.9584982232     7.6285693805    22.9471659295   Al  0.0 0.0   -1.88965849e-07  8.61640400e-07 -1.05863044e-14
atom     22.9527179230    11.4735829648    26.7661415909   Al  0.0 0.0    7.82095421e-08  2.70714020e-14 -7.82095530e-08
atom     26.7716935844     7.6285693805    26.7603612907   Al  0.0 0.0    1.63568874e-14  8.61640401e-07  1.88965841e-07
atom     26.7716935844    11.4735829648    22.9471659295   Al  0.0 0.0    1.58970119e-14  2.53403664e-14 -1.64100380e-14
atom     22.9538637224    15.3150100166    -0.0125559443   Al  0.0 0.0    7.78795345e-08  1.99382693e-07  3.48849044e-07
atom     22.9538637224    19.1351942189     3.8076282580   Al  0.0 0.0    7.78795256e-08 -3.48849024e-07 -1.99382715e-07
atom     26.7716935844    15.3136715593     3.8089667153   Al  0.0 0.0    1.68059678e-14  2.65127522e-07 -2.65127550e-07
atom     26.7716935844    19.1665487586    -0.0439104840   Al  0.0 0.0    1.54220231e-14 -3.55278992e-07  3.55279005e-07
atom     22.9522760717    15.3053370109     7.6490553099   Al  0.0 0.0   -1.14638903e-06  2.61265078e-07 -8.03868105e-15
atom     22.9538637224    19.1351942189    11.4904823617   Al  0.0 0.0    7.78795328e-08 -3.48849022e-07  1.99382735e-07
atom     26.7716935844    15.3136715593    11.4891439044   Al  0.0 0.0    1.81532088e-14  2.65127526e-07  2.65127567e-07
atom     26.7716935844    19.1337173525     7.6490553099   Al  0.0 0.0    1.59963278e-14  3.21867870e-07 -1.41530690e-14
atom     22.9538637224    15.3150100166    15.3106665639   Al  0.0 0.0    7.78795299e-08  1.99382691e-07 -3.48849056e-07
atom     22.9648340841    19.1562025652    19.1403064291   Al  0.0 0.0   -2.71494362e-08  1.04091959e-06 -2.71493924e-08
atom     26.7716935844    15.3185965490    19.1339705683   Al  0.0 0.0    1.54889533e-14 -8.61640458e-07 -1.88965816e-07
atom     26.7716935844    19.1665487586    15.3420211037   Al  0.0 0.0    1.49966922e-14 -3.55278983e-07 -3.55279033e-07
atom     22.9584982232    15.3185965490    22.9471659295   Al  0.0 0.0   -1.88965858e-07 -8.61640453e-07 -1.18258241e-14
atom     22.9648340841    19.1562025652    26.7540254299   Al  0.0 0.0   -2.71494369e-08  1.04091959e-06  2.71494320e-08
atom     26.7716935844    15.3185965490    26.7603612907   Al  0.0 0.0    1.61388244e-14 -8.61640453e-07  1.88965853e-07
atom     26.7716935844    19.1713668436    22.9471659295   Al  0.0 0.0    4.10498285e-14  2.59965567e-07 -2.64789203e-14
atom     22.9648340841    22.9648340841    -0.0335642907   Al  0.0 0.0   -2.71494417e-08 -2.71494438e-08 -1.04091957e-06
atom     22.9584982232    26.7716935844     3.8040417256   Al  0.0 0.0   -1.88965868e-07  1.53852519e-14  8.61640442e-07
atom     26.7716935844    22.9584982232     3.8040417256   Al  0.0 0.0    1.61323473e-14 -1.88965867e-07  8.61640440e-07
atom     26.7716935844    26.7716935844    -0.0487285691   Al  0.0 0.0    3.98645155e-14  4.00245881e-14 -2.59965568e-07
atom     22.9527179230    22.9527179230     7.6490553099   Al  0.0 0.0    7.82095518e-08  7.82095554e-08 -1.66500131e-14
atom     22.9584982232    26.7716935844    11.4940688941   Al  0.0 0.0   -1.88965859e-07  1.61685281e-14 -8.61640411e-07