begin
comment 2 atoms, species Al2
lattice      5.3902251185     0.0000000000    -0.0000000000
lattice     -2.6951125592     4.6680718847     0.0000000000
lattice     -0.0000000000     0.0000000000     8.9906922695
atom      0.0000000000     3.1120479232     6.7430192022   Al  0.0 0.0   -2.11477973e-14 -2.68789691e-14  1.49860634e-13
atom      2.6951125592     1.5560239616     2.2476730674   Al  0.0 0.0    2.10295899e-14  2.70095911e-14 -1.49815298e-13
energy -3.950098948029027e+01
charge 0.0000
end
