begin
comment 4 atoms, species Al4
lattice      7.6490553098    -0.0000000000    -0.0000000000
lattice     -0.0000000000     7.6490553098     0.0000000000
lattice     -0.0000000000     0.0000000000     7.6490553098
atom      0.0000000000     0.0000000000     0.0000000000   Al  0.0 0.0   -3.82538717e-14 -3.86294520e-14 -3.83141495e-14
atom     -0.0000000000     3.8245276549     3.8245276549   Al  0.0 0.0   -3.80941027e-14  3.83056123e-14  3.80884619e-14
atom      3.8245276549    -0.0000000000     3.8245276549   Al  0.0 0.0    3.81221702e-14 -3.82710144e-14  3.81489111e-14
atom      3.8245276549     3.8245276549    -0.0000000000   Al  0.0 0.0    3.82905753e-14  3.84682295e-14 -3.80102477e-14
energy -7.900545724811450e+01
charge 0.0000
end
