begin
comment 256 atoms, species Al255Mg
lattice     30.5962212394     0.0000000000     0.0000000000
lattice      0.0000000000    30.5962212394     0.0000000000
lattice      0.0000000000     0.0000000000    30.5962212394
atom      0.0000000000     0.0000000000     0.0000000000   Mg  0.0 0.0    1.71125515e-14  1.45799975e-14  1.85240239e-14
atom      0.0000000000     3.8626187554     3.8626187554   Al  0.0 0.0    2.52391782e-15 -2.67187063e-07 -2.67187065e-07
atom      3.8626187554     0.0000000000     3.8626187554   Al  0.0 0.0   -2.67187065e-07  3.80395869e-15 -2.67187065e-07
atom      3.8626187554     3.8626187554     0.0000000000   Al  0.0 0.0   -2.67187065e-07 -2.67187064e-07  2.79867886e-15
atom      0.0000000000     0.0000000000     7.6392488091   Al  0.0 0.0   -2.36198982e-15 -1.69376692e-15  1.98500179e-07
atom      0.0000000000     3.8209323411    11.4720089517   Al  0.0 0.0    2.74198087e-15 -1.78397599e-07 -7.27163596e-07
atom      3.8209323411     0.0000000000    11.4720089517   Al  0.0 0.0   -1.78397598e-07  3.44609780e-15 -7.27163595e-07
atom      3.8293470694     3.8293470694     7.6573713682   Al  0.0 0.0   -4.02251628e-07 -4.02251627e-07  1.04015474e-06
atom      0.0000000000     0.0000000000    15.2981106197   Al  0.0 0.0    1.91075045e-15  2.56332030e-15  3.48429110e-15
atom      0.0000000000     3.8209323411    19.1242122877   Al  0.0 0.0    1.48326052e-15 -1.78397600e-07  7.27163587e-07
atom      3.8209323411     0.0000000000    19.1242122877   Al  0.0 0.0   -1.78397602e-07  3.79424301e-15  7.27163585e-07
atom      3.8226743277     3.8226743277    15.2981106197   Al  0.0 0.0    4.11473681e-07  4.11473682e-07  2.93452338e-15
atom      0.0000000000     0.0000000000    22.9569724302   Al  0.0 0.0   -3.15219848e-15  1.22255643e-15 -1.98500174e-07
atom      0.0000000000     3.8626187554    26.7336024840   Al  0.0 0.0    2.77652551e-15 -2.67187048e-07  2.67187051e-07
atom      3.8626187554     0.0000000000    26.7336024840   Al  0.0 0.0   -2.67187054e-07  4.16208946e-15  2.67187054e-07
atom      3.8293470694     3.8293470694    22.9388498712   Al  0.0 0.0   -4.02251629e-07 -4.02251626e-07 -1.04015472e-06
atom      0.0000000000     7.6392488091     0.0000000000   Al  0.0 0.0   -5.20328653e-16  1.98500179e-07 -1.97131742e-15
atom      0.0000000000    11.4720089517     3.8209323411   Al  0.0 0.0    2.23892454e-15 -7.27163596e-07 -1.78397598e-07
atom      3.8293470694     7.6573713682     3.8293470694   Al  0.0 0.0   -4.02251629e-07  1.04015474e-06 -4.02251626e-07
atom      3.8209323411    11.4720089517     0.0000000000   Al  0.0 0.0   -1.78397602e-07 -7.27163596e-07  1.18818429e-15
atom      0.0000000000     7.6541556333     7.6541556333   Al  0.0 0.0    5.80781774e-15 -3.00465007e-07 -3.00465009e-07
atom      0.0000000000    11.4732713192    11.4732713192   Al  0.0 0.0    2.73118567e-15  3.53793399e-07  3.53793396e-07
atom      3.8246834515     7.6493137150    11.4748094545   Al  0.0 0.0   -3.62337847e-07 -3.67991630e-07 -1.38797543e-08
atom      3.8246834515    11.4748094545     7.6493137150   Al  0.0 0.0   -3.62337848e-07 -1.38797533e-08 -3.67991631e-07
atom      0.0000000000     7.6454198965    15.2981106197   Al  0.0 0.0    1.78120804e-15  9.05533235e-08  3.19601155e-15
atom      0.0000000000    11.4732713192    19.1229499201   Al  0.0 0.0    2.08779173e-15  3.53793401e-07 -3.53793407e-07
atom      3.8246834515     7.6493137150    19.1214117849   Al  0.0 0.0   -3.62337843e-07 -3.67991629e-07  1.38797440e-08
atom      3.8240002650    11.4734918123    15.2981106197   Al  0.0 0.0   -1.59464639e-06  3.09999379e-07  2.35440919e-15
atom      0.0000000000     7.6541556333    22.9420656060   Al  0.0 0.0    3.58400649e-15 -3.00465011e-07  3.00465026e-07
atom      0.0000000000    11.4720089517    26.7752888982   Al  0.0 0.0    2.65561927e-15 -7.27163598e-07  1.78397594e-07
atom      3.8293470694     7.6573713682    26.7668741700   Al  0.0 0.0   -4.02251635e-07  1.04015474e-06  4.02251620e-07
atom      3.8246834515    11.4748094545    22.9469075243   Al  0.0 0.0   -3.62337846e-07 -1.38797533e-08  3.67991642e-07
atom      0.0000000000    15.2981106197     0.0000000000   Al  0.0 0.0    1.55234980e-15  4.21552201e-15  2.18412586e-15
atom      0.0000000000    19.1242122877     3.8209323411   Al  0.0 0.0    4.49943947e-15  7.27163588e-07 -1.78397602e-07
atom      3.8226743277    15.2981106197     3.8226743277   Al  0.0 0.0    4.11473681e-07  4.30676834e-15  4.11473682e-07
atom      3.8209323411    19.1242122877     0.0000000000   Al  0.0 0.0   -1.78397601e-07  7.27163588e-07  3.78921215e-15
atom      0.0000000000    15.2981106197     7.6454198965   Al  0.0 0.0    2.55198534e-15  3.69192317e-15  9.05533257e-08
atom      0.0000000000    19.1229499201    11.4732713192   Al  0.0 0.0    1.36451331e-15 -3.53793409e-07  3.53793400e-07
atom      3.8240002650    15.2981106197    11.4734918123   Al  0.0 0.0   -1.59464639e-06  4.68713100e-15  3.09999379e-07
atom      3.8246834515    19.1214117849     7.6493137150   Al  0.0 0.0   -3.62337845e-07  1.38797426e-08 -3.67991629e-07
atom      0.0000000000    15.2981106197    15.2981106197   Al  0.0 0.0    9.71568024e-16  5.46186610e-15  2.33356870e-15
atom      0.0000000000    19.1229499201    19.1229499201   Al  0.0 0.0    6.69302416e-17 -3.53793412e-07 -3.53793411e-07
atom      3.8240002650    15.2981106197    19.1227294270   Al  0.0 0.0   -1.59464639e-06  4.12703458e-15 -3.09999387e-07
atom      3.8240002650    19.1227294270    15.2981106197   Al  0.0 0.0   -1.59464639e-06 -3.09999389e-07  7.27488635e-16
atom      0.0000000000    15.2981106197    22.9508013428   Al  0.0 0.0    2.24324262e-15  1.14511932e-15 -9.05533150e-08
atom      0.0000000000    19.1242122877    26.7752888982   Al  0.0 0.0    1.96472645e-15  7.27163590e-07  1.78397596e-07
atom      3.8226743277    15.2981106197    26.7735469116   Al  0.0 0.0    4.11473682e-07  2.25374053e-15 -4.11473689e-07
atom      3.8246834515    19.1214117849    22.9469075243   Al  0.0 0.0   -3.62337842e-07  1.38797410e-08  3.67991640e-07
atom      0.0000000000    22.9569724302     0.0000000000   Al  0.0 0.0   -7.70777299e-16 -1.98500177e-07  4.89292452e-16
atom      0.0000000000    26.7336024840     3.8626187554   Al  0.0 0.0    1.80279844e-15  2.67187052e-07 -2.67187052e-07
atom      3.8293470694    22.9388498712     3.8293470694   Al  0.0 0.0   -4.02251629e-07 -1.04015473e-06 -4.02251630e-07
atom      3.8626187554    26.7336024840     0.0000000000   Al  0.0 0.0   -2.67187054e-07  2.67187053e-07  3.92634928e-15
atom      0.0000000000    22.9420656060     7.6541556333   Al  0.0 0.0    4.63761803e-15  3.00465022e-07 -3.00465011e-07
atom      0.0000000000    26.7752888982    11.4720089517   Al  0.0 0.0    2.00790725e-16  1.78397593e-07 -7.27163598e-07
atom      3.8246834515    22.9469075243    11.4748094545   Al  0.0 0.0   -3.62337847e-07  3.67991636e-07 -1.38797528e-08
atom      3.8293470694    26.7668741700     7.6573713682   Al  0.0 0.0   -4.02251635e-07  4.02251620e-07  1.04015473e-06
atom      0.0000000000    22.9508013428    15.2981106197   Al  0.0 0.0   -1.16588163e-15 -9.05533164e-08  1.45741265e-16
atom      0.0000000000    26.7752888982    19.1242122877   Al  0.0 0.0    5.57032334e-16  1.78397596e-07  7.27163587e-07
atom      3.8246834515    22.9469075243    19.1214117849   Al  0.0 0.0   -3.62337841e-07  3.67991637e-07  1.38797407e-08
atom      3.8226743277    26.7735469116    15.2981106197   Al  0.0 0.0    4.11473682e-07 -4.11473687e-07  2.93508686e-15
atom      0.0000000000    22.9420656060    22.9420656060   Al  0.0 0.0    2.45482854e-15  3.00465025e-07  3.00465029e-07
atom      0.0000000000    26.7336024840    26.7336024840   Al  0.0 0.0    2.26051494e-15  2.67187037e-07  2.67187038e-07
atom      3.8293470694    22.9388498712    26.7668741700   Al  0.0 0.0   -4.02251633e-07 -1.04015473e-06  4.02251625e-07
atom      3.8293470694    26.7668741700    22.9388498712   Al  0.0 0.0   -4.02251634e-07  4.02251622e-07 -1.04015472e-06
atom      7.6392488091     0.0000000000     0.0000000000   Al  0.0 0.0    1.98500179e-07  1.54647991e-15  1.46759904e-16
atom      7.6573713682     3.8293470694     3.8293470694   Al  0.0 0.0    1.04015474e-06 -4.02251628e-07 -4.02251628e-07
atom     11.4720089517     0.0000000000     3.8209323411   Al  0.0 0.0   -7.27163597e-07  2.28031870e-15 -1.78397596e-07
atom     11.4720089517     3.8209323411     0.0000000000   Al  0.0 0.0   -7.27163596e-07 -1.78397599e-07  2.41711689e-15
atom      7.6541556333     0.0000000000     7.6541556333   Al  0.0 0.0   -3.00465007e-07  6.76815201e-15 -3.00465008e-07
atom      7.6493137150     3.8246834515    11.4748094545   Al  0.0 0.0   -3.67991633e-07 -3.62337847e-07 -1.38797553e-08
atom     11.4732713192     0.0000000000    11.4732713192   Al  0.0 0.0    3.53793399e-07  2.50714112e-16  3.53793397e-07
atom     11.4748094545     3.8246834515     7.6493137150   Al  0.0 0.0   -1.38797542e-08 -3.62337848e-07 -3.67991631e-07
atom      7.6454198965     0.0000000000    15.2981106197   Al  0.0 0.0    9.05533235e-08  8.92898002e-16  2.48196782e-15
atom      7.6493137150     3.8246834515    19.1214117849   Al  0.0 0.0   -3.67991629e-07 -3.62337842e-07  1.38797435e-08
atom     11.4732713192     0.0000000000    19.1229499201   Al  0.0 0.0    3.53793403e-07  1.18740864e-15 -3.53793409e-07
atom     11.4734918123     3.8240002650    15.2981106197   Al  0.0 0.0    3.09999379e-07 -1.59464639e-06  6.01126406e-15
atom      7.6541556333     0.0000000000    22.9420656060   Al  0.0 0.0   -3.00465011e-07  6.60413244e-15  3.00465024e-07
atom      7.6573713682     3.8293470694    26.7668741700   Al  0.0 0.0    1.04015473e-06 -4.02251631e-07  4.02251621e-07
atom     11.4720089517     0.0000000000    26.7752888982   Al  0.0 0.0   -7.27163598e-07  3.36427844e-15  1.78397594e-07
atom     11.4748094545     3.8246834515    22.9469075243   Al  0.0 0.0   -1.38797527e-08 -3.62337843e-07  3.67991638e-07
atom      7.6541556333     7.6541556333     0.0000000000   Al  0.0 0.0   -3.00465010e-07 -3.00465011e-07  5.02786004e-15
atom      7.6493137150    11.4748094545     3.8246834515   Al  0.0 0.0   -3.67991632e-07 -1.38797538e-08 -3.62337845e-07
atom     11.4748094545     7.6493137150     3.8246834515   Al  0.0 0.0   -1.38797529e-08 -3.67991631e-07 -3.62337846e-07
atom     11.4732713192    11.4732713192     0.0000000000   Al  0.0 0.0    3.53793400e-07  3.53793400e-07  1.00863758e-15
atom      7.6513794850     7.6513794850     7.6513794850   Al  0.0 0.0    3.92935217e-07  3.92935218e-07  3.92935218e-07
atom      7.6488997848    11.4736420577    11.4736420577   Al  0.0 0.0   -3.65322053e-07  1.04894981e-07  1.04894981e-07
atom     11.4736420577     7.6488997848    11.4736420577   Al  0.0 0.0    1.04894979e-07 -3.65322051e-07  1.04894980e-07
atom     11.4736420577    11.4736420577     7.6488997848   Al  0.0 0.0    1.04894980e-07  1.04894980e-07 -3.65322052e-07
atom      7.6483152112     7.6483152112    15.2981106197   Al  0.0 0.0    1.05151549e-07  1.05151552e-07  4.49782234e-15
atom      7.6488997848    11.4736420577    19.1225791817   Al  0.0 0.0   -3.65322051e-07  1.04894978e-07 -1.04894987e-07
atom     11.4736420577     7.6488997848    19.1225791817   Al  0.0 0.0    1.04894979e-07 -3.65322052e-07 -1.04894985e-07
atom     11.4736627914    11.4736627914    15.2981106197   Al  0.0 0.0   -4.39521389e-07 -4.39521388e-07  4.94563262e-15
atom      7.6513794850     7.6513794850    22.9448417544   Al  0.0 0.0    3.92935220e-07  3.92935221e-07 -3.92935212e-07
atom      7.6493137150    11.4748094545    26.7715377879   Al  0.0 0.0   -3.67991631e-07 -1.38797520e-08  3.62337838e-07
atom     11.4748094545     7.6493137150    26.7715377879   Al  0.0 0.0   -1.38797516e-08 -3.67991630e-07  3.62337838e-07
atom     11.4736420577    11.4736420577    22.9473214545   Al  0.0 0.0    1.04894980e-07  1.04894979e-07  3.65322059e-07
atom      7.6454198965    15.2981106197     0.0000000000   Al  0.0 0.0    9.05533247e-08  5.17754672e-15  1.41793190e-15
atom      7.6493137150    19.1214117849     3.8246834515   Al  0.0 0.0   -3.67991630e-07  1.38797444e-08 -3.62337844e-07
atom     11.4734918123    15.2981106197     3.8240002650   Al  0.0 0.0    3.09999380e-07  6.03733437e-15 -1.59464639e-06
atom     11.4732713192    19.1229499201     0.0000000000   Al  0.0 0.0    3.53793400e-07 -3.53793408e-07  1.50583404e-15
atom      7.6483152112    15.2981106197     7.6483152112   Al  0.0 0.0    1.05151549e-07  5.02280796e-15  1.05151550e-07
atom      7.6488997848    19.1225791817    11.4736420577   Al  0.0 0.0   -3.65322055e-07 -1.04894988e-07  1.04894980e-07
atom     11.4736627914    15.2981106197    11.4736627914   Al  0.0 0.0   -4.39521390e-07  1.45960546e-15 -4.39521389e-07
atom     11.4736420577    19.1225791817     7.6488997848   Al  0.0 0.0    1.04894979e-07 -1.04894986e-07 -3.65322055e-07
atom      7.6495931807    15.2981106197    15.2981106197   Al  0.0 0.0   -1.03597725e-06  3.44106180e-15  4.46697873e-15
atom      7.6488997848    19.1225791817    19.1225791817   Al  0.0 0.0   -3.65322051e-07 -1.04894987e-07 -1.04894986e-07
atom     11.4736627914    15.2981106197    19.1225584479   Al  0.0 0.0   -4.39521387e-07  3.03097969e-15  4.39521381e-07
atom     11.4736627914    19.1225584479    15.2981106197   Al  0.0 0.0   -4.39521389e-07  4.39521381e-07  5.34329771e-15
atom      7.6483152112    15.2981106197    22.9479060282   Al  0.0 0.0    1.05151551e-07  5.11687959e-15 -1.05151542e-07
atom      7.6493137150    19.1214117849    26.7715377879   Al  0.0 0.0   -3.67991628e-07  1.38797425e-08  3.62337838e-07
atom     11.4734918123    15.2981106197    26.7722209744   Al  0.0 0.0    3.09999379e-07  5.82627261e-15  1.59464638e-06
atom     11.4736420577    19.1225791817    22.9473214545   Al  0.0 0.0    1.04894979e-07 -1.04894986e-07  3.65322062e-07
atom      7.6541556333    22.9420656060     0.0000000000   Al  0.0 0.0   -3.00465012e-07  3.00465022e-07  5.07596385e-15
atom      7.6573713682    26.7668741700     3.8293470694   Al  0.0 0.0    1.04015474e-06  4.02251620e-07 -4.02251633e-07
atom     11.4748094545    22.9469075243     3.8246834515   Al  0.0 0.0   -1.38797530e-08  3.67991638e-07 -3.62337846e-07
atom     11.4720089517    26.7752888982     0.0000000000   Al  0.0 0.0   -7.27163598e-07  1.78397591e-07  2.29548898e-15
atom      7.6513794850    22.9448417544     7.6513794850   Al  0.0 0.0    3.92935219e-07 -3.92935215e-07  3.92935218e-07
atom      7.6493137150    26.7715377879    11.4748094545   Al  0.0 0.0   -3.67991630e-07  3.62337841e-07 -1.38797500e-08
atom     11.4736420577    22.9473214545    11.4736420577   Al  0.0 0.0    1.04894981e-07  3.65322061e-07  1.04894980e-07
atom     11.4748094545    26.7715377879     7.6493137150   Al  0.0 0.0   -1.38797493e-08  3.62337840e-07 -3.67991630e-07
atom      7.6483152112    22.9479060282    15.2981106197   Al  0.0 0.0    1.05151550e-07 -1.05151543e-07  4.23253086e-15
atom      7.6493137150    26.7715377879    19.1214117849   Al  0.0 0.0   -3.67991628e-07  3.62337836e-07  1.38797388e-08
atom     11.4736420577    22.9473214545    19.1225791817   Al  0.0 0.0    1.04894980e-07  3.65322060e-07 -1.04894986e-07
atom     11.4734918123    26.7722209744    15.2981106197   Al  0.0 0.0    3.09999381e-07  1.59464638e-06  5.45385309e-15
atom      7.6513794850    22.9448417544    22.9448417544   Al  0.0 0.0    3.92935224e-07 -3.92935217e-07 -3.92935213e-07
atom      7.6573713682    26.7668741700    26.7668741700   Al  0.0 0.0    1.04015473e-06  4.02251624e-07  4.02251627e-07
atom     11.4748094545    22.9469075243    26.7715377879   Al  0.0 0.0   -1.38797504e-08  3.67991636e-07  3.62337838e-07
atom     11.4748094545    26.7715377879    22.9469075243   Al  0.0 0.0   -1.38797489e-08  3.62337836e-07  3.67991638e-07
atom     15.2981106197     0.0000000000     0.0000000000   Al  0.0 0.0    6.51642144e-15  2.99775477e-15  3.28321668e-15
atom     15.2981106197     3.8226743277     3.8226743277   Al  0.0 0.0    4.47864606e-15  4.11473682e-07  4.11473681e-07
atom     19.1242122877     0.0000000000     3.8209323411   Al  0.0 0.0    7.27163588e-07  2.43618995e-15 -1.78397601e-07
atom     19.1242122877     3.8209323411     0.0000000000   Al  0.0 0.0    7.27163587e-07 -1.78397602e-07  3.62888873e-15
atom     15.2981106197     0.0000000000     7.6454198965   Al  0.0 0.0    3.99280512e-15 -2.24936618e-16  9.05533255e-08
atom     15.2981106197     3.8240002650    11.4734918123   Al  0.0 0.0    5.28706740e-15 -1.59464639e-06  3.09999379e-07
atom     19.1229499201     0.0000000000    11.4732713192   Al  0.0 0.0   -3.53793411e-07  1.07968870e-16  3.53793402e-07
atom     19.1214117849     3.8246834515     7.6493137150   Al  0.0 0.0    1.38797433e-08 -3.62337845e-07 -3.67991630e-07
atom     15.2981106197     0.0000000000    15.2981106197   Al  0.0 0.0    6.65101671e-15 -2.31219188e-15  3.67363497e-15
atom     15.2981106197     3.8240002650    19.1227294270   Al  0.0 0.0    3.04779287e-15 -1.59464639e-06 -3.09999387e-07
atom     19.1229499201     0.0000000000    19.1229499201   Al  0.0 0.0   -3.53793413e-07 -2.66415422e-15 -3.53793413e-07
atom     19.1227294270     3.8240002650    15.2981106197   Al  0.0 0.0   -3.09999387e-07 -1.59464639e-06  3.65245525e-15
atom     15.2981106197     0.0000000000    22.9508013428   Al  0.0 0.0    3.20968924e-15  1.18814660e-15 -9.05533178e-08
atom     15.2981106197     3.8226743277    26.7735469116   Al  0.0 0.0    2.54714226e-15  4.11473683e-07 -4.11473687e-07
atom     19.1242122877     0.0000000000    26.7752888982   Al  0.0 0.0    7.27163591e-07  1.44552792e-15  1.78397597e-07
atom     19.1214117849     3.8246834515    22.9469075243   Al  0.0 0.0    1.38797444e-08 -3.62337841e-07  3.67991638e-07
atom     15.2981106197     7.6454198965     0.0000000000   Al  0.0 0.0    3.56293055e-15  9.05533247e-08  1.67305040e-15
atom     15.2981106197    11.4734918123     3.8240002650   Al  0.0 0.0    5.21223685e-15  3.09999380e-07 -1.59464639e-06
atom     19.1214117849     7.6493137150     3.8246834515   Al  0.0 0.0    1.38797436e-08 -3.67991629e-07 -3.62337844e-07
atom     19.1229499201    11.4732713192     0.0000000000   Al  0.0 0.0   -3.53793409e-07  3.53793402e-07  1.80293325e-15
atom     15.2981106197     7.6483152112     7.6483152112   Al  0.0 0.0    4.34530741e-15  1.05151551e-07  1.05151549e-07
atom     15.2981106197    11.4736627914    11.4736627914   Al  0.0 0.0    2.17066071e-15 -4.39521388e-07 -4.39521388e-07
atom     19.1225791817     7.6488997848    11.4736420577   Al  0.0 0.0   -1.04894986e-07 -3.65322052e-07  1.04894978e-07
atom     19.1225791817    11.4736420577     7.6488997848   Al  0.0 0.0   -1.04894986e-07  1.04894980e-07 -3.65322055e-07
atom     15.2981106197     7.6495931807    15.2981106197   Al  0.0 0.0    3.46990628e-15 -1.03597725e-06  6.38946339e-15
atom     15.2981106197    11.4736627914    19.1225584479   Al  0.0 0.0    2.34765877e-15 -4.39521388e-07  4.39521381e-07
atom     19.1225791817     7.6488997848    19.1225791817   Al  0.0 0.0   -1.04894986e-07 -3.65322051e-07 -1.04894986e-07
atom     19.1225584479    11.4736627914    15.2981106197   Al  0.0 0.0    4.39521383e-07 -4.39521387e-07  5.29115752e-15
atom     15.2981106197     7.6483152112    22.9479060282   Al  0.0 0.0    2.88056636e-15  1.05151551e-07 -1.05151544e-07
atom     15.2981106197    11.4734918123    26.7722209744   Al  0.0 0.0    4.80331592e-15  3.09999380e-07  1.59464638e-06
atom     19.1214117849     7.6493137150    26.7715377879   Al  0.0 0.0    1.38797417e-08 -3.67991627e-07  3.62337839e-07
atom     19.1225791817    11.4736420577    22.9473214545   Al  0.0 0.0   -1.04894985e-07  1.04894977e-07  3.65322061e-07
atom     15.2981106197    15.2981106197     0.0000000000   Al  0.0 0.0    7.58196779e-15  5.26560498e-15  1.63644555e-15
atom     15.2981106197    19.1227294270     3.8240002650   Al  0.0 0.0    4.79294979e-15 -3.09999389e-07 -1.59464639e-06
atom     19.1227294270    15.2981106197     3.8240002650   Al  0.0 0.0   -3.09999387e-07  3.96293594e-15 -1.59464639e-06
atom     19.1229499201    19.1229499201     0.0000000000   Al  0.0 0.0   -3.53793412e-07 -3.53793412e-07  9.19704150e-16
atom     15.2981106197    15.2981106197     7.6495931807   Al  0.0 0.0    4.95574858e-15  4.15987167e-15 -1.03597725e-06
atom     15.2981106197    19.1225584479    11.4736627914   Al  0.0 0.0    3.92220620e-15  4.39521382e-07 -4.39521389e-07
atom     19.1225584479    15.2981106197    11.4736627914   Al  0.0 0.0    4.39521384e-07  3.72234055e-15 -4.39521387e-07
atom     19.1225791817    19.1225791817     7.6488997848   Al  0.0 0.0   -1.04894984e-07 -1.04894986e-07 -3.65322054e-07
atom     15.2981106197    15.2981106197    15.2981106197   Al  0.0 0.0    4.56096895e-15  1.82467945e-15  6.00609905e-15
atom     15.2981106197    19.1225584479    19.1225584479   Al  0.0 0.0    3.29197524e-15  4.39521381e-07  4.39521382e-07
atom     19.1225584479    15.2981106197    19.1225584479   Al  0.0 0.0    4.39521380e-07  3.54864535e-15  4.39521379e-07
atom     19.1225584479    19.1225584479    15.2981106197   Al  0.0 0.0    4.39521382e-07  4.39521381e-07  4.99385395e-15
atom     15.2981106197    15.2981106197    22.9466280586   Al  0.0 0.0    2.24701145e-15  2.99657240e-15  1.03597726e-06
atom     15.2981106197    19.1227294270    26.7722209744   Al  0.0 0.0    4.87938519e-15 -3.09999387e-07  1.59464638e-06
atom     19.1227294270    15.2981106197    26.7722209744   Al  0.0 0.0   -3.09999388e-07  5.22388807e-15  1.59464639e-06
atom     19.1225791817    19.1225791817    22.9473214545   Al  0.0 0.0   -1.04894985e-07 -1.04894983e-07  3.65322061e-07
atom     15.2981106197    22.9508013428     0.0000000000   Al  0.0 0.0    3.26739929e-15 -9.05533183e-08  1.41038481e-15
atom     15.2981106197    26.7735469116     3.8226743277   Al  0.0 0.0    5.15871416e-15 -4.11473688e-07  4.11473684e-07
atom     19.1214117849    22.9469075243     3.8246834515   Al  0.0 0.0    1.38797435e-08  3.67991638e-07 -3.62337841e-07
atom     19.1242122877    26.7752888982     0.0000000000   Al  0.0 0.0    7.27163590e-07  1.78397596e-07  3.06496398e-15
atom     15.2981106197    22.9479060282     7.6483152112   Al  0.0 0.0    5.57274804e-15 -1.05151541e-07  1.05151550e-07
atom     15.2981106197    26.7722209744    11.4734918123   Al  0.0 0.0    5.12506560e-15  1.59464638e-06  3.09999380e-07
atom     19.1225791817    22.9473214545    11.4736420577   Al  0.0 0.0   -1.04894986e-07  3.65322062e-07  1.04894978e-07
atom     19.1214117849    26.7715377879     7.6493137150   Al  0.0 0.0    1.38797411e-08  3.62337837e-07 -3.67991630e-07
atom     15.2981106197    22.9466280586    15.2981106197   Al  0.0 0.0    4.86125368e-15  1.03597726e-06  4.41748089e-15
atom     15.2981106197    26.7722209744    19.1227294270   Al  0.0 0.0    6.07162545e-15  1.59464638e-06 -3.09999389e-07
atom     19.1225791817    22.9473214545    19.1225791817   Al  0.0 0.0   -1.04894985e-07  3.65322064e-07 -1.04894984e-07
atom     19.1227294270    26.7722209744    15.2981106197   Al  0.0 0.0   -3.09999388e-07  1.59464638e-06  6.07217549e-15
atom     15.2981106197    22.9479060282    22.9479060282   Al  0.0 0.0    5.42376795e-15 -1.05151543e-07 -1.05151542e-07
atom     15.2981106197    26.7735469116    26.7735469116   Al  0.0 0.0    5.03838352e-15 -4.11473690e-07 -4.11473690e-07
atom     19.1214117849    22.9469075243    26.7715377879   Al  0.0 0.0    1.38797418e-08  3.67991637e-07  3.62337834e-07
atom     19.1214117849    26.7715377879    22.9469075243   Al  0.0 0.0    1.38797413e-08  3.62337833e-07  3.67991635e-07
atom     22.9569724302     0.0000000000     0.0000000000   Al  0.0 0.0   -1.98500176e-07 -1.05280191e-15 -6.21128835e-16
atom     22.9388498712     3.8293470694     3.8293470694   Al  0.0 0.0   -1.04015473e-06 -4.02251630e-07 -4.02251628e-07
atom     26.7336024840     0.0000000000     3.8626187554   Al  0.0 0.0    2.67187053e-07  1.83734309e-15 -2.67187053e-07
atom     26.7336024840     3.8626187554     0.0000000000   Al  0.0 0.0    2.67187055e-07 -2.67187053e-07  3.19551422e-15
atom     22.9420656060     0.0000000000     7.6541556333   Al  0.0 0.0    3.00465025e-07  3.62718729e-15 -3.00465012e-07
atom     22.9469075243     3.8246834515    11.4748094545   Al  0.0 0.0    3.67991640e-07 -3.62337846e-07 -1.38797528e-08
atom     26.7752888982     0.0000000000    11.4720089517   Al  0.0 0.0    1.78397593e-07  1.03418019e-15 -7.27163598e-07
atom     26.7668741700     3.8293470694     7.6573713682   Al  0.0 0.0    4.02251621e-07 -4.02251633e-07  1.04015474e-06
atom     22.9508013428     0.0000000000    15.2981106197   Al  0.0 0.0   -9.05533168e-08 -2.38088142e-15  1.86131259e-15
atom     22.9469075243     3.8246834515    19.1214117849   Al  0.0 0.0    3.67991639e-07 -3.62337840e-07  1.38797436e-08
atom     26.7752888982     0.0000000000    19.1242122877   Al  0.0 0.0    1.78397596e-07  2.00035061e-15  7.27163589e-07
atom     26.7735469116     3.8226743277    15.2981106197   Al  0.0 0.0   -4.11473687e-07  4.11473683e-07  4.11408719e-15
atom     22.9420656060     0.0000000000    22.9420656060   Al  0.0 0.0    3.00465029e-07  4.62007583e-15  3.00465028e-07
atom     22.9388498712     3.8293470694    26.7668741700   Al  0.0 0.0   -1.04015472e-06 -4.02251635e-07  4.02251620e-07
atom     26.7336024840     0.0000000000    26.7336024840   Al  0.0 0.0    2.67187038e-07  4.15075450e-15  2.67187038e-07
atom     26.7668741700     3.8293470694    22.9388498712   Al  0.0 0.0    4.02251621e-07 -4.02251632e-07 -1.04015472e-06
atom     22.9420656060     7.6541556333     0.0000000000   Al  0.0 0.0    3.00465024e-07 -3.00465009e-07  5.49989645e-15
atom     22.9469075243    11.4748094545     3.8246834515   Al  0.0 0.0    3.67991640e-07 -1.38797520e-08 -3.62337846e-07
atom     26.7668741700     7.6573713682     3.8293470694   Al  0.0 0.0    4.02251622e-07  1.04015474e-06 -4.02251633e-07
atom     26.7752888982    11.4720089517     0.0000000000   Al  0.0 0.0    1.78397595e-07 -7.27163598e-07  2.40403753e-15
atom     22.9448417544     7.6513794850     7.6513794850   Al  0.0 0.0   -3.92935211e-07  3.92935221e-07  3.92935219e-07
atom     22.9473214545    11.4736420577    11.4736420577   Al  0.0 0.0    3.65322060e-07  1.04894982e-07  1.04894981e-07
atom     26.7715377879     7.6493137150    11.4748094545   Al  0.0 0.0    3.62337840e-07 -3.67991629e-07 -1.38797514e-08
atom     26.7715377879    11.4748094545     7.6493137150   Al  0.0 0.0    3.62337840e-07 -1.38797518e-08 -3.67991630e-07
atom     22.9479060282     7.6483152112    15.2981106197   Al  0.0 0.0   -1.05151541e-07  1.05151553e-07  6.21813225e-15
atom     22.9473214545    11.4736420577    19.1225791817   Al  0.0 0.0    3.65322060e-07  1.04894977e-07 -1.04894987e-07
atom     26.7715377879     7.6493137150    19.1214117849   Al  0.0 0.0    3.62337836e-07 -3.67991630e-07  1.38797435e-08
atom     26.7722209744    11.4734918123    15.2981106197   Al  0.0 0.0    1.59464638e-06  3.09999379e-07  4.03752442e-15
atom     22.9448417544     7.6513794850    22.9448417544   Al  0.0 0.0   -3.92935212e-07  3.92935223e-07 -3.92935216e-07
atom     22.9469075243    11.4748094545    26.7715377879   Al  0.0 0.0    3.67991639e-07 -1.38797505e-08  3.62337837e-07
atom     26.7668741700     7.6573713682    26.7668741700   Al  0.0 0.0    4.02251628e-07  1.04015473e-06  4.02251624e-07
atom     26.7715377879    11.4748094545    22.9469075243   Al  0.0 0.0    3.62337838e-07 -1.38797525e-08  3.67991640e-07
atom     22.9508013428    15.2981106197     0.0000000000   Al  0.0 0.0   -9.05533171e-08  2.81400509e-15  2.80440156e-15
atom     22.9469075243    19.1214117849     3.8246834515   Al  0.0 0.0    3.67991637e-07  1.38797434e-08 -3.62337840e-07
atom     26.7735469116    15.2981106197     3.8226743277   Al  0.0 0.0   -4.11473688e-07  2.27759381e-15  4.11473682e-07
atom     26.7752888982    19.1242122877     0.0000000000   Al  0.0 0.0    1.78397597e-07  7.27163590e-07  7.16579912e-16
atom     22.9479060282    15.2981106197     7.6483152112   Al  0.0 0.0   -1.05151542e-07  6.05997949e-15  1.05151550e-07
atom     22.9473214545    19.1225791817    11.4736420577   Al  0.0 0.0    3.65322063e-07 -1.04894986e-07  1.04894977e-07
atom     26.7722209744    15.2981106197    11.4734918123   Al  0.0 0.0    1.59464638e-06  6.01305253e-15  3.09999379e-07
atom     26.7715377879    19.1214117849     7.6493137150   Al  0.0 0.0    3.62337836e-07  1.38797425e-08 -3.67991626e-07
atom     22.9466280586    15.2981106197    15.2981106197   Al  0.0 0.0    1.03597726e-06  2.37745580e-15  1.80601115e-15
atom     22.9473214545    19.1225791817    19.1225791817   Al  0.0 0.0    3.65322062e-07 -1.04894984e-07 -1.04894985e-07
atom     26.7722209744    15.2981106197    19.1227294270   Al  0.0 0.0    1.59464638e-06  4.60842830e-15 -3.09999388e-07
atom     26.7722209744    19.1227294270    15.2981106197   Al  0.0 0.0    1.59464638e-06 -3.09999386e-07  2.36126399e-15
atom     22.9479060282    15.2981106197    22.9479060282   Al  0.0 0.0   -1.05151542e-07  3.55457270e-15 -1.05151541e-07
atom     22.9469075243    19.1214117849    26.7715377879   Al  0.0 0.0    3.67991638e-07  1.38797424e-08  3.62337835e-07
atom     26.7735469116    15.2981106197    26.7735469116   Al  0.0 0.0   -4.11473687e-07  3.15708162e-15 -4.11473688e-07
atom     26.7715377879    19.1214117849    22.9469075243   Al  0.0 0.0    3.62337834e-07  1.38797413e-08  3.67991639e-07
atom     22.9420656060    22.9420656060     0.0000000000   Al  0.0 0.0    3.00465027e-07  3.00465027e-07  3.98691098e-15
atom     22.9388498712    26.7668741700     3.8293470694   Al  0.0 0.0   -1.04015472e-06  4.02251622e-07 -4.02251634e-07
atom     26.7668741700    22.9388498712     3.8293470694   Al  0.0 0.0    4.02251622e-07 -1.04015472e-06 -4.02251635e-07
atom     26.7336024840    26.7336024840     0.0000000000   Al  0.0 0.0    2.67187040e-07  2.67187039e-07  4.47407075e-15
atom     22.9448417544    22.9448417544     7.6513794850   Al  0.0 0.0   -3.92935214e-07 -3.92935217e-07  3.92935222e-07
atom     22.9469075243    26.7715377879    11.4748094545   Al  0.0 0.0    3.67991640e-07  3.62337837e-07 -1.38797492e-08