begin
comment 8 atoms, species Al8
lattice     10.9433301400    -0.0000000000     0.0000000000
lattice     -0.0000000000    10.9433301400     0.0000000000
lattice      0.0000000000     0.0000000000    10.9433301400
atom      0.0000000000     0.0000000000     0.0000000000   Al  0.0 0.0    3.22184911e-13  3.21425165e-13  3.21647192e-13
atom      0.0000000000     5.4716650700     5.4716650700   Al  0.0 0.0    3.22286386e-13  1.43877839e-14  1.41955703e-14
atom      5.4716650700     5.4716650700     0.0000000000   Al  0.0 0.0    1.36073499e-14  1.44173970e-14  3.22127483e-13
atom      5.4716650700     0.0000000000     5.4716650700   Al  0.0 0.0    1.36545789e-14  3.21492805e-13  1.42731548e-14
atom      8.2074976050     2.7358325350     8.2074976050   Al  0.0 0.0   -3.21671599e-13 -1.53837507e-14 -3.21730184e-13
atom      2.7358325350     2.7358325350     2.7358325350   Al  0.0 0.0   -1.41827341e-14 -1.53294076e-14 -1.43028684e-14
atom      2.7358325350     8.2074976050     8.2074976050   Al  0.0 0.0   -1.42777319e-14 -3.20535477e-13 -3.21715725e-13
atom      8.2074976050     8.2074976050     2.7358325350   Al  0.0 0.0   -3.21658577e-13 -3.20605240e-13 -1.44111982e-14
energy -1.577582244116628e+02
charge 0.0000
end
