begin
comment 8 atoms, species Al8
lattice     10.9433301400    -0.0000000000     0.0000000000
lattice     -0.0000000000    10.9433301400     0.0000000000
lattice      0.0000000000     0.0000000000    10.9433301400
atom      0.0000000000     0.0000000000     0.0000000000   Al  0.0 0.0    3.21373112e-13  3.21153143e-13  3.21466524e-13
atom      0.0000000000     5.4716650700     5.4716650700   Al  0.0 0.0    3.21465951e-13  1.46712675e-14  1.43641652e-14
atom      5.4716650700     5.4716650700     0.0000000000   Al  0.0 0.0    1.44339924e-14  1.46837261e-14  3.21941200e-13
atom      5.4716650700     0.0000000000     5.4716650700   Al  0.0 0.0    1.44787925e-14  3.21202927e-13  1.44551695e-14
atom      8.2074976050     2.7358325350     8.2074976050   Al  0.0 0.0   -3.21975147e-13 -1.50912683e-14 -3.20865864e-13
atom      2.7358325350     2.7358325350     2.7358325350   Al  0.0 0.0   -1.38955818e-14 -1.50220642e-14 -1.51822380e-14
atom      2.7358325350     8.2074976050     8.2074976050   Al  0.0 0.0   -1.39862615e-14 -3.20826827e-13 -3.20848175e-13
atom      8.2074976050     8.2074976050     2.7358325350   Al  0.0 0.0   -3.21934530e-13 -3.20912789e-13 -1.52819153e-14
energy -1.577582244116628e+02
charge 0.0000
end
