begin
comment 256 atoms, species Al255Si
lattice     30.5962212394     0.0000000000     0.0000000000
lattice      0.0000000000    30.5962212394     0.0000000000
lattice      0.0000000000     0.0000000000    30.5962212394
atom      0.0000000000     0.0000000000     0.0000000000   Si  0.0 0.0    3.21049256e-15  6.36916816e-16  2.39113686e-15
atom      0.0000000000     3.7997935880     3.7997935880   Al  0.0 0.0    7.15074066e-15  1.52734362e-07  1.52734362e-07
atom      3.7997935880     0.0000000000     3.7997935880   Al  0.0 0.0    1.52734361e-07  5.69284886e-15  1.52734360e-07
atom      3.7997935880     3.7997935880     0.0000000000   Al  0.0 0.0    1.52734362e-07  1.52734361e-07  5.86750656e-15
atom      0.0000000000     0.0000000000     7.6326758288   Al  0.0 0.0    9.17807927e-15  7.46029302e-15 -1.18651753e-06
atom      0.0000000000     3.8216632300    11.4634550715   Al  0.0 0.0    3.22776488e-15 -2.88692697e-07  6.23871687e-07
atom      3.8216632300     0.0000000000    11.4634550715   Al  0.0 0.0   -2.88692699e-07  4.34479823e-15  6.23871685e-07
atom      3.8232766399     3.8232766399     7.6413064285   Al  0.0 0.0    5.69255086e-07  5.69255087e-07 -1.32784764e-06
atom      0.0000000000     0.0000000000    15.2981106197   Al  0.0 0.0    1.15292739e-15  3.51653649e-15  9.22457190e-15
atom      0.0000000000     3.8216632300    19.1327661679   Al  0.0 0.0    4.03308682e-15 -2.88692691e-07 -6.23871710e-07
atom      3.8216632300     0.0000000000    19.1327661679   Al  0.0 0.0   -2.88692694e-07  4.59578663e-15 -6.23871706e-07
atom      3.8218819757     3.8218819757    15.2981106197   Al  0.0 0.0   -3.10629823e-07 -3.10629819e-07  1.43826403e-14
atom      0.0000000000     0.0000000000    22.9635454106   Al  0.0 0.0    1.06203180e-14  8.42079597e-15  1.18651757e-06
atom      0.0000000000     3.7997935880    26.7964276514   Al  0.0 0.0    6.59154928e-15  1.52734350e-07 -1.52734378e-07
atom      3.7997935880     0.0000000000    26.7964276514   Al  0.0 0.0    1.52734349e-07  6.60936136e-15 -1.52734379e-07
atom      3.8232766399     3.8232766399    22.9549148109   Al  0.0 0.0    5.69255086e-07  5.69255085e-07  1.32784766e-06
atom      0.0000000000     7.6326758288     0.0000000000   Al  0.0 0.0    1.05792963e-14 -1.18651753e-06  9.25389025e-15
atom      0.0000000000    11.4634550715     3.8216632300   Al  0.0 0.0    5.12556109e-15  6.23871683e-07 -2.88692696e-07
atom      3.8232766399     7.6413064285     3.8232766399   Al  0.0 0.0    5.69255087e-07 -1.32784764e-06  5.69255086e-07
atom      3.8216632300    11.4634550715     0.0000000000   Al  0.0 0.0   -2.88692696e-07  6.23871684e-07  4.63447765e-15
atom      0.0000000000     7.6404561656     7.6404561656   Al  0.0 0.0    1.50053284e-15 -1.97172013e-07 -1.97172014e-07
atom      0.0000000000    11.4698948300    11.4698948300   Al  0.0 0.0    4.86431724e-15 -6.64079068e-07 -6.64079069e-07
atom      3.8238279694     7.6471610845    11.4709999121   Al  0.0 0.0    8.08513614e-07  6.86390054e-07  3.38529256e-07
atom      3.8238279694    11.4709999121     7.6471610845   Al  0.0 0.0    8.08513614e-07  3.38529255e-07  6.86390054e-07
atom      0.0000000000     7.6463536386    15.2981106197   Al  0.0 0.0    5.53577870e-15 -8.44629156e-07  1.56428933e-14
atom      0.0000000000    11.4698948300    19.1263264094   Al  0.0 0.0    4.79090988e-15 -6.64079071e-07  6.64079045e-07
atom      3.8238279694     7.6471610845    19.1252213272   Al  0.0 0.0    8.08513610e-07  6.86390052e-07 -3.38529280e-07
atom      3.8227908108    11.4724813421    15.2981106197   Al  0.0 0.0    7.85423019e-07 -6.81159514e-07  1.46460174e-14
atom      0.0000000000     7.6404561656    22.9557650738   Al  0.0 0.0    7.98844820e-17 -1.97172017e-07  1.97172030e-07
atom      0.0000000000    11.4634550715    26.7745580094   Al  0.0 0.0    3.65309577e-15  6.23871690e-07  2.88692681e-07
atom      3.8232766399     7.6413064285    26.7729445994   Al  0.0 0.0    5.69255094e-07 -1.32784764e-06 -5.69255103e-07
atom      3.8238279694    11.4709999121    22.9490601549   Al  0.0 0.0    8.08513613e-07  3.38529254e-07 -6.86390034e-07
atom      0.0000000000    15.2981106197     0.0000000000   Al  0.0 0.0    2.96868007e-15  9.49948369e-15  2.39869175e-15
atom      0.0000000000    19.1327661679     3.8216632300   Al  0.0 0.0    5.21192269e-15 -6.23871707e-07 -2.88692691e-07
atom      3.8218819757    15.2981106197     3.8218819757   Al  0.0 0.0   -3.10629821e-07  1.30223365e-14 -3.10629819e-07
atom      3.8216632300    19.1327661679     0.0000000000   Al  0.0 0.0   -2.88692690e-07 -6.23871706e-07  4.23178650e-15
atom      0.0000000000    15.2981106197     7.6463536386   Al  0.0 0.0    7.13994546e-15  1.51467487e-14 -8.44629152e-07
atom      0.0000000000    19.1263264094    11.4698948300   Al  0.0 0.0    7.09892369e-15  6.64079044e-07 -6.64079070e-07
atom      3.8227908108    15.2981106197    11.4724813421   Al  0.0 0.0    7.85423018e-07  1.48548365e-14 -6.81159513e-07
atom      3.8238279694    19.1252213272     7.6471610845   Al  0.0 0.0    8.08513612e-07 -3.38529278e-07  6.86390053e-07
atom      0.0000000000    15.2981106197    15.2981106197   Al  0.0 0.0    6.69302416e-15  1.53656625e-14  1.28917753e-14
atom      0.0000000000    19.1263264094    19.1263264094   Al  0.0 0.0    7.00608497e-15  6.64079046e-07  6.64079048e-07
atom      3.8227908108    15.2981106197    19.1237398973   Al  0.0 0.0    7.85423019e-07  1.49292496e-14  6.81159488e-07
atom      3.8227908108    19.1237398973    15.2981106197   Al  0.0 0.0    7.85423019e-07  6.81159488e-07  1.27266581e-14
atom      0.0000000000    15.2981106197    22.9498676007   Al  0.0 0.0    5.44941709e-15  1.56687488e-14  8.44629174e-07
atom      0.0000000000    19.1327661679    26.7745580094   Al  0.0 0.0    4.15399306e-15 -6.23871713e-07  2.88692675e-07
atom      3.8218819757    15.2981106197    26.7743392636   Al  0.0 0.0   -3.10629825e-07  1.41555353e-14  3.10629808e-07
atom      3.8238279694    19.1252213272    22.9490601549   Al  0.0 0.0    8.08513609e-07 -3.38529280e-07 -6.86390032e-07
atom      0.0000000000    22.9635454106     0.0000000000   Al  0.0 0.0    1.06656579e-14  1.18651757e-06  9.75670200e-15
atom      0.0000000000    26.7964276514     3.7997935880   Al  0.0 0.0    6.77290865e-15 -1.52734379e-07  1.52734351e-07
atom      3.8232766399    22.9549148109     3.8232766399   Al  0.0 0.0    5.69255085e-07  1.32784766e-06  5.69255086e-07
atom      3.7997935880    26.7964276514     0.0000000000   Al  0.0 0.0    1.52734350e-07 -1.52734378e-07  6.91756433e-15
atom      0.0000000000    22.9557650738     7.6404561656   Al  0.0 0.0    2.81107015e-15  1.97172032e-07 -1.97172017e-07
atom      0.0000000000    26.7745580094    11.4634550715   Al  0.0 0.0    3.81718281e-15  2.88692682e-07  6.23871690e-07
atom      3.8238279694    22.9490601549    11.4709999121   Al  0.0 0.0    8.08513613e-07 -6.86390035e-07  3.38529253e-07
atom      3.8232766399    26.7729445994     7.6413064285   Al  0.0 0.0    5.69255093e-07 -5.69255104e-07 -1.32784764e-06
atom      0.0000000000    22.9498676007    15.2981106197   Al  0.0 0.0    6.37564528e-15  8.44629176e-07  1.44991990e-14
atom      0.0000000000    26.7745580094    19.1327661679   Al  0.0 0.0    4.34182955e-15  2.88692678e-07 -6.23871713e-07
atom      3.8238279694    22.9490601549    19.1252213272   Al  0.0 0.0    8.08513610e-07 -6.86390032e-07 -3.38529278e-07
atom      3.8218819757    26.7743392636    15.2981106197   Al  0.0 0.0   -3.10629825e-07  3.10629806e-07  1.32448916e-14
atom      0.0000000000    22.9557650738    22.9557650738   Al  0.0 0.0    1.94745413e-15  1.97172032e-07  1.97172032e-07
atom      0.0000000000    26.7964276514    26.7964276514   Al  0.0 0.0    7.50050514e-15 -1.52734366e-07 -1.52734367e-07
atom      3.8232766399    22.9549148109    26.7729445994   Al  0.0 0.0    5.69255093e-07  1.32784766e-06 -5.69255100e-07
atom      3.8232766399    26.7729445994    22.9549148109   Al  0.0 0.0    5.69255092e-07 -5.69255100e-07  1.32784766e-06
atom      7.6326758288     0.0000000000     0.0000000000   Al  0.0 0.0   -1.18651754e-06  1.08628052e-14  7.90174503e-15
atom      7.6413064285     3.8232766399     3.8232766399   Al  0.0 0.0   -1.32784764e-06  5.69255086e-07  5.69255085e-07
atom     11.4634550715     0.0000000000     3.8216632300   Al  0.0 0.0    6.23871684e-07  4.67760653e-15 -2.88692697e-07
atom     11.4634550715     3.8216632300     0.0000000000   Al  0.0 0.0    6.23871683e-07 -2.88692697e-07  1.50331031e-15
atom      7.6404561656     0.0000000000     7.6404561656   Al  0.0 0.0   -1.97172016e-07  1.37716394e-15 -1.97172016e-07
atom      7.6471610845     3.8238279694    11.4709999121   Al  0.0 0.0    6.86390053e-07  8.08513616e-07  3.38529255e-07
atom     11.4698948300     0.0000000000    11.4698948300   Al  0.0 0.0   -6.64079067e-07  4.98482690e-15 -6.64079068e-07
atom     11.4709999121     3.8238279694     7.6471610845   Al  0.0 0.0    3.38529256e-07  8.08513616e-07  6.86390055e-07
atom      7.6463536386     0.0000000000    15.2981106197   Al  0.0 0.0   -8.44629154e-07  4.88872451e-15  1.51220056e-14
atom      7.6471610845     3.8238279694    19.1252213272   Al  0.0 0.0    6.86390052e-07  8.08513613e-07 -3.38529279e-07
atom     11.4698948300     0.0000000000    19.1263264094   Al  0.0 0.0   -6.64079069e-07  6.07311302e-15  6.64079046e-07
atom     11.4724813421     3.8227908108    15.2981106197   Al  0.0 0.0   -6.81159511e-07  7.85423021e-07  1.38100167e-14
atom      7.6404561656     0.0000000000    22.9557650738   Al  0.0 0.0   -1.97172018e-07  2.21028352e-15  1.97172034e-07
atom      7.6413064285     3.8232766399    26.7729445994   Al  0.0 0.0   -1.32784764e-06  5.69255094e-07 -5.69255104e-07
atom     11.4634550715     0.0000000000    26.7745580094   Al  0.0 0.0    6.23871690e-07  6.94185017e-15  2.88692679e-07
atom     11.4709999121     3.8238279694    22.9490601549   Al  0.0 0.0    3.38529255e-07  8.08513614e-07 -6.86390030e-07
atom      7.6404561656     7.6404561656     0.0000000000   Al  0.0 0.0   -1.97172017e-07 -1.97172016e-07  1.51345650e-15
atom      7.6471610845    11.4709999121     3.8238279694   Al  0.0 0.0    6.86390054e-07  3.38529255e-07  8.08513616e-07
atom     11.4709999121     7.6471610845     3.8238279694   Al  0.0 0.0    3.38529256e-07  6.86390057e-07  8.08513616e-07
atom     11.4698948300    11.4698948300     0.0000000000   Al  0.0 0.0   -6.64079066e-07 -6.64079066e-07  5.20368884e-15
atom      7.6508782890     7.6508782890     7.6508782890   Al  0.0 0.0    7.46750159e-07  7.46750162e-07  7.46750159e-07
atom      7.6493103512    11.4750979104    11.4750979104   Al  0.0 0.0   -1.47499195e-07  9.41026363e-08  9.41026368e-08
atom     11.4750979104     7.6493103512    11.4750979104   Al  0.0 0.0    9.41026384e-08 -1.47499195e-07  9.41026375e-08
atom     11.4750979104    11.4750979104     7.6493103512   Al  0.0 0.0    9.41026381e-08  9.41026372e-08 -1.47499197e-07
atom      7.6482556046     7.6482556046    15.2981106197   Al  0.0 0.0   -5.92290280e-08 -5.92290261e-08  1.41282941e-14
atom      7.6493103512    11.4750979104    19.1211233290   Al  0.0 0.0   -1.47499195e-07  9.41026405e-08 -9.41026644e-08
atom     11.4750979104     7.6493103512    19.1211233290   Al  0.0 0.0    9.41026402e-08 -1.47499194e-07 -9.41026634e-08
atom     11.4735890296    11.4735890296    15.2981106197   Al  0.0 0.0    1.27723642e-06  1.27723642e-06  1.50208301e-14
atom      7.6508782890     7.6508782890    22.9453429503   Al  0.0 0.0    7.46750158e-07  7.46750158e-07 -7.46750133e-07
atom      7.6471610845    11.4709999121    26.7723932699   Al  0.0 0.0    6.86390054e-07  3.38529250e-07 -8.08513630e-07
atom     11.4709999121     7.6471610845    26.7723932699   Al  0.0 0.0    3.38529252e-07  6.86390052e-07 -8.08513632e-07
atom     11.4750979104    11.4750979104    22.9469108881   Al  0.0 0.0    9.41026397e-08  9.41026390e-08  1.47499219e-07
atom      7.6463536386    15.2981106197     0.0000000000   Al  0.0 0.0   -8.44629152e-07  1.67745262e-14  7.72463100e-15
atom      7.6471610845    19.1252213272     3.8238279694   Al  0.0 0.0    6.86390053e-07 -3.38529278e-07  8.08513611e-07
atom     11.4724813421    15.2981106197     3.8227908108   Al  0.0 0.0   -6.81159512e-07  1.25205937e-14  7.85423018e-07
atom     11.4698948300    19.1263264094     0.0000000000   Al  0.0 0.0   -6.64079073e-07  6.64079043e-07  6.99375984e-15
atom      7.6482556046    15.2981106197     7.6482556046   Al  0.0 0.0   -5.92290285e-08  1.29625418e-14 -5.92290276e-08
atom      7.6493103512    19.1211233290    11.4750979104   Al  0.0 0.0   -1.47499195e-07 -9.41026627e-08  9.41026391e-08
atom     11.4735890296    15.2981106197    11.4735890296   Al  0.0 0.0    1.27723642e-06  1.55473337e-14  1.27723642e-06
atom     11.4750979104    19.1211233290     7.6493103512   Al  0.0 0.0    9.41026408e-08 -9.41026619e-08 -1.47499194e-07
atom      7.6471254520    15.2981106197    15.2981106197   Al  0.0 0.0    9.70145861e-07  1.56648308e-14  1.60952354e-14
atom      7.6493103512    19.1211233290    19.1211233290   Al  0.0 0.0   -1.47499195e-07 -9.41026674e-08 -9.41026653e-08
atom     11.4735890296    15.2981106197    19.1226322098   Al  0.0 0.0    1.27723642e-06  1.38471998e-14 -1.27723645e-06
atom     11.4735890296    19.1226322098    15.2981106197   Al  0.0 0.0    1.27723642e-06 -1.27723645e-06  1.31378376e-14
atom      7.6482556046    15.2981106197    22.9479656348   Al  0.0 0.0   -5.92290248e-08  1.23355209e-14  5.92290434e-08
atom      7.6471610845    19.1252213272    26.7723932699   Al  0.0 0.0    6.86390051e-07 -3.38529274e-07 -8.08513625e-07
atom     11.4724813421    15.2981106197    26.7734304286   Al  0.0 0.0   -6.81159509e-07  1.20631777e-14 -7.85423036e-07
atom     11.4750979104    19.1211233290    22.9469108881   Al  0.0 0.0    9.41026442e-08 -9.41026640e-08  1.47499215e-07
atom      7.6404561656    22.9557650738     0.0000000000   Al  0.0 0.0   -1.97172018e-07  1.97172028e-07  1.41352078e-15
atom      7.6413064285    26.7729445994     3.8232766399   Al  0.0 0.0   -1.32784764e-06 -5.69255104e-07  5.69255095e-07
atom     11.4709999121    22.9490601549     3.8238279694   Al  0.0 0.0    3.38529254e-07 -6.86390035e-07  8.08513615e-07
atom     11.4634550715    26.7745580094     0.0000000000   Al  0.0 0.0    6.23871689e-07  2.88692681e-07  4.32337346e-15
atom      7.6508782890    22.9453429503     7.6508782890   Al  0.0 0.0    7.46750158e-07 -7.46750136e-07  7.46750158e-07
atom      7.6471610845    26.7723932699    11.4709999121   Al  0.0 0.0    6.86390052e-07 -8.08513630e-07  3.38529250e-07
atom     11.4750979104    22.9469108881    11.4750979104   Al  0.0 0.0    9.41026391e-08  1.47499216e-07  9.41026384e-08
atom     11.4709999121    26.7723932699     7.6471610845   Al  0.0 0.0    3.38529251e-07 -8.08513632e-07  6.86390054e-07
atom      7.6482556046    22.9479656348    15.2981106197   Al  0.0 0.0   -5.92290259e-08  5.92290450e-08  1.14395195e-14
atom      7.6471610845    26.7723932699    19.1252213272   Al  0.0 0.0    6.86390051e-07 -8.08513628e-07 -3.38529274e-07
atom     11.4750979104    22.9469108881    19.1211233290   Al  0.0 0.0    9.41026433e-08  1.47499216e-07 -9.41026641e-08
atom     11.4724813421    26.7734304286    15.2981106197   Al  0.0 0.0   -6.81159511e-07 -7.85423037e-07  1.25520047e-14
atom      7.6508782890    22.9453429503    22.9453429503   Al  0.0 0.0    7.46750157e-07 -7.46750132e-07 -7.46750133e-07
atom      7.6413064285    26.7729445994    26.7729445994   Al  0.0 0.0   -1.32784764e-06 -5.69255111e-07 -5.69255111e-07
atom     11.4709999121    22.9490601549    26.7723932699   Al  0.0 0.0    3.38529250e-07 -6.86390033e-07 -8.08513628e-07
atom     11.4709999121    26.7723932699    22.9490601549   Al  0.0 0.0    3.38529250e-07 -8.08513629e-07 -6.86390033e-07
atom     15.2981106197     0.0000000000     0.0000000000   Al  0.0 0.0    9.71236788e-15  2.91736828e-15  1.62775364e-15
atom     15.2981106197     3.8218819757     3.8218819757   Al  0.0 0.0    1.28350419e-14 -3.10629820e-07 -3.10629819e-07
atom     19.1327661679     0.0000000000     3.8216632300   Al  0.0 0.0   -6.23871707e-07  3.02280788e-15 -2.88692691e-07
atom     19.1327661679     3.8216632300     0.0000000000   Al  0.0 0.0   -6.23871706e-07 -2.88692691e-07  2.29968180e-15
atom     15.2981106197     0.0000000000     7.6463536386   Al  0.0 0.0    1.56531374e-14  5.74806021e-15 -8.44629154e-07
atom     15.2981106197     3.8227908108    11.4724813421   Al  0.0 0.0    1.32302169e-14  7.85423021e-07 -6.81159511e-07
atom     19.1263264094     0.0000000000    11.4698948300   Al  0.0 0.0    6.64079047e-07  6.06401821e-15 -6.64079070e-07
atom     19.1252213272     3.8238279694     7.6471610845   Al  0.0 0.0   -3.38529278e-07  8.08513612e-07  6.86390054e-07
atom     15.2981106197     0.0000000000    15.2981106197   Al  0.0 0.0    1.40490676e-14  7.58791873e-15  1.31453608e-14
atom     15.2981106197     3.8227908108    19.1237398973   Al  0.0 0.0    1.34965684e-14  7.85423019e-07  6.81159489e-07
atom     19.1263264094     0.0000000000    19.1263264094   Al  0.0 0.0    6.64079048e-07  6.75921224e-15  6.64079050e-07
atom     19.1237398973     3.8227908108    15.2981106197   Al  0.0 0.0    6.81159487e-07  7.85423020e-07  1.28564237e-14
atom     15.2981106197     0.0000000000    22.9498676007   Al  0.0 0.0    1.52381874e-14  8.00114811e-15  8.44629176e-07
atom     15.2981106197     3.8218819757    26.7743392636   Al  0.0 0.0    1.28279070e-14 -3.10629823e-07  3.10629804e-07
atom     19.1327661679     0.0000000000    26.7745580094   Al  0.0 0.0   -6.23871715e-07  6.85969194e-15  2.88692674e-07
atom     19.1252213272     3.8238279694    22.9490601549   Al  0.0 0.0   -3.38529278e-07  8.08513611e-07 -6.86390030e-07
atom     15.2981106197     7.6463536386     0.0000000000   Al  0.0 0.0    1.60688116e-14 -8.44629151e-07  4.30453366e-15
atom     15.2981106197    11.4724813421     3.8227908108   Al  0.0 0.0    1.19660810e-14 -6.81159511e-07  7.85423018e-07
atom     19.1252213272     7.6471610845     3.8238279694   Al  0.0 0.0   -3.38529277e-07  6.86390055e-07  8.08513611e-07
atom     19.1263264094    11.4698948300     0.0000000000   Al  0.0 0.0    6.64079043e-07 -6.64079072e-07  4.75061909e-15
atom     15.2981106197     7.6482556046     7.6482556046   Al  0.0 0.0    1.17593044e-14 -5.92290267e-08 -5.92290265e-08
atom     15.2981106197    11.4735890296    11.4735890296   Al  0.0 0.0    1.42472249e-14  1.27723642e-06  1.27723642e-06
atom     19.1211233290     7.6493103512    11.4750979104   Al  0.0 0.0   -9.41026635e-08 -1.47499193e-07  9.41026408e-08
atom     19.1211233290    11.4750979104     7.6493103512   Al  0.0 0.0   -9.41026611e-08  9.41026389e-08 -1.47499194e-07
atom     15.2981106197     7.6471254520    15.2981106197   Al  0.0 0.0    1.49789392e-14  9.70145863e-07  1.38088065e-14
atom     15.2981106197    11.4735890296    19.1226322098   Al  0.0 0.0    1.45857830e-14  1.27723642e-06 -1.27723645e-06
atom     19.1211233290     7.6493103512    19.1211233290   Al  0.0 0.0   -9.41026658e-08 -1.47499194e-07 -9.41026654e-08
atom     19.1226322098    11.4735890296    15.2981106197   Al  0.0 0.0   -1.27723645e-06  1.27723642e-06  1.50805652e-14
atom     15.2981106197     7.6482556046    22.9479656348   Al  0.0 0.0    1.17956444e-14 -5.92290274e-08  5.92290491e-08
atom     15.2981106197    11.4724813421    26.7734304286   Al  0.0 0.0    1.25725404e-14 -6.81159513e-07 -7.85423034e-07
atom     19.1252213272     7.6471610845    26.7723932699   Al  0.0 0.0   -3.38529274e-07  6.86390051e-07 -8.08513627e-07
atom     19.1211233290    11.4750979104    22.9469108881   Al  0.0 0.0   -9.41026653e-08  9.41026406e-08  1.47499216e-07
atom     15.2981106197    15.2981106197     0.0000000000   Al  0.0 0.0    1.19612569e-14  1.16543073e-14  8.02528557e-15
atom     15.2981106197    19.1237398973     3.8227908108   Al  0.0 0.0    1.16562440e-14  6.81159487e-07  7.85423021e-07
atom     19.1237398973    15.2981106197     3.8227908108   Al  0.0 0.0    6.81159487e-07  1.08469255e-14  7.85423019e-07
atom     19.1263264094    19.1263264094     0.0000000000   Al  0.0 0.0    6.64079046e-07  6.64079048e-07  5.34553807e-15
atom     15.2981106197    15.2981106197     7.6471254520   Al  0.0 0.0    1.20380799e-14  1.55279607e-14  9.70145860e-07
atom     15.2981106197    19.1226322098    11.4735890296   Al  0.0 0.0    1.46122671e-14 -1.27723645e-06  1.27723642e-06
atom     19.1226322098    15.2981106197    11.4735890296   Al  0.0 0.0   -1.27723645e-06  1.39872814e-14  1.27723642e-06
atom     19.1211233290    19.1211233290     7.6493103512   Al  0.0 0.0   -9.41026685e-08 -9.41026653e-08 -1.47499193e-07
atom     15.2981106197    15.2981106197    15.2981106197   Al  0.0 0.0    1.26280060e-14  1.21278563e-14  1.38698233e-14
atom     15.2981106197    19.1226322098    19.1226322098   Al  0.0 0.0    1.41995120e-14 -1.27723644e-06 -1.27723644e-06
atom     19.1226322098    15.2981106197    19.1226322098   Al  0.0 0.0   -1.27723644e-06  1.47489081e-14 -1.27723644e-06
atom     19.1226322098    19.1226322098    15.2981106197   Al  0.0 0.0   -1.27723644e-06 -1.27723644e-06  1.40354405e-14
atom     15.2981106197    15.2981106197    22.9490957873   Al  0.0 0.0    1.46683790e-14  1.65865891e-14 -9.70145838e-07
atom     15.2981106197    19.1237398973    26.7734304286   Al  0.0 0.0    1.46200441e-14  6.81159488e-07 -7.85423039e-07
atom     19.1237398973    15.2981106197    26.7734304286   Al  0.0 0.0    6.81159484e-07  1.31588030e-14 -7.85423037e-07
atom     19.1211233290    19.1211233290    22.9469108881   Al  0.0 0.0   -9.41026684e-08 -9.41026680e-08  1.47499215e-07
atom     15.2981106197    22.9498676007     0.0000000000   Al  0.0 0.0    1.55786189e-14  8.44629175e-07  5.33386806e-15
atom     15.2981106197    26.7743392636     3.8218819757   Al  0.0 0.0    1.32700126e-14  3.10629807e-07 -3.10629823e-07
atom     19.1252213272    22.9490601549     3.8238279694   Al  0.0 0.0   -3.38529278e-07 -6.86390031e-07  8.08513610e-07
atom     19.1327661679    26.7745580094     0.0000000000   Al  0.0 0.0   -6.23871713e-07  2.88692675e-07  5.16182621e-15
atom     15.2981106197    22.9479656348     7.6482556046   Al  0.0 0.0    1.10405254e-14  5.92290460e-08 -5.92290253e-08
atom     15.2981106197    26.7734304286    11.4724813421   Al  0.0 0.0    1.26806526e-14 -7.85423037e-07 -6.81159512e-07
atom     19.1211233290    22.9469108881    11.4750979104   Al  0.0 0.0   -9.41026632e-08  1.47499214e-07  9.41026438e-08
atom     19.1252213272    26.7723932699     7.6471610845   Al  0.0 0.0   -3.38529275e-07 -8.08513627e-07  6.86390051e-07
atom     15.2981106197    22.9490957873    15.2981106197   Al  0.0 0.0    1.51365185e-14 -9.70145838e-07  1.60319654e-14
atom     15.2981106197    26.7734304286    19.1237398973   Al  0.0 0.0    1.31548434e-14 -7.85423038e-07  6.81159488e-07
atom     19.1211233290    22.9469108881    19.1211233290   Al  0.0 0.0   -9.41026660e-08  1.47499214e-07 -9.41026683e-08
atom     19.1237398973    26.7734304286    15.2981106197   Al  0.0 0.0    6.81159488e-07 -7.85423037e-07  1.29478744e-14
atom     15.2981106197    22.9479656348    22.9479656348   Al  0.0 0.0    1.22025697e-14  5.92290418e-08  5.92290439e-08
atom     15.2981106197    26.7743392636    26.7743392636   Al  0.0 0.0    1.41383388e-14  3.10629810e-07  3.10629810e-07
atom     19.1252213272    22.9490601549    26.7723932699   Al  0.0 0.0   -3.38529274e-07 -6.86390032e-07 -8.08513624e-07
atom     19.1252213272    26.7723932699    22.9490601549   Al  0.0 0.0   -3.38529275e-07 -8.08513624e-07 -6.86390033e-07
atom     22.9635454106     0.0000000000     0.0000000000   Al  0.0 0.0    1.18651757e-06  9.74266824e-15  1.06945350e-14
atom     22.9549148109     3.8232766399     3.8232766399   Al  0.0 0.0    1.32784766e-06  5.69255086e-07  5.69255085e-07
atom     26.7964276514     0.0000000000     3.7997935880   Al  0.0 0.0   -1.52734379e-07  4.63437947e-15  1.52734352e-07
atom     26.7964276514     3.7997935880     0.0000000000   Al  0.0 0.0   -1.52734379e-07  1.52734350e-07  5.52579314e-15
atom     22.9557650738     0.0000000000     7.6404561656   Al  0.0 0.0    1.97172032e-07  1.45465324e-15 -1.97172016e-07
atom     22.9490601549     3.8238279694    11.4709999121   Al  0.0 0.0   -6.86390031e-07  8.08513613e-07  3.38529253e-07
atom     26.7745580094     0.0000000000    11.4634550715   Al  0.0 0.0    2.88692680e-07  3.85685517e-15  6.23871691e-07
atom     26.7729445994     3.8232766399     7.6413064285   Al  0.0 0.0   -5.69255105e-07  5.69255095e-07 -1.32784764e-06
atom     22.9498676007     0.0000000000    15.2981106197   Al  0.0 0.0    8.44629177e-07  4.45733819e-15  1.51277216e-14
atom     22.9490601549     3.8238279694    19.1252213272   Al  0.0 0.0   -6.86390031e-07  8.08513610e-07 -3.38529276e-07
atom     26.7745580094     0.0000000000    19.1327661679   Al  0.0 0.0    2.88692676e-07  4.42522247e-15 -6.23871714e-07
atom     26.7743392636     3.8218819757    15.2981106197   Al  0.0 0.0    3.10629810e-07 -3.10629824e-07  1.37401140e-14
atom     22.9557650738     0.0000000000    22.9557650738   Al  0.0 0.0    1.97172033e-07  3.95455174e-15  1.97172031e-07
atom     22.9549148109     3.8232766399    26.7729445994   Al  0.0 0.0    1.32784766e-06  5.69255096e-07 -5.69255105e-07
atom     26.7964276514     0.0000000000    26.7964276514   Al  0.0 0.0   -1.52734365e-07  7.14102498e-15 -1.52734369e-07
atom     26.7729445994     3.8232766399    22.9549148109   Al  0.0 0.0   -5.69255104e-07  5.69255093e-07  1.32784766e-06
atom     22.9557650738     7.6404561656     0.0000000000   Al  0.0 0.0    1.97172030e-07 -1.97172017e-07  5.55548784e-16
atom     22.9490601549    11.4709999121     3.8238279694   Al  0.0 0.0   -6.86390035e-07  3.38529253e-07  8.08513615e-07
atom     26.7729445994     7.6413064285     3.8232766399   Al  0.0 0.0   -5.69255105e-07 -1.32784764e-06  5.69255095e-07
atom     26.7745580094    11.4634550715     0.0000000000   Al  0.0 0.0    2.88692682e-07  6.23871688e-07  4.87332463e-15
atom     22.9453429503     7.6508782890     7.6508782890   Al  0.0 0.0   -7.46750134e-07  7.46750160e-07  7.46750159e-07
atom     22.9469108881    11.4750979104    11.4750979104   Al  0.0 0.0    1.47499219e-07  9.41026386e-08  9.41026387e-08
atom     26.7723932699     7.6471610845    11.4709999121   Al  0.0 0.0   -8.08513628e-07  6.86390053e-07  3.38529251e-07
atom     26.7723932699    11.4709999121     7.6471610845   Al  0.0 0.0   -8.08513630e-07  3.38529250e-07  6.86390055e-07
atom     22.9479656348     7.6482556046    15.2981106197   Al  0.0 0.0    5.92290461e-08 -5.92290248e-08  1.17289528e-14
atom     22.9469108881    11.4750979104    19.1211233290   Al  0.0 0.0    1.47499217e-07  9.41026408e-08 -9.41026655e-08
atom     26.7723932699     7.6471610845    19.1252213272   Al  0.0 0.0   -8.08513625e-07  6.86390050e-07 -3.38529274e-07
atom     26.7734304286    11.4724813421    15.2981106197   Al  0.0 0.0   -7.85423036e-07 -6.81159512e-07  1.24902320e-14
atom     22.9453429503     7.6508782890    22.9453429503   Al  0.0 0.0   -7.46750132e-07  7.46750155e-07 -7.46750131e-07
atom     22.9490601549    11.4709999121    26.7723932699   Al  0.0 0.0   -6.86390032e-07  3.38529246e-07 -8.08513629e-07
atom     26.7729445994     7.6413064285    26.7729445994   Al  0.0 0.0   -5.69255112e-07 -1.32784764e-06 -5.69255113e-07
atom     26.7723932699    11.4709999121    22.9490601549   Al  0.0 0.0   -8.08513628e-07  3.38529249e-07 -6.86390033e-07
atom     22.9498676007    15.2981106197     0.0000000000   Al  0.0 0.0    8.44629174e-07  1.47123241e-14  6.50558868e-15
atom     22.9490601549    19.1252213272     3.8238279694   Al  0.0 0.0   -6.86390031e-07 -3.38529278e-07  8.08513610e-07
atom     26.7743392636    15.2981106197     3.8218819757   Al  0.0 0.0    3.10629808e-07  1.24032455e-14 -3.10629822e-07
atom     26.7745580094    19.1327661679     0.0000000000   Al  0.0 0.0    2.88692678e-07 -6.23871713e-07  3.36523922e-15
atom     22.9479656348    15.2981106197     7.6482556046   Al  0.0 0.0    5.92290486e-08  1.03950294e-14 -5.92290257e-08
atom     22.9469108881    19.1211233290    11.4750979104   Al  0.0 0.0    1.47499216e-07 -9.41026622e-08  9.41026443e-08
atom     26.7734304286    15.2981106197    11.4724813421   Al  0.0 0.0   -7.85423037e-07  1.22991525e-14 -6.81159512e-07
atom     26.7723932699    19.1252213272     7.6471610845   Al  0.0 0.0   -8.08513626e-07 -3.38529275e-07  6.86390053e-07
atom     22.9490957873    15.2981106197    15.2981106197   Al  0.0 0.0   -9.70145835e-07  1.67902494e-14  1.45061821e-14
atom     22.9469108881    19.1211233290    19.1211233290   Al  0.0 0.0    1.47499213e-07 -9.41026671e-08 -9.41026696e-08
atom     26.7734304286    15.2981106197    19.1237398973   Al  0.0 0.0   -7.85423035e-07  1.44671423e-14  6.81159486e-07
atom     26.7734304286    19.1237398973    15.2981106197   Al  0.0 0.0   -7.85423038e-07  6.81159486e-07  1.36418785e-14
atom     22.9479656348    15.2981106197    22.9479656348   Al  0.0 0.0    5.92290440e-08  1.37225876e-14  5.92290430e-08
atom     22.9490601549    19.1252213272    26.7723932699   Al  0.0 0.0   -6.86390032e-07 -3.38529271e-07 -8.08513625e-07
atom     26.7743392636    15.2981106197    26.7743392636   Al  0.0 0.0    3.10629812e-07  1.32390597e-14  3.10629810e-07
atom     26.7723932699    19.1252213272    22.9490601549   Al  0.0 0.0   -8.08513624e-07 -3.38529274e-07 -6.86390031e-07
atom     22.9557650738    22.9557650738     0.0000000000   Al  0.0 0.0    1.97172031e-07  1.97172033e-07  6.77097310e-16
atom     22.9549148109    26.7729445994     3.8232766399   Al  0.0 0.0    1.32784766e-06 -5.69255102e-07  5.69255094e-07
atom     26.7729445994    22.9549148109     3.8232766399   Al  0.0 0.0   -5.69255101e-07  1.32784766e-06  5.69255094e-07
atom     26.7964276514    26.7964276514     0.0000000000   Al  0.0 0.0   -1.52734366e-07 -1.52734365e-07  6.76751105e-15
atom     22.9453429503    22.9453429503     7.6508782890   Al  0.0 0.0   -7.46750132e-07 -7.46750131e-07  7.46750159e-07
atom     22.9490601549    26.7723932699    11.4709999121   Al  0.0 0.0   -6.86390030e-07 -8.08513629e-07  3.38529252e-07