
     Program PWSCF v.6.3 starts on 22Feb2020 at 11: 8:35 

     This program is part of the open-source Quantum ESPRESSO suite
     for quantum simulation of materials; please cite
         "P. Giannozzi et al., J. Phys.:Condens. Matter 21 395502 (2009);
         "P. Giannozzi et al., J. Phys.:Condens. Matter 29 465901 (2017);
          URL http://www.quantum-espresso.org", 
     in publications or presentations arising from this work. More details at
     http://www.quantum-espresso.org/quote

 *** WARNING: using old-style file format, will disappear from next version ***

     Parallel version (MPI & OpenMP), running on      36 processor cores
     Number of MPI processes:                36
     Threads/MPI process:                     1

     MPI processes distributed on     1 nodes
     K-points division:     npool     =       4
     R & G space division:  proc/nbgrp/npool/nimage =       9
     Reading input from aiida.in
Warning: card &IONS ignored
Warning: card   !PRESS_CONV_THR = 0.05                 ! JUST FOR VOLUME RELAXATIONS ignored
Warning: card / ignored

     Current dimensions of program PWSCF are:
     Max number of different atomic species (ntypx) = 10
     Max number of k-points (npk) =  40000
     Max angular momentum in pseudopotentials (lmaxx) =  3
               file Al.pbe-n-kjpaw_psl.1.0.0.UPF: wavefunction(s)  3S 3P renormalized
               file Mg.pbe-n-kjpaw_psl.0.3.0.UPF: wavefunction(s)  3S renormalized

     Subspace diagonalization in iterative solution of the eigenvalue problem:
     one sub-group per band group will be used
     scalapack distributed-memory algorithm (size of sub-group:  2*  2 procs)

 
     Parallelization info
     --------------------
     sticks:   dense  smooth     PW     G-vecs:    dense   smooth      PW
     Min         786     315     91                40219    10179    1589
     Max         787     316     92                40222    10181    1590
     Sum        7079    2839    823               361985    91619   14303
 


     bravais-lattice index     =            0
     lattice parameter (alat)  =      28.5890  a.u.
     unit-cell volume          =    2680.0922 (a.u.)^3
     number of atoms/cell      =           22
     number of atomic types    =            3
     number of electrons       =        66.00
     number of Kohn-Sham states=           40
     kinetic-energy cutoff     =      40.0000  Ry
     charge density cutoff     =     400.0000  Ry
     convergence threshold     =      1.0E-12
     mixing beta               =       0.4000
     number of iterations used =            8  local-TF  mixing
     Exchange-correlation      = PBE ( 1  4  3  4 0 0)

     celldm(1)=  28.588964  celldm(2)=   0.000000  celldm(3)=   0.000000
     celldm(4)=   0.000000  celldm(5)=   0.000000  celldm(6)=   0.000000

     crystal axes: (cart. coord. in units of alat)
               a(1) = (   0.958425   0.000136  -0.285344 )  
               a(2) = (   0.000479   0.272436  -0.000143 )  
               a(3) = (   0.000000   0.000000   0.439270 )  

     reciprocal axes: (cart. coord. in units 2 pi/alat)
               b(1) = (  1.043378 -0.001835  0.000000 )  
               b(2) = ( -0.000522  3.670584  0.000000 )  
               b(3) = (  0.677764  0.000000  2.276505 )  


     PseudoPot. # 1 for Al read from file:
     /users/aglensk/Dropbox/Albert/scripts/dotfiles/scripts/potentials/quantum_espresso/pseudo_SSSPefV1.1_alalloy/Al.pbe-n-kjpaw_psl.1.0.0.UPF
     MD5 check sum: cfc449ca30b5f3223ec38ddd88ac046d
     Pseudo is Projector augmented-wave + core cor, Zval =  3.0
     Generated using "atomic" code by A. Dal Corso v.5.1
     Shape of augmentation charge: PSQ
     Using radial grid of 1135 points,  6 beta functions with: 
                l(1) =   0
                l(2) =   0
                l(3) =   1
                l(4) =   1
                l(5) =   2
                l(6) =   2
     Q(r) pseudized with 0 coefficients 


     PseudoPot. # 2 for Mg read from file:
     /users/aglensk/Dropbox/Albert/scripts/dotfiles/scripts/potentials/quantum_espresso/pseudo_SSSPefV1.1_alalloy/Mg.pbe-n-kjpaw_psl.0.3.0.UPF
     MD5 check sum: 24ecedc7f3e3cbe212e682f4413594e4
     Pseudo is Projector augmented-wave + core cor, Zval =  2.0
     Generated using "atomic" code by A. Dal Corso v.5.0.99 svn rev. 10869
     Shape of augmentation charge: PSQ
     Using radial grid of 1129 points,  4 beta functions with: 
                l(1) =   0
                l(2) =   0
                l(3) =   1
                l(4) =   1
     Q(r) pseudized with 0 coefficients 


     PseudoPot. # 3 for Si read from file:
     /users/aglensk/Dropbox/Albert/scripts/dotfiles/scripts/potentials/quantum_espresso/pseudo_SSSPefV1.1_alalloy/Si.pbe-n-rrkjus_psl.1.0.0.UPF
     MD5 check sum: 0b0bb1205258b0d07b9f9672cf965d36
     Pseudo is Ultrasoft + core correction, Zval =  4.0
     Generated using "atomic" code by A. Dal Corso v.5.1
     Using radial grid of 1141 points,  6 beta functions with: 
                l(1) =   0
                l(2) =   0
                l(3) =   1
                l(4) =   1
                l(5) =   2
                l(6) =   2
     Q(r) pseudized with 0 coefficients 


     atomic species   valence    mass     pseudopotential
        Al             3.00    26.98154     Al( 1.00)
        Mg             2.00    24.30500     Mg( 1.00)
        Si             4.00    28.08500     Si( 1.00)

     No symmetry found


                                    s                        frac. trans.

      isym =  1     identity                                     

 cryst.   s( 1) = (     1          0          0      )
                  (     0          1          0      )
                  (     0          0          1      )

 cart.    s( 1) = (  1.0000000 -0.0000000  0.0000000 )
                  ( -0.0000000  1.0000000  0.0000000 )
                  (  0.0000000  0.0000000  1.0000000 )


   Cartesian axes

     site n.     atom                  positions (alat units)
         1           Al  tau(   1) = (   0.0017107   0.2724239   0.4337240  )
         2           Mg  tau(   2) = (   0.0703621   0.1361763   0.1263969  )
         3           Mg  tau(   3) = (   0.1484000   0.1361884   0.3516130  )
         4           Mg  tau(   4) = (   0.3339987   0.2724659  -0.0660197  )
         5           Mg  tau(   5) = (   0.4120375   0.2724780   0.1592015  )
         6           Si  tau(   6) = (   0.0570109   0.2724131   0.2700919  )
         7           Si  tau(   7) = (   0.1760152   0.0000520   0.0381702  )
         8           Al  tau(   8) = (   0.2101128   0.0000329   0.2047685  )
         9           Al  tau(   9) = (   0.2718030   0.1361853   0.0809668  )
        10           Si  tau(  10) = (   0.3058964   0.1361661   0.2475640  )
        11           Si  tau(  11) = (   0.4253827   0.1362413   0.0155046  )
        12           Al  tau(  12) = (   0.4806850   0.1362305   0.2911434  )
        13           Mg  tau(  13) = (   0.5498297   0.2724287  -0.0163131  )
        14           Mg  tau(  14) = (   0.6278636   0.2724519   0.2088808  )
        15           Mg  tau(  15) = (   0.8129602   0.1363386  -0.2086310  )
        16           Mg  tau(  16) = (   0.8909951   0.1363619   0.0165680  )
        17           Si  tau(  17) = (   0.5359947   0.1362304   0.1275084  )
        18           Si  tau(  18) = (   0.6554628   0.1363277  -0.1045647  )
        19           Al  tau(  19) = (   0.6895725   0.1363180   0.0620299  )
        20           Al  tau(  20) = (   0.7512478   0.2724726  -0.0617809  )
        21           Si  tau(  21) = (   0.7853531   0.2724629   0.1048127  )
        22           Si  tau(  22) = (   0.9048241   0.2725602  -0.1272556  )

   Crystallographic axes

     site n.     atom                  positions (cryst. coord.)
         1           Al  tau(   1) = (  0.0012849  0.9999539  0.9885341  )
         2           Mg  tau(   2) = (  0.0731644  0.4998100  0.3354319  )
         3           Mg  tau(   3) = (  0.1545874  0.4998136  0.9010289  )
         4           Mg  tau(   4) = (  0.3479870  0.9999350  0.0760781  )
         5           Mg  tau(   5) = (  0.4294110  0.9999386  0.6416872  )
         6           Si  tau(   6) = (  0.0589840  0.9998854  0.6535054  )
         7           Si  tau(   7) = (  0.1836504  0.0000992  0.2061914  )
         8           Al  tau(   8) = (  0.2192271  0.0000111  0.6085633  )
         9           Al  tau(   9) = (  0.2833434  0.4997379  0.3685395  )
        10           Si  tau(  10) = (  0.3189158  0.4996498  0.7709060  )
        11           Si  tau(  11) = (  0.4435851  0.4998634  0.3236053  )
        12           Al  tau(  12) = (  0.5012864  0.4997948  0.9885803  )
        13           Mg  tau(  13) = (  0.5731805  0.9996857  0.3355178  )
        14           Mg  tau(  14) = (  0.6545993  0.9997302  0.9010614  )
        15           Mg  tau(  15) = (  0.8479749  0.5000182  0.0760456  )
        16           Mg  tau(  16) = (  0.9293948  0.5000630  0.6416013  )
        17           Si  tau(  17) = (  0.5589953  0.4997655  0.6535514  )
        18           Si  tau(  18) = (  0.6836456  0.5000606  0.2062069  )
        19           Al  tau(  19) = (  0.7192349  0.5000071  0.6085787  )
        20           Al  tau(  20) = (  0.7833356  0.9997419  0.3685240  )
        21           Si  tau(  21) = (  0.8189204  0.9996883  0.7708906  )
        22           Si  tau(  22) = (  0.9435738  0.9999831  0.3235592  )

     number of k points=   782  Methfessel-Paxton smearing, width (Ry)=  0.0441
                       cart. coord. in units 2pi/alat
        k(    1) = (   0.0000000   0.0000000   0.0000000), wk =   0.0012821
        k(    2) = (   0.0521357   0.0000000   0.1751158), wk =   0.0025641
        k(    3) = (   0.1042714   0.0000000   0.3502315), wk =   0.0025641
        k(    4) = (   0.1564070   0.0000000   0.5253473), wk =   0.0025641
        k(    5) = (   0.2085427   0.0000000   0.7004630), wk =   0.0025641
        k(    6) = (   0.2606784   0.0000000   0.8755788), wk =   0.0025641
        k(    7) = (   0.3128141   0.0000000   1.0506945), wk =   0.0025641
        k(    8) = (  -0.0000261   0.1835292   0.0000000), wk =   0.0025641
        k(    9) = (   0.0521096   0.1835292   0.1751158), wk =   0.0025641
        k(   10) = (   0.1042453   0.1835292   0.3502315), wk =   0.0025641
        k(   11) = (   0.1563810   0.1835292   0.5253473), wk =   0.0025641
        k(   12) = (   0.2085166   0.1835292   0.7004630), wk =   0.0025641
        k(   13) = (   0.2606523   0.1835292   0.8755788), wk =   0.0025641
        k(   14) = (   0.3127880   0.1835293   1.0506945), wk =   0.0025641
        k(   15) = (  -0.3128402   0.1835292  -1.0506945), wk =   0.0025641
        k(   16) = (  -0.2607045   0.1835292  -0.8755788), wk =   0.0025641
        k(   17) = (  -0.2085688   0.1835292  -0.7004630), wk =   0.0025641
        k(   18) = (  -0.1564331   0.1835292  -0.5253473), wk =   0.0025641
        k(   19) = (  -0.1042974   0.1835292  -0.3502315), wk =   0.0025641
        k(   20) = (  -0.0521618   0.1835292  -0.1751158), wk =   0.0025641
        k(   21) = (  -0.0000522   0.3670584   0.0000000), wk =   0.0025641
        k(   22) = (   0.0520835   0.3670585   0.1751158), wk =   0.0025641
        k(   23) = (   0.1042192   0.3670585   0.3502315), wk =   0.0025641
        k(   24) = (   0.1563549   0.3670585   0.5253473), wk =   0.0025641
        k(   25) = (   0.2084906   0.3670585   0.7004630), wk =   0.0025641
        k(   26) = (   0.2606262   0.3670585   0.8755788), wk =   0.0025641
        k(   27) = (   0.3127619   0.3670585   1.0506945), wk =   0.0025641
        k(   28) = (  -0.3128662   0.3670584  -1.0506945), wk =   0.0025641
        k(   29) = (  -0.2607306   0.3670584  -0.8755788), wk =   0.0025641
        k(   30) = (  -0.2085949   0.3670584  -0.7004630), wk =   0.0025641
        k(   31) = (  -0.1564592   0.3670584  -0.5253473), wk =   0.0025641
        k(   32) = (  -0.1043235   0.3670584  -0.3502315), wk =   0.0025641
        k(   33) = (  -0.0521878   0.3670584  -0.1751158), wk =   0.0025641
        k(   34) = (  -0.0000782   0.5505877   0.0000000), wk =   0.0025641
        k(   35) = (   0.0520574   0.5505877   0.1751158), wk =   0.0025641
        k(   36) = (   0.1041931   0.5505877   0.3502315), wk =   0.0025641
        k(   37) = (   0.1563288   0.5505877   0.5253473), wk =   0.0025641
        k(   38) = (   0.2084645   0.5505877   0.7004630), wk =   0.0025641
        k(   39) = (   0.2606002   0.5505877   0.8755788), wk =   0.0025641
        k(   40) = (   0.3127358   0.5505877   1.0506945), wk =   0.0025641
        k(   41) = (  -0.3128923   0.5505876  -1.0506945), wk =   0.0025641
        k(   42) = (  -0.2607566   0.5505876  -0.8755788), wk =   0.0025641
        k(   43) = (  -0.2086210   0.5505877  -0.7004630), wk =   0.0025641
        k(   44) = (  -0.1564853   0.5505877  -0.5253473), wk =   0.0025641
        k(   45) = (  -0.1043496   0.5505877  -0.3502315), wk =   0.0025641
        k(   46) = (  -0.0522139   0.5505877  -0.1751158), wk =   0.0025641
        k(   47) = (  -0.0001043   0.7341169   0.0000000), wk =   0.0025641
        k(   48) = (   0.0520314   0.7341169   0.1751158), wk =   0.0025641
        k(   49) = (   0.1041670   0.7341169   0.3502315), wk =   0.0025641
        k(   50) = (   0.1563027   0.7341169   0.5253473), wk =   0.0025641
        k(   51) = (   0.2084384   0.7341169   0.7004630), wk =   0.0025641
        k(   52) = (   0.2605741   0.7341169   0.8755788), wk =   0.0025641
        k(   53) = (   0.3127097   0.7341169   1.0506945), wk =   0.0025641
        k(   54) = (  -0.3129184   0.7341169  -1.0506945), wk =   0.0025641
        k(   55) = (  -0.2607827   0.7341169  -0.8755788), wk =   0.0025641
        k(   56) = (  -0.2086470   0.7341169  -0.7004630), wk =   0.0025641
        k(   57) = (  -0.1565114   0.7341169  -0.5253473), wk =   0.0025641
        k(   58) = (  -0.1043757   0.7341169  -0.3502315), wk =   0.0025641
        k(   59) = (  -0.0522400   0.7341169  -0.1751158), wk =   0.0025641
        k(   60) = (  -0.0001304   0.9176461   0.0000000), wk =   0.0025641
        k(   61) = (   0.0520053   0.9176461   0.1751158), wk =   0.0025641
        k(   62) = (   0.1041409   0.9176461   0.3502315), wk =   0.0025641
        k(   63) = (   0.1562766   0.9176461   0.5253473), wk =   0.0025641
        k(   64) = (   0.2084123   0.9176461   0.7004630), wk =   0.0025641
        k(   65) = (   0.2605480   0.9176461   0.8755788), wk =   0.0025641
        k(   66) = (   0.3126837   0.9176461   1.0506945), wk =   0.0025641
        k(   67) = (  -0.3129445   0.9176461  -1.0506945), wk =   0.0025641
        k(   68) = (  -0.2608088   0.9176461  -0.8755788), wk =   0.0025641
        k(   69) = (  -0.2086731   0.9176461  -0.7004630), wk =   0.0025641
        k(   70) = (  -0.1565375   0.9176461  -0.5253473), wk =   0.0025641
        k(   71) = (  -0.1044018   0.9176461  -0.3502315), wk =   0.0025641
        k(   72) = (  -0.0522661   0.9176461  -0.1751158), wk =   0.0025641
        k(   73) = (  -0.0001565   1.1011753   0.0000000), wk =   0.0025641
        k(   74) = (   0.0519792   1.1011753   0.1751158), wk =   0.0025641
        k(   75) = (   0.1041149   1.1011754   0.3502315), wk =   0.0025641
        k(   76) = (   0.1562505   1.1011754   0.5253473), wk =   0.0025641
        k(   77) = (   0.2083862   1.1011754   0.7004630), wk =   0.0025641
        k(   78) = (   0.2605219   1.1011754   0.8755788), wk =   0.0025641
        k(   79) = (   0.3126576   1.1011754   1.0506945), wk =   0.0025641
        k(   80) = (  -0.3129706   1.1011753  -1.0506945), wk =   0.0025641
        k(   81) = (  -0.2608349   1.1011753  -0.8755788), wk =   0.0025641
        k(   82) = (  -0.2086992   1.1011753  -0.7004630), wk =   0.0025641
        k(   83) = (  -0.1565635   1.1011753  -0.5253473), wk =   0.0025641
        k(   84) = (  -0.1044279   1.1011753  -0.3502315), wk =   0.0025641
        k(   85) = (  -0.0522922   1.1011753  -0.1751158), wk =   0.0025641
        k(   86) = (  -0.0001826   1.2847046   0.0000000), wk =   0.0025641
        k(   87) = (   0.0519531   1.2847046   0.1751158), wk =   0.0025641
        k(   88) = (   0.1040888   1.2847046   0.3502315), wk =   0.0025641
        k(   89) = (   0.1562245   1.2847046   0.5253473), wk =   0.0025641
        k(   90) = (   0.2083601   1.2847046   0.7004630), wk =   0.0025641
        k(   91) = (   0.2604958   1.2847046   0.8755788), wk =   0.0025641
        k(   92) = (   0.3126315   1.2847046   1.0506945), wk =   0.0025641
        k(   93) = (  -0.3129967   1.2847045  -1.0506945), wk =   0.0025641
        k(   94) = (  -0.2608610   1.2847045  -0.8755788), wk =   0.0025641
        k(   95) = (  -0.2087253   1.2847045  -0.7004630), wk =   0.0025641
        k(   96) = (  -0.1565896   1.2847045  -0.5253473), wk =   0.0025641
        k(   97) = (  -0.1044539   1.2847046  -0.3502315), wk =   0.0025641
        k(   98) = (  -0.0523183   1.2847046  -0.1751158), wk =   0.0025641
        k(   99) = (  -0.0002087   1.4682338   0.0000000), wk =   0.0025641
        k(  100) = (   0.0519270   1.4682338   0.1751158), wk =   0.0025641
        k(  101) = (   0.1040627   1.4682338   0.3502315), wk =   0.0025641
        k(  102) = (   0.1561984   1.4682338   0.5253473), wk =   0.0025641
        k(  103) = (   0.2083341   1.4682338   0.7004630), wk =   0.0025641
        k(  104) = (   0.2604697   1.4682338   0.8755788), wk =   0.0025641
        k(  105) = (   0.3126054   1.4682338   1.0506945), wk =   0.0025641
        k(  106) = (  -0.3130227   1.4682338  -1.0506945), wk =   0.0025641
        k(  107) = (  -0.2608871   1.4682338  -0.8755788), wk =   0.0025641
        k(  108) = (  -0.2087514   1.4682338  -0.7004630), wk =   0.0025641
        k(  109) = (  -0.1566157   1.4682338  -0.5253473), wk =   0.0025641
        k(  110) = (  -0.1044800   1.4682338  -0.3502315), wk =   0.0025641
        k(  111) = (  -0.0523443   1.4682338  -0.1751158), wk =   0.0025641
        k(  112) = (  -0.0002347   1.6517630   0.0000000), wk =   0.0025641
        k(  113) = (   0.0519009   1.6517630   0.1751158), wk =   0.0025641
        k(  114) = (   0.1040366   1.6517630   0.3502315), wk =   0.0025641
        k(  115) = (   0.1561723   1.6517630   0.5253473), wk =   0.0025641
        k(  116) = (   0.2083080   1.6517630   0.7004630), wk =   0.0025641
        k(  117) = (   0.2604437   1.6517630   0.8755788), wk =   0.0025641
        k(  118) = (   0.3125793   1.6517630   1.0506945), wk =   0.0025641
        k(  119) = (  -0.3130488   1.6517630  -1.0506945), wk =   0.0025641
        k(  120) = (  -0.2609131   1.6517630  -0.8755788), wk =   0.0025641
        k(  121) = (  -0.2087775   1.6517630  -0.7004630), wk =   0.0025641
        k(  122) = (  -0.1566418   1.6517630  -0.5253473), wk =   0.0025641
        k(  123) = (  -0.1045061   1.6517630  -0.3502315), wk =   0.0025641
        k(  124) = (  -0.0523704   1.6517630  -0.1751158), wk =   0.0025641
        k(  125) = (   0.0002608  -1.8352922   0.0000000), wk =   0.0012821
        k(  126) = (   0.0523965  -1.8352922   0.1751158), wk =   0.0025641
        k(  127) = (   0.1045322  -1.8352922   0.3502315), wk =   0.0025641
        k(  128) = (   0.1566679  -1.8352922   0.5253473), wk =   0.0025641
        k(  129) = (   0.2088035  -1.8352922   0.7004630), wk =   0.0025641
        k(  130) = (   0.2609392  -1.8352922   0.8755788), wk =   0.0025641
        k(  131) = (   0.3130749  -1.8352922   1.0506945), wk =   0.0025641
        k(  132) = (   0.1738964  -0.0003059   0.0000000), wk =   0.0025641
        k(  133) = (   0.2260321  -0.0003059   0.1751158), wk =   0.0025641
        k(  134) = (   0.2781678  -0.0003059   0.3502315), wk =   0.0025641
        k(  135) = (   0.3303034  -0.0003059   0.5253473), wk =   0.0025641
        k(  136) = (   0.3824391  -0.0003059   0.7004630), wk =   0.0025641
        k(  137) = (   0.4345748  -0.0003059   0.8755788), wk =   0.0025641
        k(  138) = (   0.4867105  -0.0003058   1.0506945), wk =   0.0025641
        k(  139) = (  -0.1389177  -0.0003059  -1.0506945), wk =   0.0025641
        k(  140) = (  -0.0867820  -0.0003059  -0.8755788), wk =   0.0025641
        k(  141) = (  -0.0346463  -0.0003059  -0.7004630), wk =   0.0025641
        k(  142) = (   0.0174894  -0.0003059  -0.5253473), wk =   0.0025641
        k(  143) = (   0.0696250  -0.0003059  -0.3502315), wk =   0.0025641
        k(  144) = (   0.1217607  -0.0003059  -0.1751158), wk =   0.0025641
        k(  145) = (   0.1738703   0.1832233   0.0000000), wk =   0.0025641
        k(  146) = (   0.2260060   0.1832234   0.1751158), wk =   0.0025641
        k(  147) = (   0.2781417   0.1832234   0.3502315), wk =   0.0025641
        k(  148) = (   0.3302774   0.1832234   0.5253473), wk =   0.0025641
        k(  149) = (   0.3824130   0.1832234   0.7004630), wk =   0.0025641
        k(  150) = (   0.4345487   0.1832234   0.8755788), wk =   0.0025641
        k(  151) = (   0.4866844   0.1832234   1.0506945), wk =   0.0025641
        k(  152) = (  -0.1389438   0.1832233  -1.0506945), wk =   0.0025641
        k(  153) = (  -0.0868081   0.1832233  -0.8755788), wk =   0.0025641
        k(  154) = (  -0.0346724   0.1832233  -0.7004630), wk =   0.0025641
        k(  155) = (   0.0174633   0.1832233  -0.5253473), wk =   0.0025641
        k(  156) = (   0.0695990   0.1832233  -0.3502315), wk =   0.0025641
        k(  157) = (   0.1217346   0.1832233  -0.1751158), wk =   0.0025641
        k(  158) = (   0.1738442   0.3667526   0.0000000), wk =   0.0025641
        k(  159) = (   0.2259799   0.3667526   0.1751158), wk =   0.0025641
        k(  160) = (   0.2781156   0.3667526   0.3502315), wk =   0.0025641
        k(  161) = (   0.3302513   0.3667526   0.5253473), wk =   0.0025641
        k(  162) = (   0.3823870   0.3667526   0.7004630), wk =   0.0025641
        k(  163) = (   0.4345226   0.3667526   0.8755788), wk =   0.0025641
        k(  164) = (   0.4866583   0.3667526   1.0506945), wk =   0.0025641
        k(  165) = (  -0.1389698   0.3667525  -1.0506945), wk =   0.0025641
        k(  166) = (  -0.0868342   0.3667525  -0.8755788), wk =   0.0025641
        k(  167) = (  -0.0346985   0.3667525  -0.7004630), wk =   0.0025641
        k(  168) = (   0.0174372   0.3667526  -0.5253473), wk =   0.0025641
        k(  169) = (   0.0695729   0.3667526  -0.3502315), wk =   0.0025641
        k(  170) = (   0.1217086   0.3667526  -0.1751158), wk =   0.0025641
        k(  171) = (   0.1738182   0.5502818   0.0000000), wk =   0.0025641
        k(  172) = (   0.2259538   0.5502818   0.1751158), wk =   0.0025641
        k(  173) = (   0.2780895   0.5502818   0.3502315), wk =   0.0025641
        k(  174) = (   0.3302252   0.5502818   0.5253473), wk =   0.0025641
        k(  175) = (   0.3823609   0.5502818   0.7004630), wk =   0.0025641
        k(  176) = (   0.4344966   0.5502818   0.8755788), wk =   0.0025641
        k(  177) = (   0.4866322   0.5502818   1.0506945), wk =   0.0025641
        k(  178) = (  -0.1389959   0.5502818  -1.0506945), wk =   0.0025641
        k(  179) = (  -0.0868602   0.5502818  -0.8755788), wk =   0.0025641
        k(  180) = (  -0.0347246   0.5502818  -0.7004630), wk =   0.0025641
        k(  181) = (   0.0174111   0.5502818  -0.5253473), wk =   0.0025641
        k(  182) = (   0.0695468   0.5502818  -0.3502315), wk =   0.0025641
        k(  183) = (   0.1216825   0.5502818  -0.1751158), wk =   0.0025641
        k(  184) = (   0.1737921   0.7338110   0.0000000), wk =   0.0025641
        k(  185) = (   0.2259278   0.7338110   0.1751158), wk =   0.0025641
        k(  186) = (   0.2780634   0.7338110   0.3502315), wk =   0.0025641
        k(  187) = (   0.3301991   0.7338110   0.5253473), wk =   0.0025641
        k(  188) = (   0.3823348   0.7338110   0.7004630), wk =   0.0025641
        k(  189) = (   0.4344705   0.7338110   0.8755788), wk =   0.0025641
        k(  190) = (   0.4866062   0.7338110   1.0506945), wk =   0.0025641
        k(  191) = (  -0.1390220   0.7338110  -1.0506945), wk =   0.0025641
        k(  192) = (  -0.0868863   0.7338110  -0.8755788), wk =   0.0025641
        k(  193) = (  -0.0347506   0.7338110  -0.7004630), wk =   0.0025641
        k(  194) = (   0.0173850   0.7338110  -0.5253473), wk =   0.0025641
        k(  195) = (   0.0695207   0.7338110  -0.3502315), wk =   0.0025641
        k(  196) = (   0.1216564   0.7338110  -0.1751158), wk =   0.0025641
        k(  197) = (   0.1737660   0.9173402   0.0000000), wk =   0.0025641
        k(  198) = (   0.2259017   0.9173402   0.1751158), wk =   0.0025641
        k(  199) = (   0.2780373   0.9173402   0.3502315), wk =   0.0025641
        k(  200) = (   0.3301730   0.9173403   0.5253473), wk =   0.0025641
        k(  201) = (   0.3823087   0.9173403   0.7004630), wk =   0.0025641
        k(  202) = (   0.4344444   0.9173403   0.8755788), wk =   0.0025641
        k(  203) = (   0.4865801   0.9173403   1.0506945), wk =   0.0025641
        k(  204) = (  -0.1390481   0.9173402  -1.0506945), wk =   0.0025641
        k(  205) = (  -0.0869124   0.9173402  -0.8755788), wk =   0.0025641
        k(  206) = (  -0.0347767   0.9173402  -0.7004630), wk =   0.0025641
        k(  207) = (   0.0173590   0.9173402  -0.5253473), wk =   0.0025641
        k(  208) = (   0.0694946   0.9173402  -0.3502315), wk =   0.0025641
        k(  209) = (   0.1216303   0.9173402  -0.1751158), wk =   0.0025641
        k(  210) = (   0.1737399   1.1008695   0.0000000), wk =   0.0025641
        k(  211) = (   0.2258756   1.1008695   0.1751158), wk =   0.0025641
        k(  212) = (   0.2780113   1.1008695   0.3502315), wk =   0.0025641
        k(  213) = (   0.3301469   1.1008695   0.5253473), wk =   0.0025641
        k(  214) = (   0.3822826   1.1008695   0.7004630), wk =   0.0025641
        k(  215) = (   0.4344183   1.1008695   0.8755788), wk =   0.0025641
        k(  216) = (   0.4865540   1.1008695   1.0506945), wk =   0.0025641
        k(  217) = (  -0.1390742   1.1008694  -1.0506945), wk =   0.0025641
        k(  218) = (  -0.0869385   1.1008694  -0.8755788), wk =   0.0025641
        k(  219) = (  -0.0348028   1.1008694  -0.7004630), wk =   0.0025641
        k(  220) = (   0.0173329   1.1008694  -0.5253473), wk =   0.0025641
        k(  221) = (   0.0694685   1.1008695  -0.3502315), wk =   0.0025641
        k(  222) = (   0.1216042   1.1008695  -0.1751158), wk =   0.0025641
        k(  223) = (   0.1737138   1.2843987   0.0000000), wk =   0.0025641
        k(  224) = (   0.2258495   1.2843987   0.1751158), wk =   0.0025641
        k(  225) = (   0.2779852   1.2843987   0.3502315), wk =   0.0025641
        k(  226) = (   0.3301209   1.2843987   0.5253473), wk =   0.0025641
        k(  227) = (   0.3822565   1.2843987   0.7004630), wk =   0.0025641
        k(  228) = (   0.4343922   1.2843987   0.8755788), wk =   0.0025641
        k(  229) = (   0.4865279   1.2843987   1.0506945), wk =   0.0025641
        k(  230) = (  -0.1391003   1.2843987  -1.0506945), wk =   0.0025641
        k(  231) = (  -0.0869646   1.2843987  -0.8755788), wk =   0.0025641
        k(  232) = (  -0.0348289   1.2843987  -0.7004630), wk =   0.0025641
        k(  233) = (   0.0173068   1.2843987  -0.5253473), wk =   0.0025641
        k(  234) = (   0.0694425   1.2843987  -0.3502315), wk =   0.0025641
        k(  235) = (   0.1215781   1.2843987  -0.1751158), wk =   0.0025641
        k(  236) = (   0.1736877   1.4679279   0.0000000), wk =   0.0025641
        k(  237) = (   0.2258234   1.4679279   0.1751158), wk =   0.0025641
        k(  238) = (   0.2779591   1.4679279   0.3502315), wk =   0.0025641
        k(  239) = (   0.3300948   1.4679279   0.5253473), wk =   0.0025641
        k(  240) = (   0.3822305   1.4679279   0.7004630), wk =   0.0025641
        k(  241) = (   0.4343661   1.4679279   0.8755788), wk =   0.0025641
        k(  242) = (   0.4865018   1.4679279   1.0506945), wk =   0.0025641
        k(  243) = (  -0.1391263   1.4679279  -1.0506945), wk =   0.0025641
        k(  244) = (  -0.0869907   1.4679279  -0.8755788), wk =   0.0025641
        k(  245) = (  -0.0348550   1.4679279  -0.7004630), wk =   0.0025641
        k(  246) = (   0.0172807   1.4679279  -0.5253473), wk =   0.0025641
        k(  247) = (   0.0694164   1.4679279  -0.3502315), wk =   0.0025641
        k(  248) = (   0.1215521   1.4679279  -0.1751158), wk =   0.0025641
        k(  249) = (   0.1736617   1.6514571   0.0000000), wk =   0.0025641
        k(  250) = (   0.2257973   1.6514571   0.1751158), wk =   0.0025641
        k(  251) = (   0.2779330   1.6514571   0.3502315), wk =   0.0025641
        k(  252) = (   0.3300687   1.6514571   0.5253473), wk =   0.0025641
        k(  253) = (   0.3822044   1.6514572   0.7004630), wk =   0.0025641
        k(  254) = (   0.4343401   1.6514572   0.8755788), wk =   0.0025641
        k(  255) = (   0.4864757   1.6514572   1.0506945), wk =   0.0025641
        k(  256) = (  -0.1391524   1.6514571  -1.0506945), wk =   0.0025641
        k(  257) = (  -0.0870167   1.6514571  -0.8755788), wk =   0.0025641
        k(  258) = (  -0.0348811   1.6514571  -0.7004630), wk =   0.0025641
        k(  259) = (   0.0172546   1.6514571  -0.5253473), wk =   0.0025641
        k(  260) = (   0.0693903   1.6514571  -0.3502315), wk =   0.0025641
        k(  261) = (   0.1215260   1.6514571  -0.1751158), wk =   0.0025641
        k(  262) = (   0.1741572  -1.8355981   0.0000000), wk =   0.0025641
        k(  263) = (   0.2262929  -1.8355981   0.1751158), wk =   0.0025641
        k(  264) = (   0.2784286  -1.8355981   0.3502315), wk =   0.0025641
        k(  265) = (   0.3305643  -1.8355981   0.5253473), wk =   0.0025641
        k(  266) = (   0.3826999  -1.8355981   0.7004630), wk =   0.0025641
        k(  267) = (   0.4348356  -1.8355981   0.8755788), wk =   0.0025641
        k(  268) = (   0.4869713  -1.8355981   1.0506945), wk =   0.0025641
        k(  269) = (  -0.1386569  -1.8355981  -1.0506945), wk =   0.0025641
        k(  270) = (  -0.0865212  -1.8355981  -0.8755788), wk =   0.0025641
        k(  271) = (  -0.0343855  -1.8355981  -0.7004630), wk =   0.0025641
        k(  272) = (   0.0177502  -1.8355981  -0.5253473), wk =   0.0025641
        k(  273) = (   0.0698859  -1.8355981  -0.3502315), wk =   0.0025641
        k(  274) = (   0.1220215  -1.8355981  -0.1751158), wk =   0.0025641
        k(  275) = (   0.1741311  -1.6520689   0.0000000), wk =   0.0025641
        k(  276) = (   0.2262668  -1.6520689   0.1751158), wk =   0.0025641
        k(  277) = (   0.2784025  -1.6520689   0.3502315), wk =   0.0025641
        k(  278) = (   0.3305382  -1.6520689   0.5253473), wk =   0.0025641
        k(  279) = (   0.3826739  -1.6520689   0.7004630), wk =   0.0025641
        k(  280) = (   0.4348095  -1.6520689   0.8755788), wk =   0.0025641
        k(  281) = (   0.4869452  -1.6520689   1.0506945), wk =   0.0025641
        k(  282) = (  -0.1386829  -1.6520689  -1.0506945), wk =   0.0025641
        k(  283) = (  -0.0865473  -1.6520689  -0.8755788), wk =   0.0025641
        k(  284) = (  -0.0344116  -1.6520689  -0.7004630), wk =   0.0025641
        k(  285) = (   0.0177241  -1.6520689  -0.5253473), wk =   0.0025641
        k(  286) = (   0.0698598  -1.6520689  -0.3502315), wk =   0.0025641
        k(  287) = (   0.1219955  -1.6520689  -0.1751158), wk =   0.0025641
        k(  288) = (   0.1741051  -1.4685397   0.0000000), wk =   0.0025641
        k(  289) = (   0.2262407  -1.4685397   0.1751158), wk =   0.0025641
        k(  290) = (   0.2783764  -1.4685397   0.3502315), wk =   0.0025641
        k(  291) = (   0.3305121  -1.4685397   0.5253473), wk =   0.0025641
        k(  292) = (   0.3826478  -1.4685396   0.7004630), wk =   0.0025641
        k(  293) = (   0.4347835  -1.4685396   0.8755788), wk =   0.0025641
        k(  294) = (   0.4869191  -1.4685396   1.0506945), wk =   0.0025641
        k(  295) = (  -0.1387090  -1.4685397  -1.0506945), wk =   0.0025641
        k(  296) = (  -0.0865733  -1.4685397  -0.8755788), wk =   0.0025641
        k(  297) = (  -0.0344377  -1.4685397  -0.7004630), wk =   0.0025641
        k(  298) = (   0.0176980  -1.4685397  -0.5253473), wk =   0.0025641
        k(  299) = (   0.0698337  -1.4685397  -0.3502315), wk =   0.0025641
        k(  300) = (   0.1219694  -1.4685397  -0.1751158), wk =   0.0025641
        k(  301) = (   0.1740790  -1.2850104   0.0000000), wk =   0.0025641
        k(  302) = (   0.2262147  -1.2850104   0.1751158), wk =   0.0025641
        k(  303) = (   0.2783503  -1.2850104   0.3502315), wk =   0.0025641
        k(  304) = (   0.3304860  -1.2850104   0.5253473), wk =   0.0025641
        k(  305) = (   0.3826217  -1.2850104   0.7004630), wk =   0.0025641
        k(  306) = (   0.4347574  -1.2850104   0.8755788), wk =   0.0025641
        k(  307) = (   0.4868931  -1.2850104   1.0506945), wk =   0.0025641
        k(  308) = (  -0.1387351  -1.2850105  -1.0506945), wk =   0.0025641
        k(  309) = (  -0.0865994  -1.2850105  -0.8755788), wk =   0.0025641
        k(  310) = (  -0.0344637  -1.2850105  -0.7004630), wk =   0.0025641
        k(  311) = (   0.0176719  -1.2850105  -0.5253473), wk =   0.0025641
        k(  312) = (   0.0698076  -1.2850105  -0.3502315), wk =   0.0025641
        k(  313) = (   0.1219433  -1.2850104  -0.1751158), wk =   0.0025641
        k(  314) = (   0.1740529  -1.1014812   0.0000000), wk =   0.0025641
        k(  315) = (   0.2261886  -1.1014812   0.1751158), wk =   0.0025641
        k(  316) = (   0.2783243  -1.1014812   0.3502315), wk =   0.0025641
        k(  317) = (   0.3304599  -1.1014812   0.5253473), wk =   0.0025641
        k(  318) = (   0.3825956  -1.1014812   0.7004630), wk =   0.0025641
        k(  319) = (   0.4347313  -1.1014812   0.8755788), wk =   0.0025641
        k(  320) = (   0.4868670  -1.1014812   1.0506945), wk =   0.0025641
        k(  321) = (  -0.1387612  -1.1014812  -1.0506945), wk =   0.0025641
        k(  322) = (  -0.0866255  -1.1014812  -0.8755788), wk =   0.0025641
        k(  323) = (  -0.0344898  -1.1014812  -0.7004630), wk =   0.0025641
        k(  324) = (   0.0176459  -1.1014812  -0.5253473), wk =   0.0025641
        k(  325) = (   0.0697815  -1.1014812  -0.3502315), wk =   0.0025641
        k(  326) = (   0.1219172  -1.1014812  -0.1751158), wk =   0.0025641
        k(  327) = (   0.1740268  -0.9179520   0.0000000), wk =   0.0025641
        k(  328) = (   0.2261625  -0.9179520   0.1751158), wk =   0.0025641
        k(  329) = (   0.2782982  -0.9179520   0.3502315), wk =   0.0025641
        k(  330) = (   0.3304339  -0.9179520   0.5253473), wk =   0.0025641
        k(  331) = (   0.3825695  -0.9179520   0.7004630), wk =   0.0025641
        k(  332) = (   0.4347052  -0.9179520   0.8755788), wk =   0.0025641
        k(  333) = (   0.4868409  -0.9179520   1.0506945), wk =   0.0025641
        k(  334) = (  -0.1387873  -0.9179520  -1.0506945), wk =   0.0025641
        k(  335) = (  -0.0866516  -0.9179520  -0.8755788), wk =   0.0025641
        k(  336) = (  -0.0345159  -0.9179520  -0.7004630), wk =   0.0025641
        k(  337) = (   0.0176198  -0.9179520  -0.5253473), wk =   0.0025641
        k(  338) = (   0.0697555  -0.9179520  -0.3502315), wk =   0.0025641
        k(  339) = (   0.1218911  -0.9179520  -0.1751158), wk =   0.0025641
        k(  340) = (   0.1740007  -0.7344228   0.0000000), wk =   0.0025641
        k(  341) = (   0.2261364  -0.7344228   0.1751158), wk =   0.0025641
        k(  342) = (   0.2782721  -0.7344228   0.3502315), wk =   0.0025641
        k(  343) = (   0.3304078  -0.7344228   0.5253473), wk =   0.0025641
        k(  344) = (   0.3825434  -0.7344228   0.7004630), wk =   0.0025641
        k(  345) = (   0.4346791  -0.7344227   0.8755788), wk =   0.0025641
        k(  346) = (   0.4868148  -0.7344227   1.0506945), wk =   0.0025641
        k(  347) = (  -0.1388133  -0.7344228  -1.0506945), wk =   0.0025641
        k(  348) = (  -0.0866777  -0.7344228  -0.8755788), wk =   0.0025641
        k(  349) = (  -0.0345420  -0.7344228  -0.7004630), wk =   0.0025641
        k(  350) = (   0.0175937  -0.7344228  -0.5253473), wk =   0.0025641
        k(  351) = (   0.0697294  -0.7344228  -0.3502315), wk =   0.0025641
        k(  352) = (   0.1218651  -0.7344228  -0.1751158), wk =   0.0025641
        k(  353) = (   0.1739746  -0.5508935   0.0000000), wk =   0.0025641
        k(  354) = (   0.2261103  -0.5508935   0.1751158), wk =   0.0025641
        k(  355) = (   0.2782460  -0.5508935   0.3502315), wk =   0.0025641
        k(  356) = (   0.3303817  -0.5508935   0.5253473), wk =   0.0025641
        k(  357) = (   0.3825174  -0.5508935   0.7004630), wk =   0.0025641
        k(  358) = (   0.4346530  -0.5508935   0.8755788), wk =   0.0025641
        k(  359) = (   0.4867887  -0.5508935   1.0506945), wk =   0.0025641
        k(  360) = (  -0.1388394  -0.5508936  -1.0506945), wk =   0.0025641
        k(  361) = (  -0.0867038  -0.5508936  -0.8755788), wk =   0.0025641
        k(  362) = (  -0.0345681  -0.5508936  -0.7004630), wk =   0.0025641
        k(  363) = (   0.0175676  -0.5508936  -0.5253473), wk =   0.0025641
        k(  364) = (   0.0697033  -0.5508936  -0.3502315), wk =   0.0025641
        k(  365) = (   0.1218390  -0.5508936  -0.1751158), wk =   0.0025641
        k(  366) = (   0.1739486  -0.3673643   0.0000000), wk =   0.0025641
        k(  367) = (   0.2260842  -0.3673643   0.1751158), wk =   0.0025641
        k(  368) = (   0.2782199  -0.3673643   0.3502315), wk =   0.0025641
        k(  369) = (   0.3303556  -0.3673643   0.5253473), wk =   0.0025641
        k(  370) = (   0.3824913  -0.3673643   0.7004630), wk =   0.0025641
        k(  371) = (   0.4346270  -0.3673643   0.8755788), wk =   0.0025641
        k(  372) = (   0.4867626  -0.3673643   1.0506945), wk =   0.0025641
        k(  373) = (  -0.1388655  -0.3673644  -1.0506945), wk =   0.0025641
        k(  374) = (  -0.0867298  -0.3673643  -0.8755788), wk =   0.0025641
        k(  375) = (  -0.0345942  -0.3673643  -0.7004630), wk =   0.0025641
        k(  376) = (   0.0175415  -0.3673643  -0.5253473), wk =   0.0025641
        k(  377) = (   0.0696772  -0.3673643  -0.3502315), wk =   0.0025641
        k(  378) = (   0.1218129  -0.3673643  -0.1751158), wk =   0.0025641
        k(  379) = (   0.1739225  -0.1838351   0.0000000), wk =   0.0025641
        k(  380) = (   0.2260582  -0.1838351   0.1751158), wk =   0.0025641
        k(  381) = (   0.2781938  -0.1838351   0.3502315), wk =   0.0025641
        k(  382) = (   0.3303295  -0.1838351   0.5253473), wk =   0.0025641
        k(  383) = (   0.3824652  -0.1838351   0.7004630), wk =   0.0025641
        k(  384) = (   0.4346009  -0.1838351   0.8755788), wk =   0.0025641
        k(  385) = (   0.4867366  -0.1838351   1.0506945), wk =   0.0025641
        k(  386) = (  -0.1388916  -0.1838351  -1.0506945), wk =   0.0025641
        k(  387) = (  -0.0867559  -0.1838351  -0.8755788), wk =   0.0025641
        k(  388) = (  -0.0346202  -0.1838351  -0.7004630), wk =   0.0025641
        k(  389) = (   0.0175154  -0.1838351  -0.5253473), wk =   0.0025641
        k(  390) = (   0.0696511  -0.1838351  -0.3502315), wk =   0.0025641
        k(  391) = (   0.1217868  -0.1838351  -0.1751158), wk =   0.0025641
        k(  392) = (   0.3477928  -0.0006118   0.0000000), wk =   0.0025641
        k(  393) = (   0.3999285  -0.0006118   0.1751158), wk =   0.0025641
        k(  394) = (   0.4520642  -0.0006117   0.3502315), wk =   0.0025641
        k(  395) = (   0.5041998  -0.0006117   0.5253473), wk =   0.0025641
        k(  396) = (   0.5563355  -0.0006117   0.7004630), wk =   0.0025641
        k(  397) = (   0.6084712  -0.0006117   0.8755788), wk =   0.0025641
        k(  398) = (   0.6606069  -0.0006117   1.0506945), wk =   0.0025641
        k(  399) = (   0.0349787  -0.0006118  -1.0506945), wk =   0.0025641
        k(  400) = (   0.0871144  -0.0006118  -0.8755788), wk =   0.0025641
        k(  401) = (   0.1392501  -0.0006118  -0.7004630), wk =   0.0025641
        k(  402) = (   0.1913858  -0.0006118  -0.5253473), wk =   0.0025641
        k(  403) = (   0.2435214  -0.0006118  -0.3502315), wk =   0.0025641
        k(  404) = (   0.2956571  -0.0006118  -0.1751158), wk =   0.0025641
        k(  405) = (   0.3477667   0.1829175   0.0000000), wk =   0.0025641
        k(  406) = (   0.3999024   0.1829175   0.1751158), wk =   0.0025641
        k(  407) = (   0.4520381   0.1829175   0.3502315), wk =   0.0025641
        k(  408) = (   0.5041738   0.1829175   0.5253473), wk =   0.0025641
        k(  409) = (   0.5563094   0.1829175   0.7004630), wk =   0.0025641
        k(  410) = (   0.6084451   0.1829175   0.8755788), wk =   0.0025641
        k(  411) = (   0.6605808   0.1829175   1.0506945), wk =   0.0025641
        k(  412) = (   0.0349526   0.1829174  -1.0506945), wk =   0.0025641
        k(  413) = (   0.0870883   0.1829174  -0.8755788), wk =   0.0025641
        k(  414) = (   0.1392240   0.1829174  -0.7004630), wk =   0.0025641
        k(  415) = (   0.1913597   0.1829175  -0.5253473), wk =   0.0025641
        k(  416) = (   0.2434954   0.1829175  -0.3502315), wk =   0.0025641
        k(  417) = (   0.2956310   0.1829175  -0.1751158), wk =   0.0025641
        k(  418) = (   0.3477406   0.3664467   0.0000000), wk =   0.0025641
        k(  419) = (   0.3998763   0.3664467   0.1751158), wk =   0.0025641
        k(  420) = (   0.4520120   0.3664467   0.3502315), wk =   0.0025641
        k(  421) = (   0.5041477   0.3664467   0.5253473), wk =   0.0025641
        k(  422) = (   0.5562834   0.3664467   0.7004630), wk =   0.0025641
        k(  423) = (   0.6084190   0.3664467   0.8755788), wk =   0.0025641
        k(  424) = (   0.6605547   0.3664467   1.0506945), wk =   0.0025641
        k(  425) = (   0.0349266   0.3664467  -1.0506945), wk =   0.0025641
        k(  426) = (   0.0870622   0.3664467  -0.8755788), wk =   0.0025641
        k(  427) = (   0.1391979   0.3664467  -0.7004630), wk =   0.0025641
        k(  428) = (   0.1913336   0.3664467  -0.5253473), wk =   0.0025641
        k(  429) = (   0.2434693   0.3664467  -0.3502315), wk =   0.0025641
        k(  430) = (   0.2956050   0.3664467  -0.1751158), wk =   0.0025641
        k(  431) = (   0.3477146   0.5499759   0.0000000), wk =   0.0025641
        k(  432) = (   0.3998502   0.5499759   0.1751158), wk =   0.0025641
        k(  433) = (   0.4519859   0.5499759   0.3502315), wk =   0.0025641
        k(  434) = (   0.5041216   0.5499759   0.5253473), wk =   0.0025641
        k(  435) = (   0.5562573   0.5499759   0.7004630), wk =   0.0025641
        k(  436) = (   0.6083930   0.5499759   0.8755788), wk =   0.0025641
        k(  437) = (   0.6605286   0.5499759   1.0506945), wk =   0.0025641
        k(  438) = (   0.0349005   0.5499759  -1.0506945), wk =   0.0025641
        k(  439) = (   0.0870362   0.5499759  -0.8755788), wk =   0.0025641
        k(  440) = (   0.1391718   0.5499759  -0.7004630), wk =   0.0025641
        k(  441) = (   0.1913075   0.5499759  -0.5253473), wk =   0.0025641
        k(  442) = (   0.2434432   0.5499759  -0.3502315), wk =   0.0025641
        k(  443) = (   0.2955789   0.5499759  -0.1751158), wk =   0.0025641
        k(  444) = (   0.3476885   0.7335051   0.0000000), wk =   0.0025641
        k(  445) = (   0.3998242   0.7335051   0.1751158), wk =   0.0025641
        k(  446) = (   0.4519598   0.7335051   0.3502315), wk =   0.0025641
        k(  447) = (   0.5040955   0.7335052   0.5253473), wk =   0.0025641
        k(  448) = (   0.5562312   0.7335052   0.7004630), wk =   0.0025641
        k(  449) = (   0.6083669   0.7335052   0.8755788), wk =   0.0025641
        k(  450) = (   0.6605026   0.7335052   1.0506945), wk =   0.0025641
        k(  451) = (   0.0348744   0.7335051  -1.0506945), wk =   0.0025641
        k(  452) = (   0.0870101   0.7335051  -0.8755788), wk =   0.0025641
        k(  453) = (   0.1391458   0.7335051  -0.7004630), wk =   0.0025641
        k(  454) = (   0.1912814   0.7335051  -0.5253473), wk =   0.0025641
        k(  455) = (   0.2434171   0.7335051  -0.3502315), wk =   0.0025641
        k(  456) = (   0.2955528   0.7335051  -0.1751158), wk =   0.0025641
        k(  457) = (   0.3476624   0.9170344   0.0000000), wk =   0.0025641
        k(  458) = (   0.3997981   0.9170344   0.1751158), wk =   0.0025641
        k(  459) = (   0.4519338   0.9170344   0.3502315), wk =   0.0025641
        k(  460) = (   0.5040694   0.9170344   0.5253473), wk =   0.0025641
        k(  461) = (   0.5562051   0.9170344   0.7004630), wk =   0.0025641
        k(  462) = (   0.6083408   0.9170344   0.8755788), wk =   0.0025641
        k(  463) = (   0.6604765   0.9170344   1.0506945), wk =   0.0025641
        k(  464) = (   0.0348483   0.9170343  -1.0506945), wk =   0.0025641
        k(  465) = (   0.0869840   0.9170343  -0.8755788), wk =   0.0025641
        k(  466) = (   0.1391197   0.9170343  -0.7004630), wk =   0.0025641
        k(  467) = (   0.1912554   0.9170343  -0.5253473), wk =   0.0025641
        k(  468) = (   0.2433910   0.9170344  -0.3502315), wk =   0.0025641
        k(  469) = (   0.2955267   0.9170344  -0.1751158), wk =   0.0025641
        k(  470) = (   0.3476363   1.1005636   0.0000000), wk =   0.0025641
        k(  471) = (   0.3997720   1.1005636   0.1751158), wk =   0.0025641
        k(  472) = (   0.4519077   1.1005636   0.3502315), wk =   0.0025641
        k(  473) = (   0.5040433   1.1005636   0.5253473), wk =   0.0025641
        k(  474) = (   0.5561790   1.1005636   0.7004630), wk =   0.0025641
        k(  475) = (   0.6083147   1.1005636   0.8755788), wk =   0.0025641
        k(  476) = (   0.6604504   1.1005636   1.0506945), wk =   0.0025641
        k(  477) = (   0.0348222   1.1005636  -1.0506945), wk =   0.0025641
        k(  478) = (   0.0869579   1.1005636  -0.8755788), wk =   0.0025641
        k(  479) = (   0.1390936   1.1005636  -0.7004630), wk =   0.0025641
        k(  480) = (   0.1912293   1.1005636  -0.5253473), wk =   0.0025641
        k(  481) = (   0.2433650   1.1005636  -0.3502315), wk =   0.0025641
        k(  482) = (   0.2955006   1.1005636  -0.1751158), wk =   0.0025641
        k(  483) = (   0.3476102   1.2840928   0.0000000), wk =   0.0025641
        k(  484) = (   0.3997459   1.2840928   0.1751158), wk =   0.0025641
        k(  485) = (   0.4518816   1.2840928   0.3502315), wk =   0.0025641
        k(  486) = (   0.5040173   1.2840928   0.5253473), wk =   0.0025641
        k(  487) = (   0.5561529   1.2840928   0.7004630), wk =   0.0025641
        k(  488) = (   0.6082886   1.2840928   0.8755788), wk =   0.0025641
        k(  489) = (   0.6604243   1.2840928   1.0506945), wk =   0.0025641
        k(  490) = (   0.0347961   1.2840928  -1.0506945), wk =   0.0025641
        k(  491) = (   0.0869318   1.2840928  -0.8755788), wk =   0.0025641
        k(  492) = (   0.1390675   1.2840928  -0.7004630), wk =   0.0025641
        k(  493) = (   0.1912032   1.2840928  -0.5253473), wk =   0.0025641
        k(  494) = (   0.2433389   1.2840928  -0.3502315), wk =   0.0025641
        k(  495) = (   0.2954745   1.2840928  -0.1751158), wk =   0.0025641
        k(  496) = (   0.3475841   1.4676220   0.0000000), wk =   0.0025641
        k(  497) = (   0.3997198   1.4676220   0.1751158), wk =   0.0025641
        k(  498) = (   0.4518555   1.4676220   0.3502315), wk =   0.0025641
        k(  499) = (   0.5039912   1.4676220   0.5253473), wk =   0.0025641
        k(  500) = (   0.5561269   1.4676221   0.7004630), wk =   0.0025641
        k(  501) = (   0.6082625   1.4676221   0.8755788), wk =   0.0025641
        k(  502) = (   0.6603982   1.4676221   1.0506945), wk =   0.0025641
        k(  503) = (   0.0347701   1.4676220  -1.0506945), wk =   0.0025641
        k(  504) = (   0.0869057   1.4676220  -0.8755788), wk =   0.0025641
        k(  505) = (   0.1390414   1.4676220  -0.7004630), wk =   0.0025641
        k(  506) = (   0.1911771   1.4676220  -0.5253473), wk =   0.0025641
        k(  507) = (   0.2433128   1.4676220  -0.3502315), wk =   0.0025641
        k(  508) = (   0.2954485   1.4676220  -0.1751158), wk =   0.0025641
        k(  509) = (   0.3475581   1.6511513   0.0000000), wk =   0.0025641
        k(  510) = (   0.3996937   1.6511513   0.1751158), wk =   0.0025641
        k(  511) = (   0.4518294   1.6511513   0.3502315), wk =   0.0025641
        k(  512) = (   0.5039651   1.6511513   0.5253473), wk =   0.0025641
        k(  513) = (   0.5561008   1.6511513   0.7004630), wk =   0.0025641
        k(  514) = (   0.6082365   1.6511513   0.8755788), wk =   0.0025641
        k(  515) = (   0.6603721   1.6511513   1.0506945), wk =   0.0025641
        k(  516) = (   0.0347440   1.6511512  -1.0506945), wk =   0.0025641
        k(  517) = (   0.0868797   1.6511512  -0.8755788), wk =   0.0025641
        k(  518) = (   0.1390153   1.6511512  -0.7004630), wk =   0.0025641
        k(  519) = (   0.1911510   1.6511512  -0.5253473), wk =   0.0025641
        k(  520) = (   0.2432867   1.6511512  -0.3502315), wk =   0.0025641
        k(  521) = (   0.2954224   1.6511513  -0.1751158), wk =   0.0025641
        k(  522) = (   0.3480536  -1.8359040   0.0000000), wk =   0.0025641
        k(  523) = (   0.4001893  -1.8359040   0.1751158), wk =   0.0025641
        k(  524) = (   0.4523250  -1.8359040   0.3502315), wk =   0.0025641
        k(  525) = (   0.5044607  -1.8359040   0.5253473), wk =   0.0025641
        k(  526) = (   0.5565963  -1.8359040   0.7004630), wk =   0.0025641
        k(  527) = (   0.6087320  -1.8359040   0.8755788), wk =   0.0025641
        k(  528) = (   0.6608677  -1.8359040   1.0506945), wk =   0.0025641
        k(  529) = (   0.0352395  -1.8359040  -1.0506945), wk =   0.0025641
        k(  530) = (   0.0873752  -1.8359040  -0.8755788), wk =   0.0025641
        k(  531) = (   0.1395109  -1.8359040  -0.7004630), wk =   0.0025641
        k(  532) = (   0.1916466  -1.8359040  -0.5253473), wk =   0.0025641
        k(  533) = (   0.2437823  -1.8359040  -0.3502315), wk =   0.0025641
        k(  534) = (   0.2959179  -1.8359040  -0.1751158), wk =   0.0025641
        k(  535) = (   0.3480275  -1.6523748   0.0000000), wk =   0.0025641
        k(  536) = (   0.4001632  -1.6523748   0.1751158), wk =   0.0025641
        k(  537) = (   0.4522989  -1.6523748   0.3502315), wk =   0.0025641
        k(  538) = (   0.5044346  -1.6523748   0.5253473), wk =   0.0025641
        k(  539) = (   0.5565703  -1.6523747   0.7004630), wk =   0.0025641
        k(  540) = (   0.6087059  -1.6523747   0.8755788), wk =   0.0025641
        k(  541) = (   0.6608416  -1.6523747   1.0506945), wk =   0.0025641
        k(  542) = (   0.0352135  -1.6523748  -1.0506945), wk =   0.0025641
        k(  543) = (   0.0873491  -1.6523748  -0.8755788), wk =   0.0025641
        k(  544) = (   0.1394848  -1.6523748  -0.7004630), wk =   0.0025641
        k(  545) = (   0.1916205  -1.6523748  -0.5253473), wk =   0.0025641
        k(  546) = (   0.2437562  -1.6523748  -0.3502315), wk =   0.0025641
        k(  547) = (   0.2958919  -1.6523748  -0.1751158), wk =   0.0025641
        k(  548) = (   0.3480015  -1.4688455   0.0000000), wk =   0.0025641
        k(  549) = (   0.4001371  -1.4688455   0.1751158), wk =   0.0025641
        k(  550) = (   0.4522728  -1.4688455   0.3502315), wk =   0.0025641
        k(  551) = (   0.5044085  -1.4688455   0.5253473), wk =   0.0025641
        k(  552) = (   0.5565442  -1.4688455   0.7004630), wk =   0.0025641
        k(  553) = (   0.6086799  -1.4688455   0.8755788), wk =   0.0025641
        k(  554) = (   0.6608155  -1.4688455   1.0506945), wk =   0.0025641
        k(  555) = (   0.0351874  -1.4688456  -1.0506945), wk =   0.0025641
        k(  556) = (   0.0873231  -1.4688456  -0.8755788), wk =   0.0025641
        k(  557) = (   0.1394587  -1.4688456  -0.7004630), wk =   0.0025641
        k(  558) = (   0.1915944  -1.4688456  -0.5253473), wk =   0.0025641
        k(  559) = (   0.2437301  -1.4688456  -0.3502315), wk =   0.0025641
        k(  560) = (   0.2958658  -1.4688455  -0.1751158), wk =   0.0025641
        k(  561) = (   0.3479754  -1.2853163   0.0000000), wk =   0.0025641
        k(  562) = (   0.4001111  -1.2853163   0.1751158), wk =   0.0025641
        k(  563) = (   0.4522467  -1.2853163   0.3502315), wk =   0.0025641
        k(  564) = (   0.5043824  -1.2853163   0.5253473), wk =   0.0025641
        k(  565) = (   0.5565181  -1.2853163   0.7004630), wk =   0.0025641
        k(  566) = (   0.6086538  -1.2853163   0.8755788), wk =   0.0025641
        k(  567) = (   0.6607895  -1.2853163   1.0506945), wk =   0.0025641
        k(  568) = (   0.0351613  -1.2853163  -1.0506945), wk =   0.0025641
        k(  569) = (   0.0872970  -1.2853163  -0.8755788), wk =   0.0025641
        k(  570) = (   0.1394327  -1.2853163  -0.7004630), wk =   0.0025641
        k(  571) = (   0.1915683  -1.2853163  -0.5253473), wk =   0.0025641
        k(  572) = (   0.2437040  -1.2853163  -0.3502315), wk =   0.0025641
        k(  573) = (   0.2958397  -1.2853163  -0.1751158), wk =   0.0025641
        k(  574) = (   0.3479493  -1.1017871   0.0000000), wk =   0.0025641
        k(  575) = (   0.4000850  -1.1017871   0.1751158), wk =   0.0025641
        k(  576) = (   0.4522207  -1.1017871   0.3502315), wk =   0.0025641
        k(  577) = (   0.5043563  -1.1017871   0.5253473), wk =   0.0025641
        k(  578) = (   0.5564920  -1.1017871   0.7004630), wk =   0.0025641
        k(  579) = (   0.6086277  -1.1017871   0.8755788), wk =   0.0025641
        k(  580) = (   0.6607634  -1.1017871   1.0506945), wk =   0.0025641
        k(  581) = (   0.0351352  -1.1017871  -1.0506945), wk =   0.0025641
        k(  582) = (   0.0872709  -1.1017871  -0.8755788), wk =   0.0025641
        k(  583) = (   0.1394066  -1.1017871  -0.7004630), wk =   0.0025641
        k(  584) = (   0.1915423  -1.1017871  -0.5253473), wk =   0.0025641
        k(  585) = (   0.2436779  -1.1017871  -0.3502315), wk =   0.0025641
        k(  586) = (   0.2958136  -1.1017871  -0.1751158), wk =   0.0025641
        k(  587) = (   0.3479232  -0.9182579   0.0000000), wk =   0.0025641
        k(  588) = (   0.4000589  -0.9182579   0.1751158), wk =   0.0025641
        k(  589) = (   0.4521946  -0.9182579   0.3502315), wk =   0.0025641
        k(  590) = (   0.5043303  -0.9182579   0.5253473), wk =   0.0025641
        k(  591) = (   0.5564659  -0.9182579   0.7004630), wk =   0.0025641
        k(  592) = (   0.6086016  -0.9182578   0.8755788), wk =   0.0025641
        k(  593) = (   0.6607373  -0.9182578   1.0506945), wk =   0.0025641
        k(  594) = (   0.0351091  -0.9182579  -1.0506945), wk =   0.0025641
        k(  595) = (   0.0872448  -0.9182579  -0.8755788), wk =   0.0025641
        k(  596) = (   0.1393805  -0.9182579  -0.7004630), wk =   0.0025641
        k(  597) = (   0.1915162  -0.9182579  -0.5253473), wk =   0.0025641
        k(  598) = (   0.2436519  -0.9182579  -0.3502315), wk =   0.0025641
        k(  599) = (   0.2957875  -0.9182579  -0.1751158), wk =   0.0025641
        k(  600) = (   0.3478971  -0.7347286   0.0000000), wk =   0.0025641
        k(  601) = (   0.4000328  -0.7347286   0.1751158), wk =   0.0025641
        k(  602) = (   0.4521685  -0.7347286   0.3502315), wk =   0.0025641
        k(  603) = (   0.5043042  -0.7347286   0.5253473), wk =   0.0025641
        k(  604) = (   0.5564399  -0.7347286   0.7004630), wk =   0.0025641
        k(  605) = (   0.6085755  -0.7347286   0.8755788), wk =   0.0025641
        k(  606) = (   0.6607112  -0.7347286   1.0506945), wk =   0.0025641
        k(  607) = (   0.0350831  -0.7347287  -1.0506945), wk =   0.0025641
        k(  608) = (   0.0872187  -0.7347287  -0.8755788), wk =   0.0025641
        k(  609) = (   0.1393544  -0.7347287  -0.7004630), wk =   0.0025641
        k(  610) = (   0.1914901  -0.7347287  -0.5253473), wk =   0.0025641
        k(  611) = (   0.2436258  -0.7347287  -0.3502315), wk =   0.0025641
        k(  612) = (   0.2957615  -0.7347287  -0.1751158), wk =   0.0025641
        k(  613) = (   0.3478710  -0.5511994   0.0000000), wk =   0.0025641
        k(  614) = (   0.4000067  -0.5511994   0.1751158), wk =   0.0025641
        k(  615) = (   0.4521424  -0.5511994   0.3502315), wk =   0.0025641
        k(  616) = (   0.5042781  -0.5511994   0.5253473), wk =   0.0025641
        k(  617) = (   0.5564138  -0.5511994   0.7004630), wk =   0.0025641
        k(  618) = (   0.6085494  -0.5511994   0.8755788), wk =   0.0025641
        k(  619) = (   0.6606851  -0.5511994   1.0506945), wk =   0.0025641
        k(  620) = (   0.0350570  -0.5511995  -1.0506945), wk =   0.0025641
        k(  621) = (   0.0871927  -0.5511995  -0.8755788), wk =   0.0025641
        k(  622) = (   0.1393283  -0.5511994  -0.7004630), wk =   0.0025641
        k(  623) = (   0.1914640  -0.5511994  -0.5253473), wk =   0.0025641
        k(  624) = (   0.2435997  -0.5511994  -0.3502315), wk =   0.0025641
        k(  625) = (   0.2957354  -0.5511994  -0.1751158), wk =   0.0025641
        k(  626) = (   0.3478450  -0.3676702   0.0000000), wk =   0.0025641
        k(  627) = (   0.3999806  -0.3676702   0.1751158), wk =   0.0025641
        k(  628) = (   0.4521163  -0.3676702   0.3502315), wk =   0.0025641
        k(  629) = (   0.5042520  -0.3676702   0.5253473), wk =   0.0025641
        k(  630) = (   0.5563877  -0.3676702   0.7004630), wk =   0.0025641
        k(  631) = (   0.6085234  -0.3676702   0.8755788), wk =   0.0025641
        k(  632) = (   0.6606590  -0.3676702   1.0506945), wk =   0.0025641
        k(  633) = (   0.0350309  -0.3676702  -1.0506945), wk =   0.0025641
        k(  634) = (   0.0871666  -0.3676702  -0.8755788), wk =   0.0025641
        k(  635) = (   0.1393022  -0.3676702  -0.7004630), wk =   0.0025641
        k(  636) = (   0.1914379  -0.3676702  -0.5253473), wk =   0.0025641
        k(  637) = (   0.2435736  -0.3676702  -0.3502315), wk =   0.0025641
        k(  638) = (   0.2957093  -0.3676702  -0.1751158), wk =   0.0025641
        k(  639) = (   0.3478189  -0.1841410   0.0000000), wk =   0.0025641
        k(  640) = (   0.3999546  -0.1841410   0.1751158), wk =   0.0025641
        k(  641) = (   0.4520902  -0.1841410   0.3502315), wk =   0.0025641
        k(  642) = (   0.5042259  -0.1841410   0.5253473), wk =   0.0025641
        k(  643) = (   0.5563616  -0.1841410   0.7004630), wk =   0.0025641
        k(  644) = (   0.6084973  -0.1841410   0.8755788), wk =   0.0025641
        k(  645) = (   0.6606330  -0.1841409   1.0506945), wk =   0.0025641
        k(  646) = (   0.0350048  -0.1841410  -1.0506945), wk =   0.0025641
        k(  647) = (   0.0871405  -0.1841410  -0.8755788), wk =   0.0025641
        k(  648) = (   0.1392762  -0.1841410  -0.7004630), wk =   0.0025641
        k(  649) = (   0.1914118  -0.1841410  -0.5253473), wk =   0.0025641
        k(  650) = (   0.2435475  -0.1841410  -0.3502315), wk =   0.0025641
        k(  651) = (   0.2956832  -0.1841410  -0.1751158), wk =   0.0025641
        k(  652) = (  -0.5216892   0.0009176   0.0000000), wk =   0.0012821
        k(  653) = (  -0.4695535   0.0009176   0.1751158), wk =   0.0025641
        k(  654) = (  -0.4174178   0.0009176   0.3502315), wk =   0.0025641
        k(  655) = (  -0.3652822   0.0009176   0.5253473), wk =   0.0025641
        k(  656) = (  -0.3131465   0.0009177   0.7004630), wk =   0.0025641
        k(  657) = (  -0.2610108   0.0009177   0.8755788), wk =   0.0025641
        k(  658) = (  -0.2088751   0.0009177   1.0506945), wk =   0.0025641
        k(  659) = (  -0.5217153   0.1844469   0.0000000), wk =   0.0025641
        k(  660) = (  -0.4695796   0.1844469   0.1751158), wk =   0.0025641
        k(  661) = (  -0.4174439   0.1844469   0.3502315), wk =   0.0025641
        k(  662) = (  -0.3653082   0.1844469   0.5253473), wk =   0.0025641
        k(  663) = (  -0.3131726   0.1844469   0.7004630), wk =   0.0025641
        k(  664) = (  -0.2610369   0.1844469   0.8755788), wk =   0.0025641
        k(  665) = (  -0.2089012   0.1844469   1.0506945), wk =   0.0025641
        k(  666) = (  -0.8345294   0.1844468  -1.0506945), wk =   0.0025641
        k(  667) = (  -0.7823937   0.1844468  -0.8755788), wk =   0.0025641
        k(  668) = (  -0.7302580   0.1844468  -0.7004630), wk =   0.0025641
        k(  669) = (  -0.6781223   0.1844468  -0.5253473), wk =   0.0025641
        k(  670) = (  -0.6259866   0.1844468  -0.3502315), wk =   0.0025641
        k(  671) = (  -0.5738510   0.1844469  -0.1751158), wk =   0.0025641
        k(  672) = (  -0.5217414   0.3679761   0.0000000), wk =   0.0025641
        k(  673) = (  -0.4696057   0.3679761   0.1751158), wk =   0.0025641
        k(  674) = (  -0.4174700   0.3679761   0.3502315), wk =   0.0025641
        k(  675) = (  -0.3653343   0.3679761   0.5253473), wk =   0.0025641
        k(  676) = (  -0.3131987   0.3679761   0.7004630), wk =   0.0025641
        k(  677) = (  -0.2610630   0.3679761   0.8755788), wk =   0.0025641
        k(  678) = (  -0.2089273   0.3679761   1.0506945), wk =   0.0025641
        k(  679) = (  -0.8345554   0.3679761  -1.0506945), wk =   0.0025641
        k(  680) = (  -0.7824198   0.3679761  -0.8755788), wk =   0.0025641
        k(  681) = (  -0.7302841   0.3679761  -0.7004630), wk =   0.0025641
        k(  682) = (  -0.6781484   0.3679761  -0.5253473), wk =   0.0025641
        k(  683) = (  -0.6260127   0.3679761  -0.3502315), wk =   0.0025641
        k(  684) = (  -0.5738770   0.3679761  -0.1751158), wk =   0.0025641
        k(  685) = (  -0.5217675   0.5515053   0.0000000), wk =   0.0025641
        k(  686) = (  -0.4696318   0.5515053   0.1751158), wk =   0.0025641
        k(  687) = (  -0.4174961   0.5515053   0.3502315), wk =   0.0025641
        k(  688) = (  -0.3653604   0.5515053   0.5253473), wk =   0.0025641
        k(  689) = (  -0.3132247   0.5515053   0.7004630), wk =   0.0025641
        k(  690) = (  -0.2610891   0.5515053   0.8755788), wk =   0.0025641
        k(  691) = (  -0.2089534   0.5515053   1.0506945), wk =   0.0025641
        k(  692) = (  -0.8345815   0.5515053  -1.0506945), wk =   0.0025641
        k(  693) = (  -0.7824458   0.5515053  -0.8755788), wk =   0.0025641
        k(  694) = (  -0.7303102   0.5515053  -0.7004630), wk =   0.0025641
        k(  695) = (  -0.6781745   0.5515053  -0.5253473), wk =   0.0025641
        k(  696) = (  -0.6260388   0.5515053  -0.3502315), wk =   0.0025641
        k(  697) = (  -0.5739031   0.5515053  -0.1751158), wk =   0.0025641
        k(  698) = (  -0.5217935   0.7350345   0.0000000), wk =   0.0025641
        k(  699) = (  -0.4696579   0.7350345   0.1751158), wk =   0.0025641
        k(  700) = (  -0.4175222   0.7350345   0.3502315), wk =   0.0025641
        k(  701) = (  -0.3653865   0.7350345   0.5253473), wk =   0.0025641
        k(  702) = (  -0.3132508   0.7350345   0.7004630), wk =   0.0025641
        k(  703) = (  -0.2611151   0.7350346   0.8755788), wk =   0.0025641
        k(  704) = (  -0.2089795   0.7350346   1.0506945), wk =   0.0025641
        k(  705) = (  -0.8346076   0.7350345  -1.0506945), wk =   0.0025641
        k(  706) = (  -0.7824719   0.7350345  -0.8755788), wk =   0.0025641
        k(  707) = (  -0.7303363   0.7350345  -0.7004630), wk =   0.0025641
        k(  708) = (  -0.6782006   0.7350345  -0.5253473), wk =   0.0025641
        k(  709) = (  -0.6260649   0.7350345  -0.3502315), wk =   0.0025641
        k(  710) = (  -0.5739292   0.7350345  -0.1751158), wk =   0.0025641
        k(  711) = (  -0.5218196   0.9185638   0.0000000), wk =   0.0025641
        k(  712) = (  -0.4696839   0.9185638   0.1751158), wk =   0.0025641
        k(  713) = (  -0.4175483   0.9185638   0.3502315), wk =   0.0025641
        k(  714) = (  -0.3654126   0.9185638   0.5253473), wk =   0.0025641
        k(  715) = (  -0.3132769   0.9185638   0.7004630), wk =   0.0025641
        k(  716) = (  -0.2611412   0.9185638   0.8755788), wk =   0.0025641
        k(  717) = (  -0.2090055   0.9185638   1.0506945), wk =   0.0025641
        k(  718) = (  -0.8346337   0.9185637  -1.0506945), wk =   0.0025641
        k(  719) = (  -0.7824980   0.9185637  -0.8755788), wk =   0.0025641
        k(  720) = (  -0.7303623   0.9185637  -0.7004630), wk =   0.0025641
        k(  721) = (  -0.6782267   0.9185637  -0.5253473), wk =   0.0025641
        k(  722) = (  -0.6260910   0.9185637  -0.3502315), wk =   0.0025641
        k(  723) = (  -0.5739553   0.9185637  -0.1751158), wk =   0.0025641
        k(  724) = (  -0.5218457   1.1020930   0.0000000), wk =   0.0025641
        k(  725) = (  -0.4697100   1.1020930   0.1751158), wk =   0.0025641
        k(  726) = (  -0.4175743   1.1020930   0.3502315), wk =   0.0025641
        k(  727) = (  -0.3654387   1.1020930   0.5253473), wk =   0.0025641
        k(  728) = (  -0.3133030   1.1020930   0.7004630), wk =   0.0025641
        k(  729) = (  -0.2611673   1.1020930   0.8755788), wk =   0.0025641
        k(  730) = (  -0.2090316   1.1020930   1.0506945), wk =   0.0025641
        k(  731) = (  -0.8346598   1.1020929  -1.0506945), wk =   0.0025641
        k(  732) = (  -0.7825241   1.1020929  -0.8755788), wk =   0.0025641
        k(  733) = (  -0.7303884   1.1020930  -0.7004630), wk =   0.0025641
        k(  734) = (  -0.6782527   1.1020930  -0.5253473), wk =   0.0025641
        k(  735) = (  -0.6261171   1.1020930  -0.3502315), wk =   0.0025641
        k(  736) = (  -0.5739814   1.1020930  -0.1751158), wk =   0.0025641
        k(  737) = (  -0.5218718   1.2856222   0.0000000), wk =   0.0025641
        k(  738) = (  -0.4697361   1.2856222   0.1751158), wk =   0.0025641
        k(  739) = (  -0.4176004   1.2856222   0.3502315), wk =   0.0025641
        k(  740) = (  -0.3654647   1.2856222   0.5253473), wk =   0.0025641
        k(  741) = (  -0.3133291   1.2856222   0.7004630), wk =   0.0025641
        k(  742) = (  -0.2611934   1.2856222   0.8755788), wk =   0.0025641
        k(  743) = (  -0.2090577   1.2856222   1.0506945), wk =   0.0025641
        k(  744) = (  -0.8346859   1.2856222  -1.0506945), wk =   0.0025641
        k(  745) = (  -0.7825502   1.2856222  -0.8755788), wk =   0.0025641
        k(  746) = (  -0.7304145   1.2856222  -0.7004630), wk =   0.0025641
        k(  747) = (  -0.6782788   1.2856222  -0.5253473), wk =   0.0025641
        k(  748) = (  -0.6261431   1.2856222  -0.3502315), wk =   0.0025641
        k(  749) = (  -0.5740075   1.2856222  -0.1751158), wk =   0.0025641
        k(  750) = (  -0.5218979   1.4691514   0.0000000), wk =   0.0025641
        k(  751) = (  -0.4697622   1.4691514   0.1751158), wk =   0.0025641
        k(  752) = (  -0.4176265   1.4691514   0.3502315), wk =   0.0025641
        k(  753) = (  -0.3654908   1.4691514   0.5253473), wk =   0.0025641
        k(  754) = (  -0.3133551   1.4691514   0.7004630), wk =   0.0025641
        k(  755) = (  -0.2612195   1.4691514   0.8755788), wk =   0.0025641
        k(  756) = (  -0.2090838   1.4691515   1.0506945), wk =   0.0025641
        k(  757) = (  -0.8347119   1.4691514  -1.0506945), wk =   0.0025641
        k(  758) = (  -0.7825763   1.4691514  -0.8755788), wk =   0.0025641
        k(  759) = (  -0.7304406   1.4691514  -0.7004630), wk =   0.0025641
        k(  760) = (  -0.6783049   1.4691514  -0.5253473), wk =   0.0025641
        k(  761) = (  -0.6261692   1.4691514  -0.3502315), wk =   0.0025641
        k(  762) = (  -0.5740335   1.4691514  -0.1751158), wk =   0.0025641
        k(  763) = (  -0.5219239   1.6526806   0.0000000), wk =   0.0025641
        k(  764) = (  -0.4697883   1.6526806   0.1751158), wk =   0.0025641
        k(  765) = (  -0.4176526   1.6526807   0.3502315), wk =   0.0025641
        k(  766) = (  -0.3655169   1.6526807   0.5253473), wk =   0.0025641
        k(  767) = (  -0.3133812   1.6526807   0.7004630), wk =   0.0025641
        k(  768) = (  -0.2612455   1.6526807   0.8755788), wk =   0.0025641
        k(  769) = (  -0.2091099   1.6526807   1.0506945), wk =   0.0025641
        k(  770) = (  -0.8347380   1.6526806  -1.0506945), wk =   0.0025641
        k(  771) = (  -0.7826023   1.6526806  -0.8755788), wk =   0.0025641
        k(  772) = (  -0.7304667   1.6526806  -0.7004630), wk =   0.0025641
        k(  773) = (  -0.6783310   1.6526806  -0.5253473), wk =   0.0025641
        k(  774) = (  -0.6261953   1.6526806  -0.3502315), wk =   0.0025641
        k(  775) = (  -0.5740596   1.6526806  -0.1751158), wk =   0.0025641
        k(  776) = (  -0.5214284  -1.8343746   0.0000000), wk =   0.0012821
        k(  777) = (  -0.4692927  -1.8343746   0.1751158), wk =   0.0025641
        k(  778) = (  -0.4171570  -1.8343746   0.3502315), wk =   0.0025641
        k(  779) = (  -0.3650213  -1.8343746   0.5253473), wk =   0.0025641
        k(  780) = (  -0.3128857  -1.8343746   0.7004630), wk =   0.0025641
        k(  781) = (  -0.2607500  -1.8343746   0.8755788), wk =   0.0025641
        k(  782) = (  -0.2086143  -1.8343746   1.0506945), wk =   0.0025641

                       cryst. coord.
        k(    1) = (   0.0000000   0.0000000   0.0000000), wk =   0.0012821
        k(    2) = (   0.0000000   0.0000000   0.0769231), wk =   0.0025641
        k(    3) = (   0.0000000   0.0000000   0.1538462), wk =   0.0025641
        k(    4) = (   0.0000000   0.0000000   0.2307692), wk =   0.0025641
        k(    5) = (   0.0000000   0.0000000   0.3076923), wk =   0.0025641
        k(    6) = (   0.0000000   0.0000000   0.3846154), wk =   0.0025641
        k(    7) = (   0.0000000   0.0000000   0.4615385), wk =   0.0025641
        k(    8) = (  -0.0000000   0.0500000   0.0000000), wk =   0.0025641
        k(    9) = (   0.0000000   0.0500000   0.0769231), wk =   0.0025641
        k(   10) = (   0.0000000   0.0500000   0.1538462), wk =   0.0025641
        k(   11) = (   0.0000000   0.0500000   0.2307692), wk =   0.0025641
        k(   12) = (   0.0000000   0.0500000   0.3076923), wk =   0.0025641
        k(   13) = (   0.0000000   0.0500000   0.3846154), wk =   0.0025641
        k(   14) = (   0.0000000   0.0500000   0.4615385), wk =   0.0025641
        k(   15) = (  -0.0000000   0.0500000  -0.4615385), wk =   0.0025641
        k(   16) = (  -0.0000000   0.0500000  -0.3846154), wk =   0.0025641
        k(   17) = (  -0.0000000   0.0500000  -0.3076923), wk =   0.0025641
        k(   18) = (  -0.0000000   0.0500000  -0.2307692), wk =   0.0025641
        k(   19) = (  -0.0000000   0.0500000  -0.1538462), wk =   0.0025641
        k(   20) = (  -0.0000000   0.0500000  -0.0769231), wk =   0.0025641
        k(   21) = (  -0.0000000   0.1000000   0.0000000), wk =   0.0025641
        k(   22) = (   0.0000000   0.1000000   0.0769231), wk =   0.0025641
        k(   23) = (   0.0000000   0.1000000   0.1538462), wk =   0.0025641
        k(   24) = (   0.0000000   0.1000000   0.2307692), wk =   0.0025641
        k(   25) = (   0.0000000   0.1000000   0.3076923), wk =   0.0025641
        k(   26) = (   0.0000000   0.1000000   0.3846154), wk =   0.0025641
        k(   27) = (   0.0000000   0.1000000   0.4615385), wk =   0.0025641
        k(   28) = (  -0.0000000   0.1000000  -0.4615385), wk =   0.0025641
        k(   29) = (  -0.0000000   0.1000000  -0.3846154), wk =   0.0025641
        k(   30) = (  -0.0000000   0.1000000  -0.3076923), wk =   0.0025641
        k(   31) = (  -0.0000000   0.1000000  -0.2307692), wk =   0.0025641
        k(   32) = (  -0.0000000   0.1000000  -0.1538462), wk =   0.0025641
        k(   33) = (  -0.0000000   0.1000000  -0.0769231), wk =   0.0025641
        k(   34) = (  -0.0000000   0.1500000   0.0000000), wk =   0.0025641
        k(   35) = (   0.0000000   0.1500000   0.0769231), wk =   0.0025641
        k(   36) = (   0.0000000   0.1500000   0.1538462), wk =   0.0025641
        k(   37) = (   0.0000000   0.1500000   0.2307692), wk =   0.0025641
        k(   38) = (   0.0000000   0.1500000   0.3076923), wk =   0.0025641
        k(   39) = (   0.0000000   0.1500000   0.3846154), wk =   0.0025641
        k(   40) = (   0.0000000   0.1500000   0.4615385), wk =   0.0025641
        k(   41) = (  -0.0000000   0.1500000  -0.4615385), wk =   0.0025641
        k(   42) = (  -0.0000000   0.1500000  -0.3846154), wk =   0.0025641
        k(   43) = (  -0.0000000   0.1500000  -0.3076923), wk =   0.0025641
        k(   44) = (  -0.0000000   0.1500000  -0.2307692), wk =   0.0025641
        k(   45) = (  -0.0000000   0.1500000  -0.1538462), wk =   0.0025641
        k(   46) = (  -0.0000000   0.1500000  -0.0769231), wk =   0.0025641
        k(   47) = (  -0.0000000   0.2000000   0.0000000), wk =   0.0025641
        k(   48) = (   0.0000000   0.2000000   0.0769231), wk =   0.0025641
        k(   49) = (   0.0000000   0.2000000   0.1538462), wk =   0.0025641
        k(   50) = (   0.0000000   0.2000000   0.2307692), wk =   0.0025641
        k(   51) = (   0.0000000   0.2000000   0.3076923), wk =   0.0025641
        k(   52) = (   0.0000000   0.2000000   0.3846154), wk =   0.0025641
        k(   53) = (   0.0000000   0.2000000   0.4615385), wk =   0.0025641
        k(   54) = (  -0.0000000   0.2000000  -0.4615385), wk =   0.0025641
        k(   55) = (  -0.0000000   0.2000000  -0.3846154), wk =   0.0025641
        k(   56) = (  -0.0000000   0.2000000  -0.3076923), wk =   0.0025641
        k(   57) = (  -0.0000000   0.2000000  -0.2307692), wk =   0.0025641
        k(   58) = (  -0.0000000   0.2000000  -0.1538462), wk =   0.0025641
        k(   59) = (  -0.0000000   0.2000000  -0.0769231), wk =   0.0025641
        k(   60) = (  -0.0000000   0.2500000   0.0000000), wk =   0.0025641
        k(   61) = (   0.0000000   0.2500000   0.0769231), wk =   0.0025641
        k(   62) = (   0.0000000   0.2500000   0.1538462), wk =   0.0025641
        k(   63) = (   0.0000000   0.2500000   0.2307692), wk =   0.0025641
        k(   64) = (   0.0000000   0.2500000   0.3076923), wk =   0.0025641
        k(   65) = (   0.0000000   0.2500000   0.3846154), wk =   0.0025641
        k(   66) = (   0.0000000   0.2500000   0.4615385), wk =   0.0025641
        k(   67) = (  -0.0000000   0.2500000  -0.4615385), wk =   0.0025641
        k(   68) = (  -0.0000000   0.2500000  -0.3846154), wk =   0.0025641
        k(   69) = (  -0.0000000   0.2500000  -0.3076923), wk =   0.0025641
        k(   70) = (  -0.0000000   0.2500000  -0.2307692), wk =   0.0025641
        k(   71) = (  -0.0000000   0.2500000  -0.1538462), wk =   0.0025641
        k(   72) = (  -0.0000000   0.2500000  -0.0769231), wk =   0.0025641
        k(   73) = (  -0.0000000   0.3000000   0.0000000), wk =   0.0025641
        k(   74) = (   0.0000000   0.3000000   0.0769231), wk =   0.0025641
        k(   75) = (   0.0000000   0.3000000   0.1538462), wk =   0.0025641
        k(   76) = (   0.0000000   0.3000000   0.2307692), wk =   0.0025641
        k(   77) = (   0.0000000   0.3000000   0.3076923), wk =   0.0025641
        k(   78) = (   0.0000000   0.3000000   0.3846154), wk =   0.0025641
        k(   79) = (   0.0000000   0.3000000   0.4615385), wk =   0.0025641
        k(   80) = (  -0.0000000   0.3000000  -0.4615385), wk =   0.0025641
        k(   81) = (  -0.0000000   0.3000000  -0.3846154), wk =   0.0025641
        k(   82) = (  -0.0000000   0.3000000  -0.3076923), wk =   0.0025641
        k(   83) = (  -0.0000000   0.3000000  -0.2307692), wk =   0.0025641
        k(   84) = (  -0.0000000   0.3000000  -0.1538462), wk =   0.0025641
        k(   85) = (  -0.0000000   0.3000000  -0.0769231), wk =   0.0025641
        k(   86) = (  -0.0000000   0.3500000   0.0000000), wk =   0.0025641
        k(   87) = (   0.0000000   0.3500000   0.0769231), wk =   0.0025641
        k(   88) = (   0.0000000   0.3500000   0.1538462), wk =   0.0025641
        k(   89) = (   0.0000000   0.3500000   0.2307692), wk =   0.0025641
        k(   90) = (   0.0000000   0.3500000   0.3076923), wk =   0.0025641
        k(   91) = (   0.0000000   0.3500000   0.3846154), wk =   0.0025641
        k(   92) = (   0.0000000   0.3500000   0.4615385), wk =   0.0025641
        k(   93) = (  -0.0000000   0.3500000  -0.4615385), wk =   0.0025641
        k(   94) = (  -0.0000000   0.3500000  -0.3846154), wk =   0.0025641
        k(   95) = (  -0.0000000   0.3500000  -0.3076923), wk =   0.0025641
        k(   96) = (  -0.0000000   0.3500000  -0.2307692), wk =   0.0025641
        k(   97) = (  -0.0000000   0.3500000  -0.1538462), wk =   0.0025641
        k(   98) = (  -0.0000000   0.3500000  -0.0769231), wk =   0.0025641
        k(   99) = (  -0.0000000   0.4000000   0.0000000), wk =   0.0025641
        k(  100) = (   0.0000000   0.4000000   0.0769231), wk =   0.0025641
        k(  101) = (   0.0000000   0.4000000   0.1538462), wk =   0.0025641
        k(  102) = (   0.0000000   0.4000000   0.2307692), wk =   0.0025641
        k(  103) = (   0.0000000   0.4000000   0.3076923), wk =   0.0025641
        k(  104) = (   0.0000000   0.4000000   0.3846154), wk =   0.0025641
        k(  105) = (   0.0000000   0.4000000   0.4615385), wk =   0.0025641
        k(  106) = (  -0.0000000   0.4000000  -0.4615385), wk =   0.0025641
        k(  107) = (  -0.0000000   0.4000000  -0.3846154), wk =   0.0025641
        k(  108) = (  -0.0000000   0.4000000  -0.3076923), wk =   0.0025641
        k(  109) = (  -0.0000000   0.4000000  -0.2307692), wk =   0.0025641
        k(  110) = (  -0.0000000   0.4000000  -0.1538462), wk =   0.0025641
        k(  111) = (  -0.0000000   0.4000000  -0.0769231), wk =   0.0025641
        k(  112) = (  -0.0000000   0.4500000   0.0000000), wk =   0.0025641
        k(  113) = (   0.0000000   0.4500000   0.0769231), wk =   0.0025641
        k(  114) = (   0.0000000   0.4500000   0.1538462), wk =   0.0025641
        k(  115) = (   0.0000000   0.4500000   0.2307692), wk =   0.0025641
        k(  116) = (   0.0000000   0.4500000   0.3076923), wk =   0.0025641
        k(  117) = (   0.0000000   0.4500000   0.3846154), wk =   0.0025641
        k(  118) = (   0.0000000   0.4500000   0.4615385), wk =   0.0025641
        k(  119) = (  -0.0000000   0.4500000  -0.4615385), wk =   0.0025641
        k(  120) = (  -0.0000000   0.4500000  -0.3846154), wk =   0.0025641
        k(  121) = (  -0.0000000   0.4500000  -0.3076923), wk =   0.0025641
        k(  122) = (  -0.0000000   0.4500000  -0.2307692), wk =   0.0025641
        k(  123) = (  -0.0000000   0.4500000  -0.1538462), wk =   0.0025641
        k(  124) = (  -0.0000000   0.4500000  -0.0769231), wk =   0.0025641
        k(  125) = (   0.0000000  -0.5000000   0.0000000), wk =   0.0012821
        k(  126) = (   0.0000000  -0.5000000   0.0769231), wk =   0.0025641
        k(  127) = (   0.0000000  -0.5000000   0.1538462), wk =   0.0025641
        k(  128) = (   0.0000000  -0.5000000   0.2307692), wk =   0.0025641
        k(  129) = (   0.0000000  -0.5000000   0.3076923), wk =   0.0025641
        k(  130) = (   0.0000000  -0.5000000   0.3846154), wk =   0.0025641
        k(  131) = (   0.0000000  -0.5000000   0.4615385), wk =   0.0025641
        k(  132) = (   0.1666667   0.0000000   0.0000000), wk =   0.0025641
        k(  133) = (   0.1666667   0.0000000   0.0769231), wk =   0.0025641
        k(  134) = (   0.1666667   0.0000000   0.1538462), wk =   0.0025641
        k(  135) = (   0.1666667   0.0000000   0.2307692), wk =   0.0025641
        k(  136) = (   0.1666667   0.0000000   0.3076923), wk =   0.0025641
        k(  137) = (   0.1666667   0.0000000   0.3846154), wk =   0.0025641
        k(  138) = (   0.1666667   0.0000000   0.4615385), wk =   0.0025641
        k(  139) = (   0.1666667  -0.0000000  -0.4615385), wk =   0.0025641
        k(  140) = (   0.1666667  -0.0000000  -0.3846154), wk =   0.0025641
        k(  141) = (   0.1666667  -0.0000000  -0.3076923), wk =   0.0025641
        k(  142) = (   0.1666667  -0.0000000  -0.2307692), wk =   0.0025641
        k(  143) = (   0.1666667   0.0000000  -0.1538462), wk =   0.0025641
[...]

          k =-0.2086-1.8344 1.0507 ( 11442 PWs)   bands (ev):

    -2.8949  -2.8936  -2.0907  -2.0897  -1.7243  -1.7221  -1.1325  -1.1318
     0.2510   0.2518   0.8127   0.8216   1.1091   1.1127   1.9547   1.9671
     2.0639   2.0687   3.0326   3.0442   3.4995   3.5033   4.0208   4.0259
     4.3882   4.3938   4.8169   4.8178   5.2848   5.2857   5.7762   5.7919
     6.4124   6.4198   6.7360   6.7482   7.0316   7.0350   7.3348   7.3362

     occupation numbers 
     1.0000   1.0000   1.0000   1.0000   1.0000   1.0000   1.0000   1.0000
     1.0000   1.0000   1.0000   1.0000   1.0000   1.0000   1.0000   1.0000
     1.0000   1.0000   1.0000   1.0000   1.0000   1.0000   1.0000   1.0000
     1.0000   1.0000   1.0000   1.0000   1.0010   1.0010   1.0182   1.0194
     0.9399   0.9349   0.5903   0.5735   0.1993   0.1956  -0.0097  -0.0101

     the Fermi energy is     6.8005 ev

!    total energy              =    -597.36836286 Ry
     Harris-Foulkes estimate   =    -597.36836286 Ry
     estimated scf accuracy    <          6.7E-13 Ry

     The total energy is the sum of the following terms:

     one-electron contribution =      48.83755728 Ry
     hartree contribution      =       6.71899177 Ry
     xc contribution           =     -77.82459167 Ry
     ewald contribution        =    -116.74673186 Ry
     one-center paw contrib.   =    -458.35316576 Ry
      -> PAW hartree energy AE =       1.25368900 Ry
      -> PAW hartree energy PS =      -1.24924426 Ry
      -> PAW xc energy AE      =     -36.51125468 Ry
      -> PAW xc energy PS      =       1.83280360 Ry
      -> total E_H with PAW    =       6.72343651 Ry
      -> total E_XC with PAW   =    -112.50304275 Ry
     smearing contrib. (-TS)   =      -0.00042262 Ry

     convergence has been achieved in  16 iterations

     Forces acting on atoms (cartesian axes, Ry/au):

     atom    1 type  1   force =    -0.00000297   -0.00000732   -0.00000034
     atom    2 type  2   force =    -0.00087559   -0.00000627   -0.00006748
     atom    3 type  2   force =    -0.00163017    0.00000476   -0.00064601
     atom    4 type  2   force =     0.00163249   -0.00000464    0.00064646
     atom    5 type  2   force =     0.00087440    0.00000632    0.00006769
     atom    6 type  3   force =    -0.00050803   -0.00000473   -0.00007596
     atom    7 type  3   force =     0.00091256    0.00001704    0.00083830
     atom    8 type  1   force =    -0.00081323    0.00000684   -0.00120171
     atom    9 type  1   force =     0.00081263   -0.00000692    0.00120124
     atom   10 type  3   force =    -0.00091240   -0.00001713   -0.00083834
     atom   11 type  3   force =     0.00050794    0.00000470    0.00007627
     atom   12 type  1   force =     0.00000260    0.00000724   -0.00000010
     atom   13 type  2   force =    -0.00089287    0.00000327   -0.00008103
     atom   14 type  2   force =    -0.00163438    0.00000835   -0.00065318
     atom   15 type  2   force =     0.00163672   -0.00000825    0.00065331
     atom   16 type  2   force =     0.00089126   -0.00000314    0.00008168
     atom   17 type  3   force =    -0.00051638    0.00000706   -0.00007217
     atom   18 type  3   force =     0.00091181    0.00001950    0.00083320
     atom   19 type  1   force =    -0.00082527    0.00001110   -0.00120296
     atom   20 type  1   force =     0.00082476   -0.00001128    0.00120286
     atom   21 type  3   force =    -0.00091168   -0.00001943   -0.00083351
     atom   22 type  3   force =     0.00051580   -0.00000708    0.00007177
     The non-local contrib.  to forces
     atom    1 type  1   force =    -0.00000422   -0.00002988    0.00000116
     atom    2 type  2   force =     0.01186357   -0.00001290    0.01038639
     atom    3 type  2   force =     0.00890296   -0.00005762    0.01241783
     atom    4 type  2   force =    -0.00892046    0.00005809   -0.01241929
     atom    5 type  2   force =    -0.01188503    0.00001297   -0.01039100
     atom    6 type  3   force =    -0.03086006    0.00005041   -0.04023217
     atom    7 type  3   force =     0.00667264   -0.00003152    0.01781881
     atom    8 type  1   force =     0.00679313   -0.00000408   -0.00236022
     atom    9 type  1   force =    -0.00680409    0.00000404    0.00235767
     atom   10 type  3   force =    -0.00665929    0.00003178   -0.01781175
     atom   11 type  3   force =     0.03086622   -0.00005016    0.04022823
     atom   12 type  1   force =    -0.00000673    0.00002979   -0.00000447
     atom   13 type  2   force =     0.01181816    0.00002723    0.01032769
     atom   14 type  2   force =     0.00889480   -0.00005146    0.01240590
     atom   15 type  2   force =    -0.00891181    0.00005181   -0.01240708
     atom   16 type  2   force =    -0.01183957   -0.00002665   -0.01033384
     atom   17 type  3   force =    -0.03087235    0.00007715   -0.04022589
     atom   18 type  3   force =     0.00669164   -0.00002627    0.01780116
     atom   19 type  1   force =     0.00677286    0.00000749   -0.00236070
     atom   20 type  1   force =    -0.00678397   -0.00000774    0.00235795
     atom   21 type  3   force =    -0.00667735    0.00002668   -0.01779415
     atom   22 type  3   force =     0.03087845   -0.00007658    0.04022245
     The ionic contribution  to forces
     atom    1 type  1   force =     0.00019565    0.00005517    0.00004352
     atom    2 type  2   force =    -0.06448995    0.00022552   -0.13121047
     atom    3 type  2   force =    -0.02510778   -0.00038139    0.07504466
     atom    4 type  2   force =     0.02510293    0.00038205   -0.07504580
     atom    5 type  2   force =     0.06444106   -0.00022462    0.13122335
     atom    6 type  3   force =     0.27990952   -0.00011016    0.47023738
     atom    7 type  3   force =    -0.22173157    0.00048335   -0.58518891
     atom    8 type  1   force =    -0.01604164    0.00154831    0.30423287
     atom    9 type  1   force =     0.01603939   -0.00154844   -0.30426589
     atom   10 type  3   force =     0.22183895   -0.00048391    0.58523400
     atom   11 type  3   force =    -0.27990815    0.00010981   -0.47025877
     atom   12 type  1   force =    -0.00031405   -0.00005559   -0.00004923
     atom   13 type  2   force =    -0.06481096    0.00032945   -0.13123430
     atom   14 type  2   force =    -0.02525327   -0.00039373    0.07499865
     atom   15 type  2   force =     0.02525038    0.00039447   -0.07499946
     atom   16 type  2   force =     0.06476273   -0.00032910    0.13124702
     atom   17 type  3   force =     0.27934215   -0.00014634    0.47034167
     atom   18 type  3   force =    -0.22200951    0.00054670   -0.58518379
     atom   19 type  1   force =    -0.01613998    0.00173036    0.30427676
     atom   20 type  1   force =     0.01614182   -0.00173073   -0.30430970
     atom   21 type  3   force =     0.22212119   -0.00054679    0.58522815
     atom   22 type  3   force =    -0.27933890    0.00014561   -0.47036171
     The local contribution  to forces
     atom    1 type  1   force =    -0.00019808   -0.00003553   -0.00004530
     atom    2 type  2   force =     0.05336389   -0.00021863    0.12182743
     atom    3 type  2   force =     0.01560313    0.00043541   -0.08658042
     atom    4 type  2   force =    -0.01558688   -0.00043631    0.08658208
     atom    5 type  2   force =    -0.05330365    0.00021778   -0.12183720
     atom    6 type  3   force =    -0.25254408    0.00006033   -0.43406498
     atom    7 type  3   force =     0.21661005   -0.00043701    0.56986661
     atom    8 type  1   force =     0.00925585   -0.00153177   -0.30298764
     atom    9 type  1   force =    -0.00925105    0.00153192    0.30302111
     atom   10 type  3   force =    -0.21671538    0.00043754   -0.56991122
     atom   11 type  3   force =     0.25254596   -0.00005987    0.43408711
     atom   12 type  1   force =     0.00031912    0.00003599    0.00005221
     atom   13 type  2   force =     0.05370799   -0.00034811    0.12188982
     atom   14 type  2   force =     0.01575171    0.00044594   -0.08653119
     atom   15 type  2   force =    -0.01573787   -0.00044683    0.08653191
     atom   16 type  2   force =    -0.05364890    0.00034743   -0.12189756
     atom   17 type  3   force =    -0.25197400    0.00008455   -0.43417104
     atom   18 type  3   force =     0.21687029   -0.00050233    0.56987223
     atom   19 type  1   force =     0.00935995   -0.00171902   -0.30303229
     atom   20 type  1   force =    -0.00935907    0.00171948    0.30306626
     atom   21 type  3   force =    -0.21698079    0.00050244   -0.56991630
     atom   22 type  3   force =     0.25197359   -0.00008396    0.43419090
     The core correction contribution to forces
     atom    1 type  1   force =     0.00000045    0.00000294   -0.00000036
     atom    2 type  2   force =    -0.00161643   -0.00000023   -0.00107137
     atom    3 type  2   force =    -0.00103178    0.00000839   -0.00152875
     atom    4 type  2   force =     0.00103376   -0.00000845    0.00152891
     atom    5 type  2   force =     0.00161893    0.00000021    0.00107181
     atom    6 type  3   force =     0.00298316   -0.00000529    0.00398302
     atom    7 type  3   force =    -0.00064186    0.00000224   -0.00165893
     atom    8 type  1   force =    -0.00082395   -0.00000558   -0.00008726
     atom    9 type  1   force =     0.00082531    0.00000559    0.00008763
     atom   10 type  3   force =     0.00062018   -0.00000252    0.00165010
     atom   11 type  3   force =    -0.00299907    0.00000495   -0.00398074
     atom   12 type  1   force =     0.00000107   -0.00000293    0.00000078
     atom   13 type  2   force =    -0.00161138   -0.00000527   -0.00106476
     atom   14 type  2   force =    -0.00103091    0.00000763   -0.00152724
     atom   15 type  2   force =     0.00103284   -0.00000767    0.00152737
     atom   16 type  2   force =     0.00161387    0.00000521    0.00106536
     atom   17 type  3   force =     0.00298446   -0.00000827    0.00398225
     atom   18 type  3   force =    -0.00064391    0.00000143   -0.00165708
     atom   19 type  1   force =    -0.00082149   -0.00000772   -0.00008727
     atom   20 type  1   force =     0.00082287    0.00000774    0.00008767
     atom   21 type  3   force =     0.00062206   -0.00000173    0.00164821
     atom   22 type  3   force =    -0.00300041    0.00000788   -0.00398030
     The Hubbard contrib.    to forces
     atom    1 type  1   force =     0.00000000    0.00000000    0.00000000
     atom    2 type  2   force =     0.00000000    0.00000000    0.00000000
     atom    3 type  2   force =     0.00000000    0.00000000    0.00000000
     atom    4 type  2   force =     0.00000000    0.00000000    0.00000000
     atom    5 type  2   force =     0.00000000    0.00000000    0.00000000
     atom    6 type  3   force =     0.00000000    0.00000000    0.00000000
     atom    7 type  3   force =     0.00000000    0.00000000    0.00000000
     atom    8 type  1   force =     0.00000000    0.00000000    0.00000000
     atom    9 type  1   force =     0.00000000    0.00000000    0.00000000
     atom   10 type  3   force =     0.00000000    0.00000000    0.00000000
     atom   11 type  3   force =     0.00000000    0.00000000    0.00000000
     atom   12 type  1   force =     0.00000000    0.00000000    0.00000000
     atom   13 type  2   force =     0.00000000    0.00000000    0.00000000
     atom   14 type  2   force =     0.00000000    0.00000000    0.00000000
     atom   15 type  2   force =     0.00000000    0.00000000    0.00000000
     atom   16 type  2   force =     0.00000000    0.00000000    0.00000000
     atom   17 type  3   force =     0.00000000    0.00000000    0.00000000
     atom   18 type  3   force =     0.00000000    0.00000000    0.00000000
     atom   19 type  1   force =     0.00000000    0.00000000    0.00000000
     atom   20 type  1   force =     0.00000000    0.00000000    0.00000000
     atom   21 type  3   force =     0.00000000    0.00000000    0.00000000
     atom   22 type  3   force =     0.00000000    0.00000000    0.00000000
     The SCF correction term to forces
     atom    1 type  1   force =     0.00000001    0.00000000    0.00000001
     atom    2 type  2   force =     0.00000012   -0.00000000   -0.00000009
     atom    3 type  2   force =     0.00000007   -0.00000000    0.00000005
     atom    4 type  2   force =    -0.00000008    0.00000000   -0.00000006
     atom    5 type  2   force =    -0.00000014    0.00000000    0.00000010
     atom    6 type  3   force =     0.00000021   -0.00000000    0.00000016
     atom    7 type  3   force =     0.00000008    0.00000000    0.00000010
     atom    8 type  1   force =     0.00000015   -0.00000000   -0.00000009
     atom    9 type  1   force =    -0.00000016   -0.00000000    0.00000010
     atom   10 type  3   force =    -0.00000008   -0.00000000   -0.00000010
     atom   11 type  3   force =    -0.00000025    0.00000000   -0.00000018
     atom   12 type  1   force =    -0.00000003   -0.00000000   -0.00000001
     atom   13 type  2   force =     0.00000010   -0.00000000   -0.00000010
     atom   14 type  2   force =     0.00000007    0.00000000    0.00000006
     atom   15 type  2   force =    -0.00000005    0.00000000   -0.00000005
     atom   16 type  2   force =    -0.00000009    0.00000000    0.00000009
     atom   17 type  3   force =     0.00000014    0.00000000    0.00000022
     atom   18 type  3   force =     0.00000007    0.00000000    0.00000005
     atom   19 type  1   force =     0.00000017    0.00000000   -0.00000008
     atom   20 type  1   force =    -0.00000012   -0.00000000    0.00000006
     atom   21 type  3   force =    -0.00000001   -0.00000001   -0.00000005
     atom   22 type  3   force =    -0.00000014   -0.00000000   -0.00000020

     Total force =     0.005583     Total SCF correction =     0.000001


     Computing stress (Cartesian axis) and pressure

          total   stress  (Ry/bohr**3)                   (kbar)     P=   -3.47
  -0.00001786  -0.00000300  -0.00000742         -2.63     -0.44     -1.09
  -0.00000300  -0.00001232   0.00000072         -0.44     -1.81      0.11
  -0.00000742   0.00000072  -0.00004061         -1.09      0.11     -5.97

     kinetic stress (kbar)   1463.24     -0.02    -14.37
                               -0.02   1485.09      0.10
                              -14.37      0.10   1462.00

     local   stress (kbar)    -47.41      0.82   -124.98
                                0.82    493.37      0.30
                             -124.98      0.30     16.14

     nonloc. stress (kbar)   1134.12     -0.47      3.56
                               -0.47   1129.64      0.01
                                3.56      0.01   1128.92

     hartree stress (kbar)    184.53      0.14     30.02
                                0.14     20.33     -0.11
                               30.02     -0.11    163.94

     exc-cor stress (kbar)   1486.72     -0.02      0.23
                               -0.02   1486.18      0.00
                                0.23      0.00   1486.35

     corecor stress (kbar)  -2232.23      0.07     -0.31
                                0.07  -2231.86     -0.00
                               -0.31     -0.00  -2231.49

     ewald   stress (kbar)  -1991.60     -0.97    104.76
                               -0.97  -2384.57     -0.20
                              104.76     -0.20  -2031.83

     hubbard stress (kbar)      0.00      0.00      0.00
                                0.00      0.00      0.00
                                0.00      0.00      0.00

     london  stress (kbar)      0.00      0.00      0.00
                                0.00      0.00      0.00
                                0.00      0.00      0.00

     DFT-D3  stress (kbar)      0.00      0.00      0.00
                                0.00      0.00      0.00
                                0.00      0.00      0.00

     XDM     stress (kbar)      0.00      0.00      0.00
                                0.00      0.00      0.00
                                0.00      0.00      0.00

     dft-nl  stress (kbar)      0.00      0.00      0.00
                                0.00      0.00      0.00
                                0.00      0.00      0.00

     TS-vdW  stress (kbar)      0.00      0.00      0.00
                                0.00      0.00      0.00
                                0.00      0.00      0.00



     Writing output data file aiida.save/
 
     init_run     :     24.30s CPU     24.72s WALL (       1 calls)
     electrons    :    803.82s CPU    816.24s WALL (       1 calls)
     forces       :      9.69s CPU      9.78s WALL (       1 calls)
     stress       :     64.46s CPU     65.34s WALL (       1 calls)

     Called by init_run:
     wfcinit      :     21.69s CPU     22.00s WALL (       1 calls)
     wfcinit:atom :      0.16s CPU      0.18s WALL (     196 calls)
     wfcinit:wfcr :     20.17s CPU     20.41s WALL (     196 calls)
     potinit      :      0.88s CPU      0.91s WALL (       1 calls)
     hinit0       :      1.55s CPU      1.57s WALL (       1 calls)

     Called by electrons:
     c_bands      :    720.12s CPU    729.80s WALL (      17 calls)
     sum_band     :     78.65s CPU     80.46s WALL (      17 calls)
     v_of_rho     :      1.22s CPU      1.33s WALL (      17 calls)
     v_h          :      0.08s CPU      0.08s WALL (      17 calls)
     v_xc         :      1.25s CPU      1.36s WALL (      19 calls)
     newd         :      1.29s CPU      2.01s WALL (      17 calls)
     PAW_pot      :      2.05s CPU      2.14s WALL (      17 calls)
     mix_rho      :      0.51s CPU      0.54s WALL (      17 calls)

     Called by c_bands:
     init_us_2    :     23.80s CPU     24.14s WALL (    7252 calls)
     cegterg      :    570.84s CPU    577.84s WALL (    3332 calls)

     Called by sum_band:
     sum_band:bec :      0.52s CPU      0.52s WALL (    3332 calls)
     addusdens    :      1.37s CPU      2.12s WALL (      17 calls)

     Called by *egterg:
     h_psi        :    389.19s CPU    395.01s WALL (   16520 calls)
     s_psi        :     59.83s CPU     59.99s WALL (   16520 calls)
     g_psi        :      2.65s CPU      2.67s WALL (   12992 calls)
     cdiaghg      :     66.87s CPU     67.79s WALL (   16128 calls)
     cegterg:over :     27.11s CPU     27.22s WALL (   12992 calls)
     cegterg:upda :     24.28s CPU     24.46s WALL (   12992 calls)
     cegterg:last :      9.43s CPU      9.47s WALL (    3780 calls)
     cdiaghg:chol :      4.52s CPU      4.55s WALL (   16128 calls)
     cdiaghg:inve :      0.92s CPU      0.93s WALL (   16128 calls)
     cdiaghg:para :      8.82s CPU      8.87s WALL (   32256 calls)

     Called by h_psi:
     h_psi:pot    :    387.50s CPU    393.31s WALL (   16520 calls)
     h_psi:calbec :     56.54s CPU     57.16s WALL (   16520 calls)
     vloc_psi     :    269.89s CPU    274.93s WALL (   16520 calls)
     add_vuspsi   :     60.93s CPU     61.10s WALL (   16520 calls)

     General routines
     calbec       :    104.28s CPU    105.92s WALL (   20832 calls)
     fft          :      0.98s CPU      1.09s WALL (     246 calls)
     ffts         :      0.19s CPU      0.20s WALL (     267 calls)
     fftw         :    285.72s CPU    290.92s WALL (  930448 calls)
     interpolate  :      0.10s CPU      0.11s WALL (      17 calls)
 
     Parallel routines
     fft_scatt_xy :     36.06s CPU     36.73s WALL (  930961 calls)
     fft_scatt_yz :    109.06s CPU    111.20s WALL (  930961 calls)

     PAW routines
     PAW_pot      :      2.05s CPU      2.14s WALL (      17 calls)
 
     PWSCF        :  15m27.63s CPU  15m59.19s WALL

 
   This run was terminated on:  11:24:35  22Feb2020            

=------------------------------------------------------------------------------=
   JOB DONE.
=------------------------------------------------------------------------------=
