
     Program PWSCF v.6.3 starts on 22Feb2020 at  7:25: 8 

     This program is part of the open-source Quantum ESPRESSO suite
     for quantum simulation of materials; please cite
         "P. Giannozzi et al., J. Phys.:Condens. Matter 21 395502 (2009);
         "P. Giannozzi et al., J. Phys.:Condens. Matter 29 465901 (2017);
          URL http://www.quantum-espresso.org", 
     in publications or presentations arising from this work. More details at
     http://www.quantum-espresso.org/quote

 *** WARNING: using old-style file format, will disappear from next version ***

     Parallel version (MPI & OpenMP), running on      36 processor cores
     Number of MPI processes:                36
     Threads/MPI process:                     1

     MPI processes distributed on     1 nodes
     K-points division:     npool     =       4
     R & G space division:  proc/nbgrp/npool/nimage =       9
     Reading input from aiida.in
Warning: card &IONS ignored
Warning: card   !PRESS_CONV_THR = 0.05                 ! JUST FOR VOLUME RELAXATIONS ignored
Warning: card / ignored

     Current dimensions of program PWSCF are:
     Max number of different atomic species (ntypx) = 10
     Max number of k-points (npk) =  40000
     Max angular momentum in pseudopotentials (lmaxx) =  3
               file Al.pbe-n-kjpaw_psl.1.0.0.UPF: wavefunction(s)  3S 3P renormalized

     Subspace diagonalization in iterative solution of the eigenvalue problem:
     one sub-group per band group will be used
     scalapack distributed-memory algorithm (size of sub-group:  2*  2 procs)

     Found symmetry operation: I + (  0.5000  0.5000  0.0000)
     This is a supercell, fractional translations are disabled
 
     Parallelization info
     --------------------
     sticks:   dense  smooth     PW     G-vecs:    dense   smooth      PW
     Min         208      83     25                 6782     1723     289
     Max         210      84     27                 6783     1728     289
     Sum        1881     749    233                61041    15515    2601
 


     bravais-lattice index     =            0
     lattice parameter (alat)  =       7.6667  a.u.
     unit-cell volume          =     450.6322 (a.u.)^3
     number of atoms/cell      =            4
     number of atomic types    =            1
     number of electrons       =        12.00
     number of Kohn-Sham states=           10
     kinetic-energy cutoff     =      40.0000  Ry
     charge density cutoff     =     400.0000  Ry
     convergence threshold     =      1.0E-12
     mixing beta               =       0.4000
     number of iterations used =            8  local-TF  mixing
     Exchange-correlation      = SLA PW PBX PBC ( 1  4  3  4 0 0)

     celldm(1)=   7.666683  celldm(2)=   0.000000  celldm(3)=   0.000000
     celldm(4)=   0.000000  celldm(5)=   0.000000  celldm(6)=   0.000000

     crystal axes: (cart. coord. in units of alat)
               a(1) = (   1.000000   0.000500   0.000000 )  
               a(2) = (   0.000500   1.000000   0.000000 )  
               a(3) = (   0.000000   0.000000   1.000000 )  

     reciprocal axes: (cart. coord. in units 2 pi/alat)
               b(1) = (  1.000000 -0.000500  0.000000 )  
               b(2) = ( -0.000500  1.000000  0.000000 )  
               b(3) = (  0.000000  0.000000  1.000000 )  


     PseudoPot. # 1 for Al read from file:
     /users/aglensk/Dropbox/Albert/scripts/dotfiles/scripts/potentials/quantum_espresso/pseudo_SSSPefV1.1_alalloy/Al.pbe-n-kjpaw_psl.1.0.0.UPF
     MD5 check sum: cfc449ca30b5f3223ec38ddd88ac046d
     Pseudo is Projector augmented-wave + core cor, Zval =  3.0
     Generated using "atomic" code by A. Dal Corso v.5.1
     Shape of augmentation charge: PSQ
     Using radial grid of 1135 points,  6 beta functions with: 
                l(1) =   0
                l(2) =   0
                l(3) =   1
                l(4) =   1
                l(5) =   2
                l(6) =   2
     Q(r) pseudized with 0 coefficients 


     atomic species   valence    mass     pseudopotential
        Al             3.00    26.98154     Al( 1.00)

     No symmetry found


                                    s                        frac. trans.

      isym =  1     identity                                     

 cryst.   s( 1) = (     1          0          0      )
                  (     0          1          0      )
                  (     0          0          1      )

 cart.    s( 1) = (  1.0000000  0.0000000  0.0000000 )
                  (  0.0000000  1.0000000  0.0000000 )
                  (  0.0000000  0.0000000  1.0000000 )


   Cartesian axes

     site n.     atom                  positions (alat units)
         1           Al  tau(   1) = (   1.0003730   1.0003730   0.0000000  )
         2           Al  tau(   2) = (   0.5001225   0.5001225   0.0000000  )
         3           Al  tau(   3) = (   0.5003747   1.0001210   0.4999958  )
         4           Al  tau(   4) = (   1.0001210   0.5003747   0.4999958  )

   Crystallographic axes

     site n.     atom                  positions (cryst. coord.)
         1           Al  tau(   1) = (  0.9998733  0.9998733  0.0000000  )
         2           Al  tau(   2) = (  0.4998727  0.4998727  0.0000000  )
         3           Al  tau(   3) = (  0.4998748  0.9998713  0.4999958  )
         4           Al  tau(   4) = (  0.9998713  0.4998748  0.4999958  )

     number of k points=  4004  Methfessel-Paxton smearing, width (Ry)=  0.0441
                       cart. coord. in units 2pi/alat
        k(    1) = (   0.0000000   0.0000000   0.0000000), wk =   0.0002500
        k(    2) = (   0.0000000   0.0000000   0.0500000), wk =   0.0005000
        k(    3) = (   0.0000000   0.0000000   0.1000000), wk =   0.0005000
        k(    4) = (   0.0000000   0.0000000   0.1500000), wk =   0.0005000
        k(    5) = (   0.0000000   0.0000000   0.2000000), wk =   0.0005000
        k(    6) = (   0.0000000   0.0000000   0.2500000), wk =   0.0005000
        k(    7) = (   0.0000000   0.0000000   0.3000000), wk =   0.0005000
        k(    8) = (   0.0000000   0.0000000   0.3500000), wk =   0.0005000
        k(    9) = (   0.0000000   0.0000000   0.4000000), wk =   0.0005000
        k(   10) = (   0.0000000   0.0000000   0.4500001), wk =   0.0005000
        k(   11) = (   0.0000000   0.0000000  -0.5000001), wk =   0.0002500
        k(   12) = (  -0.0000250   0.0500000   0.0000000), wk =   0.0005000
        k(   13) = (  -0.0000250   0.0500000   0.0500000), wk =   0.0005000
        k(   14) = (  -0.0000250   0.0500000   0.1000000), wk =   0.0005000
        k(   15) = (  -0.0000250   0.0500000   0.1500000), wk =   0.0005000
        k(   16) = (  -0.0000250   0.0500000   0.2000000), wk =   0.0005000
        k(   17) = (  -0.0000250   0.0500000   0.2500000), wk =   0.0005000
        k(   18) = (  -0.0000250   0.0500000   0.3000000), wk =   0.0005000
        k(   19) = (  -0.0000250   0.0500000   0.3500000), wk =   0.0005000
        k(   20) = (  -0.0000250   0.0500000   0.4000000), wk =   0.0005000
        k(   21) = (  -0.0000250   0.0500000   0.4500001), wk =   0.0005000
        k(   22) = (  -0.0000250   0.0500000  -0.5000001), wk =   0.0005000
        k(   23) = (  -0.0000250   0.0500000  -0.4500001), wk =   0.0005000
        k(   24) = (  -0.0000250   0.0500000  -0.4000000), wk =   0.0005000
        k(   25) = (  -0.0000250   0.0500000  -0.3500000), wk =   0.0005000
        k(   26) = (  -0.0000250   0.0500000  -0.3000000), wk =   0.0005000
        k(   27) = (  -0.0000250   0.0500000  -0.2500000), wk =   0.0005000
        k(   28) = (  -0.0000250   0.0500000  -0.2000000), wk =   0.0005000
        k(   29) = (  -0.0000250   0.0500000  -0.1500000), wk =   0.0005000
        k(   30) = (  -0.0000250   0.0500000  -0.1000000), wk =   0.0005000
        k(   31) = (  -0.0000250   0.0500000  -0.0500000), wk =   0.0005000
        k(   32) = (  -0.0000500   0.1000000   0.0000000), wk =   0.0005000
        k(   33) = (  -0.0000500   0.1000000   0.0500000), wk =   0.0005000
        k(   34) = (  -0.0000500   0.1000000   0.1000000), wk =   0.0005000
        k(   35) = (  -0.0000500   0.1000000   0.1500000), wk =   0.0005000
        k(   36) = (  -0.0000500   0.1000000   0.2000000), wk =   0.0005000
        k(   37) = (  -0.0000500   0.1000000   0.2500000), wk =   0.0005000
        k(   38) = (  -0.0000500   0.1000000   0.3000000), wk =   0.0005000
        k(   39) = (  -0.0000500   0.1000000   0.3500000), wk =   0.0005000
        k(   40) = (  -0.0000500   0.1000000   0.4000000), wk =   0.0005000
        k(   41) = (  -0.0000500   0.1000000   0.4500001), wk =   0.0005000
        k(   42) = (  -0.0000500   0.1000000  -0.5000001), wk =   0.0005000
        k(   43) = (  -0.0000500   0.1000000  -0.4500001), wk =   0.0005000
        k(   44) = (  -0.0000500   0.1000000  -0.4000000), wk =   0.0005000
        k(   45) = (  -0.0000500   0.1000000  -0.3500000), wk =   0.0005000
        k(   46) = (  -0.0000500   0.1000000  -0.3000000), wk =   0.0005000
        k(   47) = (  -0.0000500   0.1000000  -0.2500000), wk =   0.0005000
        k(   48) = (  -0.0000500   0.1000000  -0.2000000), wk =   0.0005000
        k(   49) = (  -0.0000500   0.1000000  -0.1500000), wk =   0.0005000
        k(   50) = (  -0.0000500   0.1000000  -0.1000000), wk =   0.0005000
        k(   51) = (  -0.0000500   0.1000000  -0.0500000), wk =   0.0005000
        k(   52) = (  -0.0000750   0.1500001   0.0000000), wk =   0.0005000
        k(   53) = (  -0.0000750   0.1500001   0.0500000), wk =   0.0005000
        k(   54) = (  -0.0000750   0.1500001   0.1000000), wk =   0.0005000
        k(   55) = (  -0.0000750   0.1500001   0.1500000), wk =   0.0005000
        k(   56) = (  -0.0000750   0.1500001   0.2000000), wk =   0.0005000
        k(   57) = (  -0.0000750   0.1500001   0.2500000), wk =   0.0005000
        k(   58) = (  -0.0000750   0.1500001   0.3000000), wk =   0.0005000
        k(   59) = (  -0.0000750   0.1500001   0.3500000), wk =   0.0005000
        k(   60) = (  -0.0000750   0.1500001   0.4000000), wk =   0.0005000
        k(   61) = (  -0.0000750   0.1500001   0.4500001), wk =   0.0005000
        k(   62) = (  -0.0000750   0.1500001  -0.5000001), wk =   0.0005000
        k(   63) = (  -0.0000750   0.1500001  -0.4500001), wk =   0.0005000
        k(   64) = (  -0.0000750   0.1500001  -0.4000000), wk =   0.0005000
        k(   65) = (  -0.0000750   0.1500001  -0.3500000), wk =   0.0005000
        k(   66) = (  -0.0000750   0.1500001  -0.3000000), wk =   0.0005000
        k(   67) = (  -0.0000750   0.1500001  -0.2500000), wk =   0.0005000
        k(   68) = (  -0.0000750   0.1500001  -0.2000000), wk =   0.0005000
        k(   69) = (  -0.0000750   0.1500001  -0.1500000), wk =   0.0005000
        k(   70) = (  -0.0000750   0.1500001  -0.1000000), wk =   0.0005000
        k(   71) = (  -0.0000750   0.1500001  -0.0500000), wk =   0.0005000
        k(   72) = (  -0.0001000   0.2000001   0.0000000), wk =   0.0005000
        k(   73) = (  -0.0001000   0.2000001   0.0500000), wk =   0.0005000
        k(   74) = (  -0.0001000   0.2000001   0.1000000), wk =   0.0005000
        k(   75) = (  -0.0001000   0.2000001   0.1500000), wk =   0.0005000
        k(   76) = (  -0.0001000   0.2000001   0.2000000), wk =   0.0005000
        k(   77) = (  -0.0001000   0.2000001   0.2500000), wk =   0.0005000
        k(   78) = (  -0.0001000   0.2000001   0.3000000), wk =   0.0005000
        k(   79) = (  -0.0001000   0.2000001   0.3500000), wk =   0.0005000
        k(   80) = (  -0.0001000   0.2000001   0.4000000), wk =   0.0005000
        k(   81) = (  -0.0001000   0.2000001   0.4500001), wk =   0.0005000
        k(   82) = (  -0.0001000   0.2000001  -0.5000001), wk =   0.0005000
        k(   83) = (  -0.0001000   0.2000001  -0.4500001), wk =   0.0005000
        k(   84) = (  -0.0001000   0.2000001  -0.4000000), wk =   0.0005000
        k(   85) = (  -0.0001000   0.2000001  -0.3500000), wk =   0.0005000
        k(   86) = (  -0.0001000   0.2000001  -0.3000000), wk =   0.0005000
        k(   87) = (  -0.0001000   0.2000001  -0.2500000), wk =   0.0005000
        k(   88) = (  -0.0001000   0.2000001  -0.2000000), wk =   0.0005000
        k(   89) = (  -0.0001000   0.2000001  -0.1500000), wk =   0.0005000
        k(   90) = (  -0.0001000   0.2000001  -0.1000000), wk =   0.0005000
        k(   91) = (  -0.0001000   0.2000001  -0.0500000), wk =   0.0005000
        k(   92) = (  -0.0001250   0.2500001   0.0000000), wk =   0.0005000
        k(   93) = (  -0.0001250   0.2500001   0.0500000), wk =   0.0005000
        k(   94) = (  -0.0001250   0.2500001   0.1000000), wk =   0.0005000
        k(   95) = (  -0.0001250   0.2500001   0.1500000), wk =   0.0005000
        k(   96) = (  -0.0001250   0.2500001   0.2000000), wk =   0.0005000
        k(   97) = (  -0.0001250   0.2500001   0.2500000), wk =   0.0005000
        k(   98) = (  -0.0001250   0.2500001   0.3000000), wk =   0.0005000
        k(   99) = (  -0.0001250   0.2500001   0.3500000), wk =   0.0005000
        k(  100) = (  -0.0001250   0.2500001   0.4000000), wk =   0.0005000
        k(  101) = (  -0.0001250   0.2500001   0.4500001), wk =   0.0005000
        k(  102) = (  -0.0001250   0.2500001  -0.5000001), wk =   0.0005000
        k(  103) = (  -0.0001250   0.2500001  -0.4500001), wk =   0.0005000
        k(  104) = (  -0.0001250   0.2500001  -0.4000000), wk =   0.0005000
        k(  105) = (  -0.0001250   0.2500001  -0.3500000), wk =   0.0005000
        k(  106) = (  -0.0001250   0.2500001  -0.3000000), wk =   0.0005000
        k(  107) = (  -0.0001250   0.2500001  -0.2500000), wk =   0.0005000
        k(  108) = (  -0.0001250   0.2500001  -0.2000000), wk =   0.0005000
        k(  109) = (  -0.0001250   0.2500001  -0.1500000), wk =   0.0005000
        k(  110) = (  -0.0001250   0.2500001  -0.1000000), wk =   0.0005000
        k(  111) = (  -0.0001250   0.2500001  -0.0500000), wk =   0.0005000
        k(  112) = (  -0.0001500   0.3000001   0.0000000), wk =   0.0005000
        k(  113) = (  -0.0001500   0.3000001   0.0500000), wk =   0.0005000
        k(  114) = (  -0.0001500   0.3000001   0.1000000), wk =   0.0005000
        k(  115) = (  -0.0001500   0.3000001   0.1500000), wk =   0.0005000
        k(  116) = (  -0.0001500   0.3000001   0.2000000), wk =   0.0005000
        k(  117) = (  -0.0001500   0.3000001   0.2500000), wk =   0.0005000
        k(  118) = (  -0.0001500   0.3000001   0.3000000), wk =   0.0005000
        k(  119) = (  -0.0001500   0.3000001   0.3500000), wk =   0.0005000
        k(  120) = (  -0.0001500   0.3000001   0.4000000), wk =   0.0005000
        k(  121) = (  -0.0001500   0.3000001   0.4500001), wk =   0.0005000
        k(  122) = (  -0.0001500   0.3000001  -0.5000001), wk =   0.0005000
        k(  123) = (  -0.0001500   0.3000001  -0.4500001), wk =   0.0005000
        k(  124) = (  -0.0001500   0.3000001  -0.4000000), wk =   0.0005000
        k(  125) = (  -0.0001500   0.3000001  -0.3500000), wk =   0.0005000
        k(  126) = (  -0.0001500   0.3000001  -0.3000000), wk =   0.0005000
        k(  127) = (  -0.0001500   0.3000001  -0.2500000), wk =   0.0005000
        k(  128) = (  -0.0001500   0.3000001  -0.2000000), wk =   0.0005000
        k(  129) = (  -0.0001500   0.3000001  -0.1500000), wk =   0.0005000
        k(  130) = (  -0.0001500   0.3000001  -0.1000000), wk =   0.0005000
        k(  131) = (  -0.0001500   0.3000001  -0.0500000), wk =   0.0005000
        k(  132) = (  -0.0001750   0.3500001   0.0000000), wk =   0.0005000
        k(  133) = (  -0.0001750   0.3500001   0.0500000), wk =   0.0005000
        k(  134) = (  -0.0001750   0.3500001   0.1000000), wk =   0.0005000
        k(  135) = (  -0.0001750   0.3500001   0.1500000), wk =   0.0005000
        k(  136) = (  -0.0001750   0.3500001   0.2000000), wk =   0.0005000
        k(  137) = (  -0.0001750   0.3500001   0.2500000), wk =   0.0005000
        k(  138) = (  -0.0001750   0.3500001   0.3000000), wk =   0.0005000
        k(  139) = (  -0.0001750   0.3500001   0.3500000), wk =   0.0005000
        k(  140) = (  -0.0001750   0.3500001   0.4000000), wk =   0.0005000
        k(  141) = (  -0.0001750   0.3500001   0.4500001), wk =   0.0005000
        k(  142) = (  -0.0001750   0.3500001  -0.5000001), wk =   0.0005000
        k(  143) = (  -0.0001750   0.3500001  -0.4500001), wk =   0.0005000
        k(  144) = (  -0.0001750   0.3500001  -0.4000000), wk =   0.0005000
        k(  145) = (  -0.0001750   0.3500001  -0.3500000), wk =   0.0005000
        k(  146) = (  -0.0001750   0.3500001  -0.3000000), wk =   0.0005000
        k(  147) = (  -0.0001750   0.3500001  -0.2500000), wk =   0.0005000
        k(  148) = (  -0.0001750   0.3500001  -0.2000000), wk =   0.0005000
        k(  149) = (  -0.0001750   0.3500001  -0.1500000), wk =   0.0005000
        k(  150) = (  -0.0001750   0.3500001  -0.1000000), wk =   0.0005000
        k(  151) = (  -0.0001750   0.3500001  -0.0500000), wk =   0.0005000
        k(  152) = (  -0.0002000   0.4000001   0.0000000), wk =   0.0005000
        k(  153) = (  -0.0002000   0.4000001   0.0500000), wk =   0.0005000
        k(  154) = (  -0.0002000   0.4000001   0.1000000), wk =   0.0005000
        k(  155) = (  -0.0002000   0.4000001   0.1500000), wk =   0.0005000
        k(  156) = (  -0.0002000   0.4000001   0.2000000), wk =   0.0005000
        k(  157) = (  -0.0002000   0.4000001   0.2500000), wk =   0.0005000
        k(  158) = (  -0.0002000   0.4000001   0.3000000), wk =   0.0005000
        k(  159) = (  -0.0002000   0.4000001   0.3500000), wk =   0.0005000
        k(  160) = (  -0.0002000   0.4000001   0.4000000), wk =   0.0005000
        k(  161) = (  -0.0002000   0.4000001   0.4500001), wk =   0.0005000
        k(  162) = (  -0.0002000   0.4000001  -0.5000001), wk =   0.0005000
        k(  163) = (  -0.0002000   0.4000001  -0.4500001), wk =   0.0005000
        k(  164) = (  -0.0002000   0.4000001  -0.4000000), wk =   0.0005000
        k(  165) = (  -0.0002000   0.4000001  -0.3500000), wk =   0.0005000
        k(  166) = (  -0.0002000   0.4000001  -0.3000000), wk =   0.0005000
        k(  167) = (  -0.0002000   0.4000001  -0.2500000), wk =   0.0005000
        k(  168) = (  -0.0002000   0.4000001  -0.2000000), wk =   0.0005000
        k(  169) = (  -0.0002000   0.4000001  -0.1500000), wk =   0.0005000
        k(  170) = (  -0.0002000   0.4000001  -0.1000000), wk =   0.0005000
        k(  171) = (  -0.0002000   0.4000001  -0.0500000), wk =   0.0005000
        k(  172) = (  -0.0002250   0.4500002   0.0000000), wk =   0.0005000
        k(  173) = (  -0.0002250   0.4500002   0.0500000), wk =   0.0005000
        k(  174) = (  -0.0002250   0.4500002   0.1000000), wk =   0.0005000
        k(  175) = (  -0.0002250   0.4500002   0.1500000), wk =   0.0005000
        k(  176) = (  -0.0002250   0.4500002   0.2000000), wk =   0.0005000
        k(  177) = (  -0.0002250   0.4500002   0.2500000), wk =   0.0005000
        k(  178) = (  -0.0002250   0.4500002   0.3000000), wk =   0.0005000
        k(  179) = (  -0.0002250   0.4500002   0.3500000), wk =   0.0005000
        k(  180) = (  -0.0002250   0.4500002   0.4000000), wk =   0.0005000
        k(  181) = (  -0.0002250   0.4500002   0.4500001), wk =   0.0005000
        k(  182) = (  -0.0002250   0.4500002  -0.5000001), wk =   0.0005000
        k(  183) = (  -0.0002250   0.4500002  -0.4500001), wk =   0.0005000
        k(  184) = (  -0.0002250   0.4500002  -0.4000000), wk =   0.0005000
        k(  185) = (  -0.0002250   0.4500002  -0.3500000), wk =   0.0005000
        k(  186) = (  -0.0002250   0.4500002  -0.3000000), wk =   0.0005000
        k(  187) = (  -0.0002250   0.4500002  -0.2500000), wk =   0.0005000
        k(  188) = (  -0.0002250   0.4500002  -0.2000000), wk =   0.0005000
        k(  189) = (  -0.0002250   0.4500002  -0.1500000), wk =   0.0005000
        k(  190) = (  -0.0002250   0.4500002  -0.1000000), wk =   0.0005000
        k(  191) = (  -0.0002250   0.4500002  -0.0500000), wk =   0.0005000
        k(  192) = (   0.0002500  -0.5000002   0.0000000), wk =   0.0002500
        k(  193) = (   0.0002500  -0.5000002   0.0500000), wk =   0.0005000
        k(  194) = (   0.0002500  -0.5000002   0.1000000), wk =   0.0005000
        k(  195) = (   0.0002500  -0.5000002   0.1500000), wk =   0.0005000
        k(  196) = (   0.0002500  -0.5000002   0.2000000), wk =   0.0005000
        k(  197) = (   0.0002500  -0.5000002   0.2500000), wk =   0.0005000
        k(  198) = (   0.0002500  -0.5000002   0.3000000), wk =   0.0005000
        k(  199) = (   0.0002500  -0.5000002   0.3500000), wk =   0.0005000
        k(  200) = (   0.0002500  -0.5000002   0.4000000), wk =   0.0005000
        k(  201) = (   0.0002500  -0.5000002   0.4500001), wk =   0.0005000
        k(  202) = (   0.0002500  -0.5000002  -0.5000001), wk =   0.0002500
        k(  203) = (   0.0500000  -0.0000250   0.0000000), wk =   0.0005000
        k(  204) = (   0.0500000  -0.0000250   0.0500000), wk =   0.0005000
        k(  205) = (   0.0500000  -0.0000250   0.1000000), wk =   0.0005000
        k(  206) = (   0.0500000  -0.0000250   0.1500000), wk =   0.0005000
        k(  207) = (   0.0500000  -0.0000250   0.2000000), wk =   0.0005000
        k(  208) = (   0.0500000  -0.0000250   0.2500000), wk =   0.0005000
        k(  209) = (   0.0500000  -0.0000250   0.3000000), wk =   0.0005000
        k(  210) = (   0.0500000  -0.0000250   0.3500000), wk =   0.0005000
        k(  211) = (   0.0500000  -0.0000250   0.4000000), wk =   0.0005000
        k(  212) = (   0.0500000  -0.0000250   0.4500001), wk =   0.0005000
        k(  213) = (   0.0500000  -0.0000250  -0.5000001), wk =   0.0005000
        k(  214) = (   0.0500000  -0.0000250  -0.4500001), wk =   0.0005000
        k(  215) = (   0.0500000  -0.0000250  -0.4000000), wk =   0.0005000
        k(  216) = (   0.0500000  -0.0000250  -0.3500000), wk =   0.0005000
        k(  217) = (   0.0500000  -0.0000250  -0.3000000), wk =   0.0005000
        k(  218) = (   0.0500000  -0.0000250  -0.2500000), wk =   0.0005000
        k(  219) = (   0.0500000  -0.0000250  -0.2000000), wk =   0.0005000
        k(  220) = (   0.0500000  -0.0000250  -0.1500000), wk =   0.0005000
        k(  221) = (   0.0500000  -0.0000250  -0.1000000), wk =   0.0005000
        k(  222) = (   0.0500000  -0.0000250  -0.0500000), wk =   0.0005000
        k(  223) = (   0.0499750   0.0499750   0.0000000), wk =   0.0005000
        k(  224) = (   0.0499750   0.0499750   0.0500000), wk =   0.0005000
        k(  225) = (   0.0499750   0.0499750   0.1000000), wk =   0.0005000
        k(  226) = (   0.0499750   0.0499750   0.1500000), wk =   0.0005000
        k(  227) = (   0.0499750   0.0499750   0.2000000), wk =   0.0005000
        k(  228) = (   0.0499750   0.0499750   0.2500000), wk =   0.0005000
        k(  229) = (   0.0499750   0.0499750   0.3000000), wk =   0.0005000
        k(  230) = (   0.0499750   0.0499750   0.3500000), wk =   0.0005000
        k(  231) = (   0.0499750   0.0499750   0.4000000), wk =   0.0005000
        k(  232) = (   0.0499750   0.0499750   0.4500001), wk =   0.0005000
        k(  233) = (   0.0499750   0.0499750  -0.5000001), wk =   0.0005000
        k(  234) = (   0.0499750   0.0499750  -0.4500001), wk =   0.0005000
        k(  235) = (   0.0499750   0.0499750  -0.4000000), wk =   0.0005000
        k(  236) = (   0.0499750   0.0499750  -0.3500000), wk =   0.0005000
        k(  237) = (   0.0499750   0.0499750  -0.3000000), wk =   0.0005000
        k(  238) = (   0.0499750   0.0499750  -0.2500000), wk =   0.0005000
        k(  239) = (   0.0499750   0.0499750  -0.2000000), wk =   0.0005000
        k(  240) = (   0.0499750   0.0499750  -0.1500000), wk =   0.0005000
        k(  241) = (   0.0499750   0.0499750  -0.1000000), wk =   0.0005000
        k(  242) = (   0.0499750   0.0499750  -0.0500000), wk =   0.0005000
        k(  243) = (   0.0499500   0.0999750   0.0000000), wk =   0.0005000
        k(  244) = (   0.0499500   0.0999750   0.0500000), wk =   0.0005000
        k(  245) = (   0.0499500   0.0999750   0.1000000), wk =   0.0005000
        k(  246) = (   0.0499500   0.0999750   0.1500000), wk =   0.0005000
        k(  247) = (   0.0499500   0.0999750   0.2000000), wk =   0.0005000
        k(  248) = (   0.0499500   0.0999750   0.2500000), wk =   0.0005000
        k(  249) = (   0.0499500   0.0999750   0.3000000), wk =   0.0005000
        k(  250) = (   0.0499500   0.0999750   0.3500000), wk =   0.0005000
        k(  251) = (   0.0499500   0.0999750   0.4000000), wk =   0.0005000
        k(  252) = (   0.0499500   0.0999750   0.4500001), wk =   0.0005000
        k(  253) = (   0.0499500   0.0999750  -0.5000001), wk =   0.0005000
        k(  254) = (   0.0499500   0.0999750  -0.4500001), wk =   0.0005000
        k(  255) = (   0.0499500   0.0999750  -0.4000000), wk =   0.0005000
        k(  256) = (   0.0499500   0.0999750  -0.3500000), wk =   0.0005000
        k(  257) = (   0.0499500   0.0999750  -0.3000000), wk =   0.0005000
        k(  258) = (   0.0499500   0.0999750  -0.2500000), wk =   0.0005000
        k(  259) = (   0.0499500   0.0999750  -0.2000000), wk =   0.0005000
        k(  260) = (   0.0499500   0.0999750  -0.1500000), wk =   0.0005000
        k(  261) = (   0.0499500   0.0999750  -0.1000000), wk =   0.0005000
        k(  262) = (   0.0499500   0.0999750  -0.0500000), wk =   0.0005000
        k(  263) = (   0.0499250   0.1499751   0.0000000), wk =   0.0005000
        k(  264) = (   0.0499250   0.1499751   0.0500000), wk =   0.0005000
        k(  265) = (   0.0499250   0.1499751   0.1000000), wk =   0.0005000
        k(  266) = (   0.0499250   0.1499751   0.1500000), wk =   0.0005000
        k(  267) = (   0.0499250   0.1499751   0.2000000), wk =   0.0005000
        k(  268) = (   0.0499250   0.1499751   0.2500000), wk =   0.0005000
        k(  269) = (   0.0499250   0.1499751   0.3000000), wk =   0.0005000
        k(  270) = (   0.0499250   0.1499751   0.3500000), wk =   0.0005000
        k(  271) = (   0.0499250   0.1499751   0.4000000), wk =   0.0005000
        k(  272) = (   0.0499250   0.1499751   0.4500001), wk =   0.0005000
        k(  273) = (   0.0499250   0.1499751  -0.5000001), wk =   0.0005000
        k(  274) = (   0.0499250   0.1499751  -0.4500001), wk =   0.0005000
        k(  275) = (   0.0499250   0.1499751  -0.4000000), wk =   0.0005000
        k(  276) = (   0.0499250   0.1499751  -0.3500000), wk =   0.0005000
        k(  277) = (   0.0499250   0.1499751  -0.3000000), wk =   0.0005000
        k(  278) = (   0.0499250   0.1499751  -0.2500000), wk =   0.0005000
        k(  279) = (   0.0499250   0.1499751  -0.2000000), wk =   0.0005000
        k(  280) = (   0.0499250   0.1499751  -0.1500000), wk =   0.0005000
        k(  281) = (   0.0499250   0.1499751  -0.1000000), wk =   0.0005000
        k(  282) = (   0.0499250   0.1499751  -0.0500000), wk =   0.0005000
        k(  283) = (   0.0499000   0.1999751   0.0000000), wk =   0.0005000
        k(  284) = (   0.0499000   0.1999751   0.0500000), wk =   0.0005000
        k(  285) = (   0.0499000   0.1999751   0.1000000), wk =   0.0005000
        k(  286) = (   0.0499000   0.1999751   0.1500000), wk =   0.0005000
        k(  287) = (   0.0499000   0.1999751   0.2000000), wk =   0.0005000
        k(  288) = (   0.0499000   0.1999751   0.2500000), wk =   0.0005000
        k(  289) = (   0.0499000   0.1999751   0.3000000), wk =   0.0005000
        k(  290) = (   0.0499000   0.1999751   0.3500000), wk =   0.0005000
        k(  291) = (   0.0499000   0.1999751   0.4000000), wk =   0.0005000
        k(  292) = (   0.0499000   0.1999751   0.4500001), wk =   0.0005000
        k(  293) = (   0.0499000   0.1999751  -0.5000001), wk =   0.0005000
        k(  294) = (   0.0499000   0.1999751  -0.4500001), wk =   0.0005000
        k(  295) = (   0.0499000   0.1999751  -0.4000000), wk =   0.0005000
        k(  296) = (   0.0499000   0.1999751  -0.3500000), wk =   0.0005000
        k(  297) = (   0.0499000   0.1999751  -0.3000000), wk =   0.0005000
        k(  298) = (   0.0499000   0.1999751  -0.2500000), wk =   0.0005000
        k(  299) = (   0.0499000   0.1999751  -0.2000000), wk =   0.0005000
        k(  300) = (   0.0499000   0.1999751  -0.1500000), wk =   0.0005000
        k(  301) = (   0.0499000   0.1999751  -0.1000000), wk =   0.0005000
        k(  302) = (   0.0499000   0.1999751  -0.0500000), wk =   0.0005000
        k(  303) = (   0.0498750   0.2499751   0.0000000), wk =   0.0005000
        k(  304) = (   0.0498750   0.2499751   0.0500000), wk =   0.0005000
        k(  305) = (   0.0498750   0.2499751   0.1000000), wk =   0.0005000
        k(  306) = (   0.0498750   0.2499751   0.1500000), wk =   0.0005000
        k(  307) = (   0.0498750   0.2499751   0.2000000), wk =   0.0005000
        k(  308) = (   0.0498750   0.2499751   0.2500000), wk =   0.0005000
        k(  309) = (   0.0498750   0.2499751   0.3000000), wk =   0.0005000
        k(  310) = (   0.0498750   0.2499751   0.3500000), wk =   0.0005000
        k(  311) = (   0.0498750   0.2499751   0.4000000), wk =   0.0005000
        k(  312) = (   0.0498750   0.2499751   0.4500001), wk =   0.0005000
        k(  313) = (   0.0498750   0.2499751  -0.5000001), wk =   0.0005000
        k(  314) = (   0.0498750   0.2499751  -0.4500001), wk =   0.0005000
        k(  315) = (   0.0498750   0.2499751  -0.4000000), wk =   0.0005000
        k(  316) = (   0.0498750   0.2499751  -0.3500000), wk =   0.0005000
        k(  317) = (   0.0498750   0.2499751  -0.3000000), wk =   0.0005000
        k(  318) = (   0.0498750   0.2499751  -0.2500000), wk =   0.0005000
        k(  319) = (   0.0498750   0.2499751  -0.2000000), wk =   0.0005000
        k(  320) = (   0.0498750   0.2499751  -0.1500000), wk =   0.0005000
        k(  321) = (   0.0498750   0.2499751  -0.1000000), wk =   0.0005000
        k(  322) = (   0.0498750   0.2499751  -0.0500000), wk =   0.0005000
        k(  323) = (   0.0498500   0.2999751   0.0000000), wk =   0.0005000
        k(  324) = (   0.0498500   0.2999751   0.0500000), wk =   0.0005000
        k(  325) = (   0.0498500   0.2999751   0.1000000), wk =   0.0005000
        k(  326) = (   0.0498500   0.2999751   0.1500000), wk =   0.0005000
        k(  327) = (   0.0498500   0.2999751   0.2000000), wk =   0.0005000
        k(  328) = (   0.0498500   0.2999751   0.2500000), wk =   0.0005000
        k(  329) = (   0.0498500   0.2999751   0.3000000), wk =   0.0005000
        k(  330) = (   0.0498500   0.2999751   0.3500000), wk =   0.0005000
        k(  331) = (   0.0498500   0.2999751   0.4000000), wk =   0.0005000
        k(  332) = (   0.0498500   0.2999751   0.4500001), wk =   0.0005000
        k(  333) = (   0.0498500   0.2999751  -0.5000001), wk =   0.0005000
        k(  334) = (   0.0498500   0.2999751  -0.4500001), wk =   0.0005000
        k(  335) = (   0.0498500   0.2999751  -0.4000000), wk =   0.0005000
        k(  336) = (   0.0498500   0.2999751  -0.3500000), wk =   0.0005000
        k(  337) = (   0.0498500   0.2999751  -0.3000000), wk =   0.0005000
        k(  338) = (   0.0498500   0.2999751  -0.2500000), wk =   0.0005000
        k(  339) = (   0.0498500   0.2999751  -0.2000000), wk =   0.0005000
        k(  340) = (   0.0498500   0.2999751  -0.1500000), wk =   0.0005000
        k(  341) = (   0.0498500   0.2999751  -0.1000000), wk =   0.0005000
        k(  342) = (   0.0498500   0.2999751  -0.0500000), wk =   0.0005000
        k(  343) = (   0.0498250   0.3499751   0.0000000), wk =   0.0005000
        k(  344) = (   0.0498250   0.3499751   0.0500000), wk =   0.0005000
        k(  345) = (   0.0498250   0.3499751   0.1000000), wk =   0.0005000
        k(  346) = (   0.0498250   0.3499751   0.1500000), wk =   0.0005000
        k(  347) = (   0.0498250   0.3499751   0.2000000), wk =   0.0005000
        k(  348) = (   0.0498250   0.3499751   0.2500000), wk =   0.0005000
        k(  349) = (   0.0498250   0.3499751   0.3000000), wk =   0.0005000
        k(  350) = (   0.0498250   0.3499751   0.3500000), wk =   0.0005000
        k(  351) = (   0.0498250   0.3499751   0.4000000), wk =   0.0005000
        k(  352) = (   0.0498250   0.3499751   0.4500001), wk =   0.0005000
        k(  353) = (   0.0498250   0.3499751  -0.5000001), wk =   0.0005000
        k(  354) = (   0.0498250   0.3499751  -0.4500001), wk =   0.0005000
        k(  355) = (   0.0498250   0.3499751  -0.4000000), wk =   0.0005000
        k(  356) = (   0.0498250   0.3499751  -0.3500000), wk =   0.0005000
        k(  357) = (   0.0498250   0.3499751  -0.3000000), wk =   0.0005000
        k(  358) = (   0.0498250   0.3499751  -0.2500000), wk =   0.0005000
        k(  359) = (   0.0498250   0.3499751  -0.2000000), wk =   0.0005000
        k(  360) = (   0.0498250   0.3499751  -0.1500000), wk =   0.0005000
        k(  361) = (   0.0498250   0.3499751  -0.1000000), wk =   0.0005000
        k(  362) = (   0.0498250   0.3499751  -0.0500000), wk =   0.0005000
        k(  363) = (   0.0498000   0.3999752   0.0000000), wk =   0.0005000
        k(  364) = (   0.0498000   0.3999752   0.0500000), wk =   0.0005000
        k(  365) = (   0.0498000   0.3999752   0.1000000), wk =   0.0005000
        k(  366) = (   0.0498000   0.3999752   0.1500000), wk =   0.0005000
        k(  367) = (   0.0498000   0.3999752   0.2000000), wk =   0.0005000
        k(  368) = (   0.0498000   0.3999752   0.2500000), wk =   0.0005000
        k(  369) = (   0.0498000   0.3999752   0.3000000), wk =   0.0005000
        k(  370) = (   0.0498000   0.3999752   0.3500000), wk =   0.0005000
        k(  371) = (   0.0498000   0.3999752   0.4000000), wk =   0.0005000
        k(  372) = (   0.0498000   0.3999752   0.4500001), wk =   0.0005000
        k(  373) = (   0.0498000   0.3999752  -0.5000001), wk =   0.0005000
        k(  374) = (   0.0498000   0.3999752  -0.4500001), wk =   0.0005000
        k(  375) = (   0.0498000   0.3999752  -0.4000000), wk =   0.0005000
        k(  376) = (   0.0498000   0.3999752  -0.3500000), wk =   0.0005000
        k(  377) = (   0.0498000   0.3999752  -0.3000000), wk =   0.0005000
        k(  378) = (   0.0498000   0.3999752  -0.2500000), wk =   0.0005000
        k(  379) = (   0.0498000   0.3999752  -0.2000000), wk =   0.0005000
        k(  380) = (   0.0498000   0.3999752  -0.1500000), wk =   0.0005000
        k(  381) = (   0.0498000   0.3999752  -0.1000000), wk =   0.0005000
        k(  382) = (   0.0498000   0.3999752  -0.0500000), wk =   0.0005000
        k(  383) = (   0.0497750   0.4499752   0.0000000), wk =   0.0005000
        k(  384) = (   0.0497750   0.4499752   0.0500000), wk =   0.0005000
        k(  385) = (   0.0497750   0.4499752   0.1000000), wk =   0.0005000
        k(  386) = (   0.0497750   0.4499752   0.1500000), wk =   0.0005000
        k(  387) = (   0.0497750   0.4499752   0.2000000), wk =   0.0005000
        k(  388) = (   0.0497750   0.4499752   0.2500000), wk =   0.0005000
        k(  389) = (   0.0497750   0.4499752   0.3000000), wk =   0.0005000
        k(  390) = (   0.0497750   0.4499752   0.3500000), wk =   0.0005000
        k(  391) = (   0.0497750   0.4499752   0.4000000), wk =   0.0005000
        k(  392) = (   0.0497750   0.4499752   0.4500001), wk =   0.0005000
        k(  393) = (   0.0497750   0.4499752  -0.5000001), wk =   0.0005000
        k(  394) = (   0.0497750   0.4499752  -0.4500001), wk =   0.0005000
        k(  395) = (   0.0497750   0.4499752  -0.4000000), wk =   0.0005000
        k(  396) = (   0.0497750   0.4499752  -0.3500000), wk =   0.0005000
        k(  397) = (   0.0497750   0.4499752  -0.3000000), wk =   0.0005000
        k(  398) = (   0.0497750   0.4499752  -0.2500000), wk =   0.0005000
        k(  399) = (   0.0497750   0.4499752  -0.2000000), wk =   0.0005000
        k(  400) = (   0.0497750   0.4499752  -0.1500000), wk =   0.0005000
        k(  401) = (   0.0497750   0.4499752  -0.1000000), wk =   0.0005000
        k(  402) = (   0.0497750   0.4499752  -0.0500000), wk =   0.0005000
        k(  403) = (   0.0502500  -0.5000252   0.0000000), wk =   0.0005000
        k(  404) = (   0.0502500  -0.5000252   0.0500000), wk =   0.0005000
        k(  405) = (   0.0502500  -0.5000252   0.1000000), wk =   0.0005000
        k(  406) = (   0.0502500  -0.5000252   0.1500000), wk =   0.0005000
        k(  407) = (   0.0502500  -0.5000252   0.2000000), wk =   0.0005000
        k(  408) = (   0.0502500  -0.5000252   0.2500000), wk =   0.0005000
        k(  409) = (   0.0502500  -0.5000252   0.3000000), wk =   0.0005000
        k(  410) = (   0.0502500  -0.5000252   0.3500000), wk =   0.0005000
        k(  411) = (   0.0502500  -0.5000252   0.4000000), wk =   0.0005000
        k(  412) = (   0.0502500  -0.5000252   0.4500001), wk =   0.0005000
        k(  413) = (   0.0502500  -0.5000252  -0.5000001), wk =   0.0005000
        k(  414) = (   0.0502500  -0.5000252  -0.4500001), wk =   0.0005000
        k(  415) = (   0.0502500  -0.5000252  -0.4000000), wk =   0.0005000
        k(  416) = (   0.0502500  -0.5000252  -0.3500000), wk =   0.0005000
        k(  417) = (   0.0502500  -0.5000252  -0.3000000), wk =   0.0005000
        k(  418) = (   0.0502500  -0.5000252  -0.2500000), wk =   0.0005000
        k(  419) = (   0.0502500  -0.5000252  -0.2000000), wk =   0.0005000
        k(  420) = (   0.0502500  -0.5000252  -0.1500000), wk =   0.0005000
        k(  421) = (   0.0502500  -0.5000252  -0.1000000), wk =   0.0005000
        k(  422) = (   0.0502500  -0.5000252  -0.0500000), wk =   0.0005000
        k(  423) = (   0.0502250  -0.4500252   0.0000000), wk =   0.0005000
        k(  424) = (   0.0502250  -0.4500252   0.0500000), wk =   0.0005000
        k(  425) = (   0.0502250  -0.4500252   0.1000000), wk =   0.0005000
        k(  426) = (   0.0502250  -0.4500252   0.1500000), wk =   0.0005000
        k(  427) = (   0.0502250  -0.4500252   0.2000000), wk =   0.0005000
        k(  428) = (   0.0502250  -0.4500252   0.2500000), wk =   0.0005000
        k(  429) = (   0.0502250  -0.4500252   0.3000000), wk =   0.0005000
        k(  430) = (   0.0502250  -0.4500252   0.3500000), wk =   0.0005000
        k(  431) = (   0.0502250  -0.4500252   0.4000000), wk =   0.0005000
        k(  432) = (   0.0502250  -0.4500252   0.4500001), wk =   0.0005000
        k(  433) = (   0.0502250  -0.4500252  -0.5000001), wk =   0.0005000
        k(  434) = (   0.0502250  -0.4500252  -0.4500001), wk =   0.0005000
        k(  435) = (   0.0502250  -0.4500252  -0.4000000), wk =   0.0005000
        k(  436) = (   0.0502250  -0.4500252  -0.3500000), wk =   0.0005000
        k(  437) = (   0.0502250  -0.4500252  -0.3000000), wk =   0.0005000
        k(  438) = (   0.0502250  -0.4500252  -0.2500000), wk =   0.0005000
        k(  439) = (   0.0502250  -0.4500252  -0.2000000), wk =   0.0005000
        k(  440) = (   0.0502250  -0.4500252  -0.1500000), wk =   0.0005000
        k(  441) = (   0.0502250  -0.4500252  -0.1000000), wk =   0.0005000
        k(  442) = (   0.0502250  -0.4500252  -0.0500000), wk =   0.0005000
        k(  443) = (   0.0502000  -0.4000251   0.0000000), wk =   0.0005000
        k(  444) = (   0.0502000  -0.4000251   0.0500000), wk =   0.0005000
        k(  445) = (   0.0502000  -0.4000251   0.1000000), wk =   0.0005000
        k(  446) = (   0.0502000  -0.4000251   0.1500000), wk =   0.0005000
        k(  447) = (   0.0502000  -0.4000251   0.2000000), wk =   0.0005000
        k(  448) = (   0.0502000  -0.4000251   0.2500000), wk =   0.0005000
        k(  449) = (   0.0502000  -0.4000251   0.3000000), wk =   0.0005000
        k(  450) = (   0.0502000  -0.4000251   0.3500000), wk =   0.0005000
        k(  451) = (   0.0502000  -0.4000251   0.4000000), wk =   0.0005000
        k(  452) = (   0.0502000  -0.4000251   0.4500001), wk =   0.0005000
        k(  453) = (   0.0502000  -0.4000251  -0.5000001), wk =   0.0005000
        k(  454) = (   0.0502000  -0.4000251  -0.4500001), wk =   0.0005000
        k(  455) = (   0.0502000  -0.4000251  -0.4000000), wk =   0.0005000
        k(  456) = (   0.0502000  -0.4000251  -0.3500000), wk =   0.0005000
        k(  457) = (   0.0502000  -0.4000251  -0.3000000), wk =   0.0005000
        k(  458) = (   0.0502000  -0.4000251  -0.2500000), wk =   0.0005000
        k(  459) = (   0.0502000  -0.4000251  -0.2000000), wk =   0.0005000
        k(  460) = (   0.0502000  -0.4000251  -0.1500000), wk =   0.0005000
        k(  461) = (   0.0502000  -0.4000251  -0.1000000), wk =   0.0005000
        k(  462) = (   0.0502000  -0.4000251  -0.0500000), wk =   0.0005000
        k(  463) = (   0.0501750  -0.3500251   0.0000000), wk =   0.0005000
        k(  464) = (   0.0501750  -0.3500251   0.0500000), wk =   0.0005000
        k(  465) = (   0.0501750  -0.3500251   0.1000000), wk =   0.0005000
        k(  466) = (   0.0501750  -0.3500251   0.1500000), wk =   0.0005000
        k(  467) = (   0.0501750  -0.3500251   0.2000000), wk =   0.0005000
        k(  468) = (   0.0501750  -0.3500251   0.2500000), wk =   0.0005000
        k(  469) = (   0.0501750  -0.3500251   0.3000000), wk =   0.0005000
        k(  470) = (   0.0501750  -0.3500251   0.3500000), wk =   0.0005000
        k(  471) = (   0.0501750  -0.3500251   0.4000000), wk =   0.0005000
        k(  472) = (   0.0501750  -0.3500251   0.4500001), wk =   0.0005000
        k(  473) = (   0.0501750  -0.3500251  -0.5000001), wk =   0.0005000
        k(  474) = (   0.0501750  -0.3500251  -0.4500001), wk =   0.0005000
        k(  475) = (   0.0501750  -0.3500251  -0.4000000), wk =   0.0005000
        k(  476) = (   0.0501750  -0.3500251  -0.3500000), wk =   0.0005000
        k(  477) = (   0.0501750  -0.3500251  -0.3000000), wk =   0.0005000
        k(  478) = (   0.0501750  -0.3500251  -0.2500000), wk =   0.0005000
        k(  479) = (   0.0501750  -0.3500251  -0.2000000), wk =   0.0005000
        k(  480) = (   0.0501750  -0.3500251  -0.1500000), wk =   0.0005000
        k(  481) = (   0.0501750  -0.3500251  -0.1000000), wk =   0.0005000
        k(  482) = (   0.0501750  -0.3500251  -0.0500000), wk =   0.0005000
        k(  483) = (   0.0501500  -0.3000251   0.0000000), wk =   0.0005000
        k(  484) = (   0.0501500  -0.3000251   0.0500000), wk =   0.0005000
        k(  485) = (   0.0501500  -0.3000251   0.1000000), wk =   0.0005000
        k(  486) = (   0.0501500  -0.3000251   0.1500000), wk =   0.0005000
        k(  487) = (   0.0501500  -0.3000251   0.2000000), wk =   0.0005000
        k(  488) = (   0.0501500  -0.3000251   0.2500000), wk =   0.0005000
        k(  489) = (   0.0501500  -0.3000251   0.3000000), wk =   0.0005000
        k(  490) = (   0.0501500  -0.3000251   0.3500000), wk =   0.0005000
        k(  491) = (   0.0501500  -0.3000251   0.4000000), wk =   0.0005000
        k(  492) = (   0.0501500  -0.3000251   0.4500001), wk =   0.0005000
        k(  493) = (   0.0501500  -0.3000251  -0.5000001), wk =   0.0005000
        k(  494) = (   0.0501500  -0.3000251  -0.4500001), wk =   0.0005000
        k(  495) = (   0.0501500  -0.3000251  -0.4000000), wk =   0.0005000
        k(  496) = (   0.0501500  -0.3000251  -0.3500000), wk =   0.0005000
        k(  497) = (   0.0501500  -0.3000251  -0.3000000), wk =   0.0005000
        k(  498) = (   0.0501500  -0.3000251  -0.2500000), wk =   0.0005000
        k(  499) = (   0.0501500  -0.3000251  -0.2000000), wk =   0.0005000
        k(  500) = (   0.0501500  -0.3000251  -0.1500000), wk =   0.0005000
        k(  501) = (   0.0501500  -0.3000251  -0.1000000), wk =   0.0005000
        k(  502) = (   0.0501500  -0.3000251  -0.0500000), wk =   0.0005000
        k(  503) = (   0.0501250  -0.2500251   0.0000000), wk =   0.0005000
        k(  504) = (   0.0501250  -0.2500251   0.0500000), wk =   0.0005000
        k(  505) = (   0.0501250  -0.2500251   0.1000000), wk =   0.0005000
        k(  506) = (   0.0501250  -0.2500251   0.1500000), wk =   0.0005000
        k(  507) = (   0.0501250  -0.2500251   0.2000000), wk =   0.0005000
        k(  508) = (   0.0501250  -0.2500251   0.2500000), wk =   0.0005000
        k(  509) = (   0.0501250  -0.2500251   0.3000000), wk =   0.0005000
        k(  510) = (   0.0501250  -0.2500251   0.3500000), wk =   0.0005000
        k(  511) = (   0.0501250  -0.2500251   0.4000000), wk =   0.0005000
        k(  512) = (   0.0501250  -0.2500251   0.4500001), wk =   0.0005000
        k(  513) = (   0.0501250  -0.2500251  -0.5000001), wk =   0.0005000
        k(  514) = (   0.0501250  -0.2500251  -0.4500001), wk =   0.0005000
        k(  515) = (   0.0501250  -0.2500251  -0.4000000), wk =   0.0005000
        k(  516) = (   0.0501250  -0.2500251  -0.3500000), wk =   0.0005000
        k(  517) = (   0.0501250  -0.2500251  -0.3000000), wk =   0.0005000
        k(  518) = (   0.0501250  -0.2500251  -0.2500000), wk =   0.0005000
        k(  519) = (   0.0501250  -0.2500251  -0.2000000), wk =   0.0005000
        k(  520) = (   0.0501250  -0.2500251  -0.1500000), wk =   0.0005000
        k(  521) = (   0.0501250  -0.2500251  -0.1000000), wk =   0.0005000
        k(  522) = (   0.0501250  -0.2500251  -0.0500000), wk =   0.0005000
        k(  523) = (   0.0501000  -0.2000251   0.0000000), wk =   0.0005000
        k(  524) = (   0.0501000  -0.2000251   0.0500000), wk =   0.0005000
        k(  525) = (   0.0501000  -0.2000251   0.1000000), wk =   0.0005000
        k(  526) = (   0.0501000  -0.2000251   0.1500000), wk =   0.0005000
        k(  527) = (   0.0501000  -0.2000251   0.2000000), wk =   0.0005000
        k(  528) = (   0.0501000  -0.2000251   0.2500000), wk =   0.0005000
        k(  529) = (   0.0501000  -0.2000251   0.3000000), wk =   0.0005000
        k(  530) = (   0.0501000  -0.2000251   0.3500000), wk =   0.0005000
        k(  531) = (   0.0501000  -0.2000251   0.4000000), wk =   0.0005000
        k(  532) = (   0.0501000  -0.2000251   0.4500001), wk =   0.0005000
        k(  533) = (   0.0501000  -0.2000251  -0.5000001), wk =   0.0005000
        k(  534) = (   0.0501000  -0.2000251  -0.4500001), wk =   0.0005000
        k(  535) = (   0.0501000  -0.2000251  -0.4000000), wk =   0.0005000
        k(  536) = (   0.0501000  -0.2000251  -0.3500000), wk =   0.0005000
        k(  537) = (   0.0501000  -0.2000251  -0.3000000), wk =   0.0005000
        k(  538) = (   0.0501000  -0.2000251  -0.2500000), wk =   0.0005000
        k(  539) = (   0.0501000  -0.2000251  -0.2000000), wk =   0.0005000
        k(  540) = (   0.0501000  -0.2000251  -0.1500000), wk =   0.0005000
        k(  541) = (   0.0501000  -0.2000251  -0.1000000), wk =   0.0005000
        k(  542) = (   0.0501000  -0.2000251  -0.0500000), wk =   0.0005000
        k(  543) = (   0.0500750  -0.1500251   0.0000000), wk =   0.0005000
        k(  544) = (   0.0500750  -0.1500251   0.0500000), wk =   0.0005000
        k(  545) = (   0.0500750  -0.1500251   0.1000000), wk =   0.0005000
        k(  546) = (   0.0500750  -0.1500251   0.1500000), wk =   0.0005000
        k(  547) = (   0.0500750  -0.1500251   0.2000000), wk =   0.0005000
        k(  548) = (   0.0500750  -0.1500251   0.2500000), wk =   0.0005000
        k(  549) = (   0.0500750  -0.1500251   0.3000000), wk =   0.0005000
        k(  550) = (   0.0500750  -0.1500251   0.3500000), wk =   0.0005000
        k(  551) = (   0.0500750  -0.1500251   0.4000000), wk =   0.0005000
        k(  552) = (   0.0500750  -0.1500251   0.4500001), wk =   0.0005000
        k(  553) = (   0.0500750  -0.1500251  -0.5000001), wk =   0.0005000
        k(  554) = (   0.0500750  -0.1500251  -0.4500001), wk =   0.0005000
        k(  555) = (   0.0500750  -0.1500251  -0.4000000), wk =   0.0005000
        k(  556) = (   0.0500750  -0.1500251  -0.3500000), wk =   0.0005000
        k(  557) = (   0.0500750  -0.1500251  -0.3000000), wk =   0.0005000
        k(  558) = (   0.0500750  -0.1500251  -0.2500000), wk =   0.0005000
        k(  559) = (   0.0500750  -0.1500251  -0.2000000), wk =   0.0005000
        k(  560) = (   0.0500750  -0.1500251  -0.1500000), wk =   0.0005000
        k(  561) = (   0.0500750  -0.1500251  -0.1000000), wk =   0.0005000
        k(  562) = (   0.0500750  -0.1500251  -0.0500000), wk =   0.0005000
        k(  563) = (   0.0500500  -0.1000250   0.0000000), wk =   0.0005000
        k(  564) = (   0.0500500  -0.1000250   0.0500000), wk =   0.0005000
        k(  565) = (   0.0500500  -0.1000250   0.1000000), wk =   0.0005000
        k(  566) = (   0.0500500  -0.1000250   0.1500000), wk =   0.0005000
        k(  567) = (   0.0500500  -0.1000250   0.2000000), wk =   0.0005000
        k(  568) = (   0.0500500  -0.1000250   0.2500000), wk =   0.0005000
        k(  569) = (   0.0500500  -0.1000250   0.3000000), wk =   0.0005000
        k(  570) = (   0.0500500  -0.1000250   0.3500000), wk =   0.0005000
        k(  571) = (   0.0500500  -0.1000250   0.4000000), wk =   0.0005000
        k(  572) = (   0.0500500  -0.1000250   0.4500001), wk =   0.0005000
        k(  573) = (   0.0500500  -0.1000250  -0.5000001), wk =   0.0005000
        k(  574) = (   0.0500500  -0.1000250  -0.4500001), wk =   0.0005000
        k(  575) = (   0.0500500  -0.1000250  -0.4000000), wk =   0.0005000
        k(  576) = (   0.0500500  -0.1000250  -0.3500000), wk =   0.0005000
        k(  577) = (   0.0500500  -0.1000250  -0.3000000), wk =   0.0005000
        k(  578) = (   0.0500500  -0.1000250  -0.2500000), wk =   0.0005000
        k(  579) = (   0.0500500  -0.1000250  -0.2000000), wk =   0.0005000
        k(  580) = (   0.0500500  -0.1000250  -0.1500000), wk =   0.0005000
        k(  581) = (   0.0500500  -0.1000250  -0.1000000), wk =   0.0005000
        k(  582) = (   0.0500500  -0.1000250  -0.0500000), wk =   0.0005000
        k(  583) = (   0.0500250  -0.0500250   0.0000000), wk =   0.0005000
        k(  584) = (   0.0500250  -0.0500250   0.0500000), wk =   0.0005000
        k(  585) = (   0.0500250  -0.0500250   0.1000000), wk =   0.0005000
        k(  586) = (   0.0500250  -0.0500250   0.1500000), wk =   0.0005000
        k(  587) = (   0.0500250  -0.0500250   0.2000000), wk =   0.0005000
        k(  588) = (   0.0500250  -0.0500250   0.2500000), wk =   0.0005000
        k(  589) = (   0.0500250  -0.0500250   0.3000000), wk =   0.0005000
        k(  590) = (   0.0500250  -0.0500250   0.3500000), wk =   0.0005000
        k(  591) = (   0.0500250  -0.0500250   0.4000000), wk =   0.0005000
        k(  592) = (   0.0500250  -0.0500250   0.4500001), wk =   0.0005000
        k(  593) = (   0.0500250  -0.0500250  -0.5000001), wk =   0.0005000
        k(  594) = (   0.0500250  -0.0500250  -0.4500001), wk =   0.0005000
        k(  595) = (   0.0500250  -0.0500250  -0.4000000), wk =   0.0005000
        k(  596) = (   0.0500250  -0.0500250  -0.3500000), wk =   0.0005000
        k(  597) = (   0.0500250  -0.0500250  -0.3000000), wk =   0.0005000
        k(  598) = (   0.0500250  -0.0500250  -0.2500000), wk =   0.0005000
        k(  599) = (   0.0500250  -0.0500250  -0.2000000), wk =   0.0005000
        k(  600) = (   0.0500250  -0.0500250  -0.1500000), wk =   0.0005000
        k(  601) = (   0.0500250  -0.0500250  -0.1000000), wk =   0.0005000
        k(  602) = (   0.0500250  -0.0500250  -0.0500000), wk =   0.0005000
        k(  603) = (   0.1000000  -0.0000500   0.0000000), wk =   0.0005000
        k(  604) = (   0.1000000  -0.0000500   0.0500000), wk =   0.0005000
        k(  605) = (   0.1000000  -0.0000500   0.1000000), wk =   0.0005000
        k(  606) = (   0.1000000  -0.0000500   0.1500000), wk =   0.0005000
        k(  607) = (   0.1000000  -0.0000500   0.2000000), wk =   0.0005000
        k(  608) = (   0.1000000  -0.0000500   0.2500000), wk =   0.0005000
        k(  609) = (   0.1000000  -0.0000500   0.3000000), wk =   0.0005000
        k(  610) = (   0.1000000  -0.0000500   0.3500000), wk =   0.0005000
        k(  611) = (   0.1000000  -0.0000500   0.4000000), wk =   0.0005000
        k(  612) = (   0.1000000  -0.0000500   0.4500001), wk =   0.0005000
        k(  613) = (   0.1000000  -0.0000500  -0.5000001), wk =   0.0005000
        k(  614) = (   0.1000000  -0.0000500  -0.4500001), wk =   0.0005000
        k(  615) = (   0.1000000  -0.0000500  -0.4000000), wk =   0.0005000
        k(  616) = (   0.1000000  -0.0000500  -0.3500000), wk =   0.0005000
        k(  617) = (   0.1000000  -0.0000500  -0.3000000), wk =   0.0005000
        k(  618) = (   0.1000000  -0.0000500  -0.2500000), wk =   0.0005000
        k(  619) = (   0.1000000  -0.0000500  -0.2000000), wk =   0.0005000
        k(  620) = (   0.1000000  -0.0000500  -0.1500000), wk =   0.0005000
        k(  621) = (   0.1000000  -0.0000500  -0.1000000), wk =   0.0005000
        k(  622) = (   0.1000000  -0.0000500  -0.0500000), wk =   0.0005000
        k(  623) = (   0.0999750   0.0499500   0.0000000), wk =   0.0005000
        k(  624) = (   0.0999750   0.0499500   0.0500000), wk =   0.0005000
        k(  625) = (   0.0999750   0.0499500   0.1000000), wk =   0.0005000
        k(  626) = (   0.0999750   0.0499500   0.1500000), wk =   0.0005000
        k(  627) = (   0.0999750   0.0499500   0.2000000), wk =   0.0005000
        k(  628) = (   0.0999750   0.0499500   0.2500000), wk =   0.0005000
        k(  629) = (   0.0999750   0.0499500   0.3000000), wk =   0.0005000
        k(  630) = (   0.0999750   0.0499500   0.3500000), wk =   0.0005000
        k(  631) = (   0.0999750   0.0499500   0.4000000), wk =   0.0005000
        k(  632) = (   0.0999750   0.0499500   0.4500001), wk =   0.0005000
        k(  633) = (   0.0999750   0.0499500  -0.5000001), wk =   0.0005000
        k(  634) = (   0.0999750   0.0499500  -0.4500001), wk =   0.0005000
        k(  635) = (   0.0999750   0.0499500  -0.4000000), wk =   0.0005000
        k(  636) = (   0.0999750   0.0499500  -0.3500000), wk =   0.0005000
        k(  637) = (   0.0999750   0.0499500  -0.3000000), wk =   0.0005000
        k(  638) = (   0.0999750   0.0499500  -0.2500000), wk =   0.0005000
        k(  639) = (   0.0999750   0.0499500  -0.2000000), wk =   0.0005000
        k(  640) = (   0.0999750   0.0499500  -0.1500000), wk =   0.0005000
        k(  641) = (   0.0999750   0.0499500  -0.1000000), wk =   0.0005000
        k(  642) = (   0.0999750   0.0499500  -0.0500000), wk =   0.0005000
        k(  643) = (   0.0999500   0.0999500   0.0000000), wk =   0.0005000
        k(  644) = (   0.0999500   0.0999500   0.0500000), wk =   0.0005000
        k(  645) = (   0.0999500   0.0999500   0.1000000), wk =   0.0005000
        k(  646) = (   0.0999500   0.0999500   0.1500000), wk =   0.0005000
        k(  647) = (   0.0999500   0.0999500   0.2000000), wk =   0.0005000
        k(  648) = (   0.0999500   0.0999500   0.2500000), wk =   0.0005000
        k(  649) = (   0.0999500   0.0999500   0.3000000), wk =   0.0005000
        k(  650) = (   0.0999500   0.0999500   0.3500000), wk =   0.0005000
        k(  651) = (   0.0999500   0.0999500   0.4000000), wk =   0.0005000
        k(  652) = (   0.0999500   0.0999500   0.4500001), wk =   0.0005000
        k(  653) = (   0.0999500   0.0999500  -0.5000001), wk =   0.0005000
        k(  654) = (   0.0999500   0.0999500  -0.4500001), wk =   0.0005000
        k(  655) = (   0.0999500   0.0999500  -0.4000000), wk =   0.0005000
        k(  656) = (   0.0999500   0.0999500  -0.3500000), wk =   0.0005000
        k(  657) = (   0.0999500   0.0999500  -0.3000000), wk =   0.0005000
        k(  658) = (   0.0999500   0.0999500  -0.2500000), wk =   0.0005000
        k(  659) = (   0.0999500   0.0999500  -0.2000000), wk =   0.0005000
        k(  660) = (   0.0999500   0.0999500  -0.1500000), wk =   0.0005000
        k(  661) = (   0.0999500   0.0999500  -0.1000000), wk =   0.0005000
        k(  662) = (   0.0999500   0.0999500  -0.0500000), wk =   0.0005000
        k(  663) = (   0.0999250   0.1499501   0.0000000), wk =   0.0005000
        k(  664) = (   0.0999250   0.1499501   0.0500000), wk =   0.0005000
        k(  665) = (   0.0999250   0.1499501   0.1000000), wk =   0.0005000
        k(  666) = (   0.0999250   0.1499501   0.1500000), wk =   0.0005000
        k(  667) = (   0.0999250   0.1499501   0.2000000), wk =   0.0005000
        k(  668) = (   0.0999250   0.1499501   0.2500000), wk =   0.0005000
        k(  669) = (   0.0999250   0.1499501   0.3000000), wk =   0.0005000
        k(  670) = (   0.0999250   0.1499501   0.3500000), wk =   0.0005000
        k(  671) = (   0.0999250   0.1499501   0.4000000), wk =   0.0005000
        k(  672) = (   0.0999250   0.1499501   0.4500001), wk =   0.0005000
        k(  673) = (   0.0999250   0.1499501  -0.5000001), wk =   0.0005000
        k(  674) = (   0.0999250   0.1499501  -0.4500001), wk =   0.0005000
        k(  675) = (   0.0999250   0.1499501  -0.4000000), wk =   0.0005000
        k(  676) = (   0.0999250   0.1499501  -0.3500000), wk =   0.0005000
        k(  677) = (   0.0999250   0.1499501  -0.3000000), wk =   0.0005000
        k(  678) = (   0.0999250   0.1499501  -0.2500000), wk =   0.0005000
        k(  679) = (   0.0999250   0.1499501  -0.2000000), wk =   0.0005000
        k(  680) = (   0.0999250   0.1499501  -0.1500000), wk =   0.0005000
        k(  681) = (   0.0999250   0.1499501  -0.1000000), wk =   0.0005000
        k(  682) = (   0.0999250   0.1499501  -0.0500000), wk =   0.0005000
        k(  683) = (   0.0999000   0.1999501   0.0000000), wk =   0.0005000
        k(  684) = (   0.0999000   0.1999501   0.0500000), wk =   0.0005000
        k(  685) = (   0.0999000   0.1999501   0.1000000), wk =   0.0005000
        k(  686) = (   0.0999000   0.1999501   0.1500000), wk =   0.0005000
        k(  687) = (   0.0999000   0.1999501   0.2000000), wk =   0.0005000
        k(  688) = (   0.0999000   0.1999501   0.2500000), wk =   0.0005000
        k(  689) = (   0.0999000   0.1999501   0.3000000), wk =   0.0005000
        k(  690) = (   0.0999000   0.1999501   0.3500000), wk =   0.0005000
        k(  691) = (   0.0999000   0.1999501   0.4000000), wk =   0.0005000
        k(  692) = (   0.0999000   0.1999501   0.4500001), wk =   0.0005000
        k(  693) = (   0.0999000   0.1999501  -0.5000001), wk =   0.0005000
        k(  694) = (   0.0999000   0.1999501  -0.4500001), wk =   0.0005000
        k(  695) = (   0.0999000   0.1999501  -0.4000000), wk =   0.0005000
        k(  696) = (   0.0999000   0.1999501  -0.3500000), wk =   0.0005000
        k(  697) = (   0.0999000   0.1999501  -0.3000000), wk =   0.0005000
        k(  698) = (   0.0999000   0.1999501  -0.2500000), wk =   0.0005000
        k(  699) = (   0.0999000   0.1999501  -0.2000000), wk =   0.0005000
        k(  700) = (   0.0999000   0.1999501  -0.1500000), wk =   0.0005000
        k(  701) = (   0.0999000   0.1999501  -0.1000000), wk =   0.0005000
        k(  702) = (   0.0999000   0.1999501  -0.0500000), wk =   0.0005000
        k(  703) = (   0.0998750   0.2499501   0.0000000), wk =   0.0005000
        k(  704) = (   0.0998750   0.2499501   0.0500000), wk =   0.0005000
        k(  705) = (   0.0998750   0.2499501   0.1000000), wk =   0.0005000
        k(  706) = (   0.0998750   0.2499501   0.1500000), wk =   0.0005000
        k(  707) = (   0.0998750   0.2499501   0.2000000), wk =   0.0005000
        k(  708) = (   0.0998750   0.2499501   0.2500000), wk =   0.0005000
        k(  709) = (   0.0998750   0.2499501   0.3000000), wk =   0.0005000
        k(  710) = (   0.0998750   0.2499501   0.3500000), wk =   0.0005000
        k(  711) = (   0.0998750   0.2499501   0.4000000), wk =   0.0005000
        k(  712) = (   0.0998750   0.2499501   0.4500001), wk =   0.0005000
        k(  713) = (   0.0998750   0.2499501  -0.5000001), wk =   0.0005000
        k(  714) = (   0.0998750   0.2499501  -0.4500001), wk =   0.0005000
        k(  715) = (   0.0998750   0.2499501  -0.4000000), wk =   0.0005000
        k(  716) = (   0.0998750   0.2499501  -0.3500000), wk =   0.0005000
        k(  717) = (   0.0998750   0.2499501  -0.3000000), wk =   0.0005000
        k(  718) = (   0.0998750   0.2499501  -0.2500000), wk =   0.0005000
        k(  719) = (   0.0998750   0.2499501  -0.2000000), wk =   0.0005000
        k(  720) = (   0.0998750   0.2499501  -0.1500000), wk =   0.0005000
        k(  721) = (   0.0998750   0.2499501  -0.1000000), wk =   0.0005000
        k(  722) = (   0.0998750   0.2499501  -0.0500000), wk =   0.0005000
        k(  723) = (   0.0998501   0.2999501   0.0000000), wk =   0.0005000
        k(  724) = (   0.0998501   0.2999501   0.0500000), wk =   0.0005000
        k(  725) = (   0.0998501   0.2999501   0.1000000), wk =   0.0005000
        k(  726) = (   0.0998501   0.2999501   0.1500000), wk =   0.0005000
        k(  727) = (   0.0998501   0.2999501   0.2000000), wk =   0.0005000
        k(  728) = (   0.0998501   0.2999501   0.2500000), wk =   0.0005000
        k(  729) = (   0.0998501   0.2999501   0.3000000), wk =   0.0005000
        k(  730) = (   0.0998501   0.2999501   0.3500000), wk =   0.0005000
        k(  731) = (   0.0998501   0.2999501   0.4000000), wk =   0.0005000
        k(  732) = (   0.0998501   0.2999501   0.4500001), wk =   0.0005000
        k(  733) = (   0.0998501   0.2999501  -0.5000001), wk =   0.0005000
        k(  734) = (   0.0998501   0.2999501  -0.4500001), wk =   0.0005000
        k(  735) = (   0.0998501   0.2999501  -0.4000000), wk =   0.0005000
        k(  736) = (   0.0998501   0.2999501  -0.3500000), wk =   0.0005000
        k(  737) = (   0.0998501   0.2999501  -0.3000000), wk =   0.0005000
        k(  738) = (   0.0998501   0.2999501  -0.2500000), wk =   0.0005000
        k(  739) = (   0.0998501   0.2999501  -0.2000000), wk =   0.0005000
        k(  740) = (   0.0998501   0.2999501  -0.1500000), wk =   0.0005000
        k(  741) = (   0.0998501   0.2999501  -0.1000000), wk =   0.0005000
        k(  742) = (   0.0998501   0.2999501  -0.0500000), wk =   0.0005000
        k(  743) = (   0.0998251   0.3499501   0.0000000), wk =   0.0005000
        k(  744) = (   0.0998251   0.3499501   0.0500000), wk =   0.0005000
        k(  745) = (   0.0998251   0.3499501   0.1000000), wk =   0.0005000
        k(  746) = (   0.0998251   0.3499501   0.1500000), wk =   0.0005000
        k(  747) = (   0.0998251   0.3499501   0.2000000), wk =   0.0005000
        k(  748) = (   0.0998251   0.3499501   0.2500000), wk =   0.0005000
        k(  749) = (   0.0998251   0.3499501   0.3000000), wk =   0.0005000
        k(  750) = (   0.0998251   0.3499501   0.3500000), wk =   0.0005000
        k(  751) = (   0.0998251   0.3499501   0.4000000), wk =   0.0005000
        k(  752) = (   0.0998251   0.3499501   0.4500001), wk =   0.0005000
        k(  753) = (   0.0998251   0.3499501  -0.5000001), wk =   0.0005000
        k(  754) = (   0.0998251   0.3499501  -0.4500001), wk =   0.0005000
        k(  755) = (   0.0998251   0.3499501  -0.4000000), wk =   0.0005000
        k(  756) = (   0.0998251   0.3499501  -0.3500000), wk =   0.0005000
        k(  757) = (   0.0998251   0.3499501  -0.3000000), wk =   0.0005000
        k(  758) = (   0.0998251   0.3499501  -0.2500000), wk =   0.0005000
        k(  759) = (   0.0998251   0.3499501  -0.2000000), wk =   0.0005000
        k(  760) = (   0.0998251   0.3499501  -0.1500000), wk =   0.0005000
        k(  761) = (   0.0998251   0.3499501  -0.1000000), wk =   0.0005000
        k(  762) = (   0.0998251   0.3499501  -0.0500000), wk =   0.0005000
        k(  763) = (   0.0998001   0.3999502   0.0000000), wk =   0.0005000
        k(  764) = (   0.0998001   0.3999502   0.0500000), wk =   0.0005000
        k(  765) = (   0.0998001   0.3999502   0.1000000), wk =   0.0005000
        k(  766) = (   0.0998001   0.3999502   0.1500000), wk =   0.0005000
        k(  767) = (   0.0998001   0.3999502   0.2000000), wk =   0.0005000
        k(  768) = (   0.0998001   0.3999502   0.2500000), wk =   0.0005000
        k(  769) = (   0.0998001   0.3999502   0.3000000), wk =   0.0005000
        k(  770) = (   0.0998001   0.3999502   0.3500000), wk =   0.0005000
        k(  771) = (   0.0998001   0.3999502   0.4000000), wk =   0.0005000
        k(  772) = (   0.0998001   0.3999502   0.4500001), wk =   0.0005000
        k(  773) = (   0.0998001   0.3999502  -0.5000001), wk =   0.0005000
        k(  774) = (   0.0998001   0.3999502  -0.4500001), wk =   0.0005000
        k(  775) = (   0.0998001   0.3999502  -0.4000000), wk =   0.0005000
        k(  776) = (   0.0998001   0.3999502  -0.3500000), wk =   0.0005000
        k(  777) = (   0.0998001   0.3999502  -0.3000000), wk =   0.0005000
        k(  778) = (   0.0998001   0.3999502  -0.2500000), wk =   0.0005000
        k(  779) = (   0.0998001   0.3999502  -0.2000000), wk =   0.0005000
        k(  780) = (   0.0998001   0.3999502  -0.1500000), wk =   0.0005000
        k(  781) = (   0.0998001   0.3999502  -0.1000000), wk =   0.0005000
        k(  782) = (   0.0998001   0.3999502  -0.0500000), wk =   0.0005000
        k(  783) = (   0.0997751   0.4499502   0.0000000), wk =   0.0005000
        k(  784) = (   0.0997751   0.4499502   0.0500000), wk =   0.0005000
        k(  785) = (   0.0997751   0.4499502   0.1000000), wk =   0.0005000
        k(  786) = (   0.0997751   0.4499502   0.1500000), wk =   0.0005000
        k(  787) = (   0.0997751   0.4499502   0.2000000), wk =   0.0005000
        k(  788) = (   0.0997751   0.4499502   0.2500000), wk =   0.0005000
        k(  789) = (   0.0997751   0.4499502   0.3000000), wk =   0.0005000
        k(  790) = (   0.0997751   0.4499502   0.3500000), wk =   0.0005000
        k(  791) = (   0.0997751   0.4499502   0.4000000), wk =   0.0005000
        k(  792) = (   0.0997751   0.4499502   0.4500001), wk =   0.0005000
        k(  793) = (   0.0997751   0.4499502  -0.5000001), wk =   0.0005000
        k(  794) = (   0.0997751   0.4499502  -0.4500001), wk =   0.0005000
        k(  795) = (   0.0997751   0.4499502  -0.4000000), wk =   0.0005000
        k(  796) = (   0.0997751   0.4499502  -0.3500000), wk =   0.0005000
        k(  797) = (   0.0997751   0.4499502  -0.3000000), wk =   0.0005000
        k(  798) = (   0.0997751   0.4499502  -0.2500000), wk =   0.0005000
        k(  799) = (   0.0997751   0.4499502  -0.2000000), wk =   0.0005000
        k(  800) = (   0.0997751   0.4499502  -0.1500000), wk =   0.0005000
        k(  801) = (   0.0997751   0.4499502  -0.1000000), wk =   0.0005000
        k(  802) = (   0.0997751   0.4499502  -0.0500000), wk =   0.0005000
        k(  803) = (   0.1002500  -0.5000502   0.0000000), wk =   0.0005000
        k(  804) = (   0.1002500  -0.5000502   0.0500000), wk =   0.0005000
        k(  805) = (   0.1002500  -0.5000502   0.1000000), wk =   0.0005000
        k(  806) = (   0.1002500  -0.5000502   0.1500000), wk =   0.0005000
        k(  807) = (   0.1002500  -0.5000502   0.2000000), wk =   0.0005000
        k(  808) = (   0.1002500  -0.5000502   0.2500000), wk =   0.0005000
        k(  809) = (   0.1002500  -0.5000502   0.3000000), wk =   0.0005000
        k(  810) = (   0.1002500  -0.5000502   0.3500000), wk =   0.0005000
        k(  811) = (   0.1002500  -0.5000502   0.4000000), wk =   0.0005000
        k(  812) = (   0.1002500  -0.5000502   0.4500001), wk =   0.0005000
        k(  813) = (   0.1002500  -0.5000502  -0.5000001), wk =   0.0005000
        k(  814) = (   0.1002500  -0.5000502  -0.4500001), wk =   0.0005000
        k(  815) = (   0.1002500  -0.5000502  -0.4000000), wk =   0.0005000
        k(  816) = (   0.1002500  -0.5000502  -0.3500000), wk =   0.0005000
        k(  817) = (   0.1002500  -0.5000502  -0.3000000), wk =   0.0005000
        k(  818) = (   0.1002500  -0.5000502  -0.2500000), wk =   0.0005000
        k(  819) = (   0.1002500  -0.5000502  -0.2000000), wk =   0.0005000
        k(  820) = (   0.1002500  -0.5000502  -0.1500000), wk =   0.0005000
        k(  821) = (   0.1002500  -0.5000502  -0.1000000), wk =   0.0005000
        k(  822) = (   0.1002500  -0.5000502  -0.0500000), wk =   0.0005000
        k(  823) = (   0.1002250  -0.4500502   0.0000000), wk =   0.0005000
        k(  824) = (   0.1002250  -0.4500502   0.0500000), wk =   0.0005000
        k(  825) = (   0.1002250  -0.4500502   0.1000000), wk =   0.0005000
        k(  826) = (   0.1002250  -0.4500502   0.1500000), wk =   0.0005000
        k(  827) = (   0.1002250  -0.4500502   0.2000000), wk =   0.0005000
        k(  828) = (   0.1002250  -0.4500502   0.2500000), wk =   0.0005000
        k(  829) = (   0.1002250  -0.4500502   0.3000000), wk =   0.0005000
        k(  830) = (   0.1002250  -0.4500502   0.3500000), wk =   0.0005000
        k(  831) = (   0.1002250  -0.4500502   0.4000000), wk =   0.0005000
        k(  832) = (   0.1002250  -0.4500502   0.4500001), wk =   0.0005000
        k(  833) = (   0.1002250  -0.4500502  -0.5000001), wk =   0.0005000
        k(  834) = (   0.1002250  -0.4500502  -0.4500001), wk =   0.0005000
        k(  835) = (   0.1002250  -0.4500502  -0.4000000), wk =   0.0005000
        k(  836) = (   0.1002250  -0.4500502  -0.3500000), wk =   0.0005000
        k(  837) = (   0.1002250  -0.4500502  -0.3000000), wk =   0.0005000
        k(  838) = (   0.1002250  -0.4500502  -0.2500000), wk =   0.0005000
        k(  839) = (   0.1002250  -0.4500502  -0.2000000), wk =   0.0005000
        k(  840) = (   0.1002250  -0.4500502  -0.1500000), wk =   0.0005000
        k(  841) = (   0.1002250  -0.4500502  -0.1000000), wk =   0.0005000
        k(  842) = (   0.1002250  -0.4500502  -0.0500000), wk =   0.0005000
        k(  843) = (   0.1002000  -0.4000501   0.0000000), wk =   0.0005000
        k(  844) = (   0.1002000  -0.4000501   0.0500000), wk =   0.0005000
        k(  845) = (   0.1002000  -0.4000501   0.1000000), wk =   0.0005000
        k(  846) = (   0.1002000  -0.4000501   0.1500000), wk =   0.0005000
        k(  847) = (   0.1002000  -0.4000501   0.2000000), wk =   0.0005000
        k(  848) = (   0.1002000  -0.4000501   0.2500000), wk =   0.0005000
        k(  849) = (   0.1002000  -0.4000501   0.3000000), wk =   0.0005000
        k(  850) = (   0.1002000  -0.4000501   0.3500000), wk =   0.0005000
        k(  851) = (   0.1002000  -0.4000501   0.4000000), wk =   0.0005000
        k(  852) = (   0.1002000  -0.4000501   0.4500001), wk =   0.0005000
        k(  853) = (   0.1002000  -0.4000501  -0.5000001), wk =   0.0005000
        k(  854) = (   0.1002000  -0.4000501  -0.4500001), wk =   0.0005000
        k(  855) = (   0.1002000  -0.4000501  -0.4000000), wk =   0.0005000
        k(  856) = (   0.1002000  -0.4000501  -0.3500000), wk =   0.0005000
        k(  857) = (   0.1002000  -0.4000501  -0.3000000), wk =   0.0005000
        k(  858) = (   0.1002000  -0.4000501  -0.2500000), wk =   0.0005000
        k(  859) = (   0.1002000  -0.4000501  -0.2000000), wk =   0.0005000
        k(  860) = (   0.1002000  -0.4000501  -0.1500000), wk =   0.0005000
        k(  861) = (   0.1002000  -0.4000501  -0.1000000), wk =   0.0005000
        k(  862) = (   0.1002000  -0.4000501  -0.0500000), wk =   0.0005000
        k(  863) = (   0.1001750  -0.3500501   0.0000000), wk =   0.0005000
        k(  864) = (   0.1001750  -0.3500501   0.0500000), wk =   0.0005000
        k(  865) = (   0.1001750  -0.3500501   0.1000000), wk =   0.0005000
        k(  866) = (   0.1001750  -0.3500501   0.1500000), wk =   0.0005000
        k(  867) = (   0.1001750  -0.3500501   0.2000000), wk =   0.0005000
        k(  868) = (   0.1001750  -0.3500501   0.2500000), wk =   0.0005000
        k(  869) = (   0.1001750  -0.3500501   0.3000000), wk =   0.0005000
        k(  870) = (   0.1001750  -0.3500501   0.3500000), wk =   0.0005000
        k(  871) = (   0.1001750  -0.3500501   0.4000000), wk =   0.0005000
        k(  872) = (   0.1001750  -0.3500501   0.4500001), wk =   0.0005000
        k(  873) = (   0.1001750  -0.3500501  -0.5000001), wk =   0.0005000
        k(  874) = (   0.1001750  -0.3500501  -0.4500001), wk =   0.0005000
        k(  875) = (   0.1001750  -0.3500501  -0.4000000), wk =   0.0005000
        k(  876) = (   0.1001750  -0.3500501  -0.3500000), wk =   0.0005000
        k(  877) = (   0.1001750  -0.3500501  -0.3000000), wk =   0.0005000
        k(  878) = (   0.1001750  -0.3500501  -0.2500000), wk =   0.0005000
        k(  879) = (   0.1001750  -0.3500501  -0.2000000), wk =   0.0005000
        k(  880) = (   0.1001750  -0.3500501  -0.1500000), wk =   0.0005000
        k(  881) = (   0.1001750  -0.3500501  -0.1000000), wk =   0.0005000
        k(  882) = (   0.1001750  -0.3500501  -0.0500000), wk =   0.0005000
        k(  883) = (   0.1001500  -0.3000501   0.0000000), wk =   0.0005000
        k(  884) = (   0.1001500  -0.3000501   0.0500000), wk =   0.0005000
        k(  885) = (   0.1001500  -0.3000501   0.1000000), wk =   0.0005000
        k(  886) = (   0.1001500  -0.3000501   0.1500000), wk =   0.0005000
        k(  887) = (   0.1001500  -0.3000501   0.2000000), wk =   0.0005000
        k(  888) = (   0.1001500  -0.3000501   0.2500000), wk =   0.0005000
        k(  889) = (   0.1001500  -0.3000501   0.3000000), wk =   0.0005000
        k(  890) = (   0.1001500  -0.3000501   0.3500000), wk =   0.0005000
        k(  891) = (   0.1001500  -0.3000501   0.4000000), wk =   0.0005000
        k(  892) = (   0.1001500  -0.3000501   0.4500001), wk =   0.0005000
        k(  893) = (   0.1001500  -0.3000501  -0.5000001), wk =   0.0005000
        k(  894) = (   0.1001500  -0.3000501  -0.4500001), wk =   0.0005000
        k(  895) = (   0.1001500  -0.3000501  -0.4000000), wk =   0.0005000
        k(  896) = (   0.1001500  -0.3000501  -0.3500000), wk =   0.0005000
        k(  897) = (   0.1001500  -0.3000501  -0.3000000), wk =   0.0005000
        k(  898) = (   0.1001500  -0.3000501  -0.2500000), wk =   0.0005000
        k(  899) = (   0.1001500  -0.3000501  -0.2000000), wk =   0.0005000
        k(  900) = (   0.1001500  -0.3000501  -0.1500000), wk =   0.0005000
        k(  901) = (   0.1001500  -0.3000501  -0.1000000), wk =   0.0005000
        k(  902) = (   0.1001500  -0.3000501  -0.0500000), wk =   0.0005000
        k(  903) = (   0.1001250  -0.2500501   0.0000000), wk =   0.0005000
        k(  904) = (   0.1001250  -0.2500501   0.0500000), wk =   0.0005000
        k(  905) = (   0.1001250  -0.2500501   0.1000000), wk =   0.0005000
        k(  906) = (   0.1001250  -0.2500501   0.1500000), wk =   0.0005000
        k(  907) = (   0.1001250  -0.2500501   0.2000000), wk =   0.0005000
        k(  908) = (   0.1001250  -0.2500501   0.2500000), wk =   0.0005000
        k(  909) = (   0.1001250  -0.2500501   0.3000000), wk =   0.0005000
        k(  910) = (   0.1001250  -0.2500501   0.3500000), wk =   0.0005000
        k(  911) = (   0.1001250  -0.2500501   0.4000000), wk =   0.0005000
        k(  912) = (   0.1001250  -0.2500501   0.4500001), wk =   0.0005000
        k(  913) = (   0.1001250  -0.2500501  -0.5000001), wk =   0.0005000
        k(  914) = (   0.1001250  -0.2500501  -0.4500001), wk =   0.0005000
        k(  915) = (   0.1001250  -0.2500501  -0.4000000), wk =   0.0005000
        k(  916) = (   0.1001250  -0.2500501  -0.3500000), wk =   0.0005000
        k(  917) = (   0.1001250  -0.2500501  -0.3000000), wk =   0.0005000
        k(  918) = (   0.1001250  -0.2500501  -0.2500000), wk =   0.0005000
        k(  919) = (   0.1001250  -0.2500501  -0.2000000), wk =   0.0005000
        k(  920) = (   0.1001250  -0.2500501  -0.1500000), wk =   0.0005000
        k(  921) = (   0.1001250  -0.2500501  -0.1000000), wk =   0.0005000
        k(  922) = (   0.1001250  -0.2500501  -0.0500000), wk =   0.0005000
        k(  923) = (   0.1001000  -0.2000501   0.0000000), wk =   0.0005000
        k(  924) = (   0.1001000  -0.2000501   0.0500000), wk =   0.0005000
        k(  925) = (   0.1001000  -0.2000501   0.1000000), wk =   0.0005000
        k(  926) = (   0.1001000  -0.2000501   0.1500000), wk =   0.0005000
        k(  927) = (   0.1001000  -0.2000501   0.2000000), wk =   0.0005000
        k(  928) = (   0.1001000  -0.2000501   0.2500000), wk =   0.0005000
        k(  929) = (   0.1001000  -0.2000501   0.3000000), wk =   0.0005000
        k(  930) = (   0.1001000  -0.2000501   0.3500000), wk =   0.0005000
        k(  931) = (   0.1001000  -0.2000501   0.4000000), wk =   0.0005000
        k(  932) = (   0.1001000  -0.2000501   0.4500001), wk =   0.0005000
        k(  933) = (   0.1001000  -0.2000501  -0.5000001), wk =   0.0005000
        k(  934) = (   0.1001000  -0.2000501  -0.4500001), wk =   0.0005000
        k(  935) = (   0.1001000  -0.2000501  -0.4000000), wk =   0.0005000
        k(  936) = (   0.1001000  -0.2000501  -0.3500000), wk =   0.0005000
        k(  937) = (   0.1001000  -0.2000501  -0.3000000), wk =   0.0005000
        k(  938) = (   0.1001000  -0.2000501  -0.2500000), wk =   0.0005000
        k(  939) = (   0.1001000  -0.2000501  -0.2000000), wk =   0.0005000
        k(  940) = (   0.1001000  -0.2000501  -0.1500000), wk =   0.0005000
        k(  941) = (   0.1001000  -0.2000501  -0.1000000), wk =   0.0005000
        k(  942) = (   0.1001000  -0.2000501  -0.0500000), wk =   0.0005000
        k(  943) = (   0.1000750  -0.1500501   0.0000000), wk =   0.0005000
        k(  944) = (   0.1000750  -0.1500501   0.0500000), wk =   0.0005000
        k(  945) = (   0.1000750  -0.1500501   0.1000000), wk =   0.0005000
        k(  946) = (   0.1000750  -0.1500501   0.1500000), wk =   0.0005000
        k(  947) = (   0.1000750  -0.1500501   0.2000000), wk =   0.0005000
        k(  948) = (   0.1000750  -0.1500501   0.2500000), wk =   0.0005000
        k(  949) = (   0.1000750  -0.1500501   0.3000000), wk =   0.0005000
        k(  950) = (   0.1000750  -0.1500501   0.3500000), wk =   0.0005000
        k(  951) = (   0.1000750  -0.1500501   0.4000000), wk =   0.0005000
        k(  952) = (   0.1000750  -0.1500501   0.4500001), wk =   0.0005000
        k(  953) = (   0.1000750  -0.1500501  -0.5000001), wk =   0.0005000
        k(  954) = (   0.1000750  -0.1500501  -0.4500001), wk =   0.0005000
        k(  955) = (   0.1000750  -0.1500501  -0.4000000), wk =   0.0005000
        k(  956) = (   0.1000750  -0.1500501  -0.3500000), wk =   0.0005000
        k(  957) = (   0.1000750  -0.1500501  -0.3000000), wk =   0.0005000
        k(  958) = (   0.1000750  -0.1500501  -0.2500000), wk =   0.0005000
        k(  959) = (   0.1000750  -0.1500501  -0.2000000), wk =   0.0005000
        k(  960) = (   0.1000750  -0.1500501  -0.1500000), wk =   0.0005000
        k(  961) = (   0.1000750  -0.1500501  -0.1000000), wk =   0.0005000
        k(  962) = (   0.1000750  -0.1500501  -0.0500000), wk =   0.0005000
        k(  963) = (   0.1000500  -0.1000500   0.0000000), wk =   0.0005000
        k(  964) = (   0.1000500  -0.1000500   0.0500000), wk =   0.0005000
        k(  965) = (   0.1000500  -0.1000500   0.1000000), wk =   0.0005000
        k(  966) = (   0.1000500  -0.1000500   0.1500000), wk =   0.0005000
        k(  967) = (   0.1000500  -0.1000500   0.2000000), wk =   0.0005000
        k(  968) = (   0.1000500  -0.1000500   0.2500000), wk =   0.0005000
        k(  969) = (   0.1000500  -0.1000500   0.3000000), wk =   0.0005000
        k(  970) = (   0.1000500  -0.1000500   0.3500000), wk =   0.0005000
        k(  971) = (   0.1000500  -0.1000500   0.4000000), wk =   0.0005000
        k(  972) = (   0.1000500  -0.1000500   0.4500001), wk =   0.0005000
        k(  973) = (   0.1000500  -0.1000500  -0.5000001), wk =   0.0005000
        k(  974) = (   0.1000500  -0.1000500  -0.4500001), wk =   0.0005000
        k(  975) = (   0.1000500  -0.1000500  -0.4000000), wk =   0.0005000
        k(  976) = (   0.1000500  -0.1000500  -0.3500000), wk =   0.0005000
        k(  977) = (   0.1000500  -0.1000500  -0.3000000), wk =   0.0005000
        k(  978) = (   0.1000500  -0.1000500  -0.2500000), wk =   0.0005000
        k(  979) = (   0.1000500  -0.1000500  -0.2000000), wk =   0.0005000
[...]

     1.1550   1.1619   2.8852   2.8952   4.6139   4.6213   6.3095   6.3199
    14.7312  14.7381

     occupation numbers 
     1.0000   1.0000   1.0000   1.0000   1.0000   1.0000   1.0013   1.0014
    -0.0000  -0.0000

          k =-0.5002 0.4003-0.2500 (  1924 PWs)   bands (ev):

     0.9148   0.9217   2.6490   2.6591   5.2260   5.2332   6.9170   6.9274
    13.7240  13.7311

     occupation numbers 
     1.0000   1.0000   1.0000   1.0000   1.0000   1.0000   1.0295   1.0303
    -0.0000  -0.0000

          k =-0.5002 0.4003-0.2000 (  1928 PWs)   bands (ev):

     0.7179   0.7249   2.4549   2.4651   5.8747   5.8818   7.5599   7.5703
    12.7455  12.7527

     occupation numbers 
     1.0000   1.0000   1.0000   1.0000   1.0000   1.0000   0.8005   0.7890
    -0.0000  -0.0000

          k =-0.5002 0.4003-0.1500 (  1930 PWs)   bands (ev):

     0.5646   0.5716   2.3036   2.3138   6.5541   6.5612   8.2328   8.2431
    11.8064  11.8137

     occupation numbers 
     1.0000   1.0000   1.0000   1.0000   1.0065   1.0068   0.0280   0.0227
    -0.0000  -0.0000

          k =-0.5002 0.4003-0.1000 (  1938 PWs)   bands (ev):

     0.4550   0.4620   2.1954   2.2056   7.2503   7.2573   8.9216   8.9318
    10.9232  10.9306

     occupation numbers 
     1.0000   1.0000   1.0000   1.0000   1.0115   1.0095  -0.0114  -0.0108
    -0.0000  -0.0000

          k =-0.5002 0.4003-0.0500 (  1936 PWs)   bands (ev):

     0.3892   0.3962   2.1304   2.1406   7.9121   7.9189   9.5750   9.5851
    10.1487  10.1563

     occupation numbers 
     1.0000   1.0000   1.0000   1.0000   0.3328   0.3238  -0.0001  -0.0001
    -0.0000  -0.0000

          k =-0.5002 0.4503 0.0000 (  1940 PWs)   bands (ev):

     0.7392   0.7470   1.6104   1.6199   8.6271   8.6345   9.4554   9.4646
    10.1049  10.1134

     occupation numbers 
     1.0000   1.0000   1.0000   1.0000  -0.0320  -0.0315  -0.0003  -0.0003
    -0.0000  -0.0000

          k =-0.5002 0.4503 0.0500 (  1943 PWs)   bands (ev):

     0.7611   0.7689   1.6322   1.6417   8.2660   8.2736   9.0976   9.1069
    10.5034  10.5117

     occupation numbers 
     1.0000   1.0000   1.0000   1.0000   0.0121   0.0088  -0.0043  -0.0041
    -0.0000  -0.0000

          k =-0.5002 0.4503 0.1000 (  1937 PWs)   bands (ev):

     0.8267   0.8346   1.6974   1.7069   7.6065   7.6143   8.4425   8.4519
    11.2751  11.2832

     occupation numbers 
     1.0000   1.0000   1.0000   1.0000   0.7469   0.7375  -0.0319  -0.0327
    -0.0000  -0.0000

          k =-0.5002 0.4503 0.1500 (  1936 PWs)   bands (ev):

     0.9360   0.9439   1.8061   1.8155   6.9119   6.9198   7.7517   7.7612
    12.1554  12.1634

     occupation numbers 
     1.0000   1.0000   1.0000   1.0000   1.0292   1.0297   0.5550   0.5417
    -0.0000  -0.0000

          k =-0.5002 0.4503 0.2000 (  1927 PWs)   bands (ev):

     1.0890   1.0968   1.9580   1.9675   6.2339   6.2418   7.0770   7.0866
    13.0915  13.0994

     occupation numbers 
     1.0000   1.0000   1.0000   1.0000   1.0007   1.0008   1.0353   1.0350
    -0.0000  -0.0000

          k =-0.5002 0.4503 0.2500 (  1922 PWs)   bands (ev):

     1.2853   1.2931   2.1531   2.1625   5.5862   5.5942   6.4324   6.4420
    14.0662  14.0739

     occupation numbers 
     1.0000   1.0000   1.0000   1.0000   1.0000   1.0000   1.0031   1.0033
    -0.0000  -0.0000

          k =-0.5002 0.4503 0.3000 (  1922 PWs)   bands (ev):

     1.5249   1.5327   2.3910   2.4003   4.9745   4.9826   5.8232   5.8328
    15.0689  15.0764

     occupation numbers 
     1.0000   1.0000   1.0000   1.0000   1.0000   1.0000   1.0000   1.0000
    -0.0000  -0.0000

          k =-0.5002 0.4503 0.3500 (  1919 PWs)   bands (ev):

     1.8075   1.8153   2.6710   2.6802   4.4018   4.4100   5.2521   5.2618
    16.0873  16.0943

     occupation numbers 
     1.0000   1.0000   1.0000   1.0000   1.0000   1.0000   1.0000   1.0000
    -0.0000  -0.0000

          k =-0.5002 0.4503 0.4000 (  1906 PWs)   bands (ev):

     2.1327   2.1404   2.9905   2.9993   3.8718   3.8805   4.7209   4.7307
    17.0994  17.1055

     occupation numbers 
     1.0000   1.0000   1.0000   1.0000   1.0000   1.0000   1.0000   1.0000
    -0.0000  -0.0000

          k =-0.5002 0.4503 0.4500 (  1898 PWs)   bands (ev):

     2.4997   2.5073   3.2761   3.2813   3.4589   3.4711   4.2309   4.2408
    18.0729  18.0860

     occupation numbers 
     1.0000   1.0000   1.0000   1.0000   1.0000   1.0000   1.0000   1.0000
    -0.0000  -0.0000

          k =-0.5002 0.4503-0.5000 (  1904 PWs)   bands (ev):

     2.9058   2.9059   2.9130   2.9131   3.7852   3.7853   3.7955   3.7955
    18.3505  18.3523

     occupation numbers 
     1.0000   1.0000   1.0000   1.0000   1.0000   1.0000   1.0000   1.0000
    -0.0000  -0.0000

          k =-0.5002 0.4503-0.4500 (  1898 PWs)   bands (ev):

     2.4997   2.5073   3.2761   3.2813   3.4589   3.4711   4.2309   4.2408
    18.0725  18.0864

     occupation numbers 
     1.0000   1.0000   1.0000   1.0000   1.0000   1.0000   1.0000   1.0000
    -0.0000  -0.0000

          k =-0.5002 0.4503-0.4000 (  1906 PWs)   bands (ev):

     2.1327   2.1404   2.9905   2.9993   3.8718   3.8805   4.7209   4.7307
    17.0994  17.1055

     occupation numbers 
     1.0000   1.0000   1.0000   1.0000   1.0000   1.0000   1.0000   1.0000
    -0.0000  -0.0000

          k =-0.5002 0.4503-0.3500 (  1919 PWs)   bands (ev):

     1.8075   1.8153   2.6710   2.6802   4.4018   4.4100   5.2521   5.2618
    16.0873  16.0943

     occupation numbers 
     1.0000   1.0000   1.0000   1.0000   1.0000   1.0000   1.0000   1.0000
    -0.0000  -0.0000

          k =-0.5002 0.4503-0.3000 (  1922 PWs)   bands (ev):

     1.5249   1.5327   2.3910   2.4003   4.9745   4.9826   5.8232   5.8328
    15.0689  15.0764

     occupation numbers 
     1.0000   1.0000   1.0000   1.0000   1.0000   1.0000   1.0000   1.0000
    -0.0000  -0.0000

          k =-0.5002 0.4503-0.2500 (  1922 PWs)   bands (ev):

     1.2853   1.2931   2.1531   2.1625   5.5862   5.5942   6.4324   6.4420
    14.0662  14.0739

     occupation numbers 
     1.0000   1.0000   1.0000   1.0000   1.0000   1.0000   1.0031   1.0033
    -0.0000  -0.0000

          k =-0.5002 0.4503-0.2000 (  1927 PWs)   bands (ev):

     1.0890   1.0968   1.9580   1.9675   6.2339   6.2418   7.0770   7.0866
    13.0915  13.0994

     occupation numbers 
     1.0000   1.0000   1.0000   1.0000   1.0007   1.0008   1.0353   1.0350
    -0.0000  -0.0000

          k =-0.5002 0.4503-0.1500 (  1936 PWs)   bands (ev):

     0.9360   0.9439   1.8061   1.8155   6.9119   6.9198   7.7517   7.7612
    12.1554  12.1634

     occupation numbers 
     1.0000   1.0000   1.0000   1.0000   1.0292   1.0297   0.5550   0.5417
    -0.0000  -0.0000

          k =-0.5002 0.4503-0.1000 (  1937 PWs)   bands (ev):

     0.8267   0.8346   1.6974   1.7069   7.6065   7.6143   8.4425   8.4519
    11.2751  11.2832

     occupation numbers 
     1.0000   1.0000   1.0000   1.0000   0.7469   0.7375  -0.0319  -0.0327
    -0.0000  -0.0000

          k =-0.5002 0.4503-0.0500 (  1943 PWs)   bands (ev):

     0.7611   0.7689   1.6322   1.6417   8.2660   8.2736   9.0976   9.1069
    10.5034  10.5117

     occupation numbers 
     1.0000   1.0000   1.0000   1.0000   0.0121   0.0088  -0.0043  -0.0041
    -0.0000  -0.0000

          k =-0.4998-0.4998 0.0000 (  1956 PWs)   bands (ev):

     1.1537   1.1537   1.1624   1.1624   9.0204   9.0204   9.0288   9.0288
    10.5053  10.5074

     occupation numbers 
     1.0000   1.0000   1.0000   1.0000  -0.0068  -0.0068  -0.0065  -0.0065
    -0.0000  -0.0000

          k =-0.4998-0.4998 0.0500 (  1940 PWs)   bands (ev):

     1.1756   1.1756   1.1842   1.1842   8.6612   8.6612   8.6697   8.6697
    10.9019  10.9044

     occupation numbers 
     1.0000   1.0000   1.0000   1.0000  -0.0298  -0.0298  -0.0292  -0.0292
    -0.0000  -0.0000

          k =-0.4998-0.4998 0.1000 (  1936 PWs)   bands (ev):

     1.2410   1.2410   1.2497   1.2497   8.0039   8.0039   8.0126   8.0126
    11.6658  11.6721

     occupation numbers 
     1.0000   1.0000   1.0000   1.0000   0.2194   0.2194   0.2097   0.2097
    -0.0000  -0.0000

          k =-0.4998-0.4998 0.1500 (  1932 PWs)   bands (ev):

     1.3500   1.3500   1.3587   1.3587   7.3113   7.3113   7.3200   7.3200
    12.5428  12.5494

     occupation numbers 
     1.0000   1.0000   1.0000   1.0000   0.9899   0.9899   0.9860   0.9860
    -0.0000  -0.0000

          k =-0.4998-0.4998 0.2000 (  1928 PWs)   bands (ev):

     1.5025   1.5025   1.5111   1.5111   6.6348   6.6348   6.6436   6.6436
    13.4742  13.4809

     occupation numbers 
     1.0000   1.0000   1.0000   1.0000   1.0101   1.0101   1.0105   1.0105
    -0.0000  -0.0000

          k =-0.4998-0.4998 0.2500 (  1916 PWs)   bands (ev):

     1.6983   1.6983   1.7069   1.7069   5.9886   5.9886   5.9974   5.9974
    14.4425  14.4455

     occupation numbers 
     1.0000   1.0000   1.0000   1.0000   1.0001   1.0001   1.0001   1.0001
    -0.0000  -0.0000

          k =-0.4998-0.4998 0.3000 (  1924 PWs)   bands (ev):

     1.9372   1.9372   1.9457   1.9457   5.3780   5.3780   5.3868   5.3868
    15.4384  15.4401

     occupation numbers 
     1.0000   1.0000   1.0000   1.0000   1.0000   1.0000   1.0000   1.0000
    -0.0000  -0.0000

          k =-0.4998-0.4998 0.3500 (  1920 PWs)   bands (ev):

     2.2187   2.2187   2.2272   2.2272   4.8057   4.8057   4.8147   4.8147
    16.4429  16.4471

     occupation numbers 
     1.0000   1.0000   1.0000   1.0000   1.0000   1.0000   1.0000   1.0000
    -0.0000  -0.0000

          k =-0.4998-0.4998 0.4000 (  1908 PWs)   bands (ev):

     2.5424   2.5424   2.5507   2.5507   4.2739   4.2739   4.2830   4.2830
    17.4331  17.4355

     occupation numbers 
     1.0000   1.0000   1.0000   1.0000   1.0000   1.0000   1.0000   1.0000
    -0.0000  -0.0000

          k =-0.4998-0.4998 0.4500 (  1904 PWs)   bands (ev):

     2.9054   2.9054   2.9134   2.9134   3.7856   3.7856   3.7951   3.7951
    18.3590  18.3610

     occupation numbers 
     1.0000   1.0000   1.0000   1.0000   1.0000   1.0000   1.0000   1.0000
    -0.0000  -0.0000

          k =-0.4998-0.4998-0.5000 (  1904 PWs)   bands (ev):

     3.2345   3.2345   3.2397   3.2397   3.4149   3.4149   3.4271   3.4271
    19.0653  19.0792

     occupation numbers 
     1.0000   1.0000   1.0000   1.0000   1.0000   1.0000   1.0000   1.0000
    -0.0000  -0.0000

     the Fermi energy is     7.7908 ev

!    total energy              =    -158.01090002 Ry
     Harris-Foulkes estimate   =    -158.01090002 Ry
     estimated scf accuracy    <          9.3E-13 Ry

     total all-electron energy =     -1942.582026 Ry

     The total energy is the sum of the following terms:

     one-electron contribution =      12.54564992 Ry
     hartree contribution      =       0.02314445 Ry
     xc contribution           =     -10.33748374 Ry
     ewald contribution        =     -21.52887399 Ry
     one-center paw contrib.   =    -138.71328835 Ry
      -> PAW hartree energy AE =       1.34423261 Ry
      -> PAW hartree energy PS =      -1.33961998 Ry
      -> PAW xc energy AE      =     -36.55808795 Ry
      -> PAW xc energy PS      =       1.87515339 Ry
      -> total E_H with PAW    =       0.02775708 Ry
      -> total E_XC with PAW   =     -45.02041829 Ry
     smearing contrib. (-TS)   =      -0.00004830 Ry

     convergence has been achieved in  11 iterations

     Forces acting on atoms (cartesian axes, Ry/au):

     atom    1 type  1   force =     0.00000059    0.00000057   -0.00000316
     atom    2 type  1   force =    -0.00000055   -0.00000054   -0.00000316
     atom    3 type  1   force =    -0.00000174    0.00000170    0.00000316
     atom    4 type  1   force =     0.00000170   -0.00000173    0.00000316
     The non-local contrib.  to forces
     atom    1 type  1   force =     0.00000036    0.00000035   -0.00000410
     atom    2 type  1   force =    -0.00000026   -0.00000030   -0.00000410
     atom    3 type  1   force =    -0.00000267    0.00000264    0.00000408
     atom    4 type  1   force =     0.00000263   -0.00000269    0.00000409
     The ionic contribution  to forces
     atom    1 type  1   force =     0.00000533    0.00000533   -0.00002179
     atom    2 type  1   force =    -0.00000517   -0.00000517   -0.00002179
     atom    3 type  1   force =    -0.00001052    0.00001036    0.00002179
     atom    4 type  1   force =     0.00001036   -0.00001052    0.00002179
     The local contribution  to forces
     atom    1 type  1   force =    -0.00000503   -0.00000511    0.00002220
     atom    2 type  1   force =     0.00000483    0.00000494    0.00002220
     atom    3 type  1   force =     0.00001113   -0.00001105   -0.00002219
     atom    4 type  1   force =    -0.00001096    0.00001122   -0.00002220
     The core correction contribution to forces
     atom    1 type  1   force =    -0.00000005   -0.00000005    0.00000050
     atom    2 type  1   force =     0.00000004    0.00000005    0.00000050
     atom    3 type  1   force =     0.00000032   -0.00000032   -0.00000050
     atom    4 type  1   force =    -0.00000031    0.00000032   -0.00000050
     The Hubbard contrib.    to forces
     atom    1 type  1   force =     0.00000000    0.00000000    0.00000000
     atom    2 type  1   force =     0.00000000    0.00000000    0.00000000
     atom    3 type  1   force =     0.00000000    0.00000000    0.00000000
     atom    4 type  1   force =     0.00000000    0.00000000    0.00000000
     The SCF correction term to forces
     atom    1 type  1   force =    -0.00000001    0.00000005    0.00000002
     atom    2 type  1   force =     0.00000001   -0.00000006    0.00000002
     atom    3 type  1   force =     0.00000001    0.00000006   -0.00000003
     atom    4 type  1   force =    -0.00000001   -0.00000005   -0.00000002

     Total force =     0.000007     Total SCF correction =     0.000000


     Computing stress (Cartesian axis) and pressure

          total   stress  (Ry/bohr**3)                   (kbar)     P=  -10.05
  -0.00006830  -0.00000214  -0.00000000        -10.05     -0.31     -0.00
  -0.00000214  -0.00006830  -0.00000000         -0.31    -10.05     -0.00
  -0.00000000  -0.00000000  -0.00006831         -0.00     -0.00    -10.05

     kinetic stress (kbar)   1434.98      0.07      0.00
                                0.07   1434.98     -0.00
                                0.00     -0.00   1434.98

     local   stress (kbar)    627.64      1.34     -0.00
                                1.34    627.64      0.00
                               -0.00      0.00    627.64

     nonloc. stress (kbar)   1037.75     -0.30     -0.00
                               -0.30   1037.75     -0.00
                               -0.00     -0.00   1037.74

     hartree stress (kbar)      2.52     -0.01      0.00
                               -0.01      2.52      0.00
                                0.00      0.00      2.52

     exc-cor stress (kbar)    501.05     -0.01      0.00
                               -0.01    501.05     -0.00
                                0.00     -0.00    501.05

     corecor stress (kbar)  -1271.35      0.05     -0.00
                                0.05  -1271.35      0.00
                               -0.00      0.00  -1271.35

     ewald   stress (kbar)  -2342.64     -1.45     -0.00
                               -1.45  -2342.64     -0.00
                               -0.00     -0.00  -2342.64

     hubbard stress (kbar)      0.00      0.00      0.00
                                0.00      0.00      0.00
                                0.00      0.00      0.00

     london  stress (kbar)      0.00      0.00      0.00
                                0.00      0.00      0.00
                                0.00      0.00      0.00

     DFT-D3  stress (kbar)      0.00      0.00      0.00
                                0.00      0.00      0.00
                                0.00      0.00      0.00

     XDM     stress (kbar)      0.00      0.00      0.00
                                0.00      0.00      0.00
                                0.00      0.00      0.00

     dft-nl  stress (kbar)      0.00      0.00      0.00
                                0.00      0.00      0.00
                                0.00      0.00      0.00

     TS-vdW  stress (kbar)      0.00      0.00      0.00
                                0.00      0.00      0.00
                                0.00      0.00      0.00



     Writing output data file aiida.save/
 
     init_run     :      3.70s CPU      3.93s WALL (       1 calls)
     electrons    :    117.19s CPU    123.86s WALL (       1 calls)
     forces       :      0.81s CPU      0.82s WALL (       1 calls)
     stress       :      2.06s CPU      2.08s WALL (       1 calls)

     Called by init_run:
     wfcinit      :      3.46s CPU      3.63s WALL (       1 calls)
     wfcinit:atom :      0.04s CPU      0.04s WALL (    1001 calls)
     wfcinit:wfcr :      3.18s CPU      3.34s WALL (    1001 calls)
     potinit      :      0.08s CPU      0.09s WALL (       1 calls)
     hinit0       :      0.09s CPU      0.11s WALL (       1 calls)

     Called by electrons:
     c_bands      :    105.03s CPU    111.05s WALL (      12 calls)
     sum_band     :     11.25s CPU     11.84s WALL (      12 calls)
     v_of_rho     :      0.10s CPU      0.11s WALL (      12 calls)
     v_h          :      0.01s CPU      0.01s WALL (      12 calls)
     v_xc         :      0.11s CPU      0.12s WALL (      14 calls)
     newd         :      0.08s CPU      0.09s WALL (      12 calls)
     PAW_pot      :      0.67s CPU      0.68s WALL (      12 calls)
     mix_rho      :      0.04s CPU      0.04s WALL (      12 calls)

     Called by c_bands:
     init_us_2    :      2.26s CPU      2.37s WALL (   27027 calls)
     cegterg      :     80.48s CPU     84.11s WALL (   12012 calls)

     Called by sum_band:
     sum_band:bec :      0.16s CPU      0.17s WALL (   12012 calls)
     addusdens    :      0.09s CPU      0.10s WALL (      12 calls)

     Called by *egterg:
     h_psi        :     49.01s CPU     51.20s WALL (   39598 calls)
     s_psi        :      2.06s CPU      2.18s WALL (   39598 calls)
     g_psi        :      0.35s CPU      0.37s WALL (   26585 calls)
     cdiaghg      :     24.85s CPU     26.00s WALL (   37596 calls)
     cegterg:over :      3.05s CPU      3.21s WALL (   26585 calls)
     cegterg:upda :      1.59s CPU      1.67s WALL (   26585 calls)
     cegterg:last :      0.49s CPU      0.51s WALL (   12078 calls)
     cdiaghg:chol :      1.75s CPU      1.85s WALL (   37596 calls)
     cdiaghg:inve :      0.71s CPU      0.75s WALL (   37596 calls)
     cdiaghg:para :      2.59s CPU      2.70s WALL (   75192 calls)

     Called by h_psi:
     h_psi:pot    :     48.80s CPU     50.98s WALL (   39598 calls)
     h_psi:calbec :      3.25s CPU      3.41s WALL (   39598 calls)
     vloc_psi     :     43.16s CPU     45.07s WALL (   39598 calls)
     add_vuspsi   :      2.15s CPU      2.27s WALL (   39598 calls)

     General routines
     calbec       :      4.63s CPU      4.86s WALL (   56615 calls)
     fft          :      0.09s CPU      0.11s WALL (     181 calls)
     ffts         :      0.02s CPU      0.02s WALL (     146 calls)
     fftw         :     47.10s CPU     49.26s WALL (  751780 calls)
     interpolate  :      0.01s CPU      0.01s WALL (      12 calls)
 
     Parallel routines
     fft_scatt_xy :      5.59s CPU      5.85s WALL (  752107 calls)
     fft_scatt_yz :     27.94s CPU     29.41s WALL (  752107 calls)

     PAW routines
     PAW_pot      :      0.67s CPU      0.68s WALL (      12 calls)
 
     PWSCF        :   2m16.79s CPU   3m17.13s WALL

 
   This run was terminated on:   7:28:25  22Feb2020            

=------------------------------------------------------------------------------=
   JOB DONE.
=------------------------------------------------------------------------------=
