
     Program PWSCF v.6.3 starts on 22Feb2020 at  8:35: 7 

     This program is part of the open-source Quantum ESPRESSO suite
     for quantum simulation of materials; please cite
         "P. Giannozzi et al., J. Phys.:Condens. Matter 21 395502 (2009);
         "P. Giannozzi et al., J. Phys.:Condens. Matter 29 465901 (2017);
          URL http://www.quantum-espresso.org", 
     in publications or presentations arising from this work. More details at
     http://www.quantum-espresso.org/quote

 *** WARNING: using old-style file format, will disappear from next version ***

     Parallel version (MPI & OpenMP), running on      36 processor cores
     Number of MPI processes:                36
     Threads/MPI process:                     1

     MPI processes distributed on     1 nodes
     K-points division:     npool     =       4
     R & G space division:  proc/nbgrp/npool/nimage =       9
     Reading input from aiida.in
Warning: card &IONS ignored
Warning: card   !PRESS_CONV_THR = 0.05                 ! JUST FOR VOLUME RELAXATIONS ignored
Warning: card / ignored

     Current dimensions of program PWSCF are:
     Max number of different atomic species (ntypx) = 10
     Max number of k-points (npk) =  40000
     Max angular momentum in pseudopotentials (lmaxx) =  3
               file Al.pbe-n-kjpaw_psl.1.0.0.UPF: wavefunction(s)  3S 3P renormalized

     Subspace diagonalization in iterative solution of the eigenvalue problem:
     one sub-group per band group will be used
     scalapack distributed-memory algorithm (size of sub-group:  2*  2 procs)

     Found symmetry operation: I + (  0.0714 -0.5000  0.0000)
     This is a supercell, fractional translations are disabled
 
     Parallelization info
     --------------------
     sticks:   dense  smooth     PW     G-vecs:    dense   smooth      PW
     Min        1456     583    166               331500    83885   12672
     Max        1457     584    167               331506    83894   12677
     Sum       13105    5251   1499              2983521   754991  114069
 


     bravais-lattice index     =            0
     lattice parameter (alat)  =      53.6663  a.u.
     unit-cell volume          =   22080.4393 (a.u.)^3
     number of atoms/cell      =          196
     number of atomic types    =            1
     number of electrons       =       588.00
     number of Kohn-Sham states=          353
     kinetic-energy cutoff     =      40.0000  Ry
     charge density cutoff     =     400.0000  Ry
     convergence threshold     =      1.0E-12
     mixing beta               =       0.4000
     number of iterations used =            8  local-TF  mixing
     Exchange-correlation      = SLA PW PBX PBC ( 1  4  3  4 0 0)

     celldm(1)=  53.666332  celldm(2)=   0.000000  celldm(3)=   0.000000
     celldm(4)=   0.000000  celldm(5)=   0.000000  celldm(6)=   0.000000

     crystal axes: (cart. coord. in units of alat)
               a(1) = (   1.000000   0.000000   0.000000 )  
               a(2) = (   0.000000   0.142857   0.000000 )  
               a(3) = (   0.000000   0.000000   1.000000 )  

     reciprocal axes: (cart. coord. in units 2 pi/alat)
               b(1) = (  1.000000  0.000000  0.000000 )  
               b(2) = (  0.000000  7.000000  0.000000 )  
               b(3) = (  0.000000  0.000000  1.000000 )  


     PseudoPot. # 1 for Al read from file:
     /users/aglensk/Dropbox/Albert/scripts/dotfiles/scripts/potentials/quantum_espresso/pseudo_SSSPefV1.1_alalloy/Al.pbe-n-kjpaw_psl.1.0.0.UPF
     MD5 check sum: cfc449ca30b5f3223ec38ddd88ac046d
     Pseudo is Projector augmented-wave + core cor, Zval =  3.0
     Generated using "atomic" code by A. Dal Corso v.5.1
     Shape of augmentation charge: PSQ
     Using radial grid of 1135 points,  6 beta functions with: 
                l(1) =   0
                l(2) =   0
                l(3) =   1
                l(4) =   1
                l(5) =   2
                l(6) =   2
     Q(r) pseudized with 0 coefficients 


     atomic species   valence    mass     pseudopotential
        Al             3.00    26.98154     Al( 1.00)

     No symmetry found


                                    s                        frac. trans.

      isym =  1     identity                                     

 cryst.   s( 1) = (     1          0          0      )
                  (     0          1          0      )
                  (     0          0          1      )

 cart.    s( 1) = (  1.0000000  0.0000000  0.0000000 )
                  (  0.0000000  1.0000000  0.0000000 )
                  (  0.0000000  0.0000000  1.0000000 )


   Cartesian axes

     site n.     atom                  positions (alat units)
         1           Al  tau(   1) = (   0.0000000   0.0000000   0.0000000  )
         2           Al  tau(   2) = (   0.0714286   0.0714286   0.0000000  )
         3           Al  tau(   3) = (   0.0714286   0.0000000   0.0714286  )
         4           Al  tau(   4) = (   0.0000000   0.0714286   0.0714286  )
         5           Al  tau(   5) = (   0.0000000   0.0000000   0.1428571  )
         6           Al  tau(   6) = (   0.0714286   0.0714286   0.1428571  )
         7           Al  tau(   7) = (   0.0714286   0.0000000   0.2142857  )
         8           Al  tau(   8) = (   0.0000000   0.0714286   0.2142857  )
         9           Al  tau(   9) = (   0.0000000   0.0000000   0.2857143  )
        10           Al  tau(  10) = (   0.0714286   0.0714286   0.2857143  )
        11           Al  tau(  11) = (   0.0714286   0.0000000   0.3571429  )
        12           Al  tau(  12) = (   0.0000000   0.0714286   0.3571429  )
        13           Al  tau(  13) = (   0.0000000   0.0000000   0.4285714  )
        14           Al  tau(  14) = (   0.0714286   0.0714286   0.4285714  )
        15           Al  tau(  15) = (   0.0714286   0.0000000   0.5000000  )
        16           Al  tau(  16) = (   0.0000000   0.0714286   0.5000000  )
        17           Al  tau(  17) = (   0.0000000   0.0000000   0.5714286  )
        18           Al  tau(  18) = (   0.0714286   0.0714286   0.5714286  )
        19           Al  tau(  19) = (   0.0714286   0.0000000   0.6428571  )
        20           Al  tau(  20) = (   0.0000000   0.0714286   0.6428571  )
        21           Al  tau(  21) = (   0.0000000   0.0000000   0.7142857  )
        22           Al  tau(  22) = (   0.0714286   0.0714286   0.7142857  )
        23           Al  tau(  23) = (   0.0714286   0.0000000   0.7857143  )
        24           Al  tau(  24) = (   0.0000000   0.0714286   0.7857143  )
        25           Al  tau(  25) = (   0.0000000   0.0000000   0.8571429  )
        26           Al  tau(  26) = (   0.0714286   0.0714286   0.8571429  )
        27           Al  tau(  27) = (   0.0714286   0.0000000   0.9285714  )
        28           Al  tau(  28) = (   0.0000000   0.0714286   0.9285714  )
        29           Al  tau(  29) = (   0.1428571   0.0000000   0.0000000  )
        30           Al  tau(  30) = (   0.2142857   0.0714286   0.0000000  )
        31           Al  tau(  31) = (   0.2142857   0.0000000   0.0714286  )
        32           Al  tau(  32) = (   0.1428571   0.0714286   0.0714286  )
        33           Al  tau(  33) = (   0.1428571   0.0000000   0.1428571  )
        34           Al  tau(  34) = (   0.2142857   0.0714286   0.1428571  )
        35           Al  tau(  35) = (   0.2142857   0.0000000   0.2142857  )
        36           Al  tau(  36) = (   0.1428571   0.0714286   0.2142857  )
        37           Al  tau(  37) = (   0.1428571   0.0000000   0.2857143  )
        38           Al  tau(  38) = (   0.2142857   0.0714286   0.2857143  )
        39           Al  tau(  39) = (   0.2142857   0.0000000   0.3571429  )
        40           Al  tau(  40) = (   0.1428571   0.0714286   0.3571429  )
        41           Al  tau(  41) = (   0.1428571   0.0000000   0.4285714  )
        42           Al  tau(  42) = (   0.2142857   0.0714286   0.4285714  )
        43           Al  tau(  43) = (   0.2142857   0.0000000   0.5000000  )
        44           Al  tau(  44) = (   0.1428571   0.0714286   0.5000000  )
        45           Al  tau(  45) = (   0.1428571   0.0000000   0.5714286  )
        46           Al  tau(  46) = (   0.2142857   0.0714286   0.5714286  )
        47           Al  tau(  47) = (   0.2142857   0.0000000   0.6428571  )
        48           Al  tau(  48) = (   0.1428571   0.0714286   0.6428571  )
        49           Al  tau(  49) = (   0.1428571   0.0000000   0.7142857  )
        50           Al  tau(  50) = (   0.2142857   0.0714286   0.7142857  )
        51           Al  tau(  51) = (   0.2142857   0.0000000   0.7857143  )
        52           Al  tau(  52) = (   0.1428571   0.0714286   0.7857143  )
        53           Al  tau(  53) = (   0.1428571   0.0000000   0.8571429  )
        54           Al  tau(  54) = (   0.2142857   0.0714286   0.8571429  )
        55           Al  tau(  55) = (   0.2142857   0.0000000   0.9285714  )
        56           Al  tau(  56) = (   0.1428571   0.0714286   0.9285714  )
        57           Al  tau(  57) = (   0.2857143   0.0000000   0.0000000  )
        58           Al  tau(  58) = (   0.3571429   0.0714286   0.0000000  )
        59           Al  tau(  59) = (   0.3571429   0.0000000   0.0714286  )
        60           Al  tau(  60) = (   0.2857143   0.0714286   0.0714286  )
        61           Al  tau(  61) = (   0.2857143   0.0000000   0.1428571  )
        62           Al  tau(  62) = (   0.3571429   0.0714286   0.1428571  )
        63           Al  tau(  63) = (   0.3571429   0.0000000   0.2142857  )
        64           Al  tau(  64) = (   0.2857143   0.0714286   0.2142857  )
        65           Al  tau(  65) = (   0.2857143   0.0000000   0.2857143  )
        66           Al  tau(  66) = (   0.3571429   0.0714286   0.2857143  )
        67           Al  tau(  67) = (   0.3571429   0.0000000   0.3571429  )
        68           Al  tau(  68) = (   0.2857143   0.0714286   0.3571429  )
        69           Al  tau(  69) = (   0.2857143   0.0000000   0.4285714  )
        70           Al  tau(  70) = (   0.3571429   0.0714286   0.4285714  )
        71           Al  tau(  71) = (   0.3571429   0.0000000   0.5000000  )
        72           Al  tau(  72) = (   0.2857143   0.0714286   0.5000000  )
        73           Al  tau(  73) = (   0.2857143   0.0000000   0.5714286  )
        74           Al  tau(  74) = (   0.3571429   0.0714286   0.5714286  )
        75           Al  tau(  75) = (   0.3571429   0.0000000   0.6428571  )
        76           Al  tau(  76) = (   0.2857143   0.0714286   0.6428571  )
        77           Al  tau(  77) = (   0.2857143   0.0000000   0.7142857  )
        78           Al  tau(  78) = (   0.3571429   0.0714286   0.7142857  )
        79           Al  tau(  79) = (   0.3571429   0.0000000   0.7857143  )
        80           Al  tau(  80) = (   0.2857143   0.0714286   0.7857143  )
        81           Al  tau(  81) = (   0.2857143   0.0000000   0.8571429  )
        82           Al  tau(  82) = (   0.3571429   0.0714286   0.8571429  )
        83           Al  tau(  83) = (   0.3571429   0.0000000   0.9285714  )
        84           Al  tau(  84) = (   0.2857143   0.0714286   0.9285714  )
        85           Al  tau(  85) = (   0.4285714   0.0000000   0.0000000  )
        86           Al  tau(  86) = (   0.5000000   0.0714286   0.0000000  )
        87           Al  tau(  87) = (   0.5000000   0.0000000   0.0714286  )
        88           Al  tau(  88) = (   0.4285714   0.0714286   0.0714286  )
        89           Al  tau(  89) = (   0.4285714   0.0000000   0.1428571  )
        90           Al  tau(  90) = (   0.5000000   0.0714286   0.1428571  )
        91           Al  tau(  91) = (   0.5000000   0.0000000   0.2142857  )
        92           Al  tau(  92) = (   0.4285714   0.0714286   0.2142857  )
        93           Al  tau(  93) = (   0.4285714   0.0000000   0.2857143  )
        94           Al  tau(  94) = (   0.5000000   0.0714286   0.2857143  )
        95           Al  tau(  95) = (   0.5000000   0.0000000   0.3571429  )
        96           Al  tau(  96) = (   0.4285714   0.0714286   0.3571429  )
        97           Al  tau(  97) = (   0.4285714   0.0000000   0.4285714  )
        98           Al  tau(  98) = (   0.5000000   0.0714286   0.4285714  )
        99           Al  tau(  99) = (   0.5000000   0.0000000   0.5000000  )
       100           Al  tau( 100) = (   0.4285714   0.0714286   0.5000000  )
       101           Al  tau( 101) = (   0.4285714   0.0000000   0.5714286  )
       102           Al  tau( 102) = (   0.5000000   0.0714286   0.5714286  )
       103           Al  tau( 103) = (   0.5000000   0.0000000   0.6428571  )
       104           Al  tau( 104) = (   0.4285714   0.0714286   0.6428571  )
       105           Al  tau( 105) = (   0.4285714   0.0000000   0.7142857  )
       106           Al  tau( 106) = (   0.5000000   0.0714286   0.7142857  )
       107           Al  tau( 107) = (   0.5000000   0.0000000   0.7857143  )
       108           Al  tau( 108) = (   0.4285714   0.0714286   0.7857143  )
       109           Al  tau( 109) = (   0.4285714   0.0000000   0.8571429  )
       110           Al  tau( 110) = (   0.5000000   0.0714286   0.8571429  )
       111           Al  tau( 111) = (   0.5000000   0.0000000   0.9285714  )
       112           Al  tau( 112) = (   0.4285714   0.0714286   0.9285714  )
       113           Al  tau( 113) = (   0.5714286   0.0000000   0.0000000  )
       114           Al  tau( 114) = (   0.6428571   0.0714286   0.0000000  )
       115           Al  tau( 115) = (   0.6428571   0.0000000   0.0714286  )
       116           Al  tau( 116) = (   0.5714286   0.0714286   0.0714286  )
       117           Al  tau( 117) = (   0.5714286   0.0000000   0.1428571  )
       118           Al  tau( 118) = (   0.6428571   0.0714286   0.1428571  )
       119           Al  tau( 119) = (   0.6428571   0.0000000   0.2142857  )
       120           Al  tau( 120) = (   0.5714286   0.0714286   0.2142857  )
       121           Al  tau( 121) = (   0.5714286   0.0000000   0.2857143  )
       122           Al  tau( 122) = (   0.6428571   0.0714286   0.2857143  )
       123           Al  tau( 123) = (   0.6428571   0.0000000   0.3571429  )
       124           Al  tau( 124) = (   0.5714286   0.0714286   0.3571429  )
       125           Al  tau( 125) = (   0.5714286   0.0000000   0.4285714  )
       126           Al  tau( 126) = (   0.6428571   0.0714286   0.4285714  )
       127           Al  tau( 127) = (   0.6428571   0.0000000   0.5000000  )
       128           Al  tau( 128) = (   0.5714286   0.0714286   0.5000000  )
       129           Al  tau( 129) = (   0.5714286   0.0000000   0.5714286  )
       130           Al  tau( 130) = (   0.6428571   0.0714286   0.5714286  )
       131           Al  tau( 131) = (   0.6428571   0.0000000   0.6428571  )
       132           Al  tau( 132) = (   0.5714286   0.0714286   0.6428571  )
       133           Al  tau( 133) = (   0.5714286   0.0000000   0.7142857  )
       134           Al  tau( 134) = (   0.6428571   0.0714286   0.7142857  )
       135           Al  tau( 135) = (   0.6428571   0.0000000   0.7857143  )
       136           Al  tau( 136) = (   0.5714286   0.0714286   0.7857143  )
       137           Al  tau( 137) = (   0.5714286   0.0000000   0.8571429  )
       138           Al  tau( 138) = (   0.6428571   0.0714286   0.8571429  )
       139           Al  tau( 139) = (   0.6428571   0.0000000   0.9285714  )
       140           Al  tau( 140) = (   0.5714286   0.0714286   0.9285714  )
       141           Al  tau( 141) = (   0.7142857   0.0000000   0.0000000  )
       142           Al  tau( 142) = (   0.7857143   0.0714286   0.0000000  )
       143           Al  tau( 143) = (   0.7857143   0.0000000   0.0714286  )
       144           Al  tau( 144) = (   0.7142857   0.0714286   0.0714286  )
       145           Al  tau( 145) = (   0.7142857   0.0000000   0.1428571  )
       146           Al  tau( 146) = (   0.7857143   0.0714286   0.1428571  )
       147           Al  tau( 147) = (   0.7857143   0.0000000   0.2142857  )
       148           Al  tau( 148) = (   0.7142857   0.0714286   0.2142857  )
       149           Al  tau( 149) = (   0.7142857   0.0000000   0.2857143  )
       150           Al  tau( 150) = (   0.7857143   0.0714286   0.2857143  )
       151           Al  tau( 151) = (   0.7857143   0.0000000   0.3571429  )
       152           Al  tau( 152) = (   0.7142857   0.0714286   0.3571429  )
       153           Al  tau( 153) = (   0.7142857   0.0000000   0.4285714  )
       154           Al  tau( 154) = (   0.7857143   0.0714286   0.4285714  )
       155           Al  tau( 155) = (   0.7857143   0.0000000   0.5000000  )
       156           Al  tau( 156) = (   0.7142857   0.0714286   0.5000000  )
       157           Al  tau( 157) = (   0.7142857   0.0000000   0.5714286  )
       158           Al  tau( 158) = (   0.7857143   0.0714286   0.5714286  )
       159           Al  tau( 159) = (   0.7857143   0.0000000   0.6428571  )
       160           Al  tau( 160) = (   0.7142857   0.0714286   0.6428571  )
       161           Al  tau( 161) = (   0.7142857   0.0000000   0.7142857  )
       162           Al  tau( 162) = (   0.7857143   0.0714286   0.7142857  )
       163           Al  tau( 163) = (   0.7857143   0.0000000   0.7857143  )
       164           Al  tau( 164) = (   0.7142857   0.0714286   0.7857143  )
       165           Al  tau( 165) = (   0.7142857   0.0000000   0.8571429  )
       166           Al  tau( 166) = (   0.7857143   0.0714286   0.8571429  )
       167           Al  tau( 167) = (   0.7857143   0.0000000   0.9285714  )
       168           Al  tau( 168) = (   0.7142857   0.0714286   0.9285714  )
       169           Al  tau( 169) = (   0.8571429   0.0000000   0.0000000  )
       170           Al  tau( 170) = (   0.9285714   0.0714286   0.0000000  )
       171           Al  tau( 171) = (   0.9285714   0.0000000   0.0714286  )
       172           Al  tau( 172) = (   0.8571429   0.0714286   0.0714286  )
       173           Al  tau( 173) = (   0.8571429   0.0000000   0.1428571  )
       174           Al  tau( 174) = (   0.9285714   0.0714286   0.1428571  )
       175           Al  tau( 175) = (   0.9285714   0.0000000   0.2142857  )
       176           Al  tau( 176) = (   0.8571429   0.0714286   0.2142857  )
       177           Al  tau( 177) = (   0.8571429   0.0000000   0.2857143  )
       178           Al  tau( 178) = (   0.9285714   0.0714286   0.2857143  )
       179           Al  tau( 179) = (   0.9285714   0.0000000   0.3571429  )
       180           Al  tau( 180) = (   0.8571429   0.0714286   0.3571429  )
       181           Al  tau( 181) = (   0.8571429   0.0000000   0.4285714  )
       182           Al  tau( 182) = (   0.9285714   0.0714286   0.4285714  )
       183           Al  tau( 183) = (   0.9285714   0.0000000   0.5000000  )
       184           Al  tau( 184) = (   0.8571429   0.0714286   0.5000000  )
       185           Al  tau( 185) = (   0.8571429   0.0000000   0.5714286  )
       186           Al  tau( 186) = (   0.9285714   0.0714286   0.5714286  )
       187           Al  tau( 187) = (   0.9285714   0.0000000   0.6428571  )
       188           Al  tau( 188) = (   0.8571429   0.0714286   0.6428571  )
       189           Al  tau( 189) = (   0.8571429   0.0000000   0.7142857  )
       190           Al  tau( 190) = (   0.9285714   0.0714286   0.7142857  )
       191           Al  tau( 191) = (   0.9285714   0.0000000   0.7857143  )
       192           Al  tau( 192) = (   0.8571429   0.0714286   0.7857143  )
       193           Al  tau( 193) = (   0.8571429   0.0000000   0.8571429  )
       194           Al  tau( 194) = (   0.9285714   0.0714286   0.8571429  )
       195           Al  tau( 195) = (   0.9285714   0.0000000   0.9285714  )
       196           Al  tau( 196) = (   0.8571429   0.0714286   0.9285714  )

   Crystallographic axes

     site n.     atom                  positions (cryst. coord.)
         1           Al  tau(   1) = (  0.0000000  0.0000000  0.0000000  )
         2           Al  tau(   2) = (  0.0714286  0.5000000  0.0000000  )
         3           Al  tau(   3) = (  0.0714286  0.0000000  0.0714286  )
         4           Al  tau(   4) = (  0.0000000  0.5000000  0.0714286  )
         5           Al  tau(   5) = (  0.0000000  0.0000000  0.1428571  )
         6           Al  tau(   6) = (  0.0714286  0.5000000  0.1428571  )
         7           Al  tau(   7) = (  0.0714286  0.0000000  0.2142857  )
         8           Al  tau(   8) = (  0.0000000  0.5000000  0.2142857  )
         9           Al  tau(   9) = (  0.0000000  0.0000000  0.2857143  )
        10           Al  tau(  10) = (  0.0714286  0.5000000  0.2857143  )
        11           Al  tau(  11) = (  0.0714286  0.0000000  0.3571429  )
        12           Al  tau(  12) = (  0.0000000  0.5000000  0.3571429  )
        13           Al  tau(  13) = (  0.0000000  0.0000000  0.4285714  )
        14           Al  tau(  14) = (  0.0714286  0.5000000  0.4285714  )
        15           Al  tau(  15) = (  0.0714286  0.0000000  0.5000000  )
        16           Al  tau(  16) = (  0.0000000  0.5000000  0.5000000  )
        17           Al  tau(  17) = (  0.0000000  0.0000000  0.5714286  )
        18           Al  tau(  18) = (  0.0714286  0.5000000  0.5714286  )
        19           Al  tau(  19) = (  0.0714286  0.0000000  0.6428571  )
        20           Al  tau(  20) = (  0.0000000  0.5000000  0.6428571  )
        21           Al  tau(  21) = (  0.0000000  0.0000000  0.7142857  )
        22           Al  tau(  22) = (  0.0714286  0.5000000  0.7142857  )
        23           Al  tau(  23) = (  0.0714286  0.0000000  0.7857143  )
        24           Al  tau(  24) = (  0.0000000  0.5000000  0.7857143  )
        25           Al  tau(  25) = (  0.0000000  0.0000000  0.8571429  )
        26           Al  tau(  26) = (  0.0714286  0.5000000  0.8571429  )
        27           Al  tau(  27) = (  0.0714286  0.0000000  0.9285714  )
        28           Al  tau(  28) = (  0.0000000  0.5000000  0.9285714  )
        29           Al  tau(  29) = (  0.1428571  0.0000000  0.0000000  )
        30           Al  tau(  30) = (  0.2142857  0.5000000  0.0000000  )
        31           Al  tau(  31) = (  0.2142857  0.0000000  0.0714286  )
        32           Al  tau(  32) = (  0.1428571  0.5000000  0.0714286  )
        33           Al  tau(  33) = (  0.1428571  0.0000000  0.1428571  )
        34           Al  tau(  34) = (  0.2142857  0.5000000  0.1428571  )
        35           Al  tau(  35) = (  0.2142857  0.0000000  0.2142857  )
        36           Al  tau(  36) = (  0.1428571  0.5000000  0.2142857  )
        37           Al  tau(  37) = (  0.1428571  0.0000000  0.2857143  )
        38           Al  tau(  38) = (  0.2142857  0.5000000  0.2857143  )
        39           Al  tau(  39) = (  0.2142857  0.0000000  0.3571429  )
        40           Al  tau(  40) = (  0.1428571  0.5000000  0.3571429  )
        41           Al  tau(  41) = (  0.1428571  0.0000000  0.4285714  )
        42           Al  tau(  42) = (  0.2142857  0.5000000  0.4285714  )
        43           Al  tau(  43) = (  0.2142857  0.0000000  0.5000000  )
        44           Al  tau(  44) = (  0.1428571  0.5000000  0.5000000  )
        45           Al  tau(  45) = (  0.1428571  0.0000000  0.5714286  )
        46           Al  tau(  46) = (  0.2142857  0.5000000  0.5714286  )
        47           Al  tau(  47) = (  0.2142857  0.0000000  0.6428571  )
        48           Al  tau(  48) = (  0.1428571  0.5000000  0.6428571  )
        49           Al  tau(  49) = (  0.1428571  0.0000000  0.7142857  )
        50           Al  tau(  50) = (  0.2142857  0.5000000  0.7142857  )
        51           Al  tau(  51) = (  0.2142857  0.0000000  0.7857143  )
        52           Al  tau(  52) = (  0.1428571  0.5000000  0.7857143  )
        53           Al  tau(  53) = (  0.1428571  0.0000000  0.8571429  )
        54           Al  tau(  54) = (  0.2142857  0.5000000  0.8571429  )
        55           Al  tau(  55) = (  0.2142857  0.0000000  0.9285714  )
        56           Al  tau(  56) = (  0.1428571  0.5000000  0.9285714  )
        57           Al  tau(  57) = (  0.2857143  0.0000000  0.0000000  )
        58           Al  tau(  58) = (  0.3571429  0.5000000  0.0000000  )
        59           Al  tau(  59) = (  0.3571429  0.0000000  0.0714286  )
        60           Al  tau(  60) = (  0.2857143  0.5000000  0.0714286  )
        61           Al  tau(  61) = (  0.2857143  0.0000000  0.1428571  )
        62           Al  tau(  62) = (  0.3571429  0.5000000  0.1428571  )
        63           Al  tau(  63) = (  0.3571429  0.0000000  0.2142857  )
        64           Al  tau(  64) = (  0.2857143  0.5000000  0.2142857  )
        65           Al  tau(  65) = (  0.2857143  0.0000000  0.2857143  )
        66           Al  tau(  66) = (  0.3571429  0.5000000  0.2857143  )
        67           Al  tau(  67) = (  0.3571429  0.0000000  0.3571429  )
        68           Al  tau(  68) = (  0.2857143  0.5000000  0.3571429  )
        69           Al  tau(  69) = (  0.2857143  0.0000000  0.4285714  )
        70           Al  tau(  70) = (  0.3571429  0.5000000  0.4285714  )
        71           Al  tau(  71) = (  0.3571429  0.0000000  0.5000000  )
        72           Al  tau(  72) = (  0.2857143  0.5000000  0.5000000  )
        73           Al  tau(  73) = (  0.2857143  0.0000000  0.5714286  )
        74           Al  tau(  74) = (  0.3571429  0.5000000  0.5714286  )
        75           Al  tau(  75) = (  0.3571429  0.0000000  0.6428571  )
        76           Al  tau(  76) = (  0.2857143  0.5000000  0.6428571  )
        77           Al  tau(  77) = (  0.2857143  0.0000000  0.7142857  )
        78           Al  tau(  78) = (  0.3571429  0.5000000  0.7142857  )
        79           Al  tau(  79) = (  0.3571429  0.0000000  0.7857143  )
        80           Al  tau(  80) = (  0.2857143  0.5000000  0.7857143  )
        81           Al  tau(  81) = (  0.2857143  0.0000000  0.8571429  )
        82           Al  tau(  82) = (  0.3571429  0.5000000  0.8571429  )
        83           Al  tau(  83) = (  0.3571429  0.0000000  0.9285714  )
        84           Al  tau(  84) = (  0.2857143  0.5000000  0.9285714  )
        85           Al  tau(  85) = (  0.4285714  0.0000000  0.0000000  )
        86           Al  tau(  86) = (  0.5000000  0.5000000  0.0000000  )
        87           Al  tau(  87) = (  0.5000000  0.0000000  0.0714286  )
        88           Al  tau(  88) = (  0.4285714  0.5000000  0.0714286  )
        89           Al  tau(  89) = (  0.4285714  0.0000000  0.1428571  )
        90           Al  tau(  90) = (  0.5000000  0.5000000  0.1428571  )
        91           Al  tau(  91) = (  0.5000000  0.0000000  0.2142857  )
        92           Al  tau(  92) = (  0.4285714  0.5000000  0.2142857  )
        93           Al  tau(  93) = (  0.4285714  0.0000000  0.2857143  )
        94           Al  tau(  94) = (  0.5000000  0.5000000  0.2857143  )
        95           Al  tau(  95) = (  0.5000000  0.0000000  0.3571429  )
        96           Al  tau(  96) = (  0.4285714  0.5000000  0.3571429  )
        97           Al  tau(  97) = (  0.4285714  0.0000000  0.4285714  )
        98           Al  tau(  98) = (  0.5000000  0.5000000  0.4285714  )
        99           Al  tau(  99) = (  0.5000000  0.0000000  0.5000000  )
       100           Al  tau( 100) = (  0.4285714  0.5000000  0.5000000  )
       101           Al  tau( 101) = (  0.4285714  0.0000000  0.5714286  )
       102           Al  tau( 102) = (  0.5000000  0.5000000  0.5714286  )
       103           Al  tau( 103) = (  0.5000000  0.0000000  0.6428571  )
       104           Al  tau( 104) = (  0.4285714  0.5000000  0.6428571  )
       105           Al  tau( 105) = (  0.4285714  0.0000000  0.7142857  )
       106           Al  tau( 106) = (  0.5000000  0.5000000  0.7142857  )
       107           Al  tau( 107) = (  0.5000000  0.0000000  0.7857143  )
       108           Al  tau( 108) = (  0.4285714  0.5000000  0.7857143  )
       109           Al  tau( 109) = (  0.4285714  0.0000000  0.8571429  )
       110           Al  tau( 110) = (  0.5000000  0.5000000  0.8571429  )
       111           Al  tau( 111) = (  0.5000000  0.0000000  0.9285714  )
       112           Al  tau( 112) = (  0.4285714  0.5000000  0.9285714  )
       113           Al  tau( 113) = (  0.5714286  0.0000000  0.0000000  )
       114           Al  tau( 114) = (  0.6428571  0.5000000  0.0000000  )
       115           Al  tau( 115) = (  0.6428571  0.0000000  0.0714286  )
       116           Al  tau( 116) = (  0.5714286  0.5000000  0.0714286  )
       117           Al  tau( 117) = (  0.5714286  0.0000000  0.1428571  )
       118           Al  tau( 118) = (  0.6428571  0.5000000  0.1428571  )
       119           Al  tau( 119) = (  0.6428571  0.0000000  0.2142857  )
       120           Al  tau( 120) = (  0.5714286  0.5000000  0.2142857  )
       121           Al  tau( 121) = (  0.5714286  0.0000000  0.2857143  )
       122           Al  tau( 122) = (  0.6428571  0.5000000  0.2857143  )
       123           Al  tau( 123) = (  0.6428571  0.0000000  0.3571429  )
       124           Al  tau( 124) = (  0.5714286  0.5000000  0.3571429  )
       125           Al  tau( 125) = (  0.5714286  0.0000000  0.4285714  )
       126           Al  tau( 126) = (  0.6428571  0.5000000  0.4285714  )
       127           Al  tau( 127) = (  0.6428571  0.0000000  0.5000000  )
       128           Al  tau( 128) = (  0.5714286  0.5000000  0.5000000  )
       129           Al  tau( 129) = (  0.5714286  0.0000000  0.5714286  )
       130           Al  tau( 130) = (  0.6428571  0.5000000  0.5714286  )
       131           Al  tau( 131) = (  0.6428571  0.0000000  0.6428571  )
       132           Al  tau( 132) = (  0.5714286  0.5000000  0.6428571  )
       133           Al  tau( 133) = (  0.5714286  0.0000000  0.7142857  )
       134           Al  tau( 134) = (  0.6428571  0.5000000  0.7142857  )
       135           Al  tau( 135) = (  0.6428571  0.0000000  0.7857143  )
       136           Al  tau( 136) = (  0.5714286  0.5000000  0.7857143  )
       137           Al  tau( 137) = (  0.5714286  0.0000000  0.8571429  )
       138           Al  tau( 138) = (  0.6428571  0.5000000  0.8571429  )
       139           Al  tau( 139) = (  0.6428571  0.0000000  0.9285714  )
       140           Al  tau( 140) = (  0.5714286  0.5000000  0.9285714  )
       141           Al  tau( 141) = (  0.7142857  0.0000000  0.0000000  )
       142           Al  tau( 142) = (  0.7857143  0.5000000  0.0000000  )
       143           Al  tau( 143) = (  0.7857143  0.0000000  0.0714286  )
       144           Al  tau( 144) = (  0.7142857  0.5000000  0.0714286  )
       145           Al  tau( 145) = (  0.7142857  0.0000000  0.1428571  )
       146           Al  tau( 146) = (  0.7857143  0.5000000  0.1428571  )
       147           Al  tau( 147) = (  0.7857143  0.0000000  0.2142857  )
       148           Al  tau( 148) = (  0.7142857  0.5000000  0.2142857  )
       149           Al  tau( 149) = (  0.7142857  0.0000000  0.2857143  )
       150           Al  tau( 150) = (  0.7857143  0.5000000  0.2857143  )
       151           Al  tau( 151) = (  0.7857143  0.0000000  0.3571429  )
       152           Al  tau( 152) = (  0.7142857  0.5000000  0.3571429  )
       153           Al  tau( 153) = (  0.7142857  0.0000000  0.4285714  )
       154           Al  tau( 154) = (  0.7857143  0.5000000  0.4285714  )
       155           Al  tau( 155) = (  0.7857143  0.0000000  0.5000000  )
       156           Al  tau( 156) = (  0.7142857  0.5000000  0.5000000  )
       157           Al  tau( 157) = (  0.7142857  0.0000000  0.5714286  )
       158           Al  tau( 158) = (  0.7857143  0.5000000  0.5714286  )
       159           Al  tau( 159) = (  0.7857143  0.0000000  0.6428571  )
       160           Al  tau( 160) = (  0.7142857  0.5000000  0.6428571  )
       161           Al  tau( 161) = (  0.7142857  0.0000000  0.7142857  )
       162           Al  tau( 162) = (  0.7857143  0.5000000  0.7142857  )
       163           Al  tau( 163) = (  0.7857143  0.0000000  0.7857143  )
       164           Al  tau( 164) = (  0.7142857  0.5000000  0.7857143  )
       165           Al  tau( 165) = (  0.7142857  0.0000000  0.8571429  )
       166           Al  tau( 166) = (  0.7857143  0.5000000  0.8571429  )
       167           Al  tau( 167) = (  0.7857143  0.0000000  0.9285714  )
       168           Al  tau( 168) = (  0.7142857  0.5000000  0.9285714  )
       169           Al  tau( 169) = (  0.8571429  0.0000000  0.0000000  )
       170           Al  tau( 170) = (  0.9285714  0.5000000  0.0000000  )
       171           Al  tau( 171) = (  0.9285714  0.0000000  0.0714286  )
       172           Al  tau( 172) = (  0.8571429  0.5000000  0.0714286  )
       173           Al  tau( 173) = (  0.8571429  0.0000000  0.1428571  )
       174           Al  tau( 174) = (  0.9285714  0.5000000  0.1428571  )
       175           Al  tau( 175) = (  0.9285714  0.0000000  0.2142857  )
       176           Al  tau( 176) = (  0.8571429  0.5000000  0.2142857  )
       177           Al  tau( 177) = (  0.8571429  0.0000000  0.2857143  )
       178           Al  tau( 178) = (  0.9285714  0.5000000  0.2857143  )
       179           Al  tau( 179) = (  0.9285714  0.0000000  0.3571429  )
       180           Al  tau( 180) = (  0.8571429  0.5000000  0.3571429  )
       181           Al  tau( 181) = (  0.8571429  0.0000000  0.4285714  )
       182           Al  tau( 182) = (  0.9285714  0.5000000  0.4285714  )
       183           Al  tau( 183) = (  0.9285714  0.0000000  0.5000000  )
       184           Al  tau( 184) = (  0.8571429  0.5000000  0.5000000  )
       185           Al  tau( 185) = (  0.8571429  0.0000000  0.5714286  )
       186           Al  tau( 186) = (  0.9285714  0.5000000  0.5714286  )
       187           Al  tau( 187) = (  0.9285714  0.0000000  0.6428571  )
       188           Al  tau( 188) = (  0.8571429  0.5000000  0.6428571  )
       189           Al  tau( 189) = (  0.8571429  0.0000000  0.7142857  )
       190           Al  tau( 190) = (  0.9285714  0.5000000  0.7142857  )
       191           Al  tau( 191) = (  0.9285714  0.0000000  0.7857143  )
       192           Al  tau( 192) = (  0.8571429  0.5000000  0.7857143  )
       193           Al  tau( 193) = (  0.8571429  0.0000000  0.8571429  )
       194           Al  tau( 194) = (  0.9285714  0.5000000  0.8571429  )
       195           Al  tau( 195) = (  0.9285714  0.0000000  0.9285714  )
       196           Al  tau( 196) = (  0.8571429  0.5000000  0.9285714  )

     number of k points=    91  Methfessel-Paxton smearing, width (Ry)=  0.0441
                       cart. coord. in units 2pi/alat
        k(    1) = (   0.0000000   0.0000000   0.0000000), wk =   0.0111111
        k(    2) = (   0.0000000   0.0000000   0.3333333), wk =   0.0222222
        k(    3) = (   0.0000000   0.3500000   0.0000000), wk =   0.0222222
        k(    4) = (   0.0000000   0.3500000   0.3333333), wk =   0.0222222
        k(    5) = (   0.0000000   0.3500000  -0.3333333), wk =   0.0222222
        k(    6) = (   0.0000000   0.7000000   0.0000000), wk =   0.0222222
        k(    7) = (   0.0000000   0.7000000   0.3333333), wk =   0.0222222
        k(    8) = (   0.0000000   0.7000000  -0.3333333), wk =   0.0222222
        k(    9) = (   0.0000000   1.0500000   0.0000000), wk =   0.0222222
        k(   10) = (   0.0000000   1.0500000   0.3333333), wk =   0.0222222
        k(   11) = (   0.0000000   1.0500000  -0.3333333), wk =   0.0222222
        k(   12) = (   0.0000000   1.4000000   0.0000000), wk =   0.0222222
        k(   13) = (   0.0000000   1.4000000   0.3333333), wk =   0.0222222
        k(   14) = (   0.0000000   1.4000000  -0.3333333), wk =   0.0222222
        k(   15) = (   0.0000000   1.7500000   0.0000000), wk =   0.0222222
        k(   16) = (   0.0000000   1.7500000   0.3333333), wk =   0.0222222
        k(   17) = (   0.0000000   1.7500000  -0.3333333), wk =   0.0222222
        k(   18) = (   0.0000000   2.1000000   0.0000000), wk =   0.0222222
        k(   19) = (   0.0000000   2.1000000   0.3333333), wk =   0.0222222
        k(   20) = (   0.0000000   2.1000000  -0.3333333), wk =   0.0222222
        k(   21) = (   0.0000000   2.4500000   0.0000000), wk =   0.0222222
        k(   22) = (   0.0000000   2.4500000   0.3333333), wk =   0.0222222
        k(   23) = (   0.0000000   2.4500000  -0.3333333), wk =   0.0222222
        k(   24) = (   0.0000000   2.8000000   0.0000000), wk =   0.0222222
        k(   25) = (   0.0000000   2.8000000   0.3333333), wk =   0.0222222
        k(   26) = (   0.0000000   2.8000000  -0.3333333), wk =   0.0222222
        k(   27) = (   0.0000000   3.1500000   0.0000000), wk =   0.0222222
        k(   28) = (   0.0000000   3.1500000   0.3333333), wk =   0.0222222
        k(   29) = (   0.0000000   3.1500000  -0.3333333), wk =   0.0222222
        k(   30) = (   0.0000000  -3.5000000   0.0000000), wk =   0.0111111
        k(   31) = (   0.0000000  -3.5000000   0.3333333), wk =   0.0222222
        k(   32) = (   0.3333333   0.0000000   0.0000000), wk =   0.0222222
        k(   33) = (   0.3333333   0.0000000   0.3333333), wk =   0.0222222
        k(   34) = (   0.3333333   0.0000000  -0.3333333), wk =   0.0222222
        k(   35) = (   0.3333333   0.3500000   0.0000000), wk =   0.0222222
        k(   36) = (   0.3333333   0.3500000   0.3333333), wk =   0.0222222
        k(   37) = (   0.3333333   0.3500000  -0.3333333), wk =   0.0222222
        k(   38) = (   0.3333333   0.7000000   0.0000000), wk =   0.0222222
        k(   39) = (   0.3333333   0.7000000   0.3333333), wk =   0.0222222
        k(   40) = (   0.3333333   0.7000000  -0.3333333), wk =   0.0222222
        k(   41) = (   0.3333333   1.0500000   0.0000000), wk =   0.0222222
        k(   42) = (   0.3333333   1.0500000   0.3333333), wk =   0.0222222
        k(   43) = (   0.3333333   1.0500000  -0.3333333), wk =   0.0222222
        k(   44) = (   0.3333333   1.4000000   0.0000000), wk =   0.0222222
        k(   45) = (   0.3333333   1.4000000   0.3333333), wk =   0.0222222
        k(   46) = (   0.3333333   1.4000000  -0.3333333), wk =   0.0222222
        k(   47) = (   0.3333333   1.7500000   0.0000000), wk =   0.0222222
        k(   48) = (   0.3333333   1.7500000   0.3333333), wk =   0.0222222
        k(   49) = (   0.3333333   1.7500000  -0.3333333), wk =   0.0222222
        k(   50) = (   0.3333333   2.1000000   0.0000000), wk =   0.0222222
        k(   51) = (   0.3333333   2.1000000   0.3333333), wk =   0.0222222
        k(   52) = (   0.3333333   2.1000000  -0.3333333), wk =   0.0222222
        k(   53) = (   0.3333333   2.4500000   0.0000000), wk =   0.0222222
        k(   54) = (   0.3333333   2.4500000   0.3333333), wk =   0.0222222
        k(   55) = (   0.3333333   2.4500000  -0.3333333), wk =   0.0222222
        k(   56) = (   0.3333333   2.8000000   0.0000000), wk =   0.0222222
        k(   57) = (   0.3333333   2.8000000   0.3333333), wk =   0.0222222
        k(   58) = (   0.3333333   2.8000000  -0.3333333), wk =   0.0222222
        k(   59) = (   0.3333333   3.1500000   0.0000000), wk =   0.0222222
        k(   60) = (   0.3333333   3.1500000   0.3333333), wk =   0.0222222
        k(   61) = (   0.3333333   3.1500000  -0.3333333), wk =   0.0222222
        k(   62) = (   0.3333333  -3.5000000   0.0000000), wk =   0.0222222
        k(   63) = (   0.3333333  -3.5000000   0.3333333), wk =   0.0222222
        k(   64) = (   0.3333333  -3.5000000  -0.3333333), wk =   0.0222222
        k(   65) = (   0.3333333  -3.1500000   0.0000000), wk =   0.0222222
        k(   66) = (   0.3333333  -3.1500000   0.3333333), wk =   0.0222222
        k(   67) = (   0.3333333  -3.1500000  -0.3333333), wk =   0.0222222
        k(   68) = (   0.3333333  -2.8000000   0.0000000), wk =   0.0222222
        k(   69) = (   0.3333333  -2.8000000   0.3333333), wk =   0.0222222
        k(   70) = (   0.3333333  -2.8000000  -0.3333333), wk =   0.0222222
        k(   71) = (   0.3333333  -2.4500000   0.0000000), wk =   0.0222222
        k(   72) = (   0.3333333  -2.4500000   0.3333333), wk =   0.0222222
        k(   73) = (   0.3333333  -2.4500000  -0.3333333), wk =   0.0222222
        k(   74) = (   0.3333333  -2.1000000   0.0000000), wk =   0.0222222
        k(   75) = (   0.3333333  -2.1000000   0.3333333), wk =   0.0222222
        k(   76) = (   0.3333333  -2.1000000  -0.3333333), wk =   0.0222222
        k(   77) = (   0.3333333  -1.7500000   0.0000000), wk =   0.0222222
        k(   78) = (   0.3333333  -1.7500000   0.3333333), wk =   0.0222222
        k(   79) = (   0.3333333  -1.7500000  -0.3333333), wk =   0.0222222
        k(   80) = (   0.3333333  -1.4000000   0.0000000), wk =   0.0222222
        k(   81) = (   0.3333333  -1.4000000   0.3333333), wk =   0.0222222
        k(   82) = (   0.3333333  -1.4000000  -0.3333333), wk =   0.0222222
        k(   83) = (   0.3333333  -1.0500000   0.0000000), wk =   0.0222222
        k(   84) = (   0.3333333  -1.0500000   0.3333333), wk =   0.0222222
        k(   85) = (   0.3333333  -1.0500000  -0.3333333), wk =   0.0222222
        k(   86) = (   0.3333333  -0.7000000   0.0000000), wk =   0.0222222
        k(   87) = (   0.3333333  -0.7000000   0.3333333), wk =   0.0222222
        k(   88) = (   0.3333333  -0.7000000  -0.3333333), wk =   0.0222222
        k(   89) = (   0.3333333  -0.3500000   0.0000000), wk =   0.0222222
        k(   90) = (   0.3333333  -0.3500000   0.3333333), wk =   0.0222222
        k(   91) = (   0.3333333  -0.3500000  -0.3333333), wk =   0.0222222

                       cryst. coord.
        k(    1) = (   0.0000000   0.0000000   0.0000000), wk =   0.0111111
        k(    2) = (   0.0000000   0.0000000   0.3333333), wk =   0.0222222
        k(    3) = (   0.0000000   0.0500000   0.0000000), wk =   0.0222222
        k(    4) = (   0.0000000   0.0500000   0.3333333), wk =   0.0222222
        k(    5) = (   0.0000000   0.0500000  -0.3333333), wk =   0.0222222
        k(    6) = (   0.0000000   0.1000000   0.0000000), wk =   0.0222222
        k(    7) = (   0.0000000   0.1000000   0.3333333), wk =   0.0222222
        k(    8) = (   0.0000000   0.1000000  -0.3333333), wk =   0.0222222
        k(    9) = (   0.0000000   0.1500000   0.0000000), wk =   0.0222222
        k(   10) = (   0.0000000   0.1500000   0.3333333), wk =   0.0222222
        k(   11) = (   0.0000000   0.1500000  -0.3333333), wk =   0.0222222
        k(   12) = (   0.0000000   0.2000000   0.0000000), wk =   0.0222222
        k(   13) = (   0.0000000   0.2000000   0.3333333), wk =   0.0222222
        k(   14) = (   0.0000000   0.2000000  -0.3333333), wk =   0.0222222
        k(   15) = (   0.0000000   0.2500000   0.0000000), wk =   0.0222222
        k(   16) = (   0.0000000   0.2500000   0.3333333), wk =   0.0222222
        k(   17) = (   0.0000000   0.2500000  -0.3333333), wk =   0.0222222
        k(   18) = (   0.0000000   0.3000000   0.0000000), wk =   0.0222222
        k(   19) = (   0.0000000   0.3000000   0.3333333), wk =   0.0222222
        k(   20) = (   0.0000000   0.3000000  -0.3333333), wk =   0.0222222
        k(   21) = (   0.0000000   0.3500000   0.0000000), wk =   0.0222222
        k(   22) = (   0.0000000   0.3500000   0.3333333), wk =   0.0222222
        k(   23) = (   0.0000000   0.3500000  -0.3333333), wk =   0.0222222
        k(   24) = (   0.0000000   0.4000000   0.0000000), wk =   0.0222222
        k(   25) = (   0.0000000   0.4000000   0.3333333), wk =   0.0222222
        k(   26) = (   0.0000000   0.4000000  -0.3333333), wk =   0.0222222
        k(   27) = (   0.0000000   0.4500000   0.0000000), wk =   0.0222222
        k(   28) = (   0.0000000   0.4500000   0.3333333), wk =   0.0222222
        k(   29) = (   0.0000000   0.4500000  -0.3333333), wk =   0.0222222
        k(   30) = (   0.0000000  -0.5000000   0.0000000), wk =   0.0111111
        k(   31) = (   0.0000000  -0.5000000   0.3333333), wk =   0.0222222
        k(   32) = (   0.3333333   0.0000000   0.0000000), wk =   0.0222222
        k(   33) = (   0.3333333   0.0000000   0.3333333), wk =   0.0222222
        k(   34) = (   0.3333333   0.0000000  -0.3333333), wk =   0.0222222
        k(   35) = (   0.3333333   0.0500000   0.0000000), wk =   0.0222222
        k(   36) = (   0.3333333   0.0500000   0.3333333), wk =   0.0222222
        k(   37) = (   0.3333333   0.0500000  -0.3333333), wk =   0.0222222
        k(   38) = (   0.3333333   0.1000000   0.0000000), wk =   0.0222222
        k(   39) = (   0.3333333   0.1000000   0.3333333), wk =   0.0222222
        k(   40) = (   0.3333333   0.1000000  -0.3333333), wk =   0.0222222
        k(   41) = (   0.3333333   0.1500000   0.0000000), wk =   0.0222222
        k(   42) = (   0.3333333   0.1500000   0.3333333), wk =   0.0222222
        k(   43) = (   0.3333333   0.1500000  -0.3333333), wk =   0.0222222
        k(   44) = (   0.3333333   0.2000000   0.0000000), wk =   0.0222222
        k(   45) = (   0.3333333   0.2000000   0.3333333), wk =   0.0222222
        k(   46) = (   0.3333333   0.2000000  -0.3333333), wk =   0.0222222
        k(   47) = (   0.3333333   0.2500000   0.0000000), wk =   0.0222222
        k(   48) = (   0.3333333   0.2500000   0.3333333), wk =   0.0222222
        k(   49) = (   0.3333333   0.2500000  -0.3333333), wk =   0.0222222
        k(   50) = (   0.3333333   0.3000000   0.0000000), wk =   0.0222222
        k(   51) = (   0.3333333   0.3000000   0.3333333), wk =   0.0222222
        k(   52) = (   0.3333333   0.3000000  -0.3333333), wk =   0.0222222
        k(   53) = (   0.3333333   0.3500000   0.0000000), wk =   0.0222222
        k(   54) = (   0.3333333   0.3500000   0.3333333), wk =   0.0222222
        k(   55) = (   0.3333333   0.3500000  -0.3333333), wk =   0.0222222
        k(   56) = (   0.3333333   0.4000000   0.0000000), wk =   0.0222222
        k(   57) = (   0.3333333   0.4000000   0.3333333), wk =   0.0222222
        k(   58) = (   0.3333333   0.4000000  -0.3333333), wk =   0.0222222
        k(   59) = (   0.3333333   0.4500000   0.0000000), wk =   0.0222222
        k(   60) = (   0.3333333   0.4500000   0.3333333), wk =   0.0222222
        k(   61) = (   0.3333333   0.4500000  -0.3333333), wk =   0.0222222
        k(   62) = (   0.3333333  -0.5000000   0.0000000), wk =   0.0222222
        k(   63) = (   0.3333333  -0.5000000   0.3333333), wk =   0.0222222
        k(   64) = (   0.3333333  -0.5000000  -0.3333333), wk =   0.0222222
        k(   65) = (   0.3333333  -0.4500000   0.0000000), wk =   0.0222222
        k(   66) = (   0.3333333  -0.4500000   0.3333333), wk =   0.0222222
        k(   67) = (   0.3333333  -0.4500000  -0.3333333), wk =   0.0222222
        k(   68) = (   0.3333333  -0.4000000   0.0000000), wk =   0.0222222
        k(   69) = (   0.3333333  -0.4000000   0.3333333), wk =   0.0222222
        k(   70) = (   0.3333333  -0.4000000  -0.3333333), wk =   0.0222222
        k(   71) = (   0.3333333  -0.3500000   0.0000000), wk =   0.0222222
        k(   72) = (   0.3333333  -0.3500000   0.3333333), wk =   0.0222222
        k(   73) = (   0.3333333  -0.3500000  -0.3333333), wk =   0.0222222
        k(   74) = (   0.3333333  -0.3000000   0.0000000), wk =   0.0222222
        k(   75) = (   0.3333333  -0.3000000   0.3333333), wk =   0.0222222
        k(   76) = (   0.3333333  -0.3000000  -0.3333333), wk =   0.0222222
        k(   77) = (   0.3333333  -0.2500000   0.0000000), wk =   0.0222222
        k(   78) = (   0.3333333  -0.2500000   0.3333333), wk =   0.0222222
        k(   79) = (   0.3333333  -0.2500000  -0.3333333), wk =   0.0222222
        k(   80) = (   0.3333333  -0.2000000   0.0000000), wk =   0.0222222
        k(   81) = (   0.3333333  -0.2000000   0.3333333), wk =   0.0222222
        k(   82) = (   0.3333333  -0.2000000  -0.3333333), wk =   0.0222222
        k(   83) = (   0.3333333  -0.1500000   0.0000000), wk =   0.0222222
        k(   84) = (   0.3333333  -0.1500000   0.3333333), wk =   0.0222222
        k(   85) = (   0.3333333  -0.1500000  -0.3333333), wk =   0.0222222
        k(   86) = (   0.3333333  -0.1000000   0.0000000), wk =   0.0222222
        k(   87) = (   0.3333333  -0.1000000   0.3333333), wk =   0.0222222
        k(   88) = (   0.3333333  -0.1000000  -0.3333333), wk =   0.0222222
        k(   89) = (   0.3333333  -0.0500000   0.0000000), wk =   0.0222222
        k(   90) = (   0.3333333  -0.0500000   0.3333333), wk =   0.0222222
        k(   91) = (   0.3333333  -0.0500000  -0.3333333), wk =   0.0222222

     Dense  grid:  2983521 G-vectors     FFT dimensions: ( 360,  50, 360)

     Smooth grid:   754991 G-vectors     FFT dimensions: ( 225,  32, 225)

     Dynamical RAM for                 wfc:      56.45 MB

     Dynamical RAM for     wfc (w. buffer):    1354.90 MB

     Dynamical RAM for           str. fact:       5.06 MB

     Dynamical RAM for           local pot:       0.00 MB

     Dynamical RAM for          nlocal pot:     564.22 MB

     Dynamical RAM for                qrad:      13.69 MB

     Dynamical RAM for          rho,v,vnew:      31.65 MB

     Dynamical RAM for               rhoin:      10.55 MB

     Dynamical RAM for            rho*nmix:      80.93 MB

     Dynamical RAM for           G-vectors:      19.61 MB

     Dynamical RAM for          h,s,v(r/c):      22.82 MB

     Dynamical RAM for          <psi|beta>:      19.00 MB

     Dynamical RAM for                 psi:     225.82 MB

     Dynamical RAM for                hpsi:     225.82 MB

     Dynamical RAM for                spsi:     225.82 MB

     Dynamical RAM for      wfcinit/wfcrot:     264.84 MB

     Dynamical RAM for           addusdens:     486.86 MB

     Dynamical RAM for          addusforce:     979.55 MB

     Dynamical RAM for         addusstress:     256.08 MB

     Estimated static dynamical RAM per process >       2.07 GB

     Estimated max dynamical RAM per process >       3.03 GB

     Estimated total dynamical RAM >     108.91 GB

     Initial potential from superposition of free atoms

     starting charge  587.55112, renormalised to  588.00000
     Starting wfcs are  784 randomized atomic wfcs
