
     Program PWSCF v.6.3 starts on 26Feb2020 at 10:33:43 

     This program is part of the open-source Quantum ESPRESSO suite
     for quantum simulation of materials; please cite
         "P. Giannozzi et al., J. Phys.:Condens. Matter 21 395502 (2009);
         "P. Giannozzi et al., J. Phys.:Condens. Matter 29 465901 (2017);
          URL http://www.quantum-espresso.org", 
     in publications or presentations arising from this work. More details at
     http://www.quantum-espresso.org/quote

 *** WARNING: using old-style file format, will disappear from next version ***

     Parallel version (MPI & OpenMP), running on     288 processor cores
     Number of MPI processes:               288
     Threads/MPI process:                     1

     MPI processes distributed on     8 nodes
     K-points division:     npool     =      36
     R & G space division:  proc/nbgrp/npool/nimage =       8
     Reading input from aiida.in
Warning: card &IONS ignored
Warning: card   !PRESS_CONV_THR = 0.05                 ! JUST FOR VOLUME RELAXATIONS ignored
Warning: card / ignored

     Current dimensions of program PWSCF are:
     Max number of different atomic species (ntypx) = 10
     Max number of k-points (npk) =  40000
     Max angular momentum in pseudopotentials (lmaxx) =  3
               file Mg.pbe-n-kjpaw_psl.0.3.0.UPF: wavefunction(s)  3S renormalized
               file Al.pbe-n-kjpaw_psl.1.0.0.UPF: wavefunction(s)  3S 3P renormalized

     Subspace diagonalization in iterative solution of the eigenvalue problem:
     one sub-group per band group will be used
     scalapack distributed-memory algorithm (size of sub-group:  2*  2 procs)

 
     Parallelization info
     --------------------
     sticks:   dense  smooth     PW     G-vecs:    dense   smooth      PW
     Min        3740    1497    390               486920   123201   16474
     Max        3741    1498    391               486925   123204   16481
     Sum       29921   11977   3125              3895379   985619  131827
 


     bravais-lattice index     =            0
     lattice parameter (alat)  =      30.6665  a.u.
     unit-cell volume          =   28839.7502 (a.u.)^3
     number of atoms/cell      =          256
     number of atomic types    =            3
     number of electrons       =       768.00
     number of Kohn-Sham states=          461
     kinetic-energy cutoff     =      40.0000  Ry
     charge density cutoff     =     400.0000  Ry
     convergence threshold     =      1.0E-12
     mixing beta               =       0.4000
     number of iterations used =            8  local-TF  mixing
     Exchange-correlation      = PBE ( 1  4  3  4 0 0)

     celldm(1)=  30.666473  celldm(2)=   0.000000  celldm(3)=   0.000000
     celldm(4)=   0.000000  celldm(5)=   0.000000  celldm(6)=   0.000000

     crystal axes: (cart. coord. in units of alat)
               a(1) = (   1.000000   0.000000   0.000000 )  
               a(2) = (   0.000000   1.000000   0.000000 )  
               a(3) = (   0.000000   0.000000   1.000000 )  

     reciprocal axes: (cart. coord. in units 2 pi/alat)
               b(1) = (  1.000000  0.000000  0.000000 )  
               b(2) = (  0.000000  1.000000  0.000000 )  
               b(3) = (  0.000000  0.000000  1.000000 )  


     PseudoPot. # 1 for Mg read from file:
     /users/aglensk/Dropbox/Albert/scripts/dotfiles/scripts/potentials/quantum_espresso/pseudo_SSSPefV1.1_alalloy/Mg.pbe-n-kjpaw_psl.0.3.0.UPF
     MD5 check sum: 24ecedc7f3e3cbe212e682f4413594e4
     Pseudo is Projector augmented-wave + core cor, Zval =  2.0
     Generated using "atomic" code by A. Dal Corso v.5.0.99 svn rev. 10869
     Shape of augmentation charge: PSQ
     Using radial grid of 1129 points,  4 beta functions with: 
                l(1) =   0
                l(2) =   0
                l(3) =   1
                l(4) =   1
     Q(r) pseudized with 0 coefficients 


     PseudoPot. # 2 for Al read from file:
     /users/aglensk/Dropbox/Albert/scripts/dotfiles/scripts/potentials/quantum_espresso/pseudo_SSSPefV1.1_alalloy/Al.pbe-n-kjpaw_psl.1.0.0.UPF
     MD5 check sum: cfc449ca30b5f3223ec38ddd88ac046d
     Pseudo is Projector augmented-wave + core cor, Zval =  3.0
     Generated using "atomic" code by A. Dal Corso v.5.1
     Shape of augmentation charge: PSQ
     Using radial grid of 1135 points,  6 beta functions with: 
                l(1) =   0
                l(2) =   0
                l(3) =   1
                l(4) =   1
                l(5) =   2
                l(6) =   2
     Q(r) pseudized with 0 coefficients 


     PseudoPot. # 3 for Si read from file:
     /users/aglensk/Dropbox/Albert/scripts/dotfiles/scripts/potentials/quantum_espresso/pseudo_SSSPefV1.1_alalloy/Si.pbe-n-rrkjus_psl.1.0.0.UPF
     MD5 check sum: 0b0bb1205258b0d07b9f9672cf965d36
     Pseudo is Ultrasoft + core correction, Zval =  4.0
     Generated using "atomic" code by A. Dal Corso v.5.1
     Using radial grid of 1141 points,  6 beta functions with: 
                l(1) =   0
                l(2) =   0
                l(3) =   1
                l(4) =   1
                l(5) =   2
                l(6) =   2
     Q(r) pseudized with 0 coefficients 


     atomic species   valence    mass     pseudopotential
        Mg             2.00    24.30500     Mg( 1.00)
        Al             3.00    26.98154     Al( 1.00)
        Si             4.00    28.08500     Si( 1.00)

     No symmetry found


                                    s                        frac. trans.

      isym =  1     identity                                     

 cryst.   s( 1) = (     1          0          0      )
                  (     0          1          0      )
                  (     0          0          1      )

 cart.    s( 1) = (  1.0000000  0.0000000  0.0000000 )
                  (  0.0000000  1.0000000  0.0000000 )
                  (  0.0000000  0.0000000  1.0000000 )


   Cartesian axes

     site n.     atom                  positions (alat units)
         1           Mg  tau(   1) = (   0.0000000   0.0000390   0.0000000  )
         2           Al  tau(   2) = (   0.1264220   0.0000628   0.1264220  )
         3           Al  tau(   3) = (   0.1256007   0.1271137   0.0000000  )
         4           Al  tau(   4) = (   0.0000000   0.1271137   0.1256007  )
         5           Al  tau(   5) = (   0.0000000   0.0001301   0.2500193  )
         6           Al  tau(   6) = (   0.1250776   0.1250938   0.2502007  )
         7           Al  tau(   7) = (   0.1249878   0.0000135   0.3750741  )
         8           Al  tau(   8) = (   0.0000000   0.1250029   0.3750345  )
         9           Al  tau(   9) = (   0.0000000   0.0000186   0.5000000  )
        10           Al  tau(  10) = (   0.1250042   0.1249906   0.5000000  )
        11           Al  tau(  11) = (   0.1249878   0.0000135   0.6249259  )
        12           Al  tau(  12) = (   0.0000000   0.1250029   0.6249655  )
        13           Al  tau(  13) = (   0.0000000   0.0001301   0.7499807  )
        14           Al  tau(  14) = (   0.1250776   0.1250938   0.7497993  )
        15           Al  tau(  15) = (   0.1264220   0.0000628   0.8735780  )
        16           Al  tau(  16) = (   0.0000000   0.1271137   0.8743993  )
        17           Si  tau(  17) = (   0.0000000   0.2506936   0.0000000  )
        18           Al  tau(  18) = (   0.1242733   0.3743545   0.0000000  )
        19           Al  tau(  19) = (   0.1244222   0.2502903   0.1244222  )
        20           Al  tau(  20) = (   0.0000000   0.3743545   0.1242733  )
        21           Al  tau(  21) = (   0.0000000   0.2501115   0.2498041  )
        22           Al  tau(  22) = (   0.1249795   0.3749898   0.2499339  )
        23           Al  tau(  23) = (   0.1249868   0.2500163   0.3749492  )
        24           Al  tau(  24) = (   0.0000000   0.3750028   0.3749627  )
        25           Al  tau(  25) = (   0.0000000   0.2500261   0.5000000  )
        26           Al  tau(  26) = (   0.1250131   0.3750083   0.5000000  )
        27           Al  tau(  27) = (   0.1249868   0.2500163   0.6250508  )
        28           Al  tau(  28) = (   0.0000000   0.3750028   0.6250373  )
        29           Al  tau(  29) = (   0.0000000   0.2501115   0.7501959  )
        30           Al  tau(  30) = (   0.1249795   0.3749898   0.7500662  )
        31           Al  tau(  31) = (   0.1244222   0.2502903   0.8755778  )
        32           Al  tau(  32) = (   0.0000000   0.3743545   0.8757267  )
        33           Al  tau(  33) = (   0.0000000   0.4997309   0.0000000  )
        34           Al  tau(  34) = (   0.1249958   0.6248671   0.0000000  )
        35           Al  tau(  35) = (   0.1249858   0.4999008   0.1249858  )
        36           Al  tau(  36) = (   0.0000000   0.6248671   0.1249958  )
        37           Al  tau(  37) = (   0.0000000   0.4998848   0.2499129  )
        38           Al  tau(  38) = (   0.1249882   0.6250001   0.2500042  )
        39           Al  tau(  39) = (   0.1249960   0.4999861   0.3749973  )
        40           Al  tau(  40) = (   0.0000000   0.6250025   0.3750113  )
        41           Al  tau(  41) = (   0.0000000   0.4999776   0.5000000  )
        42           Al  tau(  42) = (   0.1250044   0.6250092   0.5000000  )
        43           Al  tau(  43) = (   0.1249960   0.4999861   0.6250027  )
        44           Al  tau(  44) = (   0.0000000   0.6250025   0.6249887  )
        45           Al  tau(  45) = (   0.0000000   0.4998848   0.7500871  )
        46           Al  tau(  46) = (   0.1249882   0.6250001   0.7499958  )
        47           Al  tau(  47) = (   0.1249858   0.4999008   0.8750142  )
        48           Al  tau(  48) = (   0.0000000   0.6248671   0.8750042  )
        49           Al  tau(  49) = (   0.0000000   0.7498224   0.0000000  )
        50           Al  tau(  50) = (   0.1264115   0.8736216   0.0000000  )
        51           Al  tau(  51) = (   0.1250940   0.7497229   0.1250940  )
        52           Al  tau(  52) = (   0.0000000   0.8736216   0.1264115  )
        53           Al  tau(  53) = (   0.0000000   0.7498775   0.2501069  )
        54           Al  tau(  54) = (   0.1250785   0.8749160   0.2502694  )
        55           Al  tau(  55) = (   0.1249933   0.7499829   0.3750071  )
        56           Al  tau(  56) = (   0.0000000   0.8749896   0.3750905  )
        57           Al  tau(  57) = (   0.0000000   0.7499784   0.5000000  )
        58           Al  tau(  58) = (   0.1249990   0.8749928   0.5000000  )
        59           Al  tau(  59) = (   0.1249933   0.7499829   0.6249929  )
        60           Al  tau(  60) = (   0.0000000   0.8749896   0.6249095  )
        61           Al  tau(  61) = (   0.0000000   0.7498775   0.7498931  )
        62           Al  tau(  62) = (   0.1250785   0.8749160   0.7497306  )
        63           Al  tau(  63) = (   0.1250940   0.7497229   0.8749060  )
        64           Al  tau(  64) = (   0.0000000   0.8736216   0.8735886  )
        65           Al  tau(  65) = (   0.2500193   0.0001301   0.0000000  )
        66           Al  tau(  66) = (   0.3750345   0.1250029   0.0000000  )
        67           Al  tau(  67) = (   0.3750741   0.0000135   0.1249878  )
        68           Al  tau(  68) = (   0.2502007   0.1250938   0.1250776  )
        69           Al  tau(  69) = (   0.2501655   0.9999568   0.2501655  )
        70           Al  tau(  70) = (   0.3749928   0.1250029   0.2500013  )
        71           Al  tau(  71) = (   0.3750090   0.0000012   0.3750090  )
        72           Al  tau(  72) = (   0.2500013   0.1250029   0.3749928  )
        73           Al  tau(  73) = (   0.2500217   0.0000024   0.5000000  )
        74           Al  tau(  74) = (   0.3750122   0.1250039   0.5000000  )
        75           Al  tau(  75) = (   0.3750090   0.0000012   0.6249910  )
        76           Al  tau(  76) = (   0.2500013   0.1250029   0.6250072  )
        77           Al  tau(  77) = (   0.2501655   0.9999568   0.7498345  )
        78           Al  tau(  78) = (   0.3749928   0.1250029   0.7499987  )
        79           Al  tau(  79) = (   0.3750741   0.0000135   0.8750122  )
        80           Al  tau(  80) = (   0.2502007   0.1250938   0.8749224  )
        81           Al  tau(  81) = (   0.2498041   0.2501115   0.0000000  )
        82           Al  tau(  82) = (   0.3749627   0.3750028   0.0000000  )
        83           Al  tau(  83) = (   0.3749492   0.2500163   0.1249868  )
        84           Al  tau(  84) = (   0.2499339   0.3749898   0.1249795  )
        85           Al  tau(  85) = (   0.2498914   0.2500095   0.2498914  )
        86           Al  tau(  86) = (   0.3749889   0.3749837   0.2499758  )
        87           Al  tau(  87) = (   0.3750046   0.2499902   0.3750046  )
        88           Al  tau(  88) = (   0.2499758   0.3749837   0.3749889  )
        89           Al  tau(  89) = (   0.2499883   0.2500090   0.5000000  )
        90           Al  tau(  90) = (   0.3750179   0.3750091   0.5000000  )
        91           Al  tau(  91) = (   0.3750046   0.2499902   0.6249955  )
        92           Al  tau(  92) = (   0.2499758   0.3749837   0.6250111  )
        93           Al  tau(  93) = (   0.2498914   0.2500095   0.7501086  )
        94           Al  tau(  94) = (   0.3749889   0.3749837   0.7500242  )
        95           Al  tau(  95) = (   0.3749492   0.2500163   0.8750132  )
        96           Al  tau(  96) = (   0.2499339   0.3749898   0.8750205  )
        97           Al  tau(  97) = (   0.2499129   0.4998848   0.0000000  )
        98           Al  tau(  98) = (   0.3750113   0.6250025   0.0000000  )
        99           Al  tau(  99) = (   0.3749973   0.4999861   0.1249960  )
       100           Al  tau( 100) = (   0.2500042   0.6250001   0.1249882  )
       101           Al  tau( 101) = (   0.2500427   0.5000352   0.2500427  )
       102           Al  tau( 102) = (   0.3749989   0.6250088   0.2499937  )
       103           Al  tau( 103) = (   0.3750094   0.4999998   0.3750094  )
       104           Al  tau( 104) = (   0.2499937   0.6250088   0.3749989  )
       105           Al  tau( 105) = (   0.2500131   0.4999999   0.5000000  )
       106           Al  tau( 106) = (   0.3749971   0.6249806   0.5000000  )
       107           Al  tau( 107) = (   0.3750094   0.4999998   0.6249906  )
       108           Al  tau( 108) = (   0.2499937   0.6250088   0.6250011  )
       109           Al  tau( 109) = (   0.2500427   0.5000352   0.7499573  )
       110           Al  tau( 110) = (   0.3749989   0.6250088   0.7500063  )
       111           Al  tau( 111) = (   0.3749973   0.4999861   0.8750040  )
       112           Al  tau( 112) = (   0.2500042   0.6250001   0.8750118  )
       113           Al  tau( 113) = (   0.2501069   0.7498775   0.0000000  )
       114           Al  tau( 114) = (   0.3750905   0.8749896   0.0000000  )
       115           Al  tau( 115) = (   0.3750071   0.7499829   0.1249933  )
       116           Al  tau( 116) = (   0.2502694   0.8749160   0.1250785  )
       117           Al  tau( 117) = (   0.2500035   0.7499940   0.2500035  )
       118           Al  tau( 118) = (   0.3750019   0.8750033   0.2500169  )
       119           Al  tau( 119) = (   0.3749813   0.7500089   0.3749813  )
       120           Al  tau( 120) = (   0.2500169   0.8750033   0.3750019  )
       121           Al  tau( 121) = (   0.2500096   0.7499896   0.5000000  )
       122           Al  tau( 122) = (   0.3749875   0.8750070   0.5000000  )
       123           Al  tau( 123) = (   0.3749813   0.7500089   0.6250188  )
       124           Al  tau( 124) = (   0.2500169   0.8750033   0.6249981  )
       125           Al  tau( 125) = (   0.2500035   0.7499940   0.7499965  )
       126           Al  tau( 126) = (   0.3750019   0.8750033   0.7499831  )
       127           Al  tau( 127) = (   0.3750071   0.7499829   0.8750067  )
       128           Al  tau( 128) = (   0.2502694   0.8749160   0.8749215  )
       129           Al  tau( 129) = (   0.5000000   0.0000186   0.0000000  )
       130           Al  tau( 130) = (   0.6249655   0.1250029   0.0000000  )
       131           Al  tau( 131) = (   0.6249259   0.0000135   0.1249878  )
       132           Al  tau( 132) = (   0.5000000   0.1249906   0.1250042  )
       133           Al  tau( 133) = (   0.5000000   0.0000024   0.2500217  )
       134           Al  tau( 134) = (   0.6250072   0.1250029   0.2500013  )
       135           Al  tau( 135) = (   0.6249910   0.0000012   0.3750090  )
       136           Al  tau( 136) = (   0.5000000   0.1250039   0.3750122  )
       137           Al  tau( 137) = (   0.5000000   0.9999981   0.5000000  )
       138           Al  tau( 138) = (   0.6249878   0.1250039   0.5000000  )
       139           Al  tau( 139) = (   0.6249910   0.0000012   0.6249910  )
       140           Al  tau( 140) = (   0.5000000   0.1250039   0.6249878  )
       141           Al  tau( 141) = (   0.5000000   0.0000024   0.7499783  )
       142           Al  tau( 142) = (   0.6250072   0.1250029   0.7499987  )
       143           Al  tau( 143) = (   0.6249259   0.0000135   0.8750122  )
       144           Al  tau( 144) = (   0.5000000   0.1249906   0.8749958  )
       145           Al  tau( 145) = (   0.5000000   0.2500261   0.0000000  )
       146           Al  tau( 146) = (   0.6250373   0.3750028   0.0000000  )
       147           Al  tau( 147) = (   0.6250508   0.2500163   0.1249868  )
       148           Al  tau( 148) = (   0.5000000   0.3750083   0.1250131  )
       149           Al  tau( 149) = (   0.5000000   0.2500090   0.2499883  )
       150           Al  tau( 150) = (   0.6250111   0.3749837   0.2499758  )
       151           Al  tau( 151) = (   0.6249955   0.2499902   0.3750046  )
       152           Al  tau( 152) = (   0.5000000   0.3750091   0.3750179  )
       153           Al  tau( 153) = (   0.5000000   0.2500139   0.5000000  )
       154           Al  tau( 154) = (   0.6249821   0.3750091   0.5000000  )
       155           Al  tau( 155) = (   0.6249955   0.2499902   0.6249955  )
       156           Al  tau( 156) = (   0.5000000   0.3750091   0.6249821  )
       157           Al  tau( 157) = (   0.5000000   0.2500090   0.7500117  )
       158           Al  tau( 158) = (   0.6250111   0.3749837   0.7500242  )
       159           Al  tau( 159) = (   0.6250508   0.2500163   0.8750132  )
       160           Al  tau( 160) = (   0.5000000   0.3750083   0.8749869  )
       161           Al  tau( 161) = (   0.5000000   0.4999776   0.0000000  )
       162           Al  tau( 162) = (   0.6249887   0.6250025   0.0000000  )
       163           Al  tau( 163) = (   0.6250027   0.4999861   0.1249960  )
       164           Al  tau( 164) = (   0.5000000   0.6250092   0.1250044  )
       165           Al  tau( 165) = (   0.5000000   0.4999999   0.2500131  )
       166           Al  tau( 166) = (   0.6250011   0.6250088   0.2499937  )
       167           Al  tau( 167) = (   0.6249906   0.4999998   0.3750094  )
       168           Al  tau( 168) = (   0.5000000   0.6249806   0.3749971  )
       169           Al  tau( 169) = (   0.5000000   0.5000020   0.5000000  )
       170           Al  tau( 170) = (   0.6250029   0.6249806   0.5000000  )
       171           Al  tau( 171) = (   0.6249906   0.4999998   0.6249906  )
       172           Al  tau( 172) = (   0.5000000   0.6249806   0.6250029  )
       173           Al  tau( 173) = (   0.5000000   0.4999999   0.7499869  )
       174           Al  tau( 174) = (   0.6250011   0.6250088   0.7500063  )
       175           Al  tau( 175) = (   0.6250027   0.4999861   0.8750040  )
       176           Al  tau( 176) = (   0.5000000   0.6250092   0.8749956  )
       177           Al  tau( 177) = (   0.5000000   0.7499784   0.0000000  )
       178           Al  tau( 178) = (   0.6249095   0.8749896   0.0000000  )
       179           Al  tau( 179) = (   0.6249929   0.7499829   0.1249933  )
       180           Al  tau( 180) = (   0.5000000   0.8749928   0.1249990  )
       181           Al  tau( 181) = (   0.5000000   0.7499896   0.2500096  )
       182           Al  tau( 182) = (   0.6249981   0.8750033   0.2500169  )
       183           Al  tau( 183) = (   0.6250188   0.7500089   0.3749813  )
       184           Al  tau( 184) = (   0.5000000   0.8750070   0.3749875  )
       185           Al  tau( 185) = (   0.5000000   0.7499874   0.5000000  )
       186           Al  tau( 186) = (   0.6250125   0.8750070   0.5000000  )
       187           Al  tau( 187) = (   0.6250188   0.7500089   0.6250188  )
       188           Al  tau( 188) = (   0.5000000   0.8750070   0.6250125  )
       189           Al  tau( 189) = (   0.5000000   0.7499896   0.7499904  )
       190           Al  tau( 190) = (   0.6249981   0.8750033   0.7499831  )
       191           Al  tau( 191) = (   0.6249929   0.7499829   0.8750067  )
       192           Al  tau( 192) = (   0.5000000   0.8749928   0.8750010  )
       193           Al  tau( 193) = (   0.7499807   0.0001301   0.0000000  )
       194           Al  tau( 194) = (   0.8743993   0.1271137   0.0000000  )
       195           Al  tau( 195) = (   0.8735780   0.0000628   0.1264220  )
       196           Al  tau( 196) = (   0.7497993   0.1250938   0.1250776  )
       197           Al  tau( 197) = (   0.7498345   0.9999568   0.2501655  )
       198           Al  tau( 198) = (   0.8749224   0.1250938   0.2502007  )
       199           Al  tau( 199) = (   0.8750122   0.0000135   0.3750741  )
       200           Al  tau( 200) = (   0.7499987   0.1250029   0.3749928  )
       201           Al  tau( 201) = (   0.7499783   0.0000024   0.5000000  )
       202           Al  tau( 202) = (   0.8749958   0.1249906   0.5000000  )
       203           Al  tau( 203) = (   0.8750122   0.0000135   0.6249259  )
       204           Al  tau( 204) = (   0.7499987   0.1250029   0.6250072  )
       205           Al  tau( 205) = (   0.7498345   0.9999568   0.7498345  )
       206           Al  tau( 206) = (   0.8749224   0.1250938   0.7497993  )
       207           Al  tau( 207) = (   0.8735780   0.0000628   0.8735780  )
       208           Al  tau( 208) = (   0.7497993   0.1250938   0.8749224  )
       209           Al  tau( 209) = (   0.7501959   0.2501115   0.0000000  )
       210           Al  tau( 210) = (   0.8757267   0.3743545   0.0000000  )
       211           Al  tau( 211) = (   0.8755778   0.2502903   0.1244222  )
       212           Al  tau( 212) = (   0.7500662   0.3749898   0.1249795  )
       213           Al  tau( 213) = (   0.7501086   0.2500095   0.2498914  )
       214           Al  tau( 214) = (   0.8750205   0.3749898   0.2499339  )
       215           Al  tau( 215) = (   0.8750132   0.2500163   0.3749492  )
       216           Al  tau( 216) = (   0.7500242   0.3749837   0.3749889  )
       217           Al  tau( 217) = (   0.7500117   0.2500090   0.5000000  )
       218           Al  tau( 218) = (   0.8749869   0.3750083   0.5000000  )
       219           Al  tau( 219) = (   0.8750132   0.2500163   0.6250508  )
       220           Al  tau( 220) = (   0.7500242   0.3749837   0.6250111  )
       221           Al  tau( 221) = (   0.7501086   0.2500095   0.7501086  )
       222           Al  tau( 222) = (   0.8750205   0.3749898   0.7500662  )
       223           Al  tau( 223) = (   0.8755778   0.2502903   0.8755778  )
       224           Al  tau( 224) = (   0.7500662   0.3749898   0.8750205  )
       225           Al  tau( 225) = (   0.7500871   0.4998848   0.0000000  )
       226           Al  tau( 226) = (   0.8750042   0.6248671   0.0000000  )
       227           Al  tau( 227) = (   0.8750142   0.4999008   0.1249858  )
       228           Al  tau( 228) = (   0.7499958   0.6250001   0.1249882  )
       229           Al  tau( 229) = (   0.7499573   0.5000352   0.2500427  )
       230           Al  tau( 230) = (   0.8750118   0.6250001   0.2500042  )
       231           Al  tau( 231) = (   0.8750040   0.4999861   0.3749973  )
       232           Al  tau( 232) = (   0.7500063   0.6250088   0.3749989  )
       233           Al  tau( 233) = (   0.7499869   0.4999999   0.5000000  )
       234           Al  tau( 234) = (   0.8749956   0.6250092   0.5000000  )
       235           Al  tau( 235) = (   0.8750040   0.4999861   0.6250027  )
       236           Al  tau( 236) = (   0.7500063   0.6250088   0.6250011  )
       237           Al  tau( 237) = (   0.7499573   0.5000352   0.7499573  )
       238           Al  tau( 238) = (   0.8750118   0.6250001   0.7499958  )
       239           Al  tau( 239) = (   0.8750142   0.4999008   0.8750142  )
       240           Al  tau( 240) = (   0.7499958   0.6250001   0.8750118  )
       241           Al  tau( 241) = (   0.7498931   0.7498775   0.0000000  )
       242           Al  tau( 242) = (   0.8735886   0.8736216   0.0000000  )
       243           Al  tau( 243) = (   0.8749060   0.7497229   0.1250940  )
       244           Al  tau( 244) = (   0.7497306   0.8749160   0.1250785  )
       245           Al  tau( 245) = (   0.7499965   0.7499940   0.2500035  )
       246           Al  tau( 246) = (   0.8749215   0.8749160   0.2502694  )
       247           Al  tau( 247) = (   0.8750067   0.7499829   0.3750071  )
       248           Al  tau( 248) = (   0.7499831   0.8750033   0.3750019  )
       249           Al  tau( 249) = (   0.7499904   0.7499896   0.5000000  )
       250           Al  tau( 250) = (   0.8750010   0.8749928   0.5000000  )
       251           Al  tau( 251) = (   0.8750067   0.7499829   0.6249929  )
       252           Al  tau( 252) = (   0.7499831   0.8750033   0.6249981  )
       253           Al  tau( 253) = (   0.7499965   0.7499940   0.7499965  )
       254           Al  tau( 254) = (   0.8749215   0.8749160   0.7497306  )
       255           Al  tau( 255) = (   0.8749060   0.7497229   0.8749060  )
       256           Al  tau( 256) = (   0.7497306   0.8749160   0.8749215  )

   Crystallographic axes

     site n.     atom                  positions (cryst. coord.)
         1           Mg  tau(   1) = (  0.0000000  0.0000390  0.0000000  )
         2           Al  tau(   2) = (  0.1264220  0.0000628  0.1264220  )
         3           Al  tau(   3) = (  0.1256007  0.1271137  0.0000000  )
         4           Al  tau(   4) = (  0.0000000  0.1271137  0.1256007  )
         5           Al  tau(   5) = (  0.0000000  0.0001301  0.2500193  )
         6           Al  tau(   6) = (  0.1250776  0.1250938  0.2502007  )
         7           Al  tau(   7) = (  0.1249878  0.0000135  0.3750741  )
         8           Al  tau(   8) = (  0.0000000  0.1250029  0.3750345  )
         9           Al  tau(   9) = (  0.0000000  0.0000186  0.5000000  )
        10           Al  tau(  10) = (  0.1250042  0.1249906  0.5000000  )
        11           Al  tau(  11) = (  0.1249878  0.0000135  0.6249259  )
        12           Al  tau(  12) = (  0.0000000  0.1250029  0.6249655  )
        13           Al  tau(  13) = (  0.0000000  0.0001301  0.7499807  )
        14           Al  tau(  14) = (  0.1250776  0.1250938  0.7497993  )
        15           Al  tau(  15) = (  0.1264220  0.0000628  0.8735780  )
        16           Al  tau(  16) = (  0.0000000  0.1271137  0.8743993  )
        17           Si  tau(  17) = (  0.0000000  0.2506936  0.0000000  )
        18           Al  tau(  18) = (  0.1242733  0.3743545  0.0000000  )
        19           Al  tau(  19) = (  0.1244222  0.2502903  0.1244222  )
        20           Al  tau(  20) = (  0.0000000  0.3743545  0.1242733  )
        21           Al  tau(  21) = (  0.0000000  0.2501115  0.2498041  )
        22           Al  tau(  22) = (  0.1249795  0.3749898  0.2499339  )
        23           Al  tau(  23) = (  0.1249868  0.2500163  0.3749492  )
        24           Al  tau(  24) = (  0.0000000  0.3750028  0.3749627  )
        25           Al  tau(  25) = (  0.0000000  0.2500261  0.5000000  )
        26           Al  tau(  26) = (  0.1250131  0.3750083  0.5000000  )
        27           Al  tau(  27) = (  0.1249868  0.2500163  0.6250508  )
        28           Al  tau(  28) = (  0.0000000  0.3750028  0.6250373  )
        29           Al  tau(  29) = (  0.0000000  0.2501115  0.7501959  )
        30           Al  tau(  30) = (  0.1249795  0.3749898  0.7500662  )
        31           Al  tau(  31) = (  0.1244222  0.2502903  0.8755778  )
        32           Al  tau(  32) = (  0.0000000  0.3743545  0.8757267  )
        33           Al  tau(  33) = (  0.0000000  0.4997309  0.0000000  )
        34           Al  tau(  34) = (  0.1249958  0.6248671  0.0000000  )
        35           Al  tau(  35) = (  0.1249858  0.4999008  0.1249858  )
        36           Al  tau(  36) = (  0.0000000  0.6248671  0.1249958  )
        37           Al  tau(  37) = (  0.0000000  0.4998848  0.2499129  )
        38           Al  tau(  38) = (  0.1249882  0.6250001  0.2500042  )
        39           Al  tau(  39) = (  0.1249960  0.4999861  0.3749973  )
        40           Al  tau(  40) = (  0.0000000  0.6250025  0.3750113  )
        41           Al  tau(  41) = (  0.0000000  0.4999776  0.5000000  )
        42           Al  tau(  42) = (  0.1250044  0.6250092  0.5000000  )
        43           Al  tau(  43) = (  0.1249960  0.4999861  0.6250027  )
        44           Al  tau(  44) = (  0.0000000  0.6250025  0.6249887  )
        45           Al  tau(  45) = (  0.0000000  0.4998848  0.7500871  )
        46           Al  tau(  46) = (  0.1249882  0.6250001  0.7499958  )
        47           Al  tau(  47) = (  0.1249858  0.4999008  0.8750142  )
        48           Al  tau(  48) = (  0.0000000  0.6248671  0.8750042  )
        49           Al  tau(  49) = (  0.0000000  0.7498224  0.0000000  )
        50           Al  tau(  50) = (  0.1264115  0.8736216  0.0000000  )
        51           Al  tau(  51) = (  0.1250940  0.7497229  0.1250940  )
        52           Al  tau(  52) = (  0.0000000  0.8736216  0.1264115  )
        53           Al  tau(  53) = (  0.0000000  0.7498775  0.2501069  )
        54           Al  tau(  54) = (  0.1250785  0.8749160  0.2502694  )
        55           Al  tau(  55) = (  0.1249933  0.7499829  0.3750071  )
        56           Al  tau(  56) = (  0.0000000  0.8749896  0.3750905  )
        57           Al  tau(  57) = (  0.0000000  0.7499784  0.5000000  )
        58           Al  tau(  58) = (  0.1249990  0.8749928  0.5000000  )
        59           Al  tau(  59) = (  0.1249933  0.7499829  0.6249929  )
        60           Al  tau(  60) = (  0.0000000  0.8749896  0.6249095  )
        61           Al  tau(  61) = (  0.0000000  0.7498775  0.7498931  )
        62           Al  tau(  62) = (  0.1250785  0.8749160  0.7497306  )
        63           Al  tau(  63) = (  0.1250940  0.7497229  0.8749060  )
        64           Al  tau(  64) = (  0.0000000  0.8736216  0.8735886  )
        65           Al  tau(  65) = (  0.2500193  0.0001301  0.0000000  )
        66           Al  tau(  66) = (  0.3750345  0.1250029  0.0000000  )
        67           Al  tau(  67) = (  0.3750741  0.0000135  0.1249878  )
        68           Al  tau(  68) = (  0.2502007  0.1250938  0.1250776  )
        69           Al  tau(  69) = (  0.2501655  0.9999568  0.2501655  )
        70           Al  tau(  70) = (  0.3749928  0.1250029  0.2500013  )
        71           Al  tau(  71) = (  0.3750090  0.0000012  0.3750090  )
        72           Al  tau(  72) = (  0.2500013  0.1250029  0.3749928  )
        73           Al  tau(  73) = (  0.2500217  0.0000024  0.5000000  )
        74           Al  tau(  74) = (  0.3750122  0.1250039  0.5000000  )
        75           Al  tau(  75) = (  0.3750090  0.0000012  0.6249910  )
        76           Al  tau(  76) = (  0.2500013  0.1250029  0.6250072  )
        77           Al  tau(  77) = (  0.2501655  0.9999568  0.7498345  )
        78           Al  tau(  78) = (  0.3749928  0.1250029  0.7499987  )
        79           Al  tau(  79) = (  0.3750741  0.0000135  0.8750122  )
        80           Al  tau(  80) = (  0.2502007  0.1250938  0.8749224  )
        81           Al  tau(  81) = (  0.2498041  0.2501115  0.0000000  )
        82           Al  tau(  82) = (  0.3749627  0.3750028  0.0000000  )
        83           Al  tau(  83) = (  0.3749492  0.2500163  0.1249868  )
        84           Al  tau(  84) = (  0.2499339  0.3749898  0.1249795  )
        85           Al  tau(  85) = (  0.2498914  0.2500095  0.2498914  )
        86           Al  tau(  86) = (  0.3749889  0.3749837  0.2499758  )
        87           Al  tau(  87) = (  0.3750046  0.2499902  0.3750046  )
        88           Al  tau(  88) = (  0.2499758  0.3749837  0.3749889  )
        89           Al  tau(  89) = (  0.2499883  0.2500090  0.5000000  )
        90           Al  tau(  90) = (  0.3750179  0.3750091  0.5000000  )
        91           Al  tau(  91) = (  0.3750046  0.2499902  0.6249955  )
        92           Al  tau(  92) = (  0.2499758  0.3749837  0.6250111  )
        93           Al  tau(  93) = (  0.2498914  0.2500095  0.7501086  )
        94           Al  tau(  94) = (  0.3749889  0.3749837  0.7500242  )
        95           Al  tau(  95) = (  0.3749492  0.2500163  0.8750132  )
        96           Al  tau(  96) = (  0.2499339  0.3749898  0.8750205  )
        97           Al  tau(  97) = (  0.2499129  0.4998848  0.0000000  )
        98           Al  tau(  98) = (  0.3750113  0.6250025  0.0000000  )
        99           Al  tau(  99) = (  0.3749973  0.4999861  0.1249960  )
       100           Al  tau( 100) = (  0.2500042  0.6250001  0.1249882  )
       101           Al  tau( 101) = (  0.2500427  0.5000352  0.2500427  )
       102           Al  tau( 102) = (  0.3749989  0.6250088  0.2499937  )
       103           Al  tau( 103) = (  0.3750094  0.4999998  0.3750094  )
       104           Al  tau( 104) = (  0.2499937  0.6250088  0.3749989  )
       105           Al  tau( 105) = (  0.2500131  0.4999999  0.5000000  )
       106           Al  tau( 106) = (  0.3749971  0.6249806  0.5000000  )
       107           Al  tau( 107) = (  0.3750094  0.4999998  0.6249906  )
       108           Al  tau( 108) = (  0.2499937  0.6250088  0.6250011  )
       109           Al  tau( 109) = (  0.2500427  0.5000352  0.7499573  )
       110           Al  tau( 110) = (  0.3749989  0.6250088  0.7500063  )
       111           Al  tau( 111) = (  0.3749973  0.4999861  0.8750040  )
       112           Al  tau( 112) = (  0.2500042  0.6250001  0.8750118  )
       113           Al  tau( 113) = (  0.2501069  0.7498775  0.0000000  )
       114           Al  tau( 114) = (  0.3750905  0.8749896  0.0000000  )
       115           Al  tau( 115) = (  0.3750071  0.7499829  0.1249933  )
       116           Al  tau( 116) = (  0.2502694  0.8749160  0.1250785  )
       117           Al  tau( 117) = (  0.2500035  0.7499940  0.2500035  )
       118           Al  tau( 118) = (  0.3750019  0.8750033  0.2500169  )
       119           Al  tau( 119) = (  0.3749813  0.7500089  0.3749813  )
       120           Al  tau( 120) = (  0.2500169  0.8750033  0.3750019  )
       121           Al  tau( 121) = (  0.2500096  0.7499896  0.5000000  )
       122           Al  tau( 122) = (  0.3749875  0.8750070  0.5000000  )
       123           Al  tau( 123) = (  0.3749813  0.7500089  0.6250188  )
       124           Al  tau( 124) = (  0.2500169  0.8750033  0.6249981  )
       125           Al  tau( 125) = (  0.2500035  0.7499940  0.7499965  )
       126           Al  tau( 126) = (  0.3750019  0.8750033  0.7499831  )
       127           Al  tau( 127) = (  0.3750071  0.7499829  0.8750067  )
       128           Al  tau( 128) = (  0.2502694  0.8749160  0.8749215  )
       129           Al  tau( 129) = (  0.5000000  0.0000186  0.0000000  )
       130           Al  tau( 130) = (  0.6249655  0.1250029  0.0000000  )
       131           Al  tau( 131) = (  0.6249259  0.0000135  0.1249878  )
       132           Al  tau( 132) = (  0.5000000  0.1249906  0.1250042  )
       133           Al  tau( 133) = (  0.5000000  0.0000024  0.2500217  )
       134           Al  tau( 134) = (  0.6250072  0.1250029  0.2500013  )
       135           Al  tau( 135) = (  0.6249910  0.0000012  0.3750090  )
       136           Al  tau( 136) = (  0.5000000  0.1250039  0.3750122  )
       137           Al  tau( 137) = (  0.5000000  0.9999981  0.5000000  )
       138           Al  tau( 138) = (  0.6249878  0.1250039  0.5000000  )
       139           Al  tau( 139) = (  0.6249910  0.0000012  0.6249910  )
       140           Al  tau( 140) = (  0.5000000  0.1250039  0.6249878  )
       141           Al  tau( 141) = (  0.5000000  0.0000024  0.7499783  )
       142           Al  tau( 142) = (  0.6250072  0.1250029  0.7499987  )
       143           Al  tau( 143) = (  0.6249259  0.0000135  0.8750122  )
       144           Al  tau( 144) = (  0.5000000  0.1249906  0.8749958  )
       145           Al  tau( 145) = (  0.5000000  0.2500261  0.0000000  )
       146           Al  tau( 146) = (  0.6250373  0.3750028  0.0000000  )
       147           Al  tau( 147) = (  0.6250508  0.2500163  0.1249868  )
       148           Al  tau( 148) = (  0.5000000  0.3750083  0.1250131  )
       149           Al  tau( 149) = (  0.5000000  0.2500090  0.2499883  )
       150           Al  tau( 150) = (  0.6250111  0.3749837  0.2499758  )
       151           Al  tau( 151) = (  0.6249955  0.2499902  0.3750046  )
       152           Al  tau( 152) = (  0.5000000  0.3750091  0.3750179  )
       153           Al  tau( 153) = (  0.5000000  0.2500139  0.5000000  )
       154           Al  tau( 154) = (  0.6249821  0.3750091  0.5000000  )
       155           Al  tau( 155) = (  0.6249955  0.2499902  0.6249955  )
       156           Al  tau( 156) = (  0.5000000  0.3750091  0.6249821  )
       157           Al  tau( 157) = (  0.5000000  0.2500090  0.7500117  )
       158           Al  tau( 158) = (  0.6250111  0.3749837  0.7500242  )
       159           Al  tau( 159) = (  0.6250508  0.2500163  0.8750132  )
       160           Al  tau( 160) = (  0.5000000  0.3750083  0.8749869  )
       161           Al  tau( 161) = (  0.5000000  0.4999776  0.0000000  )
       162           Al  tau( 162) = (  0.6249887  0.6250025  0.0000000  )
       163           Al  tau( 163) = (  0.6250027  0.4999861  0.1249960  )
       164           Al  tau( 164) = (  0.5000000  0.6250092  0.1250044  )
       165           Al  tau( 165) = (  0.5000000  0.4999999  0.2500131  )
       166           Al  tau( 166) = (  0.6250011  0.6250088  0.2499937  )
       167           Al  tau( 167) = (  0.6249906  0.4999998  0.3750094  )
       168           Al  tau( 168) = (  0.5000000  0.6249806  0.3749971  )
       169           Al  tau( 169) = (  0.5000000  0.5000020  0.5000000  )
       170           Al  tau( 170) = (  0.6250029  0.6249806  0.5000000  )
       171           Al  tau( 171) = (  0.6249906  0.4999998  0.6249906  )
       172           Al  tau( 172) = (  0.5000000  0.6249806  0.6250029  )
       173           Al  tau( 173) = (  0.5000000  0.4999999  0.7499869  )
       174           Al  tau( 174) = (  0.6250011  0.6250088  0.7500063  )
       175           Al  tau( 175) = (  0.6250027  0.4999861  0.8750040  )
       176           Al  tau( 176) = (  0.5000000  0.6250092  0.8749956  )
       177           Al  tau( 177) = (  0.5000000  0.7499784  0.0000000  )
       178           Al  tau( 178) = (  0.6249095  0.8749896  0.0000000  )
       179           Al  tau( 179) = (  0.6249929  0.7499829  0.1249933  )
       180           Al  tau( 180) = (  0.5000000  0.8749928  0.1249990  )
       181           Al  tau( 181) = (  0.5000000  0.7499896  0.2500096  )
       182           Al  tau( 182) = (  0.6249981  0.8750033  0.2500169  )
       183           Al  tau( 183) = (  0.6250188  0.7500089  0.3749813  )
       184           Al  tau( 184) = (  0.5000000  0.8750070  0.3749875  )
       185           Al  tau( 185) = (  0.5000000  0.7499874  0.5000000  )
       186           Al  tau( 186) = (  0.6250125  0.8750070  0.5000000  )
       187           Al  tau( 187) = (  0.6250188  0.7500089  0.6250188  )
       188           Al  tau( 188) = (  0.5000000  0.8750070  0.6250125  )
       189           Al  tau( 189) = (  0.5000000  0.7499896  0.7499904  )
       190           Al  tau( 190) = (  0.6249981  0.8750033  0.7499831  )
       191           Al  tau( 191) = (  0.6249929  0.7499829  0.8750067  )
       192           Al  tau( 192) = (  0.5000000  0.8749928  0.8750010  )
       193           Al  tau( 193) = (  0.7499807  0.0001301  0.0000000  )
       194           Al  tau( 194) = (  0.8743993  0.1271137  0.0000000  )
       195           Al  tau( 195) = (  0.8735780  0.0000628  0.1264220  )
       196           Al  tau( 196) = (  0.7497993  0.1250938  0.1250776  )
       197           Al  tau( 197) = (  0.7498345  0.9999568  0.2501655  )
       198           Al  tau( 198) = (  0.8749224  0.1250938  0.2502007  )
       199           Al  tau( 199) = (  0.8750122  0.0000135  0.3750741  )
       200           Al  tau( 200) = (  0.7499987  0.1250029  0.3749928  )
       201           Al  tau( 201) = (  0.7499783  0.0000024  0.5000000  )
       202           Al  tau( 202) = (  0.8749958  0.1249906  0.5000000  )
       203           Al  tau( 203) = (  0.8750122  0.0000135  0.6249259  )
       204           Al  tau( 204) = (  0.7499987  0.1250029  0.6250072  )
       205           Al  tau( 205) = (  0.7498345  0.9999568  0.7498345  )
       206           Al  tau( 206) = (  0.8749224  0.1250938  0.7497993  )
       207           Al  tau( 207) = (  0.8735780  0.0000628  0.8735780  )
       208           Al  tau( 208) = (  0.7497993  0.1250938  0.8749224  )
       209           Al  tau( 209) = (  0.7501959  0.2501115  0.0000000  )
       210           Al  tau( 210) = (  0.8757267  0.3743545  0.0000000  )
       211           Al  tau( 211) = (  0.8755778  0.2502903  0.1244222  )
       212           Al  tau( 212) = (  0.7500662  0.3749898  0.1249795  )
       213           Al  tau( 213) = (  0.7501086  0.2500095  0.2498914  )
       214           Al  tau( 214) = (  0.8750205  0.3749898  0.2499339  )
       215           Al  tau( 215) = (  0.8750132  0.2500163  0.3749492  )
       216           Al  tau( 216) = (  0.7500242  0.3749837  0.3749889  )
       217           Al  tau( 217) = (  0.7500117  0.2500090  0.5000000  )
       218           Al  tau( 218) = (  0.8749869  0.3750083  0.5000000  )
       219           Al  tau( 219) = (  0.8750132  0.2500163  0.6250508  )
       220           Al  tau( 220) = (  0.7500242  0.3749837  0.6250111  )
       221           Al  tau( 221) = (  0.7501086  0.2500095  0.7501086  )
       222           Al  tau( 222) = (  0.8750205  0.3749898  0.7500662  )
       223           Al  tau( 223) = (  0.8755778  0.2502903  0.8755778  )
       224           Al  tau( 224) = (  0.7500662  0.3749898  0.8750205  )
       225           Al  tau( 225) = (  0.7500871  0.4998848  0.0000000  )
       226           Al  tau( 226) = (  0.8750042  0.6248671  0.0000000  )
       227           Al  tau( 227) = (  0.8750142  0.4999008  0.1249858  )
       228           Al  tau( 228) = (  0.7499958  0.6250001  0.1249882  )
       229           Al  tau( 229) = (  0.7499573  0.5000352  0.2500427  )
       230           Al  tau( 230) = (  0.8750118  0.6250001  0.2500042  )
       231           Al  tau( 231) = (  0.8750040  0.4999861  0.3749973  )
       232           Al  tau( 232) = (  0.7500063  0.6250088  0.3749989  )
       233           Al  tau( 233) = (  0.7499869  0.4999999  0.5000000  )
       234           Al  tau( 234) = (  0.8749956  0.6250092  0.5000000  )
       235           Al  tau( 235) = (  0.8750040  0.4999861  0.6250027  )
       236           Al  tau( 236) = (  0.7500063  0.6250088  0.6250011  )
       237           Al  tau( 237) = (  0.7499573  0.5000352  0.7499573  )
       238           Al  tau( 238) = (  0.8750118  0.6250001  0.7499958  )
       239           Al  tau( 239) = (  0.8750142  0.4999008  0.8750142  )
       240           Al  tau( 240) = (  0.7499958  0.6250001  0.8750118  )
       241           Al  tau( 241) = (  0.7498931  0.7498775  0.0000000  )
       242           Al  tau( 242) = (  0.8735886  0.8736216  0.0000000  )
       243           Al  tau( 243) = (  0.8749060  0.7497229  0.1250940  )
       244           Al  tau( 244) = (  0.7497306  0.8749160  0.1250785  )
       245           Al  tau( 245) = (  0.7499965  0.7499940  0.2500035  )
       246           Al  tau( 246) = (  0.8749215  0.8749160  0.2502694  )
       247           Al  tau( 247) = (  0.8750067  0.7499829  0.3750071  )
       248           Al  tau( 248) = (  0.7499831  0.8750033  0.3750019  )
       249           Al  tau( 249) = (  0.7499904  0.7499896  0.5000000  )
       250           Al  tau( 250) = (  0.8750010  0.8749928  0.5000000  )
       251           Al  tau( 251) = (  0.8750067  0.7499829  0.6249929  )
       252           Al  tau( 252) = (  0.7499831  0.8750033  0.6249981  )
       253           Al  tau( 253) = (  0.7499965  0.7499940  0.7499965  )
       254           Al  tau( 254) = (  0.8749215  0.8749160  0.7497306  )
       255           Al  tau( 255) = (  0.8749060  0.7497229  0.8749060  )
       256           Al  tau( 256) = (  0.7497306  0.8749160  0.8749215  )

     number of k points=    63  Methfessel-Paxton smearing, width (Ry)=  0.0441
                       cart. coord. in units 2pi/alat
        k(    1) = (   0.0000000   0.0000000   0.0000000), wk =   0.0160000
        k(    2) = (   0.0000000   0.0000000   0.2000000), wk =   0.0320000
        k(    3) = (   0.0000000   0.0000000   0.4000000), wk =   0.0320000
        k(    4) = (   0.0000000   0.2000000   0.0000000), wk =   0.0320000
        k(    5) = (   0.0000000   0.2000000   0.2000000), wk =   0.0320000
        k(    6) = (   0.0000000   0.2000000   0.4000000), wk =   0.0320000
        k(    7) = (   0.0000000   0.2000000  -0.4000000), wk =   0.0320000
        k(    8) = (   0.0000000   0.2000000  -0.2000000), wk =   0.0320000
        k(    9) = (   0.0000000   0.4000000   0.0000000), wk =   0.0320000
        k(   10) = (   0.0000000   0.4000000   0.2000000), wk =   0.0320000
        k(   11) = (   0.0000000   0.4000000   0.4000000), wk =   0.0320000
        k(   12) = (   0.0000000   0.4000000  -0.4000000), wk =   0.0320000
        k(   13) = (   0.0000000   0.4000000  -0.2000000), wk =   0.0320000
        k(   14) = (   0.2000000   0.0000000   0.0000000), wk =   0.0320000
        k(   15) = (   0.2000000   0.0000000   0.2000000), wk =   0.0320000
        k(   16) = (   0.2000000   0.0000000   0.4000000), wk =   0.0320000
        k(   17) = (   0.2000000   0.0000000  -0.4000000), wk =   0.0320000
        k(   18) = (   0.2000000   0.0000000  -0.2000000), wk =   0.0320000
        k(   19) = (   0.2000000   0.2000000   0.0000000), wk =   0.0320000
        k(   20) = (   0.2000000   0.2000000   0.2000000), wk =   0.0320000
        k(   21) = (   0.2000000   0.2000000   0.4000000), wk =   0.0320000
        k(   22) = (   0.2000000   0.2000000  -0.4000000), wk =   0.0320000
        k(   23) = (   0.2000000   0.2000000  -0.2000000), wk =   0.0320000
        k(   24) = (   0.2000000   0.4000000   0.0000000), wk =   0.0320000
        k(   25) = (   0.2000000   0.4000000   0.2000000), wk =   0.0320000
        k(   26) = (   0.2000000   0.4000000   0.4000000), wk =   0.0320000
        k(   27) = (   0.2000000   0.4000000  -0.4000000), wk =   0.0320000
        k(   28) = (   0.2000000   0.4000000  -0.2000000), wk =   0.0320000
        k(   29) = (   0.2000000  -0.4000000   0.0000000), wk =   0.0320000
        k(   30) = (   0.2000000  -0.4000000   0.2000000), wk =   0.0320000
        k(   31) = (   0.2000000  -0.4000000   0.4000000), wk =   0.0320000
        k(   32) = (   0.2000000  -0.4000000  -0.4000000), wk =   0.0320000
        k(   33) = (   0.2000000  -0.4000000  -0.2000000), wk =   0.0320000
        k(   34) = (   0.2000000  -0.2000000   0.0000000), wk =   0.0320000
        k(   35) = (   0.2000000  -0.2000000   0.2000000), wk =   0.0320000
        k(   36) = (   0.2000000  -0.2000000   0.4000000), wk =   0.0320000
        k(   37) = (   0.2000000  -0.2000000  -0.4000000), wk =   0.0320000
        k(   38) = (   0.2000000  -0.2000000  -0.2000000), wk =   0.0320000
        k(   39) = (   0.4000000   0.0000000   0.0000000), wk =   0.0320000
        k(   40) = (   0.4000000   0.0000000   0.2000000), wk =   0.0320000
        k(   41) = (   0.4000000   0.0000000   0.4000000), wk =   0.0320000
        k(   42) = (   0.4000000   0.0000000  -0.4000000), wk =   0.0320000
        k(   43) = (   0.4000000   0.0000000  -0.2000000), wk =   0.0320000
        k(   44) = (   0.4000000   0.2000000   0.0000000), wk =   0.0320000
        k(   45) = (   0.4000000   0.2000000   0.2000000), wk =   0.0320000
        k(   46) = (   0.4000000   0.2000000   0.4000000), wk =   0.0320000
        k(   47) = (   0.4000000   0.2000000  -0.4000000), wk =   0.0320000
        k(   48) = (   0.4000000   0.2000000  -0.2000000), wk =   0.0320000
        k(   49) = (   0.4000000   0.4000000   0.0000000), wk =   0.0320000
        k(   50) = (   0.4000000   0.4000000   0.2000000), wk =   0.0320000
        k(   51) = (   0.4000000   0.4000000   0.4000000), wk =   0.0320000
        k(   52) = (   0.4000000   0.4000000  -0.4000000), wk =   0.0320000
        k(   53) = (   0.4000000   0.4000000  -0.2000000), wk =   0.0320000
        k(   54) = (   0.4000000  -0.4000000   0.0000000), wk =   0.0320000
        k(   55) = (   0.4000000  -0.4000000   0.2000000), wk =   0.0320000
        k(   56) = (   0.4000000  -0.4000000   0.4000000), wk =   0.0320000
        k(   57) = (   0.4000000  -0.4000000  -0.4000000), wk =   0.0320000
        k(   58) = (   0.4000000  -0.4000000  -0.2000000), wk =   0.0320000
        k(   59) = (   0.4000000  -0.2000000   0.0000000), wk =   0.0320000
        k(   60) = (   0.4000000  -0.2000000   0.2000000), wk =   0.0320000
        k(   61) = (   0.4000000  -0.2000000   0.4000000), wk =   0.0320000
        k(   62) = (   0.4000000  -0.2000000  -0.4000000), wk =   0.0320000
        k(   63) = (   0.4000000  -0.2000000  -0.2000000), wk =   0.0320000

                       cryst. coord.
        k(    1) = (   0.0000000   0.0000000   0.0000000), wk =   0.0160000
        k(    2) = (   0.0000000   0.0000000   0.2000000), wk =   0.0320000
        k(    3) = (   0.0000000   0.0000000   0.4000000), wk =   0.0320000
        k(    4) = (   0.0000000   0.2000000   0.0000000), wk =   0.0320000
        k(    5) = (   0.0000000   0.2000000   0.2000000), wk =   0.0320000
        k(    6) = (   0.0000000   0.2000000   0.4000000), wk =   0.0320000
        k(    7) = (   0.0000000   0.2000000  -0.4000000), wk =   0.0320000
        k(    8) = (   0.0000000   0.2000000  -0.2000000), wk =   0.0320000
        k(    9) = (   0.0000000   0.4000000   0.0000000), wk =   0.0320000
        k(   10) = (   0.0000000   0.4000000   0.2000000), wk =   0.0320000
        k(   11) = (   0.0000000   0.4000000   0.4000000), wk =   0.0320000
        k(   12) = (   0.0000000   0.4000000  -0.4000000), wk =   0.0320000
        k(   13) = (   0.0000000   0.4000000  -0.2000000), wk =   0.0320000
        k(   14) = (   0.2000000   0.0000000   0.0000000), wk =   0.0320000
        k(   15) = (   0.2000000   0.0000000   0.2000000), wk =   0.0320000
        k(   16) = (   0.2000000   0.0000000   0.4000000), wk =   0.0320000
        k(   17) = (   0.2000000   0.0000000  -0.4000000), wk =   0.0320000
        k(   18) = (   0.2000000   0.0000000  -0.2000000), wk =   0.0320000
        k(   19) = (   0.2000000   0.2000000   0.0000000), wk =   0.0320000
        k(   20) = (   0.2000000   0.2000000   0.2000000), wk =   0.0320000
        k(   21) = (   0.2000000   0.2000000   0.4000000), wk =   0.0320000
        k(   22) = (   0.2000000   0.2000000  -0.4000000), wk =   0.0320000
        k(   23) = (   0.2000000   0.2000000  -0.2000000), wk =   0.0320000
        k(   24) = (   0.2000000   0.4000000   0.0000000), wk =   0.0320000
        k(   25) = (   0.2000000   0.4000000   0.2000000), wk =   0.0320000
        k(   26) = (   0.2000000   0.4000000   0.4000000), wk =   0.0320000
        k(   27) = (   0.2000000   0.4000000  -0.4000000), wk =   0.0320000
        k(   28) = (   0.2000000   0.4000000  -0.2000000), wk =   0.0320000
        k(   29) = (   0.2000000  -0.4000000   0.0000000), wk =   0.0320000
        k(   30) = (   0.2000000  -0.4000000   0.2000000), wk =   0.0320000
        k(   31) = (   0.2000000  -0.4000000   0.4000000), wk =   0.0320000
        k(   32) = (   0.2000000  -0.4000000  -0.4000000), wk =   0.0320000
        k(   33) = (   0.2000000  -0.4000000  -0.2000000), wk =   0.0320000
        k(   34) = (   0.2000000  -0.2000000   0.0000000), wk =   0.0320000
        k(   35) = (   0.2000000  -0.2000000   0.2000000), wk =   0.0320000
        k(   36) = (   0.2000000  -0.2000000   0.4000000), wk =   0.0320000
        k(   37) = (   0.2000000  -0.2000000  -0.4000000), wk =   0.0320000
        k(   38) = (   0.2000000  -0.2000000  -0.2000000), wk =   0.0320000
        k(   39) = (   0.4000000   0.0000000   0.0000000), wk =   0.0320000
        k(   40) = (   0.4000000   0.0000000   0.2000000), wk =   0.0320000
        k(   41) = (   0.4000000   0.0000000   0.4000000), wk =   0.0320000
        k(   42) = (   0.4000000   0.0000000  -0.4000000), wk =   0.0320000
        k(   43) = (   0.4000000   0.0000000  -0.2000000), wk =   0.0320000
        k(   44) = (   0.4000000   0.2000000   0.0000000), wk =   0.0320000
        k(   45) = (   0.4000000   0.2000000   0.2000000), wk =   0.0320000
        k(   46) = (   0.4000000   0.2000000   0.4000000), wk =   0.0320000
        k(   47) = (   0.4000000   0.2000000  -0.4000000), wk =   0.0320000
        k(   48) = (   0.4000000   0.2000000  -0.2000000), wk =   0.0320000
        k(   49) = (   0.4000000   0.4000000   0.0000000), wk =   0.0320000
        k(   50) = (   0.4000000   0.4000000   0.2000000), wk =   0.0320000
        k(   51) = (   0.4000000   0.4000000   0.4000000), wk =   0.0320000
        k(   52) = (   0.4000000   0.4000000  -0.4000000), wk =   0.0320000
        k(   53) = (   0.4000000   0.4000000  -0.2000000), wk =   0.0320000
        k(   54) = (   0.4000000  -0.4000000   0.0000000), wk =   0.0320000
        k(   55) = (   0.4000000  -0.4000000   0.2000000), wk =   0.0320000
        k(   56) = (   0.4000000  -0.4000000   0.4000000), wk =   0.0320000
        k(   57) = (   0.4000000  -0.4000000  -0.4000000), wk =   0.0320000
        k(   58) = (   0.4000000  -0.4000000  -0.2000000), wk =   0.0320000
        k(   59) = (   0.4000000  -0.2000000   0.0000000), wk =   0.0320000
        k(   60) = (   0.4000000  -0.2000000   0.2000000), wk =   0.0320000
        k(   61) = (   0.4000000  -0.2000000   0.4000000), wk =   0.0320000
        k(   62) = (   0.4000000  -0.2000000  -0.4000000), wk =   0.0320000
        k(   63) = (   0.4000000  -0.2000000  -0.2000000), wk =   0.0320000

     Dense  grid:  3895379 G-vectors     FFT dimensions: ( 200, 200, 200)

     Smooth grid:   985619 G-vectors     FFT dimensions: ( 125, 125, 125)

     Dynamical RAM for                 wfc:     108.33 MB

     Dynamical RAM for     wfc (w. buffer):     324.98 MB

     Dynamical RAM for           str. fact:      22.29 MB

     Dynamical RAM for           local pot:       0.00 MB

     Dynamical RAM for          nlocal pot:    1080.46 MB

     Dynamical RAM for                qrad:      23.47 MB

     Dynamical RAM for          rho,v,vnew:      45.18 MB

     Dynamical RAM for               rhoin:      15.06 MB

     Dynamical RAM for            rho*nmix:     118.88 MB

     Dynamical RAM for           G-vectors:      28.80 MB

     Dynamical RAM for          h,s,v(r/c):      38.91 MB

     Dynamical RAM for          <psi|beta>:      32.34 MB

     Dynamical RAM for                 psi:     433.31 MB

     Dynamical RAM for                hpsi:     433.31 MB

     Dynamical RAM for                spsi:     433.31 MB

     Dynamical RAM for      wfcinit/wfcrot:     505.26 MB

     Dynamical RAM for           addusdens:      98.03 MB

     Dynamical RAM for          addusforce:     201.19 MB

     Dynamical RAM for         addusstress:      45.09 MB

     Estimated static dynamical RAM per process >       1.69 GB

     Estimated max dynamical RAM per process >       3.03 GB

     Estimated total dynamical RAM >     871.36 GB

     Initial potential from superposition of free atoms

     starting charge  767.41680, renormalised to  768.00000
     Starting wfcs are 1024 randomized atomic wfcs
     Checking if some PAW data can be deallocated... 
       PAW data deallocated on  286 nodes for type:  1
       PAW data deallocated on    4 nodes for type:  2

     total cpu time spent up to now is      204.0 secs

     Self-consistent Calculation

     iteration #  1     ecut=    40.00 Ry     beta= 0.40
     Davidson diagonalization with overlap
     ethr =  1.00E-02,  avg # of iterations =  3.0

     Threshold (ethr) on eigenvalues was too large:
     Diagonalizing with lowered threshold

     Davidson diagonalization with overlap
     ethr =  1.88E-04,  avg # of iterations =  7.8

     total cpu time spent up to now is      971.3 secs

     total energy              =  -10078.88274886 Ry
     Harris-Foulkes estimate   =  -10079.04947467 Ry
     estimated scf accuracy    <       1.46311051 Ry

     iteration #  2     ecut=    40.00 Ry     beta= 0.40
     Davidson diagonalization with overlap
     ethr =  1.91E-04,  avg # of iterations =  1.0

     total cpu time spent up to now is     1200.1 secs

     total energy              =  -10078.67515577 Ry
     Harris-Foulkes estimate   =  -10078.88943464 Ry
     estimated scf accuracy    <       0.76242453 Ry

     iteration #  3     ecut=    40.00 Ry     beta= 0.40
     Davidson diagonalization with overlap
     ethr =  9.93E-05,  avg # of iterations =  1.0

     total cpu time spent up to now is     1429.0 secs

     total energy              =  -10078.68984779 Ry
     Harris-Foulkes estimate   =  -10078.69227468 Ry
     estimated scf accuracy    <       0.00375698 Ry

     iteration #  4     ecut=    40.00 Ry     beta= 0.40
     Davidson diagonalization with overlap
     c_bands:  2 eigenvalues not converged
     ethr =  4.89E-07,  avg # of iterations = 20.0

     total cpu time spent up to now is     2158.3 secs

     total energy              =  -10078.69354154 Ry
     Harris-Foulkes estimate   =  -10078.69338940 Ry
     estimated scf accuracy    <       0.00552098 Ry

     iteration #  5     ecut=    40.00 Ry     beta= 0.40
     Davidson diagonalization with overlap
     c_bands:  2 eigenvalues not converged
     ethr =  4.89E-07,  avg # of iterations =  9.5

     total cpu time spent up to now is     2459.6 secs

     total energy              =  -10078.69174236 Ry
     Harris-Foulkes estimate   =  -10078.69354673 Ry
     estimated scf accuracy    <       0.00687187 Ry

     iteration #  6     ecut=    40.00 Ry     beta= 0.40
     Davidson diagonalization with overlap
     c_bands:  1 eigenvalues not converged
     ethr =  4.89E-07,  avg # of iterations =  6.4

     total cpu time spent up to now is     2806.7 secs

     total energy              =  -10078.69250488 Ry
     Harris-Foulkes estimate   =  -10078.69261029 Ry
     estimated scf accuracy    <       0.00116165 Ry

     iteration #  7     ecut=    40.00 Ry     beta= 0.40
     Davidson diagonalization with overlap
     ethr =  1.51E-07,  avg # of iterations =  2.2

     total cpu time spent up to now is     3046.3 secs

     total energy              =  -10078.69252181 Ry
     Harris-Foulkes estimate   =  -10078.69254282 Ry
     estimated scf accuracy    <       0.00036409 Ry

     iteration #  8     ecut=    40.00 Ry     beta= 0.40
     Davidson diagonalization with overlap
     ethr =  4.74E-08,  avg # of iterations =  2.7

     total cpu time spent up to now is     3284.8 secs

     total energy              =  -10078.69252874 Ry
     Harris-Foulkes estimate   =  -10078.69253358 Ry
     estimated scf accuracy    <       0.00015756 Ry

     iteration #  9     ecut=    40.00 Ry     beta= 0.40
     Davidson diagonalization with overlap
     ethr =  2.05E-08,  avg # of iterations =  2.4

     total cpu time spent up to now is     3522.6 secs

     total energy              =  -10078.69251865 Ry
     Harris-Foulkes estimate   =  -10078.69253192 Ry
     estimated scf accuracy    <       0.00010678 Ry

     iteration # 10     ecut=    40.00 Ry     beta= 0.40
     Davidson diagonalization with overlap
     ethr =  1.39E-08,  avg # of iterations =  3.0

     total cpu time spent up to now is     3775.1 secs

     total energy              =  -10078.69252721 Ry
     Harris-Foulkes estimate   =  -10078.69252717 Ry
     estimated scf accuracy    <       0.00000034 Ry

     iteration # 11     ecut=    40.00 Ry     beta= 0.40
     Davidson diagonalization with overlap
     ethr =  4.48E-11,  avg # of iterations =  6.9

     total cpu time spent up to now is     4285.7 secs

     total energy              =  -10078.69252708 Ry
     Harris-Foulkes estimate   =  -10078.69252705 Ry
     estimated scf accuracy    <       0.00000028 Ry

     iteration # 12     ecut=    40.00 Ry     beta= 0.40
     Davidson diagonalization with overlap
     ethr =  3.61E-11,  avg # of iterations =  1.3

     total cpu time spent up to now is     4544.1 secs

     total energy              =  -10078.69252673 Ry
     Harris-Foulkes estimate   =  -10078.69252694 Ry
     estimated scf accuracy    <       0.00000046 Ry

     iteration # 13     ecut=    40.00 Ry     beta= 0.40
     Davidson diagonalization with overlap
     ethr =  3.61E-11,  avg # of iterations =  4.7

     total cpu time spent up to now is     4986.3 secs

     total energy              =  -10078.69252547 Ry
     Harris-Foulkes estimate   =  -10078.69252572 Ry
     estimated scf accuracy    <       0.00000246 Ry

     iteration # 14     ecut=    40.00 Ry     beta= 0.40
     Davidson diagonalization with overlap
     ethr =  3.61E-11,  avg # of iterations =  3.0

     total cpu time spent up to now is     5272.4 secs

     total energy              =  -10078.69252548 Ry
     Harris-Foulkes estimate   =  -10078.69252550 Ry
     estimated scf accuracy    <       0.00000025 Ry

     iteration # 15     ecut=    40.00 Ry     beta= 0.40
     Davidson diagonalization with overlap
     ethr =  3.25E-11,  avg # of iterations =  1.1

     total cpu time spent up to now is     5503.4 secs

     total energy              =  -10078.69252547 Ry
     Harris-Foulkes estimate   =  -10078.69252547 Ry
     estimated scf accuracy    <       0.00000004 Ry

     iteration # 16     ecut=    40.00 Ry     beta= 0.40
     Davidson diagonalization with overlap
     ethr =  4.93E-12,  avg # of iterations =  4.3

     total cpu time spent up to now is     5858.2 secs

     total energy              =  -10078.69252510 Ry
     Harris-Foulkes estimate   =  -10078.69252511 Ry
     estimated scf accuracy    <       0.00000004 Ry

     iteration # 17     ecut=    40.00 Ry     beta= 0.40
     Davidson diagonalization with overlap
     ethr =  4.93E-12,  avg # of iterations =  2.0

     total cpu time spent up to now is     6102.7 secs

     total energy              =  -10078.69252507 Ry
     Harris-Foulkes estimate   =  -10078.69252507 Ry
     estimated scf accuracy    <          2.7E-09 Ry

     iteration # 18     ecut=    40.00 Ry     beta= 0.40
     Davidson diagonalization with overlap
     ethr =  3.53E-13,  avg # of iterations =  3.0

     total cpu time spent up to now is     6388.4 secs

     total energy              =  -10078.69252506 Ry
     Harris-Foulkes estimate   =  -10078.69252506 Ry
     estimated scf accuracy    <          3.7E-09 Ry

     iteration # 19     ecut=    40.00 Ry     beta= 0.40
     Davidson diagonalization with overlap
     ethr =  3.53E-13,  avg # of iterations =  2.0

     total cpu time spent up to now is     6632.3 secs

     total energy              =  -10078.69252506 Ry
     Harris-Foulkes estimate   =  -10078.69252506 Ry
     estimated scf accuracy    <          1.2E-10 Ry

     iteration # 20     ecut=    40.00 Ry     beta= 0.40
     Davidson diagonalization with overlap
     ethr =  1.00E-13,  avg # of iterations =  1.7

     total cpu time spent up to now is     6864.5 secs

     total energy              =  -10078.69252506 Ry
     Harris-Foulkes estimate   =  -10078.69252505 Ry
     estimated scf accuracy    <          3.6E-11 Ry

     iteration # 21     ecut=    40.00 Ry     beta= 0.40
     Davidson diagonalization with overlap
     ethr =  1.00E-13,  avg # of iterations =  1.0

     total cpu time spent up to now is     7093.8 secs

     total energy              =  -10078.69252505 Ry
     Harris-Foulkes estimate   =  -10078.69252505 Ry
     estimated scf accuracy    <          1.0E-10 Ry

     iteration # 22     ecut=    40.00 Ry     beta= 0.40
     Davidson diagonalization with overlap
     ethr =  1.00E-13,  avg # of iterations =  1.0

     total cpu time spent up to now is     7322.7 secs

     total energy              =  -10078.69252505 Ry
     Harris-Foulkes estimate   =  -10078.69252505 Ry
     estimated scf accuracy    <          1.0E-10 Ry

     iteration # 23     ecut=    40.00 Ry     beta= 0.40
     Davidson diagonalization with overlap
     ethr =  1.00E-13,  avg # of iterations =  1.0

     total cpu time spent up to now is     7552.0 secs

     total energy              =  -10078.69252505 Ry
     Harris-Foulkes estimate   =  -10078.69252505 Ry
     estimated scf accuracy    <          9.2E-11 Ry

     iteration # 24     ecut=    40.00 Ry     beta= 0.40
     Davidson diagonalization with overlap
     ethr =  1.00E-13,  avg # of iterations =  1.0

     total cpu time spent up to now is     7780.7 secs

     total energy              =  -10078.69252505 Ry
     Harris-Foulkes estimate   =  -10078.69252505 Ry
     estimated scf accuracy    <          2.8E-11 Ry

     iteration # 25     ecut=    40.00 Ry     beta= 0.40
     Davidson diagonalization with overlap
     ethr =  1.00E-13,  avg # of iterations =  1.0

     total cpu time spent up to now is     8009.1 secs

     End of self-consistent calculation

          k = 0.0000 0.0000 0.0000 (123065 PWs)   bands (ev):

    -3.2943  -2.8596  -2.7162  -2.7162  -2.7157  -2.7153  -2.6881  -2.3509
    -2.1618  -2.1618  -2.1582  -2.1570  -2.1570  -2.1568  -2.1558  -2.1555
    -2.1517  -2.1517  -2.0764  -1.7038  -1.6076  -1.6076  -1.6026  -1.5997
    -1.5909  -1.5909  -1.5419  -1.1486  -1.0453  -1.0441  -1.0441  -1.0433
    -1.0112  -0.7481  -0.5191  -0.5191  -0.5051  -0.4990  -0.4956  -0.4956
    -0.4954  -0.4932  -0.4924  -0.4924  -0.4919  -0.4918  -0.4918  -0.4918
    -0.4916  -0.4903  -0.4903  -0.4895  -0.4864  -0.4748  -0.4641  -0.4641
    -0.3566  -0.0822   0.0289   0.0289   0.0451   0.0531   0.0549   0.0554
     0.0554   0.0565   0.0567   0.0572   0.0572   0.0580   0.0582   0.0588
     0.0588   0.0610   0.0610   0.0611   0.0624   0.0783   0.0972   0.0972
     0.2439   1.0271   1.1313   1.1313   1.1521   1.1527   1.1529   1.1552
     1.1553   1.1553   1.1725   1.1725   1.2094   1.4894   1.6485   1.6485
     1.6612   1.6834   1.6865   1.6921   1.6934   1.6934   1.6950   1.6957
     1.6957   1.6960   1.6961   1.6966   1.6970   1.6970   1.6971   1.6975
     1.6975   1.6988   1.7005   1.7029   1.7029   1.7041   1.7062   1.7273
     1.7446   1.7446   1.8158   2.1346   2.1975   2.1975   2.2080   2.2204
     2.2254   2.2254   2.2309   2.2317   2.2325   2.2325   2.2329   2.2342
     2.2342   2.2343   2.2345   2.2347   2.2372   2.2372   2.2461   2.2714
     2.2725   2.2725   2.3587   2.6647   2.7327   2.7327   2.7452   2.7622
     2.7655   2.7655   2.7667   2.7682   2.7685   2.7685   2.7705   2.7722
     2.7739   2.7755   2.7755   2.7799   2.7799   2.7804   2.7874   2.8128
     2.8188   2.8188   2.9141   3.2313   3.2331   3.2331   3.2342   3.4059
     3.4179   3.4184   3.4184   3.7313   3.7970   3.7970   3.8117   3.8386
     3.8386   3.8390   3.8417   3.8434   3.8441   3.8441   3.8444   3.8471
     3.8471   3.8471   3.8484   3.8528   3.8532   3.8572   3.8572   3.8729
     3.8834   3.8834   3.9403   4.2059   4.2059   4.2073   4.2668   4.2679
     4.2687   4.2694   4.2694   4.2703   4.2709   4.2711   4.2711   4.2716
     4.2720   4.2723   4.2723   4.2729   4.2740   4.2740   4.2792   4.2833
     4.3052   4.3399   4.3399   4.3500   4.4891   4.4912   4.4912   4.4954
     4.4954   4.4995   4.5001   4.5015   4.5015   4.5018   4.5020   4.5023
     4.5034   4.5038   4.5038   4.5064   4.5071   4.5190   4.5190   4.5257
     4.5257   4.5291   4.7375   4.8871   4.8871   4.8910   5.3558   5.3558
     5.3981   5.3985   5.3985   5.3998   5.4003   5.4003   5.4003   5.4084
     5.4347   5.4347   5.8497   5.8567   5.8567   5.8855   5.9095   5.9104
     5.9154   5.9156   5.9156   5.9175   5.9183   5.9393   5.9393   5.9697
     5.9762   5.9762   5.9806   5.9839   5.9839   5.9857   5.9871   5.9874
     5.9880   5.9880   5.9881   5.9881   5.9881   5.9886   6.0000   6.0018
     6.0018   6.0079   6.0088   6.0307   6.0307   6.0452   6.1841   6.1844
     6.2120   6.4166   6.4210   6.4210   6.4343   6.4416   6.4416   6.4421
     6.4440   6.4450   6.4542   6.4642   6.4642   6.6390   6.7116   6.7202
     6.7202   6.7203   6.7203   6.7205   6.7208   6.7216   6.7345   6.7433
     6.7825   6.8908   6.8908   6.9202   6.9435   6.9435   6.9483   6.9488
     6.9510   6.9565   6.9565   6.9676   6.9720   6.9720   7.0017   7.0017
     7.0133   7.0229   7.0261   7.0271   7.0271   7.0274   7.0296   7.0296
     7.0307   7.0307   7.0322   7.0328   7.0335   7.0398   7.0460   7.0460
     7.0520   7.0643   7.0880   7.0880   7.0910   7.2806   7.3590   7.3607
     7.3607   7.3615   7.3643   7.3643   7.3661   7.3661   7.3706   7.3784
     7.4143   7.4143   7.4543   7.4581   7.4593   7.4611   7.4611   7.4629
     7.4647   7.4651   7.4652   7.4652   7.4653   7.4666   7.4674   7.4674
     7.4743   7.4784   7.4807   7.4844   7.4844   7.4855   7.5418   7.5426
     7.5426   7.9572   7.9729   7.9729   7.9742   7.9775   7.9874   8.4495
     8.5594   8.5620   8.5620   8.5995   8.6038   8.6038   8.6054   8.6064
     8.6076   8.6076   8.6094   8.6095   8.6098   8.6099   8.6099   8.6160
     8.6192   8.6192   8.6234   8.6306   8.6344   8.6450   8.6450   8.7352
     8.8263   8.8277   8.8277   8.8278   8.8485   8.8706   8.8838   8.8838
     8.8938   8.8972   8.9071   8.9087   8.9087   8.9112   8.9120   8.9120
     8.9128   8.9132   8.9132   8.9139   8.9144   8.9144   8.9148   8.9152
     8.9287   8.9386   8.9386   8.9409   9.0117

     occupation numbers 
     1.0000   1.0000   1.0000   1.0000   1.0000   1.0000   1.0000   1.0000
     1.0000   1.0000   1.0000   1.0000   1.0000   1.0000   1.0000   1.0000
     1.0000   1.0000   1.0000   1.0000   1.0000   1.0000   1.0000   1.0000
     1.0000   1.0000   1.0000   1.0000   1.0000   1.0000   1.0000   1.0000
     1.0000   1.0000   1.0000   1.0000   1.0000   1.0000   1.0000   1.0000
     1.0000   1.0000   1.0000   1.0000   1.0000   1.0000   1.0000   1.0000
     1.0000   1.0000   1.0000   1.0000   1.0000   1.0000   1.0000   1.0000
     1.0000   1.0000   1.0000   1.0000   1.0000   1.0000   1.0000   1.0000
     1.0000   1.0000   1.0000   1.0000   1.0000   1.0000   1.0000   1.0000
     1.0000   1.0000   1.0000   1.0000   1.0000   1.0000   1.0000   1.0000
     1.0000   1.0000   1.0000   1.0000   1.0000   1.0000   1.0000   1.0000
     1.0000   1.0000   1.0000   1.0000   1.0000   1.0000   1.0000   1.0000
     1.0000   1.0000   1.0000   1.0000   1.0000   1.0000   1.0000   1.0000
     1.0000   1.0000   1.0000   1.0000   1.0000   1.0000   1.0000   1.0000
     1.0000   1.0000   1.0000   1.0000   1.0000   1.0000   1.0000   1.0000
     1.0000   1.0000   1.0000   1.0000   1.0000   1.0000   1.0000   1.0000
     1.0000   1.0000   1.0000   1.0000   1.0000   1.0000   1.0000   1.0000
     1.0000   1.0000   1.0000   1.0000   1.0000   1.0000   1.0000   1.0000
     1.0000   1.0000   1.0000   1.0000   1.0000   1.0000   1.0000   1.0000
     1.0000   1.0000   1.0000   1.0000   1.0000   1.0000   1.0000   1.0000
     1.0000   1.0000   1.0000   1.0000   1.0000   1.0000   1.0000   1.0000
     1.0000   1.0000   1.0000   1.0000   1.0000   1.0000   1.0000   1.0000
     1.0000   1.0000   1.0000   1.0000   1.0000   1.0000   1.0000   1.0000
     1.0000   1.0000   1.0000   1.0000   1.0000   1.0000   1.0000   1.0000
     1.0000   1.0000   1.0000   1.0000   1.0000   1.0000   1.0000   1.0000
     1.0000   1.0000   1.0000   1.0000   1.0000   1.0000   1.0000   1.0000
     1.0000   1.0000   1.0000   1.0000   1.0000   1.0000   1.0000   1.0000
     1.0000   1.0000   1.0000   1.0000   1.0000   1.0000   1.0000   1.0000
     1.0000   1.0000   1.0000   1.0000   1.0000   1.0000   1.0000   1.0000
     1.0000   1.0000   1.0000   1.0000   1.0000   1.0000   1.0000   1.0000
     1.0000   1.0000   1.0000   1.0000   1.0000   1.0000   1.0000   1.0000
     1.0000   1.0000   1.0000   1.0000   1.0000   1.0000   1.0000   1.0000
     1.0000   1.0000   1.0000   1.0000   1.0000   1.0000   1.0000   1.0000
     1.0000   1.0000   1.0000   1.0000   1.0000   1.0000   1.0000   1.0000
     1.0000   1.0000   1.0000   1.0000   1.0000   1.0001   1.0001   1.0001
     1.0001   1.0001   1.0001   1.0001   1.0001   1.0001   1.0001   1.0001
     1.0001   1.0001   1.0001   1.0001   1.0001   1.0001   1.0001   1.0001
     1.0001   1.0001   1.0001   1.0001   1.0001   1.0002   1.0005   1.0005
     1.0007   1.0029   1.0030   1.0030   1.0032   1.0034   1.0034   1.0034
     1.0034   1.0035   1.0037   1.0039   1.0039   1.0105   1.0147   1.0153
     1.0153   1.0153   1.0153   1.0153   1.0153   1.0154   1.0163   1.0169
     1.0197   1.0280   1.0280   1.0300   1.0316   1.0316   1.0319   1.0319
     1.0320   1.0323   1.0323   1.0330   1.0332   1.0332   1.0345   1.0345
     1.0349   1.0351   1.0352   1.0352   1.0352   1.0352   1.0353   1.0353
     1.0353   1.0353   1.0353   1.0353   1.0353   1.0354   1.0354   1.0354
     1.0355   1.0354   1.0349   1.0349   1.0347   1.0004   0.9643   0.9633
     0.9633   0.9629   0.9613   0.9613   0.9603   0.9603   0.9576   0.9530
     0.9291   0.9291   0.8984   0.8952   0.8942   0.8927   0.8927   0.8912
     0.8896   0.8893   0.8892   0.8892   0.8891   0.8880   0.8874   0.8874
     0.8813   0.8777   0.8756   0.8723   0.8723   0.8713   0.8156   0.8148
     0.8148   0.2701   0.2510   0.2510   0.2494   0.2455   0.2338  -0.0329
    -0.0349  -0.0348  -0.0348  -0.0333  -0.0331  -0.0331  -0.0330  -0.0329
    -0.0329  -0.0329  -0.0328  -0.0328  -0.0328  -0.0327  -0.0327  -0.0324
    -0.0322  -0.0322  -0.0320  -0.0315  -0.0313  -0.0306  -0.0306  -0.0240
    -0.0172  -0.0171  -0.0171  -0.0170  -0.0156  -0.0142  -0.0134  -0.0134
    -0.0128  -0.0126  -0.0120  -0.0119  -0.0119  -0.0118  -0.0117  -0.0117
    -0.0117  -0.0116  -0.0116  -0.0116  -0.0116  -0.0116  -0.0116  -0.0115
    -0.0108  -0.0103  -0.0103  -0.0102  -0.0070

          k = 0.0000 0.0000 0.2000 (123202 PWs)   bands (ev):

    -3.2725  -2.9487  -2.7939  -2.6938  -2.6932  -2.6702  -2.5023  -2.4224
    -2.3582  -2.3575  -2.3348  -2.1959  -2.1384  -2.1314  -2.1050  -1.9756
    -1.9120  -1.9112  -1.8880  -1.8352  -1.8039  -1.7969  -1.7612  -1.4888
    -1.4089  -1.3593  -1.3524  -1.3233  -1.1088  -1.0220  -1.0213  -0.9999
    -0.9603  -0.9128  -0.9120  -0.8864  -0.7506  -0.6912  -0.6896  -0.6668
    -0.6063  -0.5317  -0.4834  -0.4756  -0.4710  -0.4701  -0.4634  -0.4572
    -0.4328  -0.3950  -0.3637  -0.3565  -0.3250  -0.2902  -0.2497  -0.2483
    -0.2251  -0.1806  -0.1509  -0.1446  -0.1404  -0.1395  -0.1321  -0.1240
    -0.0860  -0.0540  -0.0299  -0.0297   0.0184   0.2433   0.2880   0.2947
     0.2992   0.3001   0.3073   0.3150   0.3583   0.4846   0.5151   0.5223
     0.5721   0.6910   0.7388   0.7394   0.7709   1.0402   1.1458   1.1727
     1.1739   1.1771   1.2247   1.2718   1.2785   1.2834   1.2843   1.2904
     1.2987   1.3290   1.4618   1.4986   1.4998   1.5041   1.5677   1.5853
     1.6062   1.6073   1.6102   1.6121   1.6345   1.6502   1.6997   1.7134
     1.7178   1.7374   1.9057   1.9340   1.9344   1.9386   2.0144   2.0361
     2.0378   2.0511   2.0857   2.1222   2.1383   2.1458   2.1466   2.1519
     2.1522   2.1529   2.1571   2.1659   2.1836   2.1894   2.2299   2.2348
     2.2467   2.2509   2.2580   2.2762   2.2786   2.3081   2.3701   2.4569
     2.4709   2.4744   2.4927   2.5425   2.5597   2.5667   2.5748   2.5818
     2.5978   2.6036   2.6372   2.8457   2.8937   2.8950   2.8995   2.9032
     2.9048   2.9067   2.9282   2.9793   2.9897   2.9983   3.0054   3.0125
     3.0293   3.0342   3.0724   3.1861   3.2286   3.2298   3.2621   3.3875
     3.4233   3.4266   3.4343   3.4375   3.4390   3.4518   3.4785   3.6885
     3.7384   3.7448   3.7548   3.7555   3.7607   3.7692   3.7783   3.7837
     3.7857   3.7872   3.7955   3.8473   3.8500   3.8543   3.8619   3.8761
     3.8807   3.8808   3.8911   3.9393   3.9471   3.9537   3.9614   3.9687
     3.9870   3.9921   4.0233   4.1578   4.1632   4.1640   4.1733   4.1883
     4.1962   4.1963   4.2074   4.2760   4.2923   4.2985   4.3103   4.4520
     4.4776   4.4985   4.4989   4.5285   4.6003   4.6237   4.6255   4.6321
     4.6467   4.6491   4.6510   4.6686   4.7994   4.8321   4.8391   4.8469
     4.8532   4.8622   4.8685   4.8954   4.9130   4.9147   4.9540   4.9996
     5.0001   5.0131   5.0359   5.0482   5.0530   5.0551   5.0564   5.0640
     5.0711   5.1576   5.2096   5.2166   5.3556   5.3722   5.3730   5.3790
     5.3984   5.4202   5.4266   5.4401   5.4776   5.5129   5.5194   5.5470
     5.5593   5.5677   5.5766   5.5804   5.5933   5.5979   5.5985   5.6152
     5.6330   5.6360   5.7124   5.7296   5.7390   5.7557   5.8533   5.8708
     5.8713   5.8857   6.1187   6.1421   6.1425   6.1641   6.1912   6.2062
     6.3374   6.3913   6.3940   6.3994   6.4218   6.4255   6.4265   6.4270
     6.4289   6.4360   6.4390   6.4421   6.4438   6.4475   6.4507   6.4564
     6.4898   6.4990   6.4991   6.5094   6.5261   6.5339   6.5430   6.5525
     6.5585   6.5670   6.5742   6.5925   6.6088   6.6359   6.6364   6.6369
     6.6553   6.7221   6.7407   6.7453   6.7729   6.8321   6.8339   6.8371
     6.8439   6.8786   6.8827   6.8831   6.9014   6.9588   6.9648   6.9658
     6.9710   6.9762   6.9803   7.0462   7.0544   7.0704   7.0714   7.0900
     7.0935   7.0954   7.0963   7.0984   7.1103   7.1147   7.1175   7.1583
     7.1586   7.1745   7.1938   7.2481   7.2517   7.2564   7.2652   7.2759
     7.2912   7.2939   7.2973   7.3366   7.3670   7.3694   7.3884   7.3911
     7.4070   7.5304   7.5691   7.5728   7.6024   7.6321   7.6488   7.6548
     7.6673   7.6739   7.6780   7.6809   7.6892   7.7037   7.7046   7.7113
     7.7126   7.7419   7.7599   7.7656   7.8056   7.8157   7.8599   7.8821
     7.9008   7.9021   7.9286   7.9763   7.9960   7.9973   8.0018   8.0174
     8.0208   8.0224   8.0402   8.1730   8.1859   8.1873   8.2007   8.2137
     8.2158   8.2264   8.2269   8.4743   8.5135   8.5178   8.5466   8.6180
     8.6182   8.6209   8.6352   8.6561   8.6604   8.6646   8.6665   8.6782
     8.7166   8.7197   8.7526   8.8955   8.9363   8.9401   9.0244   9.0327
     9.0400   9.0439   9.0527   9.0552   9.0562   9.0568   9.0963   9.1306
     9.1480   9.1484   9.1588   9.1826   9.1897   9.1922   9.2125   9.2177
     9.2307   9.2329   9.2523   9.2552   9.2579

     occupation numbers 
     1.0000   1.0000   1.0000   1.0000   1.0000   1.0000   1.0000   1.0000
     1.0000   1.0000   1.0000   1.0000   1.0000   1.0000   1.0000   1.0000
     1.0000   1.0000   1.0000   1.0000   1.0000   1.0000   1.0000   1.0000
     1.0000   1.0000   1.0000   1.0000   1.0000   1.0000   1.0000   1.0000
     1.0000   1.0000   1.0000   1.0000   1.0000   1.0000   1.0000   1.0000
     1.0000   1.0000   1.0000   1.0000   1.0000   1.0000   1.0000   1.0000
     1.0000   1.0000   1.0000   1.0000   1.0000   1.0000   1.0000   1.0000
[...]
     atom   75 type  2   force =    -0.00000002    0.00000002    0.00000003
     atom   76 type  2   force =    -0.00000003    0.00000001   -0.00000000
     atom   77 type  2   force =     0.00000001    0.00000001   -0.00000001
     atom   78 type  2   force =    -0.00000001   -0.00000000    0.00000002
     atom   79 type  2   force =     0.00000002    0.00000001    0.00000002
     atom   80 type  2   force =     0.00000008   -0.00000001   -0.00000003
     atom   81 type  2   force =     0.00000008    0.00000000   -0.00000001
     atom   82 type  2   force =     0.00000002   -0.00000002    0.00000000
     atom   83 type  2   force =     0.00000002   -0.00000001   -0.00000002
     atom   84 type  2   force =     0.00000003   -0.00000000    0.00000000
     atom   85 type  2   force =     0.00000000   -0.00000000    0.00000002
     atom   86 type  2   force =    -0.00000001   -0.00000002   -0.00000002
     atom   87 type  2   force =    -0.00000003   -0.00000001    0.00000000
     atom   88 type  2   force =    -0.00000003   -0.00000003    0.00000001
     atom   89 type  2   force =    -0.00000004   -0.00000002    0.00000001
     atom   90 type  2   force =    -0.00000003   -0.00000003    0.00000001
     atom   91 type  2   force =    -0.00000004   -0.00000002    0.00000001
     atom   92 type  2   force =    -0.00000003   -0.00000003   -0.00000000
     atom   93 type  2   force =     0.00000001   -0.00000002   -0.00000002
     atom   94 type  2   force =    -0.00000003   -0.00000003    0.00000001
     atom   95 type  2   force =     0.00000001   -0.00000003    0.00000001
     atom   96 type  2   force =     0.00000002   -0.00000000   -0.00000001
     atom   97 type  2   force =     0.00000002    0.00000001   -0.00000000
     atom   98 type  2   force =    -0.00000000    0.00000001    0.00000000
     atom   99 type  2   force =     0.00000000   -0.00000000   -0.00000002
     atom  100 type  2   force =     0.00000001    0.00000001   -0.00000002
     atom  101 type  2   force =    -0.00000001   -0.00000001   -0.00000000
     atom  102 type  2   force =    -0.00000002    0.00000001   -0.00000003
     atom  103 type  2   force =    -0.00000002   -0.00000002   -0.00000000
     atom  104 type  2   force =    -0.00000003   -0.00000000    0.00000000
     atom  105 type  2   force =    -0.00000003   -0.00000002    0.00000001
     atom  106 type  2   force =    -0.00000004   -0.00000001    0.00000001
     atom  107 type  2   force =    -0.00000004   -0.00000002    0.00000001
     atom  108 type  2   force =    -0.00000004   -0.00000000    0.00000001
     atom  109 type  2   force =    -0.00000002   -0.00000000   -0.00000000
     atom  110 type  2   force =    -0.00000003    0.00000001    0.00000002
     atom  111 type  2   force =    -0.00000001   -0.00000000    0.00000002
     atom  112 type  2   force =    -0.00000000    0.00000001    0.00000000
     atom  113 type  2   force =     0.00000003   -0.00000000   -0.00000001
     atom  114 type  2   force =     0.00000003    0.00000003   -0.00000001
     atom  115 type  2   force =     0.00000000    0.00000001   -0.00000003
     atom  116 type  2   force =     0.00000004   -0.00000001   -0.00000001
     atom  117 type  2   force =    -0.00000001    0.00000000   -0.00000001
     atom  118 type  2   force =    -0.00000000    0.00000001   -0.00000004
     atom  119 type  2   force =    -0.00000003    0.00000001   -0.00000002
     atom  120 type  2   force =    -0.00000003    0.00000002    0.00000001
     atom  121 type  2   force =    -0.00000004    0.00000001    0.00000001
     atom  122 type  2   force =    -0.00000003    0.00000002    0.00000001
     atom  123 type  2   force =    -0.00000003    0.00000001    0.00000003
     atom  124 type  2   force =    -0.00000003    0.00000002    0.00000001
     atom  125 type  2   force =    -0.00000001    0.00000001    0.00000001
     atom  126 type  2   force =    -0.00000001    0.00000002    0.00000003
     atom  127 type  2   force =     0.00000000    0.00000002    0.00000002
     atom  128 type  2   force =     0.00000004    0.00000000   -0.00000001
     atom  129 type  2   force =    -0.00000000    0.00000001   -0.00000001
     atom  130 type  2   force =    -0.00000004   -0.00000002   -0.00000000
     atom  131 type  2   force =    -0.00000002    0.00000000   -0.00000002
     atom  132 type  2   force =     0.00000001   -0.00000001   -0.00000004
     atom  133 type  2   force =     0.00000001    0.00000001   -0.00000004
     atom  134 type  2   force =     0.00000000   -0.00000000   -0.00000002
     atom  135 type  2   force =     0.00000002    0.00000002   -0.00000002
     atom  136 type  2   force =     0.00000001   -0.00000000   -0.00000002
     atom  137 type  2   force =     0.00000001    0.00000002    0.00000000
     atom  138 type  2   force =     0.00000002   -0.00000001   -0.00000000
     atom  139 type  2   force =     0.00000002    0.00000002    0.00000003
     atom  140 type  2   force =     0.00000000   -0.00000000    0.00000003
     atom  141 type  2   force =     0.00000000    0.00000002    0.00000004
     atom  142 type  2   force =    -0.00000001   -0.00000003    0.00000002
     atom  143 type  2   force =    -0.00000002    0.00000000    0.00000002
     atom  144 type  2   force =    -0.00000001   -0.00000002    0.00000003
     atom  145 type  2   force =    -0.00000000   -0.00000003    0.00000000
     atom  146 type  2   force =    -0.00000002   -0.00000002    0.00000001
     atom  147 type  2   force =    -0.00000002   -0.00000002   -0.00000001
     atom  148 type  2   force =     0.00000000   -0.00000002   -0.00000002
     atom  149 type  2   force =     0.00000001   -0.00000002   -0.00000003
     atom  150 type  2   force =     0.00000001   -0.00000002   -0.00000002
     atom  151 type  2   force =     0.00000002   -0.00000002   -0.00000002
     atom  152 type  2   force =    -0.00000000   -0.00000002   -0.00000002
     atom  153 type  2   force =    -0.00000001   -0.00000002    0.00000000
     atom  154 type  2   force =     0.00000002   -0.00000003   -0.00000001
     atom  155 type  2   force =     0.00000001   -0.00000004    0.00000001
     atom  156 type  2   force =    -0.00000002   -0.00000003    0.00000001
     atom  157 type  2   force =    -0.00000001   -0.00000004    0.00000003
     atom  158 type  2   force =     0.00000001   -0.00000002    0.00000002
     atom  159 type  2   force =    -0.00000002   -0.00000003    0.00000002
     atom  160 type  2   force =    -0.00000001   -0.00000003    0.00000003
     atom  161 type  2   force =    -0.00000000   -0.00000000    0.00000001
     atom  162 type  2   force =     0.00000000    0.00000001    0.00000000
     atom  163 type  2   force =     0.00000000   -0.00000001   -0.00000001
     atom  164 type  2   force =    -0.00000000    0.00000001   -0.00000003
     atom  165 type  2   force =     0.00000000   -0.00000002   -0.00000004
     atom  166 type  2   force =     0.00000001    0.00000000   -0.00000004
     atom  167 type  2   force =     0.00000002   -0.00000003   -0.00000002
     atom  168 type  2   force =    -0.00000001   -0.00000000   -0.00000002
     atom  169 type  2   force =    -0.00000002   -0.00000002   -0.00000000
     atom  170 type  2   force =     0.00000001   -0.00000000   -0.00000001
     atom  171 type  2   force =     0.00000001   -0.00000002    0.00000001
     atom  172 type  2   force =    -0.00000002    0.00000001    0.00000002
     atom  173 type  2   force =    -0.00000001   -0.00000001    0.00000002
     atom  174 type  2   force =     0.00000001    0.00000001    0.00000004
     atom  175 type  2   force =     0.00000000    0.00000000    0.00000003
     atom  176 type  2   force =    -0.00000000    0.00000002    0.00000003
     atom  177 type  2   force =    -0.00000000    0.00000002   -0.00000000
     atom  178 type  2   force =    -0.00000002    0.00000003   -0.00000000
     atom  179 type  2   force =    -0.00000000    0.00000002   -0.00000003
     atom  180 type  2   force =    -0.00000000    0.00000003   -0.00000004
     atom  181 type  2   force =    -0.00000000    0.00000003   -0.00000005
     atom  182 type  2   force =     0.00000001    0.00000003   -0.00000003
     atom  183 type  2   force =     0.00000001    0.00000002   -0.00000002
     atom  184 type  2   force =     0.00000001    0.00000003   -0.00000003
     atom  185 type  2   force =    -0.00000001    0.00000001    0.00000000
     atom  186 type  2   force =     0.00000002    0.00000004   -0.00000000
     atom  187 type  2   force =     0.00000001    0.00000002    0.00000003
     atom  188 type  2   force =    -0.00000000    0.00000003    0.00000004
     atom  189 type  2   force =    -0.00000001    0.00000003    0.00000004
     atom  190 type  2   force =    -0.00000000    0.00000004    0.00000004
     atom  191 type  2   force =    -0.00000001    0.00000002    0.00000002
     atom  192 type  2   force =    -0.00000000    0.00000003    0.00000003
     atom  193 type  2   force =    -0.00000010   -0.00000001   -0.00000001
     atom  194 type  2   force =    -0.00000012    0.00000001   -0.00000000
     atom  195 type  2   force =    -0.00000009   -0.00000003    0.00000008
     atom  196 type  2   force =    -0.00000007   -0.00000001    0.00000002
     atom  197 type  2   force =    -0.00000002    0.00000001    0.00000001
     atom  198 type  2   force =    -0.00000002   -0.00000000    0.00000007
     atom  199 type  2   force =     0.00000002    0.00000002    0.00000003
     atom  200 type  2   force =     0.00000002   -0.00000000    0.00000000
     atom  201 type  2   force =     0.00000003    0.00000003   -0.00000000
     atom  202 type  2   force =     0.00000004   -0.00000001   -0.00000000
     atom  203 type  2   force =     0.00000003    0.00000001   -0.00000003
     atom  204 type  2   force =     0.00000001   -0.00000001   -0.00000001
     atom  205 type  2   force =    -0.00000002    0.00000001   -0.00000000
     atom  206 type  2   force =    -0.00000002   -0.00000001   -0.00000007
     atom  207 type  2   force =    -0.00000010   -0.00000003   -0.00000008
     atom  208 type  2   force =    -0.00000007   -0.00000002   -0.00000002
     atom  209 type  2   force =    -0.00000008   -0.00000000    0.00000001
     atom  210 type  2   force =    -0.00000003    0.00000005    0.00000001
     atom  211 type  2   force =    -0.00000006    0.00000003    0.00000006
     atom  212 type  2   force =    -0.00000003    0.00000000    0.00000001
     atom  213 type  2   force =    -0.00000002   -0.00000001    0.00000002
     atom  214 type  2   force =    -0.00000001    0.00000000    0.00000003
     atom  215 type  2   force =     0.00000001   -0.00000002    0.00000003
     atom  216 type  2   force =     0.00000002   -0.00000003   -0.00000001
     atom  217 type  2   force =     0.00000003   -0.00000003   -0.00000001
     atom  218 type  2   force =     0.00000002   -0.00000003   -0.00000000
     atom  219 type  2   force =     0.00000002   -0.00000002   -0.00000003
     atom  220 type  2   force =     0.00000003   -0.00000003   -0.00000000
     atom  221 type  2   force =    -0.00000001   -0.00000002   -0.00000001
     atom  222 type  2   force =     0.00000001   -0.00000000   -0.00000003
     atom  223 type  2   force =    -0.00000005    0.00000002   -0.00000006
     atom  224 type  2   force =    -0.00000002   -0.00000000    0.00000001
     atom  225 type  2   force =    -0.00000001    0.00000002    0.00000001
     atom  226 type  2   force =    -0.00000001   -0.00000001    0.00000001
     atom  227 type  2   force =    -0.00000000    0.00000003    0.00000001
     atom  228 type  2   force =     0.00000001   -0.00000000   -0.00000001
     atom  229 type  2   force =     0.00000001   -0.00000001   -0.00000002
     atom  230 type  2   force =     0.00000001   -0.00000000   -0.00000001
     atom  231 type  2   force =     0.00000002   -0.00000001   -0.00000001
     atom  232 type  2   force =     0.00000004   -0.00000000   -0.00000002
     atom  233 type  2   force =     0.00000003   -0.00000003   -0.00000001
     atom  234 type  2   force =     0.00000003   -0.00000000   -0.00000001
     atom  235 type  2   force =     0.00000003   -0.00000001   -0.00000001
     atom  236 type  2   force =     0.00000003    0.00000000    0.00000002
     atom  237 type  2   force =     0.00000001    0.00000000    0.00000002
     atom  238 type  2   force =     0.00000002    0.00000000    0.00000001
     atom  239 type  2   force =    -0.00000000    0.00000003    0.00000000
     atom  240 type  2   force =     0.00000001    0.00000001    0.00000002
     atom  241 type  2   force =    -0.00000002   -0.00000000    0.00000000
     atom  242 type  2   force =    -0.00000008   -0.00000006   -0.00000000
     atom  243 type  2   force =    -0.00000002   -0.00000003    0.00000001
     atom  244 type  2   force =    -0.00000004    0.00000000   -0.00000000
     atom  245 type  2   force =     0.00000001    0.00000001   -0.00000002
     atom  246 type  2   force =    -0.00000001    0.00000000    0.00000003
     atom  247 type  2   force =     0.00000002    0.00000001   -0.00000001
     atom  248 type  2   force =     0.00000002    0.00000004   -0.00000001
     atom  249 type  2   force =     0.00000004    0.00000002   -0.00000001
     atom  250 type  2   force =     0.00000004    0.00000004    0.00000000
     atom  251 type  2   force =     0.00000003    0.00000002    0.00000000
     atom  252 type  2   force =     0.00000002    0.00000004    0.00000001
     atom  253 type  2   force =     0.00000001    0.00000002    0.00000003
     atom  254 type  2   force =    -0.00000000    0.00000001   -0.00000002
     atom  255 type  2   force =    -0.00000001   -0.00000002   -0.00000001
     atom  256 type  2   force =    -0.00000004    0.00000002   -0.00000000

     Total force =     0.005872     Total SCF correction =     0.000001


     Computing stress (Cartesian axis) and pressure

          total   stress  (Ry/bohr**3)                   (kbar)     P=   -9.51
  -0.00006467   0.00000000  -0.00000000         -9.51      0.00     -0.00
   0.00000000  -0.00006454   0.00000000          0.00     -9.49      0.00
  -0.00000000   0.00000000  -0.00006467         -0.00      0.00     -9.51

     kinetic stress (kbar)   1436.72      0.00     -0.00
                                0.00   1436.74      0.00
                               -0.00      0.00   1436.72

     local   stress (kbar)    621.18     -0.00      0.00
                               -0.00    625.65     -0.00
                                0.00     -0.00    621.18

     nonloc. stress (kbar)   1040.38      0.00      0.00
                                0.00   1040.42     -0.00
                                0.00     -0.00   1040.38

     hartree stress (kbar)      4.91      0.00     -0.00
                                0.00      2.85      0.00
                               -0.00      0.00      4.91

     exc-cor stress (kbar)    512.94      0.00     -0.00
                                0.00    512.94      0.00
                               -0.00      0.00    512.94

     corecor stress (kbar)  -1283.72     -0.00      0.00
                               -0.00  -1283.72     -0.00
                                0.00     -0.00  -1283.72

     ewald   stress (kbar)  -2341.92      0.00     -0.00
                                0.00  -2344.37      0.00
                               -0.00      0.00  -2341.92

     hubbard stress (kbar)      0.00      0.00      0.00
                                0.00      0.00      0.00
                                0.00      0.00      0.00

     london  stress (kbar)      0.00      0.00      0.00
                                0.00      0.00      0.00
                                0.00      0.00      0.00

     DFT-D3  stress (kbar)      0.00      0.00      0.00
                                0.00      0.00      0.00
                                0.00      0.00      0.00

     XDM     stress (kbar)      0.00      0.00      0.00
                                0.00      0.00      0.00
                                0.00      0.00      0.00

     dft-nl  stress (kbar)      0.00      0.00      0.00
                                0.00      0.00      0.00
                                0.00      0.00      0.00

     TS-vdW  stress (kbar)      0.00      0.00      0.00
                                0.00      0.00      0.00
                                0.00      0.00      0.00



     Writing output data file aiida.save/
 
     init_run     :    199.27s CPU    201.58s WALL (       1 calls)
     electrons    :   7743.10s CPU   7805.58s WALL (       1 calls)
     forces       :     95.64s CPU     96.63s WALL (       1 calls)
     stress       :   1272.70s CPU   1274.24s WALL (       1 calls)

     Called by init_run:
     wfcinit      :    191.04s CPU    192.97s WALL (       1 calls)
     wfcinit:atom :      0.38s CPU      0.61s WALL (       2 calls)
     wfcinit:wfcr :    188.44s CPU    189.27s WALL (       2 calls)
     potinit      :      2.39s CPU      2.58s WALL (       1 calls)
     hinit0       :      3.15s CPU      3.22s WALL (       1 calls)

     Called by electrons:
     c_bands      :   6729.47s CPU   6780.06s WALL (      26 calls)
     sum_band     :    928.01s CPU    932.81s WALL (      26 calls)
     v_of_rho     :     40.88s CPU     43.13s WALL (      26 calls)
     v_h          :      4.10s CPU      4.11s WALL (      26 calls)
     v_xc         :     39.21s CPU     41.51s WALL (      28 calls)
     newd         :      9.16s CPU     11.31s WALL (      26 calls)
     PAW_pot      :      5.30s CPU      5.55s WALL (      26 calls)
     mix_rho      :     24.84s CPU     26.88s WALL (      26 calls)

     Called by c_bands:
     init_us_2    :     90.08s CPU     90.74s WALL (     110 calls)
     cegterg      :   5975.44s CPU   6023.70s WALL (      53 calls)

     Called by sum_band:
     sum_band:bec :      1.61s CPU      1.62s WALL (      52 calls)
     addusdens    :      7.01s CPU      9.72s WALL (      26 calls)

     Called by *egterg:
     h_psi        :   3893.41s CPU   3909.54s WALL (     252 calls)
     s_psi        :   1184.20s CPU   1186.51s WALL (     252 calls)
     g_psi        :      4.88s CPU      4.88s WALL (     197 calls)
     cdiaghg      :    310.59s CPU    316.24s WALL (     248 calls)
     cegterg:over :    323.41s CPU    325.39s WALL (     197 calls)
     cegterg:upda :    200.45s CPU    209.07s WALL (     197 calls)
     cegterg:last :    124.03s CPU    124.12s WALL (      56 calls)
     cdiaghg:chol :     13.62s CPU     13.77s WALL (     248 calls)
     cdiaghg:inve :      6.40s CPU      6.40s WALL (     248 calls)
     cdiaghg:para :     69.55s CPU     70.84s WALL (     496 calls)

     Called by h_psi:
     h_psi:pot    :   3888.04s CPU   3896.85s WALL (     252 calls)
     h_psi:calbec :   1184.80s CPU   1185.08s WALL (     252 calls)
     vloc_psi     :   1514.04s CPU   1519.81s WALL (     252 calls)
     add_vuspsi   :   1189.20s CPU   1191.96s WALL (     252 calls)

     General routines
     calbec       :   1741.20s CPU   1741.65s WALL (     314 calls)
     fft          :     45.50s CPU     48.48s WALL (     363 calls)
     ffts         :     11.42s CPU     11.50s WALL (     378 calls)
     fftw         :   1562.37s CPU   1567.83s WALL (  144450 calls)
     interpolate  :      4.09s CPU      4.58s WALL (      26 calls)
 
     Parallel routines
     fft_scatt_xy :    544.15s CPU    545.70s WALL (  145191 calls)
     fft_scatt_yz :    297.91s CPU    300.54s WALL (  145191 calls)

     PAW routines
     PAW_pot      :      5.30s CPU      5.55s WALL (      26 calls)
 
     PWSCF        :      2h38m CPU      2h40m WALL

 
   This run was terminated on:  13:13:56  26Feb2020            

=------------------------------------------------------------------------------=
   JOB DONE.
=------------------------------------------------------------------------------=
