begin
comment 256 atoms, species Al254MgSi
lattice     30.6664728719     0.0000000000     0.0000000000
lattice      0.0000000000    30.6664728719     0.0000000000
lattice      0.0000000000     0.0000000000    30.6664728719
atom      0.0000000000     0.0011959924     0.0000000000   Mg  0.0 0.0    2.49999981e-08 -8.24599938e-05  1.49999989e-08
atom      3.8769168334     0.0019258545     3.8769168334   Al  0.0 0.0   -1.38059990e-04  1.02639992e-04 -1.38079990e-04
atom      3.8517304592     3.8981288327     0.0000000000   Al  0.0 0.0   -2.79694979e-04 -9.12199931e-05  2.99999977e-08
atom      0.0000000000     3.8981288327     3.8517304592   Al  0.0 0.0    3.99999970e-08 -9.12449931e-05 -2.79724979e-04
atom      0.0000000000     0.0039897081     7.6672100809   Al  0.0 0.0   -4.99999962e-09  1.93444985e-04 -1.64744988e-04
atom      3.8356888273     3.8361856241     7.6727729791   Al  0.0 0.0    9.09249932e-05  2.31544983e-04  1.81354986e-04
atom      3.8329349780     0.0004139974    11.5021997126   Al  0.0 0.0   -2.11849984e-05  1.27999990e-05  6.72499949e-05
atom      0.0000000000     3.8333980418    11.5009853203   Al  0.0 0.0    4.99999962e-09  3.10949977e-05  3.07849977e-05
atom      0.0000000000     0.0005703964    15.3332364360   Al  0.0 0.0    9.99999925e-09  3.65499973e-05 -3.49999974e-08
atom      3.8334379082     3.8330208441    15.3332364360   Al  0.0 0.0    1.48549989e-05  4.13449969e-05 -2.49999981e-08
atom      3.8329349780     0.0004139974    19.1642731593   Al  0.0 0.0   -2.11649984e-05  1.28199990e-05 -6.72149949e-05
atom      0.0000000000     3.8333980418    19.1654875516   Al  0.0 0.0    1.49999989e-08  3.10799977e-05 -3.07499977e-05
atom      0.0000000000     0.0039897081    22.9992627910   Al  0.0 0.0   -4.99999962e-09  1.93439985e-04  1.64719988e-04
atom      3.8356888273     3.8361856241    22.9936998928   Al  0.0 0.0    9.09249932e-05  2.31489983e-04 -1.81314986e-04
atom      3.8769168334     0.0019258545    26.7895560385   Al  0.0 0.0   -1.38059990e-04  1.02659992e-04  1.38069990e-04
atom      0.0000000000     3.8981288327    26.8147424127   Al  0.0 0.0    1.49999989e-08 -9.12299931e-05  2.79684979e-04
atom      0.0000000000     7.6878884836     0.0000000000   Si  0.0 0.0    0.00000000e+00  5.55984958e-04 -2.49999981e-08
atom      3.8110237832    11.4801321187     0.0000000000   Al  0.0 0.0    4.54249966e-05  1.23634991e-04  4.99999962e-09
atom      3.8155900210     7.6755206951     3.8155900210   Al  0.0 0.0    2.38959982e-04  3.30609975e-04  2.38954982e-04
atom      0.0000000000    11.4801321187     3.8110237832   Al  0.0 0.0   -4.99999962e-09  1.23629991e-04  4.54249966e-05
atom      0.0000000000     7.6700375297     7.6606106559   Al  0.0 0.0    2.99999977e-08  3.27254975e-04  2.36274982e-04
atom      3.8326804463    11.4996145289     7.6645911641   Al  0.0 0.0   -7.24599946e-05 -2.86999978e-06 -1.05649992e-04
atom      3.8329043115     7.6671180815    11.4983694701   Al  0.0 0.0   -3.33649975e-05  4.45599967e-05 -4.01499970e-06
atom      0.0000000000    11.5000131931    11.4987834675   Al  0.0 0.0    4.99999962e-09  1.15499991e-05 -1.61299988e-05
atom      0.0000000000     7.6674186129    15.3332364360   Al  0.0 0.0    2.49999981e-08  5.12749961e-05 -4.99999962e-09
atom      3.8337108398    11.5001818587    15.3332364360   Al  0.0 0.0   -4.83499964e-06 -1.27249990e-05 -4.99999962e-09
atom      3.8329043115     7.6671180815    19.1681034018   Al  0.0 0.0   -3.33949975e-05  4.46299966e-05  4.03999970e-06
atom      0.0000000000    11.5000131931    19.1676894044   Al  0.0 0.0    4.99999962e-08  1.15299991e-05  1.61349988e-05
atom      0.0000000000     7.6700375297    23.0058622160   Al  0.0 0.0   -2.49999981e-08  3.27244975e-04 -2.36254982e-04
atom      3.8326804463    11.4996145289    23.0018847744   Al  0.0 0.0   -7.24249946e-05 -2.85999979e-06  1.05599992e-04
atom      3.8155900210     7.6755206951    26.8508828509   Al  0.0 0.0    2.38964982e-04  3.30624975e-04 -2.38944982e-04
atom      0.0000000000    11.4801321187    26.8554490888   Al  0.0 0.0    9.99999925e-09  1.23614991e-04 -4.54149966e-05
atom      0.0000000000    15.3249840881     0.0000000000   Al  0.0 0.0    2.49999981e-08 -5.31199960e-05  1.49999989e-08
atom      3.8331803098    19.1624699707     0.0000000000   Al  0.0 0.0   -2.05149985e-05 -1.72359987e-04  4.49999966e-08
atom      3.8328736451    15.3301943218     3.8328736451   Al  0.0 0.0   -3.99549970e-05 -1.66829987e-04 -3.99299970e-05
atom      0.0000000000    19.1624699707     3.8331803098   Al  0.0 0.0    4.49999966e-08 -1.72374987e-04 -2.05149985e-05
atom      0.0000000000    15.3297036583     7.6639471682   Al  0.0 0.0    1.49999989e-08 -1.68184987e-04 -1.16229991e-04
atom      3.8329472446    19.1665486116     7.6667470172   Al  0.0 0.0   -6.91999948e-06 -9.21499931e-05  2.75399979e-05
atom      3.8331864431    15.3328101720    11.4998445275   Al  0.0 0.0   -5.92999955e-06 -1.37249990e-05 -2.31949983e-05
atom      0.0000000000    19.1666222111    11.5002738581   Al  0.0 0.0    3.49999974e-08 -7.98099940e-05  1.88349986e-05
atom      0.0000000000    15.3325495070    15.3332364360   Al  0.0 0.0    2.49999981e-08 -3.64649973e-05 -3.49999974e-08
atom      3.8334440415    19.1668276765    15.3332364360   Al  0.0 0.0    2.57999981e-06  1.74499987e-06 -2.49999981e-08
atom      3.8331864431    15.3328101720    19.1666283444   Al  0.0 0.0   -5.96499955e-06 -1.37549990e-05  2.32349983e-05
atom      0.0000000000    19.1666222111    19.1661990138   Al  0.0 0.0    1.99999985e-08 -7.98099940e-05 -1.87899986e-05
atom      0.0000000000    15.3297036583    23.0025257037   Al  0.0 0.0   -4.99999962e-09 -1.68184987e-04  1.16239991e-04
atom      3.8329472446    19.1665486116    22.9997258547   Al  0.0 0.0   -6.91499948e-06 -9.21199931e-05 -2.75149979e-05
atom      3.8328736451    15.3301943218    26.8335992268   Al  0.0 0.0   -3.99399970e-05 -1.66844987e-04  3.99149970e-05
atom      0.0000000000    19.1624699707    26.8332925621   Al  0.0 0.0    9.99999925e-09 -1.72384987e-04  2.04299985e-05
atom      0.0000000000    22.9944082884     0.0000000000   Al  0.0 0.0    5.49999959e-08 -6.42499952e-05  4.99999962e-08
atom      3.8765948354    26.7908930967     0.0000000000   Al  0.0 0.0   -1.06129992e-04  1.35199990e-04  1.49999989e-08
atom      3.8361917574    22.9913569743     3.8361917574   Al  0.0 0.0    1.62429988e-04 -3.33164975e-04  1.62414988e-04
atom      0.0000000000    26.7908930967     3.8765948354   Al  0.0 0.0    3.99999970e-08  1.35229990e-04 -1.06149992e-04
atom      0.0000000000    22.9960980110     7.6698964639   Al  0.0 0.0    9.99999925e-09 -3.45739974e-04  3.12414977e-04
atom      3.8357164271    26.8305877792     7.6748797658   Al  0.0 0.0    1.51699989e-04 -1.41774989e-04  3.16579976e-04
atom      3.8331036436    22.9993302572    11.5001450589   Al  0.0 0.0    3.11499977e-06 -4.71299965e-05  6.96899948e-05
atom      0.0000000000    26.8328448316    11.5027026428   Al  0.0 0.0    4.99999962e-09  2.88049978e-05  6.73749949e-05
atom      0.0000000000    22.9991922581    15.3332364360   Al  0.0 0.0    3.49999974e-08 -4.66449965e-05 -3.49999974e-08
atom      3.8332784425    26.8329429643    15.3332364360   Al  0.0 0.0    2.64799980e-05 -2.94249978e-05 -2.49999981e-08
atom      3.8331036436    22.9993302572    19.1663278130   Al  0.0 0.0    3.11499977e-06 -4.71499965e-05 -6.96249948e-05
atom      0.0000000000    26.8328448316    19.1637702291   Al  0.0 0.0   -4.99999962e-09  2.87999978e-05 -6.73299949e-05
atom      0.0000000000    22.9960980110    22.9965764080   Al  0.0 0.0    2.99999977e-08 -3.45759974e-04 -3.12399977e-04
atom      3.8357164271    26.8305877792    22.9915931061   Al  0.0 0.0    1.51674989e-04 -1.41804989e-04 -3.16554976e-04
atom      3.8361917574    22.9913569743    26.8302811145   Al  0.0 0.0    1.62429988e-04 -3.33154975e-04 -1.62479988e-04
atom      0.0000000000    26.7908930967    26.7898811031   Al  0.0 0.0    0.00000000e+00  1.35224990e-04  1.06094992e-04
atom      7.6672100809     0.0039897081     0.0000000000   Al  0.0 0.0   -1.64769988e-04  1.93454985e-04  9.99999925e-09
atom     11.5009853203     3.8333980418     0.0000000000   Al  0.0 0.0    3.08199977e-05  3.10749977e-05  4.99999962e-09
atom     11.5021997126     0.0004139974     3.8329349780   Al  0.0 0.0    6.72849949e-05  1.28349990e-05 -2.11549984e-05
atom      7.6727729791     3.8361856241     3.8356888273   Al  0.0 0.0    1.81329986e-04  2.31514983e-04  9.09249932e-05
atom      7.6716935192    30.6651480803     7.6716935192   Al  0.0 0.0    3.78889972e-04 -3.36049975e-05  3.78859972e-04
atom     11.4997065284     3.8333980418     7.6666580844   Al  0.0 0.0    3.38099975e-05  2.17449984e-05  2.49599981e-05
atom     11.5002033252     0.0000367998    11.5002033252   Al  0.0 0.0    5.60799958e-05  1.17399991e-05  5.60599958e-05
atom      7.6666580844     3.8333980418    11.4997065284   Al  0.0 0.0    2.49699981e-05  2.18049984e-05  3.38049975e-05
atom      7.6672836804     0.0000735995    15.3332364360   Al  0.0 0.0    5.20099961e-05 -3.66499972e-06 -1.99999985e-08
atom     11.5003014579     3.8334287082    15.3332364360   Al  0.0 0.0    1.01499992e-05  8.86999933e-06 -1.49999989e-08
atom     11.5002033252     0.0000367998    19.1662695467   Al  0.0 0.0    5.60999958e-05  1.17099991e-05 -5.60599958e-05
atom      7.6666580844     3.8333980418    19.1667663435   Al  0.0 0.0    2.49599981e-05  2.17649984e-05 -3.38299975e-05
atom      7.6716935192    30.6651480803    22.9947793527   Al  0.0 0.0    3.78869972e-04 -3.35449975e-05 -3.78879972e-04
atom     11.4997065284     3.8333980418    22.9998147875   Al  0.0 0.0    3.38249975e-05  2.17549984e-05 -2.48949981e-05
atom     11.5021997126     0.0004139974    26.8335378939   Al  0.0 0.0    6.72699949e-05  1.28249990e-05  2.11799984e-05
atom      7.6727729791     3.8361856241    26.8307840446   Al  0.0 0.0    1.81314986e-04  2.31494983e-04 -9.09749932e-05
atom      7.6606106559     7.6700375297     0.0000000000   Al  0.0 0.0    2.36234982e-04  3.27224975e-04 -4.99999962e-09
atom     11.4987834675    11.5000131931     0.0000000000   Al  0.0 0.0   -1.61049988e-05  1.15299991e-05 -9.99999925e-09
atom     11.4983694701     7.6671180815     3.8329043115   Al  0.0 0.0   -4.00999970e-06  4.45699967e-05 -3.33299975e-05
atom      7.6645911641    11.4996145289     3.8326804463   Al  0.0 0.0   -1.05659992e-04 -2.87999978e-06 -7.24199946e-05
atom      7.6632878390     7.6669095495     7.6632878390   Al  0.0 0.0   -1.46379989e-04  2.24299983e-05 -1.46404989e-04
atom     11.4995869291    11.4994274635     7.6658760893   Al  0.0 0.0   -3.27699975e-05 -2.11449984e-05 -1.86049986e-05
atom     11.5000683927     7.6663176865    11.5000683927   Al  0.0 0.0   -3.08799977e-05 -4.91499963e-06 -3.08699977e-05
atom      7.6658760893    11.4994274635    11.4995869291   Al  0.0 0.0   -1.85799986e-05 -2.11399984e-05 -3.27649975e-05
atom      7.6662594202     7.6668942162    15.3332364360   Al  0.0 0.0   -3.49449974e-05  4.11499969e-06 -2.49999981e-08
atom     11.5004762568    11.5002063919    15.3332364360   Al  0.0 0.0    1.35899990e-05  1.36399990e-05 -4.99999962e-09
atom     11.5000683927     7.6663176865    19.1664075458   Al  0.0 0.0   -3.08799977e-05 -4.88999963e-06  3.08599977e-05
atom      7.6658760893    11.4994274635    19.1668859428   Al  0.0 0.0   -1.85949986e-05 -2.11599984e-05  3.27899975e-05
atom      7.6632878390     7.6669095495    23.0031850329   Al  0.0 0.0   -1.46389989e-04  2.24699983e-05  1.46384989e-04
atom     11.4995869291    11.4994274635    23.0005967826   Al  0.0 0.0   -3.27649975e-05 -2.11199984e-05  1.86499986e-05
atom     11.4983694701     7.6671180815    26.8335685604   Al  0.0 0.0   -4.02999970e-06  4.45799966e-05  3.33649975e-05
atom      7.6645911641    11.4996145289    26.8337924256   Al  0.0 0.0   -1.05649992e-04 -2.84999979e-06  7.24149946e-05
atom      7.6639471682    15.3297036583     0.0000000000   Al  0.0 0.0   -1.16239991e-04 -1.68209987e-04 -0.00000000e+00
atom     11.5002738581    19.1666222111     0.0000000000   Al  0.0 0.0    1.88399986e-05 -7.97799940e-05  9.99999925e-09
atom     11.4998445275    15.3328101720     3.8331864431   Al  0.0 0.0   -2.31999983e-05 -1.37399990e-05 -5.86999956e-06
atom      7.6667470172    19.1665486116     3.8329472446   Al  0.0 0.0    2.75349979e-05 -9.21149931e-05 -6.87999948e-06
atom      7.6679276764    15.3343158958     7.6679276764   Al  0.0 0.0    2.52449981e-05  2.26899983e-05  2.52399981e-05
atom     11.4998935938    19.1668154099     7.6664250192   Al  0.0 0.0    5.21999961e-06  1.03749992e-05 -5.12499961e-06
atom     11.5002155918    15.3332303027    11.5002155918   Al  0.0 0.0    1.64649988e-05 -6.41499952e-06  1.64449988e-05
atom      7.6664250192    19.1668154099    11.4998935938   Al  0.0 0.0   -5.09999962e-06  1.03849992e-05  5.22999961e-06
atom      7.6670199488    15.3332333693    15.3332364360   Al  0.0 0.0    3.24499976e-05  7.12999946e-06 -3.49999974e-08
atom     11.4998383942    19.1659506154    15.3332364360   Al  0.0 0.0   -5.76999957e-06 -3.24949976e-05 -2.99999977e-08
atom     11.5002155918    15.3332303027    19.1662572801   Al  0.0 0.0    1.64599988e-05 -6.43499952e-06 -1.64749988e-05
atom      7.6664250192    19.1668154099    19.1665792781   Al  0.0 0.0   -5.12999961e-06  1.04199992e-05 -5.18999961e-06
atom      7.6679276764    15.3343158958    22.9985451955   Al  0.0 0.0    2.52399981e-05  2.26549983e-05 -2.51749981e-05
atom     11.4998935938    19.1668154099    23.0000478527   Al  0.0 0.0    5.19499961e-06  1.03999992e-05  5.16999961e-06
atom     11.4998445275    15.3328101720    26.8332864288   Al  0.0 0.0   -2.31999983e-05 -1.37699990e-05  5.82999956e-06
atom      7.6667470172    19.1665486116    26.8335256273   Al  0.0 0.0    2.75349979e-05 -9.21249931e-05  6.83499949e-06
atom      7.6698964639    22.9960980110     0.0000000000   Al  0.0 0.0    3.12394977e-04 -3.45724974e-04  1.99999985e-08
atom     11.5027026428    26.8328448316     0.0000000000   Al  0.0 0.0    6.74049949e-05  2.87849978e-05 -4.99999962e-09
atom     11.5001450589    22.9993302572     3.8331036436   Al  0.0 0.0    6.96599948e-05 -4.71099965e-05  3.15499976e-06
atom      7.6748797658    26.8305877792     3.8357164271   Al  0.0 0.0    3.16569976e-04 -1.41784989e-04  1.51699989e-04
atom      7.6667255506    22.9996706551     7.6667255506   Al  0.0 0.0    2.18649984e-05 -1.59749988e-05  2.18599984e-05
atom     11.4999855933    26.8332649623     7.6671364814   Al  0.0 0.0    7.44099944e-05 -1.16349991e-05  3.91599971e-05
atom     11.4993538639    23.0001275855    11.4993538639   Al  0.0 0.0   -2.63249980e-05  3.56999973e-06 -2.63049980e-05
atom      7.6671364814    26.8332649623    11.4999855933   Al  0.0 0.0    3.91799971e-05 -1.16349991e-05  7.43849944e-05
atom      7.6669126161    22.9995357226    15.3332364360   Al  0.0 0.0    3.90999971e-06 -7.73499942e-06 -3.99999970e-08
atom     11.4995439961    26.8333784282    15.3332364360   Al  0.0 0.0   -2.20449983e-05  9.89999926e-06  0.00000000e+00
atom     11.4993538639    23.0001275855    19.1671220746   Al  0.0 0.0   -2.63099980e-05  3.57999973e-06  2.62799980e-05
atom      7.6671364814    26.8332649623    19.1664872786   Al  0.0 0.0    3.91749971e-05 -1.16249991e-05 -7.44099944e-05
atom      7.6667255506    22.9996706551    22.9997473213   Al  0.0 0.0    2.18549984e-05 -1.59999988e-05 -2.18449984e-05
atom     11.4999855933    26.8332649623    22.9993363905   Al  0.0 0.0    7.44049944e-05 -1.16149991e-05 -3.91399971e-05
atom     11.5001450589    22.9993302572    26.8333692283   Al  0.0 0.0    6.96449948e-05 -4.71199965e-05 -3.13499976e-06
atom      7.6748797658    26.8305877792    26.8307564448   Al  0.0 0.0    3.16554976e-04 -1.41799989e-04 -1.51724989e-04
atom     15.3332364360     0.0005703964     0.0000000000   Al  0.0 0.0   -1.99999985e-08  3.65799973e-05  4.99999962e-09
atom     19.1654875516     3.8333980418     0.0000000000   Al  0.0 0.0   -3.07949977e-05  3.10599977e-05 -4.99999962e-09
atom     19.1642731593     0.0004139974     3.8329349780   Al  0.0 0.0   -6.72899949e-05  1.28199990e-05 -2.11649984e-05
atom     15.3332364360     3.8330208441     3.8334379082   Al  0.0 0.0   -9.99999925e-09  4.12999969e-05  1.48849989e-05
atom     15.3332364360     0.0000735995     7.6672836804   Al  0.0 0.0   -4.99999962e-09 -3.65999972e-06  5.20099961e-05
atom     19.1667663435     3.8333980418     7.6666580844   Al  0.0 0.0   -3.38649975e-05  2.17349984e-05  2.49399981e-05
atom     19.1662695467     0.0000367998    11.5002033252   Al  0.0 0.0   -5.61049958e-05  1.17049991e-05  5.60899958e-05
atom     15.3332364360     3.8334287082    11.5003014579   Al  0.0 0.0   -9.99999925e-09  8.85999933e-06  1.01349992e-05
atom     15.3332364360    30.6664146056    15.3332364360   Al  0.0 0.0   -1.99999985e-08 -3.46499974e-06 -1.49999989e-08
atom     19.1661714140     3.8334287082    15.3332364360   Al  0.0 0.0   -1.01449992e-05  8.89499933e-06 -9.99999925e-09
atom     19.1662695467     0.0000367998    19.1662695467   Al  0.0 0.0   -5.60999958e-05  1.17049991e-05 -5.60949958e-05
atom     15.3332364360     3.8334287082    19.1661714140   Al  0.0 0.0    4.99999962e-09  8.86499933e-06 -1.01449992e-05
atom     15.3332364360     0.0000735995    22.9991891915   Al  0.0 0.0   -2.99999977e-08 -3.65499973e-06 -5.20449961e-05
atom     19.1667663435     3.8333980418    22.9998147875   Al  0.0 0.0   -3.38499975e-05  2.17549984e-05 -2.48999981e-05
atom     19.1642731593     0.0004139974    26.8335378939   Al  0.0 0.0   -6.72499949e-05  1.28549990e-05  2.12099984e-05
atom     15.3332364360     3.8330208441    26.8330349637   Al  0.0 0.0   -1.49999989e-08  4.12949969e-05 -1.48449989e-05
atom     15.3332364360     7.6674186129     0.0000000000   Al  0.0 0.0   -1.49999989e-08  5.12699961e-05  9.99999925e-09
atom     19.1676894044    11.5000131931     0.0000000000   Al  0.0 0.0    1.60999988e-05  1.15399991e-05  1.99999985e-08
atom     19.1681034018     7.6671180815     3.8329043115   Al  0.0 0.0    4.03499970e-06  4.45799966e-05 -3.33899975e-05
atom     15.3332364360    11.5001818587     3.8337108398   Al  0.0 0.0   -1.49999989e-08 -1.27049990e-05 -4.78999964e-06
atom     15.3332364360     7.6668942162     7.6662594202   Al  0.0 0.0   -3.99999970e-08  4.09999969e-06 -3.49699974e-05
atom     19.1668859428    11.4994274635     7.6658760893   Al  0.0 0.0    3.28199975e-05 -2.11299984e-05 -1.85899986e-05
atom     19.1664075458     7.6663176865    11.5000683927   Al  0.0 0.0    3.08449977e-05 -4.86999963e-06 -3.08349977e-05
atom     15.3332364360    11.5002063919    11.5004762568   Al  0.0 0.0   -1.99999985e-08  1.36499990e-05  1.36199990e-05
atom     15.3332364360     7.6670444820    15.3332364360   Al  0.0 0.0    2.99999977e-08  2.75199979e-05  0.00000000e+00
atom     19.1659966151    11.5002063919    15.3332364360   Al  0.0 0.0   -1.36149990e-05  1.36049990e-05  0.00000000e+00
atom     19.1664075458     7.6663176865    19.1664075458   Al  0.0 0.0    3.08399977e-05 -4.88499963e-06  3.08099977e-05
atom     15.3332364360    11.5002063919    19.1659966151   Al  0.0 0.0   -1.49999989e-08  1.36349990e-05 -1.36399990e-05
atom     15.3332364360     7.6668942162    23.0002134517   Al  0.0 0.0   -1.99999985e-08  4.10999969e-06  3.49299974e-05
atom     19.1668859428    11.4994274635    23.0005967826   Al  0.0 0.0    3.28049975e-05 -2.11199984e-05  1.86849986e-05
atom     19.1681034018     7.6671180815    26.8335685604   Al  0.0 0.0    4.05999969e-06  4.46049966e-05  3.33699975e-05
atom     15.3332364360    11.5001818587    26.8327620321   Al  0.0 0.0   -1.99999985e-08 -1.26699990e-05  4.72499964e-06
atom     15.3332364360    15.3325495070     0.0000000000   Al  0.0 0.0    9.99999925e-09 -3.64799973e-05  4.99999962e-09
atom     19.1661990138    19.1666222111     0.0000000000   Al  0.0 0.0   -1.88149986e-05 -7.97699940e-05  1.49999989e-08
atom     19.1666283444    15.3328101720     3.8331864431   Al  0.0 0.0    2.31949983e-05 -1.37499990e-05 -5.89999956e-06
atom     15.3332364360    19.1668276765     3.8334440415   Al  0.0 0.0   -4.99999962e-09  1.75999987e-06  2.62499980e-06
atom     15.3332364360    15.3332333693     7.6670199488   Al  0.0 0.0   -3.49999974e-08  7.12499946e-06  3.24099976e-05
atom     19.1665792781    19.1668154099     7.6664250192   Al  0.0 0.0   -5.18499961e-06  1.04049992e-05 -5.14499961e-06
atom     19.1662572801    15.3332303027    11.5002155918   Al  0.0 0.0   -1.64599988e-05 -6.40999952e-06  1.64649988e-05
atom     15.3332364360    19.1659506154    11.4998383942   Al  0.0 0.0   -1.99999985e-08 -3.24899976e-05 -5.74499957e-06
atom     15.3332364360    15.3332977689    15.3332364360   Al  0.0 0.0   -0.00000000e+00 -5.64999958e-07 -9.99999925e-09
atom     19.1666344777    19.1659506154    15.3332364360   Al  0.0 0.0    5.77999957e-06 -3.24899976e-05 -9.99999925e-09
atom     19.1662572801    15.3332303027    19.1662572801   Al  0.0 0.0   -1.64749988e-05 -6.39499952e-06 -1.64899988e-05
atom     15.3332364360    19.1659506154    19.1666344777   Al  0.0 0.0    9.99999925e-09 -3.25099976e-05  5.75499957e-06
atom     15.3332364360    15.3332333693    22.9994529231   Al  0.0 0.0   -2.49999981e-08  7.07499947e-06 -3.23749976e-05
atom     19.1665792781    19.1668154099    23.0000478527   Al  0.0 0.0   -5.17999961e-06  1.04099992e-05  5.12999961e-06
atom     19.1666283444    15.3328101720    26.8332864288   Al  0.0 0.0    2.31999983e-05 -1.37799990e-05  5.85999956e-06
atom     15.3332364360    19.1668276765    26.8330288304   Al  0.0 0.0   -9.99999925e-09  1.75499987e-06 -2.61499980e-06
atom     15.3332364360    22.9991922581     0.0000000000   Al  0.0 0.0    4.99999962e-09 -4.66399965e-05  4.99999962e-09
atom     19.1637702291    26.8328448316     0.0000000000   Al  0.0 0.0   -6.73899949e-05  2.87599978e-05  9.99999925e-09
atom     19.1663278130    22.9993302572     3.8331036436   Al  0.0 0.0   -6.96349948e-05 -4.71199965e-05  3.12499977e-06
atom     15.3332364360    26.8329429643     3.8332784425   Al  0.0 0.0    4.99999962e-09 -2.93899978e-05  2.65049980e-05
atom     15.3332364360    22.9995357226     7.6669126161   Al  0.0 0.0   -3.49999974e-08 -7.72499942e-06  3.89999971e-06
atom     19.1664872786    26.8332649623     7.6671364814   Al  0.0 0.0   -7.44349944e-05 -1.16349991e-05  3.91549971e-05
atom     19.1671220746    23.0001275855    11.4993538639   Al  0.0 0.0    2.62899980e-05  3.55999973e-06 -2.62899980e-05
atom     15.3332364360    26.8333784282    11.4995439961   Al  0.0 0.0   -4.99999962e-09  9.91499925e-06 -2.20599983e-05
atom     15.3332364360    22.9994682564    15.3332364360   Al  0.0 0.0    1.99999985e-08 -2.27799983e-05 -9.99999925e-09
atom     19.1669288759    26.8333784282    15.3332364360   Al  0.0 0.0    2.20649983e-05  9.90499926e-06  4.99999962e-09
atom     19.1671220746    23.0001275855    19.1671220746   Al  0.0 0.0    2.62799980e-05  3.55999973e-06  2.62499980e-05
atom     15.3332364360    26.8333784282    19.1669288759   Al  0.0 0.0    1.99999985e-08  9.89999926e-06  2.20549983e-05
atom     15.3332364360    22.9995357226    22.9995602558   Al  0.0 0.0    4.99999962e-09 -7.72499942e-06 -3.87499971e-06
atom     19.1664872786    26.8332649623    22.9993363905   Al  0.0 0.0   -7.44449944e-05 -1.16499991e-05 -3.91349971e-05
atom     19.1663278130    22.9993302572    26.8333692283   Al  0.0 0.0   -6.96349948e-05 -4.71199965e-05 -3.11999977e-06
atom     15.3332364360    26.8329429643    26.8331944294   Al  0.0 0.0   -9.99999925e-09 -2.94299978e-05 -2.64799980e-05
atom     22.9992627910     0.0039897081     0.0000000000   Al  0.0 0.0    1.64724988e-04  1.93459985e-04 -1.49999989e-08
atom     26.8147424127     3.8981288327     0.0000000000   Al  0.0 0.0    2.79664979e-04 -9.12149931e-05  9.99999925e-09
atom     26.7895560385     0.0019258545     3.8769168334   Al  0.0 0.0    1.38064990e-04  1.02664992e-04 -1.38029990e-04
atom     22.9936998928     3.8361856241     3.8356888273   Al  0.0 0.0   -1.81294986e-04  2.31489983e-04  9.09299932e-05
atom     22.9947793527    30.6651480803     7.6716935192   Al  0.0 0.0   -3.78839972e-04 -3.35499975e-05  3.78874972e-04
atom     26.8307840446     3.8361856241     7.6727729791   Al  0.0 0.0   -9.09649932e-05  2.31474983e-04  1.81349986e-04
atom     26.8335378939     0.0004139974    11.5021997126   Al  0.0 0.0    2.11849984e-05  1.28199990e-05  6.72149949e-05
atom     22.9998147875     3.8333980418    11.4997065284   Al  0.0 0.0   -2.49049981e-05  2.17649984e-05  3.38099975e-05
atom     22.9991891915     0.0000735995    15.3332364360   Al  0.0 0.0   -5.20699961e-05 -3.67499972e-06 -2.49999981e-08
atom     26.8330349637     3.8330208441    15.3332364360   Al  0.0 0.0   -1.48349989e-05  4.13549969e-05 -2.99999977e-08
atom     26.8335378939     0.0004139974    19.1642731593   Al  0.0 0.0    2.12099984e-05  1.28149990e-05 -6.71849950e-05
atom     22.9998147875     3.8333980418    19.1667663435   Al  0.0 0.0   -2.48899981e-05  2.17799984e-05 -3.38299975e-05
atom     22.9947793527    30.6651480803    22.9947793527   Al  0.0 0.0   -3.78844972e-04 -3.35799975e-05 -3.78854972e-04
atom     26.8307840446     3.8361856241    22.9936998928   Al  0.0 0.0   -9.09549932e-05  2.31514983e-04 -1.81329986e-04
atom     26.7895560385     0.0019258545    26.7895560385   Al  0.0 0.0    1.38064990e-04  1.02644992e-04  1.38054990e-04
atom     22.9936998928     3.8361856241    26.8307840446   Al  0.0 0.0   -1.81304986e-04  2.31504983e-04 -9.09499932e-05
atom     23.0058622160     7.6700375297     0.0000000000   Al  0.0 0.0   -2.36244982e-04  3.27234975e-04 -3.49999974e-08
atom     26.8554490888    11.4801321187     0.0000000000   Al  0.0 0.0   -4.53999966e-05  1.23614991e-04 -9.99999925e-09
atom     26.8508828509     7.6755206951     3.8155900210   Al  0.0 0.0   -2.38969982e-04  3.30644975e-04  2.38949982e-04
atom     23.0018847744    11.4996145289     3.8326804463   Al  0.0 0.0    1.05624992e-04 -2.86999978e-06 -7.23999946e-05
atom     23.0031850329     7.6669095495     7.6632878390   Al  0.0 0.0    1.46389989e-04  2.24699983e-05 -1.46404989e-04
atom     26.8337924256    11.4996145289     7.6645911641   Al  0.0 0.0    7.24399946e-05 -2.83999979e-06 -1.05624992e-04
atom     26.8335685604     7.6671180815    11.4983694701   Al  0.0 0.0    3.33649975e-05  4.45949966e-05 -4.02499970e-06
atom     23.0005967826    11.4994274635    11.4995869291   Al  0.0 0.0    1.86349986e-05 -2.11349984e-05 -3.27699975e-05
atom     23.0002134517     7.6668942162    15.3332364360   Al  0.0 0.0    3.48949974e-05  4.12999969e-06 -1.49999989e-08
atom     26.8327620321    11.5001818587    15.3332364360   Al  0.0 0.0    4.75999964e-06 -1.26999990e-05 -4.99999962e-08
atom     26.8335685604     7.6671180815    19.1681034018   Al  0.0 0.0    3.33599975e-05  4.45999966e-05  4.07499969e-06
atom     23.0005967826    11.4994274635    19.1668859428   Al  0.0 0.0    1.86399986e-05 -2.11549984e-05  3.28149975e-05
atom     23.0031850329     7.6669095495    23.0031850329   Al  0.0 0.0    1.46389989e-04  2.24749983e-05  1.46374989e-04
atom     26.8337924256    11.4996145289    23.0018847744   Al  0.0 0.0    7.24449946e-05 -2.86499978e-06  1.05619992e-04
atom     26.8508828509     7.6755206951    26.8508828509   Al  0.0 0.0   -2.38959982e-04  3.30664975e-04 -2.38954982e-04
atom     23.0018847744    11.4996145289    26.8337924256   Al  0.0 0.0    1.05644992e-04 -2.86999978e-06  7.24199946e-05
atom     23.0025257037    15.3297036583     0.0000000000   Al  0.0 0.0    1.16254991e-04 -1.68179987e-04 -9.99999925e-09
atom     26.8332925621    19.1624699707     0.0000000000   Al  0.0 0.0    2.04449985e-05 -1.72374987e-04  9.99999925e-09
atom     26.8335992268    15.3301943218     3.8328736451   Al  0.0 0.0    3.99349970e-05 -1.66844987e-04 -3.99149970e-05
atom     22.9997258547    19.1665486116     3.8329472446   Al  0.0 0.0   -2.75199979e-05 -9.20899931e-05 -6.90999948e-06
atom     22.9985451955    15.3343158958     7.6679276764   Al  0.0 0.0   -2.51949981e-05  2.26449983e-05  2.52449981e-05
atom     26.8335256273    19.1665486116     7.6667470172   Al  0.0 0.0    6.84499949e-06 -9.21349931e-05  2.75599979e-05
atom     26.8332864288    15.3328101720    11.4998445275   Al  0.0 0.0    5.87999956e-06 -1.37649990e-05 -2.31949983e-05
atom     23.0000478527    19.1668154099    11.4998935938   Al  0.0 0.0    5.14999961e-06  1.04149992e-05  5.20999961e-06
atom     22.9994529231    15.3332333693    15.3332364360   Al  0.0 0.0   -3.24149976e-05  7.12999946e-06 -2.99999977e-08
atom     26.8330288304    19.1668276765    15.3332364360   Al  0.0 0.0   -2.59999980e-06  1.73499987e-06 -3.49999974e-08
atom     26.8332864288    15.3328101720    19.1666283444   Al  0.0 0.0    5.88499956e-06 -1.37499990e-05  2.32449983e-05
atom     23.0000478527    19.1668154099    19.1665792781   Al  0.0 0.0    5.11999962e-06  1.04049992e-05 -5.18999961e-06
atom     22.9985451955    15.3343158958    22.9985451955   Al  0.0 0.0   -2.51949981e-05  2.26549983e-05 -2.52049981e-05
atom     26.8335256273    19.1665486116    22.9997258547   Al  0.0 0.0    6.85999948e-06 -9.21099931e-05 -2.75049979e-05
atom     26.8335992268    15.3301943218    26.8335992268   Al  0.0 0.0    3.99099970e-05 -1.66824987e-04  3.98849970e-05
atom     22.9997258547    19.1665486116    26.8335256273   Al  0.0 0.0   -2.74849979e-05 -9.20699931e-05  6.83999949e-06
atom     22.9965764080    22.9960980110     0.0000000000   Al  0.0 0.0   -3.12394977e-04 -3.45749974e-04  1.99999985e-08
atom     26.7898811031    26.7908930967     0.0000000000   Al  0.0 0.0    1.06079992e-04  1.35199990e-04  9.99999925e-09
atom     26.8302811145    22.9913569743     3.8361917574   Al  0.0 0.0   -1.62494988e-04 -3.33169975e-04  1.62429988e-04
atom     22.9915931061    26.8305877792     3.8357164271   Al  0.0 0.0   -3.16529976e-04 -1.41819989e-04  1.51674989e-04
atom     22.9997473213    22.9996706551     7.6667255506   Al  0.0 0.0   -2.18399984e-05 -1.59949988e-05  2.18749984e-05
atom     26.8307564448    26.8305877792     7.6748797658   Al  0.0 0.0   -1.51714989e-04 -1.41784989e-04  3.16579976e-04