begin
comment 2 atoms, species Al2
lattice      5.3528883192     0.0000000000    -0.0000000000
lattice     -2.6764441596     4.6357372681     0.0000000000
lattice     -0.0000000000     0.0000000000     9.1974577159
atom      0.0000000000     3.0904915120     6.8980932869   Al  0.0 0.0   -1.32856530e-14  1.32397734e-14  4.15912078e-15
atom      2.6764441596     1.5452457560     2.2993644290   Al  0.0 0.0    1.32856530e-14 -1.32397734e-14 -4.15898584e-15
energy -1.814541150182027e-01
charge 0.0000
end
