begin
comment 8 atoms, species Al8
lattice     11.4956556509    -0.0000000000     0.0000000000
lattice     -0.0000000000    11.4956556509    -0.0000000000
lattice      0.0000000000    -0.0000000000    11.4956556509
atom      0.0000000000     0.0000000000     0.0000000000   Al  0.0 0.0   -1.77582124e-13 -1.77582124e-13  6.51814192e-14
atom      0.0000000000     5.7478278255     5.7478278255   Al  0.0 0.0   -1.77558374e-13 -2.17430986e-12 -2.17542825e-12
atom      5.7478278254     5.7478278254     0.0000000000   Al  0.0 0.0    2.21366188e-12  2.21366161e-12  6.51847252e-14
atom      5.7478278255     0.0000000000     5.7478278255   Al  0.0 0.0   -2.17430973e-12 -1.77559724e-13 -2.17542710e-12
atom      8.6217417382     2.8739139127     8.6217417382   Al  0.0 0.0    1.87233573e-13  2.42796037e-12 -6.52413326e-14
atom      2.8739139127     2.8739139127     2.8739139127   Al  0.0 0.0   -2.93354170e-14 -2.93338652e-14  4.63280756e-12
atom      2.8739139127     8.6217417382     8.6217417382   Al  0.0 0.0    2.42795848e-12  1.87231616e-13 -6.52417374e-14
atom      8.6217417382     8.6217417382     2.8739139127   Al  0.0 0.0   -2.27006599e-12 -2.27006869e-12 -2.81840009e-13
energy -5.466010412914489e-01
charge 0.0000
end
