begin
comment 4 atoms, species Al4
lattice      7.6296971217     0.0000000000     0.0000000000
lattice      0.0000000000     7.6296971217     0.0000000000
lattice      0.0000000000     0.0000000000     7.6296971217
atom      0.0000000000     0.0000000000     0.0000000000   Al  0.0 0.0    1.48299738e-13  1.48299738e-13  1.48297579e-13
atom      0.0000000000     3.8148485608     3.8148485608   Al  0.0 0.0    1.48298524e-13 -1.48299064e-13 -1.48299603e-13
atom      3.8148485608     0.0000000000     3.8148485608   Al  0.0 0.0   -1.48299873e-13  1.48297714e-13 -1.48299603e-13
atom      3.8148485608     3.8148485608     0.0000000000   Al  0.0 0.0   -1.48299603e-13 -1.48299603e-13  1.48297309e-13
energy -3.652442729309824e-01
charge 0.0000
end
