
     Program PWSCF v.6.3 starts on 26Feb2020 at 10:32: 9 

     This program is part of the open-source Quantum ESPRESSO suite
     for quantum simulation of materials; please cite
         "P. Giannozzi et al., J. Phys.:Condens. Matter 21 395502 (2009);
         "P. Giannozzi et al., J. Phys.:Condens. Matter 29 465901 (2017);
          URL http://www.quantum-espresso.org", 
     in publications or presentations arising from this work. More details at
     http://www.quantum-espresso.org/quote

 *** WARNING: using old-style file format, will disappear from next version ***

     Parallel version (MPI & OpenMP), running on     180 processor cores
     Number of MPI processes:               180
     Threads/MPI process:                     1

     MPI processes distributed on     5 nodes
     K-points division:     npool     =      36
     R & G space division:  proc/nbgrp/npool/nimage =       5
     Reading input from aiida.in
Warning: card &IONS ignored
Warning: card   !PRESS_CONV_THR = 0.05                 ! JUST FOR VOLUME RELAXATIONS ignored
Warning: card / ignored

     Current dimensions of program PWSCF are:
     Max number of different atomic species (ntypx) = 10
     Max number of k-points (npk) =  40000
     Max angular momentum in pseudopotentials (lmaxx) =  3
               file Al.pbe-n-kjpaw_psl.1.0.0.UPF: wavefunction(s)  3S 3P renormalized

     Subspace diagonalization in iterative solution of the eigenvalue problem:
     a serial algorithm will be used

     Found symmetry operation: I + (  0.0714 -0.5000  0.0000)
     This is a supercell, fractional translations are disabled
 
     Parallelization info
     --------------------
     sticks:   dense  smooth     PW     G-vecs:    dense   smooth      PW
     Min        2620    1050    299               596704   150998   22811
     Max        2622    1051    300               596705   150999   22816
     Sum       13105    5251   1499              2983521   754991  114069
 


     bravais-lattice index     =            0
     lattice parameter (alat)  =      53.6663  a.u.
     unit-cell volume          =   22080.4393 (a.u.)^3
     number of atoms/cell      =          196
     number of atomic types    =            1
     number of electrons       =       588.00
     number of Kohn-Sham states=          353
     kinetic-energy cutoff     =      40.0000  Ry
     charge density cutoff     =     400.0000  Ry
     convergence threshold     =      1.0E-12
     mixing beta               =       0.4000
     number of iterations used =            8  local-TF  mixing
     Exchange-correlation      = SLA PW PBX PBC ( 1  4  3  4 0 0)

     celldm(1)=  53.666332  celldm(2)=   0.000000  celldm(3)=   0.000000
     celldm(4)=   0.000000  celldm(5)=   0.000000  celldm(6)=   0.000000

     crystal axes: (cart. coord. in units of alat)
               a(1) = (   1.000000   0.000000   0.000000 )  
               a(2) = (   0.000000   0.142857   0.000000 )  
               a(3) = (   0.000000   0.000000   1.000000 )  

     reciprocal axes: (cart. coord. in units 2 pi/alat)
               b(1) = (  1.000000  0.000000  0.000000 )  
               b(2) = (  0.000000  7.000000  0.000000 )  
               b(3) = (  0.000000  0.000000  1.000000 )  


     PseudoPot. # 1 for Al read from file:
     /users/aglensk/Dropbox/Albert/scripts/dotfiles/scripts/potentials/quantum_espresso/pseudo_SSSPefV1.1_alalloy/Al.pbe-n-kjpaw_psl.1.0.0.UPF
     MD5 check sum: cfc449ca30b5f3223ec38ddd88ac046d
     Pseudo is Projector augmented-wave + core cor, Zval =  3.0
     Generated using "atomic" code by A. Dal Corso v.5.1
     Shape of augmentation charge: PSQ
     Using radial grid of 1135 points,  6 beta functions with: 
                l(1) =   0
                l(2) =   0
                l(3) =   1
                l(4) =   1
                l(5) =   2
                l(6) =   2
     Q(r) pseudized with 0 coefficients 


     atomic species   valence    mass     pseudopotential
        Al             3.00    26.98154     Al( 1.00)

     No symmetry found


                                    s                        frac. trans.

      isym =  1     identity                                     

 cryst.   s( 1) = (     1          0          0      )
                  (     0          1          0      )
                  (     0          0          1      )

 cart.    s( 1) = (  1.0000000  0.0000000  0.0000000 )
                  (  0.0000000  1.0000000  0.0000000 )
                  (  0.0000000  0.0000000  1.0000000 )


   Cartesian axes

     site n.     atom                  positions (alat units)
         1           Al  tau(   1) = (   0.0000000   0.0000000   0.0000000  )
         2           Al  tau(   2) = (   0.0714286   0.0714286   0.0000000  )
         3           Al  tau(   3) = (   0.0714286   0.0000000   0.0714286  )
         4           Al  tau(   4) = (   0.0000000   0.0714286   0.0714286  )
         5           Al  tau(   5) = (   0.0000000   0.0000000   0.1428571  )
         6           Al  tau(   6) = (   0.0714286   0.0714286   0.1428571  )
         7           Al  tau(   7) = (   0.0714286   0.0000000   0.2142857  )
         8           Al  tau(   8) = (   0.0000000   0.0714286   0.2142857  )
         9           Al  tau(   9) = (   0.0000000   0.0000000   0.2857143  )
        10           Al  tau(  10) = (   0.0714286   0.0714286   0.2857143  )
        11           Al  tau(  11) = (   0.0714286   0.0000000   0.3571429  )
        12           Al  tau(  12) = (   0.0000000   0.0714286   0.3571429  )
        13           Al  tau(  13) = (   0.0000000   0.0000000   0.4285714  )
        14           Al  tau(  14) = (   0.0714286   0.0714286   0.4285714  )
        15           Al  tau(  15) = (   0.0714286   0.0000000   0.5000000  )
        16           Al  tau(  16) = (   0.0000000   0.0714286   0.5000000  )
        17           Al  tau(  17) = (   0.0000000   0.0000000   0.5714286  )
        18           Al  tau(  18) = (   0.0714286   0.0714286   0.5714286  )
        19           Al  tau(  19) = (   0.0714286   0.0000000   0.6428571  )
        20           Al  tau(  20) = (   0.0000000   0.0714286   0.6428571  )
        21           Al  tau(  21) = (   0.0000000   0.0000000   0.7142857  )
        22           Al  tau(  22) = (   0.0714286   0.0714286   0.7142857  )
        23           Al  tau(  23) = (   0.0714286   0.0000000   0.7857143  )
        24           Al  tau(  24) = (   0.0000000   0.0714286   0.7857143  )
        25           Al  tau(  25) = (   0.0000000   0.0000000   0.8571429  )
        26           Al  tau(  26) = (   0.0714286   0.0714286   0.8571429  )
        27           Al  tau(  27) = (   0.0714286   0.0000000   0.9285714  )
        28           Al  tau(  28) = (   0.0000000   0.0714286   0.9285714  )
        29           Al  tau(  29) = (   0.1428571   0.0000000   0.0000000  )
        30           Al  tau(  30) = (   0.2142857   0.0714286   0.0000000  )
        31           Al  tau(  31) = (   0.2142857   0.0000000   0.0714286  )
        32           Al  tau(  32) = (   0.1428571   0.0714286   0.0714286  )
        33           Al  tau(  33) = (   0.1428571   0.0000000   0.1428571  )
        34           Al  tau(  34) = (   0.2142857   0.0714286   0.1428571  )
        35           Al  tau(  35) = (   0.2142857   0.0000000   0.2142857  )
        36           Al  tau(  36) = (   0.1428571   0.0714286   0.2142857  )
        37           Al  tau(  37) = (   0.1428571   0.0000000   0.2857143  )
        38           Al  tau(  38) = (   0.2142857   0.0714286   0.2857143  )
        39           Al  tau(  39) = (   0.2142857   0.0000000   0.3571429  )
        40           Al  tau(  40) = (   0.1428571   0.0714286   0.3571429  )
        41           Al  tau(  41) = (   0.1428571   0.0000000   0.4285714  )
        42           Al  tau(  42) = (   0.2142857   0.0714286   0.4285714  )
        43           Al  tau(  43) = (   0.2142857   0.0000000   0.5000000  )
        44           Al  tau(  44) = (   0.1428571   0.0714286   0.5000000  )
        45           Al  tau(  45) = (   0.1428571   0.0000000   0.5714286  )
        46           Al  tau(  46) = (   0.2142857   0.0714286   0.5714286  )
        47           Al  tau(  47) = (   0.2142857   0.0000000   0.6428571  )
        48           Al  tau(  48) = (   0.1428571   0.0714286   0.6428571  )
        49           Al  tau(  49) = (   0.1428571   0.0000000   0.7142857  )
        50           Al  tau(  50) = (   0.2142857   0.0714286   0.7142857  )
        51           Al  tau(  51) = (   0.2142857   0.0000000   0.7857143  )
        52           Al  tau(  52) = (   0.1428571   0.0714286   0.7857143  )
        53           Al  tau(  53) = (   0.1428571   0.0000000   0.8571429  )
        54           Al  tau(  54) = (   0.2142857   0.0714286   0.8571429  )
        55           Al  tau(  55) = (   0.2142857   0.0000000   0.9285714  )
        56           Al  tau(  56) = (   0.1428571   0.0714286   0.9285714  )
        57           Al  tau(  57) = (   0.2857143   0.0000000   0.0000000  )
        58           Al  tau(  58) = (   0.3571429   0.0714286   0.0000000  )
        59           Al  tau(  59) = (   0.3571429   0.0000000   0.0714286  )
        60           Al  tau(  60) = (   0.2857143   0.0714286   0.0714286  )
        61           Al  tau(  61) = (   0.2857143   0.0000000   0.1428571  )
        62           Al  tau(  62) = (   0.3571429   0.0714286   0.1428571  )
        63           Al  tau(  63) = (   0.3571429   0.0000000   0.2142857  )
        64           Al  tau(  64) = (   0.2857143   0.0714286   0.2142857  )
        65           Al  tau(  65) = (   0.2857143   0.0000000   0.2857143  )
        66           Al  tau(  66) = (   0.3571429   0.0714286   0.2857143  )
        67           Al  tau(  67) = (   0.3571429   0.0000000   0.3571429  )
        68           Al  tau(  68) = (   0.2857143   0.0714286   0.3571429  )
        69           Al  tau(  69) = (   0.2857143   0.0000000   0.4285714  )
        70           Al  tau(  70) = (   0.3571429   0.0714286   0.4285714  )
        71           Al  tau(  71) = (   0.3571429   0.0000000   0.5000000  )
        72           Al  tau(  72) = (   0.2857143   0.0714286   0.5000000  )
        73           Al  tau(  73) = (   0.2857143   0.0000000   0.5714286  )
        74           Al  tau(  74) = (   0.3571429   0.0714286   0.5714286  )
        75           Al  tau(  75) = (   0.3571429   0.0000000   0.6428571  )
        76           Al  tau(  76) = (   0.2857143   0.0714286   0.6428571  )
        77           Al  tau(  77) = (   0.2857143   0.0000000   0.7142857  )
        78           Al  tau(  78) = (   0.3571429   0.0714286   0.7142857  )
        79           Al  tau(  79) = (   0.3571429   0.0000000   0.7857143  )
        80           Al  tau(  80) = (   0.2857143   0.0714286   0.7857143  )
        81           Al  tau(  81) = (   0.2857143   0.0000000   0.8571429  )
        82           Al  tau(  82) = (   0.3571429   0.0714286   0.8571429  )
        83           Al  tau(  83) = (   0.3571429   0.0000000   0.9285714  )
        84           Al  tau(  84) = (   0.2857143   0.0714286   0.9285714  )
        85           Al  tau(  85) = (   0.4285714   0.0000000   0.0000000  )
        86           Al  tau(  86) = (   0.5000000   0.0714286   0.0000000  )
        87           Al  tau(  87) = (   0.5000000   0.0000000   0.0714286  )
        88           Al  tau(  88) = (   0.4285714   0.0714286   0.0714286  )
        89           Al  tau(  89) = (   0.4285714   0.0000000   0.1428571  )
        90           Al  tau(  90) = (   0.5000000   0.0714286   0.1428571  )
        91           Al  tau(  91) = (   0.5000000   0.0000000   0.2142857  )
        92           Al  tau(  92) = (   0.4285714   0.0714286   0.2142857  )
        93           Al  tau(  93) = (   0.4285714   0.0000000   0.2857143  )
        94           Al  tau(  94) = (   0.5000000   0.0714286   0.2857143  )
        95           Al  tau(  95) = (   0.5000000   0.0000000   0.3571429  )
        96           Al  tau(  96) = (   0.4285714   0.0714286   0.3571429  )
        97           Al  tau(  97) = (   0.4285714   0.0000000   0.4285714  )
        98           Al  tau(  98) = (   0.5000000   0.0714286   0.4285714  )
        99           Al  tau(  99) = (   0.5000000   0.0000000   0.5000000  )
       100           Al  tau( 100) = (   0.4285714   0.0714286   0.5000000  )
       101           Al  tau( 101) = (   0.4285714   0.0000000   0.5714286  )
       102           Al  tau( 102) = (   0.5000000   0.0714286   0.5714286  )
       103           Al  tau( 103) = (   0.5000000   0.0000000   0.6428571  )
       104           Al  tau( 104) = (   0.4285714   0.0714286   0.6428571  )
       105           Al  tau( 105) = (   0.4285714   0.0000000   0.7142857  )
       106           Al  tau( 106) = (   0.5000000   0.0714286   0.7142857  )
       107           Al  tau( 107) = (   0.5000000   0.0000000   0.7857143  )
       108           Al  tau( 108) = (   0.4285714   0.0714286   0.7857143  )
       109           Al  tau( 109) = (   0.4285714   0.0000000   0.8571429  )
       110           Al  tau( 110) = (   0.5000000   0.0714286   0.8571429  )
       111           Al  tau( 111) = (   0.5000000   0.0000000   0.9285714  )
       112           Al  tau( 112) = (   0.4285714   0.0714286   0.9285714  )
       113           Al  tau( 113) = (   0.5714286   0.0000000   0.0000000  )
       114           Al  tau( 114) = (   0.6428571   0.0714286   0.0000000  )
       115           Al  tau( 115) = (   0.6428571   0.0000000   0.0714286  )
       116           Al  tau( 116) = (   0.5714286   0.0714286   0.0714286  )
       117           Al  tau( 117) = (   0.5714286   0.0000000   0.1428571  )
       118           Al  tau( 118) = (   0.6428571   0.0714286   0.1428571  )
       119           Al  tau( 119) = (   0.6428571   0.0000000   0.2142857  )
       120           Al  tau( 120) = (   0.5714286   0.0714286   0.2142857  )
       121           Al  tau( 121) = (   0.5714286   0.0000000   0.2857143  )
       122           Al  tau( 122) = (   0.6428571   0.0714286   0.2857143  )
       123           Al  tau( 123) = (   0.6428571   0.0000000   0.3571429  )
       124           Al  tau( 124) = (   0.5714286   0.0714286   0.3571429  )
       125           Al  tau( 125) = (   0.5714286   0.0000000   0.4285714  )
       126           Al  tau( 126) = (   0.6428571   0.0714286   0.4285714  )
       127           Al  tau( 127) = (   0.6428571   0.0000000   0.5000000  )
       128           Al  tau( 128) = (   0.5714286   0.0714286   0.5000000  )
       129           Al  tau( 129) = (   0.5714286   0.0000000   0.5714286  )
       130           Al  tau( 130) = (   0.6428571   0.0714286   0.5714286  )
       131           Al  tau( 131) = (   0.6428571   0.0000000   0.6428571  )
       132           Al  tau( 132) = (   0.5714286   0.0714286   0.6428571  )
       133           Al  tau( 133) = (   0.5714286   0.0000000   0.7142857  )
       134           Al  tau( 134) = (   0.6428571   0.0714286   0.7142857  )
       135           Al  tau( 135) = (   0.6428571   0.0000000   0.7857143  )
       136           Al  tau( 136) = (   0.5714286   0.0714286   0.7857143  )
       137           Al  tau( 137) = (   0.5714286   0.0000000   0.8571429  )
       138           Al  tau( 138) = (   0.6428571   0.0714286   0.8571429  )
       139           Al  tau( 139) = (   0.6428571   0.0000000   0.9285714  )
       140           Al  tau( 140) = (   0.5714286   0.0714286   0.9285714  )
       141           Al  tau( 141) = (   0.7142857   0.0000000   0.0000000  )
       142           Al  tau( 142) = (   0.7857143   0.0714286   0.0000000  )
       143           Al  tau( 143) = (   0.7857143   0.0000000   0.0714286  )
       144           Al  tau( 144) = (   0.7142857   0.0714286   0.0714286  )
       145           Al  tau( 145) = (   0.7142857   0.0000000   0.1428571  )
       146           Al  tau( 146) = (   0.7857143   0.0714286   0.1428571  )
       147           Al  tau( 147) = (   0.7857143   0.0000000   0.2142857  )
       148           Al  tau( 148) = (   0.7142857   0.0714286   0.2142857  )
       149           Al  tau( 149) = (   0.7142857   0.0000000   0.2857143  )
       150           Al  tau( 150) = (   0.7857143   0.0714286   0.2857143  )
       151           Al  tau( 151) = (   0.7857143   0.0000000   0.3571429  )
       152           Al  tau( 152) = (   0.7142857   0.0714286   0.3571429  )
       153           Al  tau( 153) = (   0.7142857   0.0000000   0.4285714  )
       154           Al  tau( 154) = (   0.7857143   0.0714286   0.4285714  )
       155           Al  tau( 155) = (   0.7857143   0.0000000   0.5000000  )
       156           Al  tau( 156) = (   0.7142857   0.0714286   0.5000000  )
       157           Al  tau( 157) = (   0.7142857   0.0000000   0.5714286  )
       158           Al  tau( 158) = (   0.7857143   0.0714286   0.5714286  )
       159           Al  tau( 159) = (   0.7857143   0.0000000   0.6428571  )
       160           Al  tau( 160) = (   0.7142857   0.0714286   0.6428571  )
       161           Al  tau( 161) = (   0.7142857   0.0000000   0.7142857  )
       162           Al  tau( 162) = (   0.7857143   0.0714286   0.7142857  )
       163           Al  tau( 163) = (   0.7857143   0.0000000   0.7857143  )
       164           Al  tau( 164) = (   0.7142857   0.0714286   0.7857143  )
       165           Al  tau( 165) = (   0.7142857   0.0000000   0.8571429  )
       166           Al  tau( 166) = (   0.7857143   0.0714286   0.8571429  )
       167           Al  tau( 167) = (   0.7857143   0.0000000   0.9285714  )
       168           Al  tau( 168) = (   0.7142857   0.0714286   0.9285714  )
       169           Al  tau( 169) = (   0.8571429   0.0000000   0.0000000  )
       170           Al  tau( 170) = (   0.9285714   0.0714286   0.0000000  )
       171           Al  tau( 171) = (   0.9285714   0.0000000   0.0714286  )
       172           Al  tau( 172) = (   0.8571429   0.0714286   0.0714286  )
       173           Al  tau( 173) = (   0.8571429   0.0000000   0.1428571  )
       174           Al  tau( 174) = (   0.9285714   0.0714286   0.1428571  )
       175           Al  tau( 175) = (   0.9285714   0.0000000   0.2142857  )
       176           Al  tau( 176) = (   0.8571429   0.0714286   0.2142857  )
       177           Al  tau( 177) = (   0.8571429   0.0000000   0.2857143  )
       178           Al  tau( 178) = (   0.9285714   0.0714286   0.2857143  )
       179           Al  tau( 179) = (   0.9285714   0.0000000   0.3571429  )
       180           Al  tau( 180) = (   0.8571429   0.0714286   0.3571429  )
       181           Al  tau( 181) = (   0.8571429   0.0000000   0.4285714  )
       182           Al  tau( 182) = (   0.9285714   0.0714286   0.4285714  )
       183           Al  tau( 183) = (   0.9285714   0.0000000   0.5000000  )
       184           Al  tau( 184) = (   0.8571429   0.0714286   0.5000000  )
       185           Al  tau( 185) = (   0.8571429   0.0000000   0.5714286  )
       186           Al  tau( 186) = (   0.9285714   0.0714286   0.5714286  )
       187           Al  tau( 187) = (   0.9285714   0.0000000   0.6428571  )
       188           Al  tau( 188) = (   0.8571429   0.0714286   0.6428571  )
       189           Al  tau( 189) = (   0.8571429   0.0000000   0.7142857  )
       190           Al  tau( 190) = (   0.9285714   0.0714286   0.7142857  )
       191           Al  tau( 191) = (   0.9285714   0.0000000   0.7857143  )
       192           Al  tau( 192) = (   0.8571429   0.0714286   0.7857143  )
       193           Al  tau( 193) = (   0.8571429   0.0000000   0.8571429  )
       194           Al  tau( 194) = (   0.9285714   0.0714286   0.8571429  )
       195           Al  tau( 195) = (   0.9285714   0.0000000   0.9285714  )
       196           Al  tau( 196) = (   0.8571429   0.0714286   0.9285714  )

   Crystallographic axes

     site n.     atom                  positions (cryst. coord.)
         1           Al  tau(   1) = (  0.0000000  0.0000000  0.0000000  )
         2           Al  tau(   2) = (  0.0714286  0.5000000  0.0000000  )
         3           Al  tau(   3) = (  0.0714286  0.0000000  0.0714286  )
         4           Al  tau(   4) = (  0.0000000  0.5000000  0.0714286  )
         5           Al  tau(   5) = (  0.0000000  0.0000000  0.1428571  )
         6           Al  tau(   6) = (  0.0714286  0.5000000  0.1428571  )
         7           Al  tau(   7) = (  0.0714286  0.0000000  0.2142857  )
         8           Al  tau(   8) = (  0.0000000  0.5000000  0.2142857  )
         9           Al  tau(   9) = (  0.0000000  0.0000000  0.2857143  )
        10           Al  tau(  10) = (  0.0714286  0.5000000  0.2857143  )
        11           Al  tau(  11) = (  0.0714286  0.0000000  0.3571429  )
        12           Al  tau(  12) = (  0.0000000  0.5000000  0.3571429  )
        13           Al  tau(  13) = (  0.0000000  0.0000000  0.4285714  )
        14           Al  tau(  14) = (  0.0714286  0.5000000  0.4285714  )
        15           Al  tau(  15) = (  0.0714286  0.0000000  0.5000000  )
        16           Al  tau(  16) = (  0.0000000  0.5000000  0.5000000  )
        17           Al  tau(  17) = (  0.0000000  0.0000000  0.5714286  )
        18           Al  tau(  18) = (  0.0714286  0.5000000  0.5714286  )
        19           Al  tau(  19) = (  0.0714286  0.0000000  0.6428571  )
        20           Al  tau(  20) = (  0.0000000  0.5000000  0.6428571  )
        21           Al  tau(  21) = (  0.0000000  0.0000000  0.7142857  )
        22           Al  tau(  22) = (  0.0714286  0.5000000  0.7142857  )
        23           Al  tau(  23) = (  0.0714286  0.0000000  0.7857143  )
        24           Al  tau(  24) = (  0.0000000  0.5000000  0.7857143  )
        25           Al  tau(  25) = (  0.0000000  0.0000000  0.8571429  )
        26           Al  tau(  26) = (  0.0714286  0.5000000  0.8571429  )
        27           Al  tau(  27) = (  0.0714286  0.0000000  0.9285714  )
        28           Al  tau(  28) = (  0.0000000  0.5000000  0.9285714  )
        29           Al  tau(  29) = (  0.1428571  0.0000000  0.0000000  )
        30           Al  tau(  30) = (  0.2142857  0.5000000  0.0000000  )
        31           Al  tau(  31) = (  0.2142857  0.0000000  0.0714286  )
        32           Al  tau(  32) = (  0.1428571  0.5000000  0.0714286  )
        33           Al  tau(  33) = (  0.1428571  0.0000000  0.1428571  )
        34           Al  tau(  34) = (  0.2142857  0.5000000  0.1428571  )
        35           Al  tau(  35) = (  0.2142857  0.0000000  0.2142857  )
        36           Al  tau(  36) = (  0.1428571  0.5000000  0.2142857  )
        37           Al  tau(  37) = (  0.1428571  0.0000000  0.2857143  )
        38           Al  tau(  38) = (  0.2142857  0.5000000  0.2857143  )
        39           Al  tau(  39) = (  0.2142857  0.0000000  0.3571429  )
        40           Al  tau(  40) = (  0.1428571  0.5000000  0.3571429  )
        41           Al  tau(  41) = (  0.1428571  0.0000000  0.4285714  )
        42           Al  tau(  42) = (  0.2142857  0.5000000  0.4285714  )
        43           Al  tau(  43) = (  0.2142857  0.0000000  0.5000000  )
        44           Al  tau(  44) = (  0.1428571  0.5000000  0.5000000  )
        45           Al  tau(  45) = (  0.1428571  0.0000000  0.5714286  )
        46           Al  tau(  46) = (  0.2142857  0.5000000  0.5714286  )
        47           Al  tau(  47) = (  0.2142857  0.0000000  0.6428571  )
        48           Al  tau(  48) = (  0.1428571  0.5000000  0.6428571  )
        49           Al  tau(  49) = (  0.1428571  0.0000000  0.7142857  )
        50           Al  tau(  50) = (  0.2142857  0.5000000  0.7142857  )
        51           Al  tau(  51) = (  0.2142857  0.0000000  0.7857143  )
        52           Al  tau(  52) = (  0.1428571  0.5000000  0.7857143  )
        53           Al  tau(  53) = (  0.1428571  0.0000000  0.8571429  )
        54           Al  tau(  54) = (  0.2142857  0.5000000  0.8571429  )
        55           Al  tau(  55) = (  0.2142857  0.0000000  0.9285714  )
        56           Al  tau(  56) = (  0.1428571  0.5000000  0.9285714  )
        57           Al  tau(  57) = (  0.2857143  0.0000000  0.0000000  )
        58           Al  tau(  58) = (  0.3571429  0.5000000  0.0000000  )
        59           Al  tau(  59) = (  0.3571429  0.0000000  0.0714286  )
        60           Al  tau(  60) = (  0.2857143  0.5000000  0.0714286  )
        61           Al  tau(  61) = (  0.2857143  0.0000000  0.1428571  )
        62           Al  tau(  62) = (  0.3571429  0.5000000  0.1428571  )
        63           Al  tau(  63) = (  0.3571429  0.0000000  0.2142857  )
        64           Al  tau(  64) = (  0.2857143  0.5000000  0.2142857  )
        65           Al  tau(  65) = (  0.2857143  0.0000000  0.2857143  )
        66           Al  tau(  66) = (  0.3571429  0.5000000  0.2857143  )
        67           Al  tau(  67) = (  0.3571429  0.0000000  0.3571429  )
        68           Al  tau(  68) = (  0.2857143  0.5000000  0.3571429  )
        69           Al  tau(  69) = (  0.2857143  0.0000000  0.4285714  )
        70           Al  tau(  70) = (  0.3571429  0.5000000  0.4285714  )
        71           Al  tau(  71) = (  0.3571429  0.0000000  0.5000000  )
        72           Al  tau(  72) = (  0.2857143  0.5000000  0.5000000  )
        73           Al  tau(  73) = (  0.2857143  0.0000000  0.5714286  )
        74           Al  tau(  74) = (  0.3571429  0.5000000  0.5714286  )
        75           Al  tau(  75) = (  0.3571429  0.0000000  0.6428571  )
        76           Al  tau(  76) = (  0.2857143  0.5000000  0.6428571  )
        77           Al  tau(  77) = (  0.2857143  0.0000000  0.7142857  )
        78           Al  tau(  78) = (  0.3571429  0.5000000  0.7142857  )
        79           Al  tau(  79) = (  0.3571429  0.0000000  0.7857143  )
        80           Al  tau(  80) = (  0.2857143  0.5000000  0.7857143  )
        81           Al  tau(  81) = (  0.2857143  0.0000000  0.8571429  )
        82           Al  tau(  82) = (  0.3571429  0.5000000  0.8571429  )
        83           Al  tau(  83) = (  0.3571429  0.0000000  0.9285714  )
        84           Al  tau(  84) = (  0.2857143  0.5000000  0.9285714  )
        85           Al  tau(  85) = (  0.4285714  0.0000000  0.0000000  )
        86           Al  tau(  86) = (  0.5000000  0.5000000  0.0000000  )
        87           Al  tau(  87) = (  0.5000000  0.0000000  0.0714286  )
        88           Al  tau(  88) = (  0.4285714  0.5000000  0.0714286  )
        89           Al  tau(  89) = (  0.4285714  0.0000000  0.1428571  )
        90           Al  tau(  90) = (  0.5000000  0.5000000  0.1428571  )
        91           Al  tau(  91) = (  0.5000000  0.0000000  0.2142857  )
        92           Al  tau(  92) = (  0.4285714  0.5000000  0.2142857  )
        93           Al  tau(  93) = (  0.4285714  0.0000000  0.2857143  )
        94           Al  tau(  94) = (  0.5000000  0.5000000  0.2857143  )
        95           Al  tau(  95) = (  0.5000000  0.0000000  0.3571429  )
        96           Al  tau(  96) = (  0.4285714  0.5000000  0.3571429  )
        97           Al  tau(  97) = (  0.4285714  0.0000000  0.4285714  )
        98           Al  tau(  98) = (  0.5000000  0.5000000  0.4285714  )
        99           Al  tau(  99) = (  0.5000000  0.0000000  0.5000000  )
       100           Al  tau( 100) = (  0.4285714  0.5000000  0.5000000  )
       101           Al  tau( 101) = (  0.4285714  0.0000000  0.5714286  )
       102           Al  tau( 102) = (  0.5000000  0.5000000  0.5714286  )
       103           Al  tau( 103) = (  0.5000000  0.0000000  0.6428571  )
       104           Al  tau( 104) = (  0.4285714  0.5000000  0.6428571  )
       105           Al  tau( 105) = (  0.4285714  0.0000000  0.7142857  )
       106           Al  tau( 106) = (  0.5000000  0.5000000  0.7142857  )
       107           Al  tau( 107) = (  0.5000000  0.0000000  0.7857143  )
       108           Al  tau( 108) = (  0.4285714  0.5000000  0.7857143  )
       109           Al  tau( 109) = (  0.4285714  0.0000000  0.8571429  )
       110           Al  tau( 110) = (  0.5000000  0.5000000  0.8571429  )
       111           Al  tau( 111) = (  0.5000000  0.0000000  0.9285714  )
       112           Al  tau( 112) = (  0.4285714  0.5000000  0.9285714  )
       113           Al  tau( 113) = (  0.5714286  0.0000000  0.0000000  )
       114           Al  tau( 114) = (  0.6428571  0.5000000  0.0000000  )
       115           Al  tau( 115) = (  0.6428571  0.0000000  0.0714286  )
       116           Al  tau( 116) = (  0.5714286  0.5000000  0.0714286  )
       117           Al  tau( 117) = (  0.5714286  0.0000000  0.1428571  )
       118           Al  tau( 118) = (  0.6428571  0.5000000  0.1428571  )
       119           Al  tau( 119) = (  0.6428571  0.0000000  0.2142857  )
       120           Al  tau( 120) = (  0.5714286  0.5000000  0.2142857  )
       121           Al  tau( 121) = (  0.5714286  0.0000000  0.2857143  )
       122           Al  tau( 122) = (  0.6428571  0.5000000  0.2857143  )
       123           Al  tau( 123) = (  0.6428571  0.0000000  0.3571429  )
       124           Al  tau( 124) = (  0.5714286  0.5000000  0.3571429  )
       125           Al  tau( 125) = (  0.5714286  0.0000000  0.4285714  )
       126           Al  tau( 126) = (  0.6428571  0.5000000  0.4285714  )
       127           Al  tau( 127) = (  0.6428571  0.0000000  0.5000000  )
       128           Al  tau( 128) = (  0.5714286  0.5000000  0.5000000  )
       129           Al  tau( 129) = (  0.5714286  0.0000000  0.5714286  )
       130           Al  tau( 130) = (  0.6428571  0.5000000  0.5714286  )
       131           Al  tau( 131) = (  0.6428571  0.0000000  0.6428571  )
       132           Al  tau( 132) = (  0.5714286  0.5000000  0.6428571  )
       133           Al  tau( 133) = (  0.5714286  0.0000000  0.7142857  )
       134           Al  tau( 134) = (  0.6428571  0.5000000  0.7142857  )
       135           Al  tau( 135) = (  0.6428571  0.0000000  0.7857143  )
       136           Al  tau( 136) = (  0.5714286  0.5000000  0.7857143  )
       137           Al  tau( 137) = (  0.5714286  0.0000000  0.8571429  )
       138           Al  tau( 138) = (  0.6428571  0.5000000  0.8571429  )
       139           Al  tau( 139) = (  0.6428571  0.0000000  0.9285714  )
       140           Al  tau( 140) = (  0.5714286  0.5000000  0.9285714  )
       141           Al  tau( 141) = (  0.7142857  0.0000000  0.0000000  )
       142           Al  tau( 142) = (  0.7857143  0.5000000  0.0000000  )
       143           Al  tau( 143) = (  0.7857143  0.0000000  0.0714286  )
       144           Al  tau( 144) = (  0.7142857  0.5000000  0.0714286  )
       145           Al  tau( 145) = (  0.7142857  0.0000000  0.1428571  )
       146           Al  tau( 146) = (  0.7857143  0.5000000  0.1428571  )
       147           Al  tau( 147) = (  0.7857143  0.0000000  0.2142857  )
       148           Al  tau( 148) = (  0.7142857  0.5000000  0.2142857  )
       149           Al  tau( 149) = (  0.7142857  0.0000000  0.2857143  )
       150           Al  tau( 150) = (  0.7857143  0.5000000  0.2857143  )
       151           Al  tau( 151) = (  0.7857143  0.0000000  0.3571429  )
       152           Al  tau( 152) = (  0.7142857  0.5000000  0.3571429  )
       153           Al  tau( 153) = (  0.7142857  0.0000000  0.4285714  )
       154           Al  tau( 154) = (  0.7857143  0.5000000  0.4285714  )
       155           Al  tau( 155) = (  0.7857143  0.0000000  0.5000000  )
       156           Al  tau( 156) = (  0.7142857  0.5000000  0.5000000  )
       157           Al  tau( 157) = (  0.7142857  0.0000000  0.5714286  )
       158           Al  tau( 158) = (  0.7857143  0.5000000  0.5714286  )
       159           Al  tau( 159) = (  0.7857143  0.0000000  0.6428571  )
       160           Al  tau( 160) = (  0.7142857  0.5000000  0.6428571  )
       161           Al  tau( 161) = (  0.7142857  0.0000000  0.7142857  )
       162           Al  tau( 162) = (  0.7857143  0.5000000  0.7142857  )
       163           Al  tau( 163) = (  0.7857143  0.0000000  0.7857143  )
       164           Al  tau( 164) = (  0.7142857  0.5000000  0.7857143  )
       165           Al  tau( 165) = (  0.7142857  0.0000000  0.8571429  )
       166           Al  tau( 166) = (  0.7857143  0.5000000  0.8571429  )
       167           Al  tau( 167) = (  0.7857143  0.0000000  0.9285714  )
       168           Al  tau( 168) = (  0.7142857  0.5000000  0.9285714  )
       169           Al  tau( 169) = (  0.8571429  0.0000000  0.0000000  )
       170           Al  tau( 170) = (  0.9285714  0.5000000  0.0000000  )
       171           Al  tau( 171) = (  0.9285714  0.0000000  0.0714286  )
       172           Al  tau( 172) = (  0.8571429  0.5000000  0.0714286  )
       173           Al  tau( 173) = (  0.8571429  0.0000000  0.1428571  )
       174           Al  tau( 174) = (  0.9285714  0.5000000  0.1428571  )
       175           Al  tau( 175) = (  0.9285714  0.0000000  0.2142857  )
       176           Al  tau( 176) = (  0.8571429  0.5000000  0.2142857  )
       177           Al  tau( 177) = (  0.8571429  0.0000000  0.2857143  )
       178           Al  tau( 178) = (  0.9285714  0.5000000  0.2857143  )
       179           Al  tau( 179) = (  0.9285714  0.0000000  0.3571429  )
       180           Al  tau( 180) = (  0.8571429  0.5000000  0.3571429  )
       181           Al  tau( 181) = (  0.8571429  0.0000000  0.4285714  )
       182           Al  tau( 182) = (  0.9285714  0.5000000  0.4285714  )
       183           Al  tau( 183) = (  0.9285714  0.0000000  0.5000000  )
       184           Al  tau( 184) = (  0.8571429  0.5000000  0.5000000  )
       185           Al  tau( 185) = (  0.8571429  0.0000000  0.5714286  )
       186           Al  tau( 186) = (  0.9285714  0.5000000  0.5714286  )
       187           Al  tau( 187) = (  0.9285714  0.0000000  0.6428571  )
       188           Al  tau( 188) = (  0.8571429  0.5000000  0.6428571  )
       189           Al  tau( 189) = (  0.8571429  0.0000000  0.7142857  )
       190           Al  tau( 190) = (  0.9285714  0.5000000  0.7142857  )
       191           Al  tau( 191) = (  0.9285714  0.0000000  0.7857143  )
       192           Al  tau( 192) = (  0.8571429  0.5000000  0.7857143  )
       193           Al  tau( 193) = (  0.8571429  0.0000000  0.8571429  )
       194           Al  tau( 194) = (  0.9285714  0.5000000  0.8571429  )
       195           Al  tau( 195) = (  0.9285714  0.0000000  0.9285714  )
       196           Al  tau( 196) = (  0.8571429  0.5000000  0.9285714  )

     number of k points=    91  Methfessel-Paxton smearing, width (Ry)=  0.0441
                       cart. coord. in units 2pi/alat
        k(    1) = (   0.0000000   0.0000000   0.0000000), wk =   0.0111111
        k(    2) = (   0.0000000   0.0000000   0.3333333), wk =   0.0222222
        k(    3) = (   0.0000000   0.3500000   0.0000000), wk =   0.0222222
        k(    4) = (   0.0000000   0.3500000   0.3333333), wk =   0.0222222
        k(    5) = (   0.0000000   0.3500000  -0.3333333), wk =   0.0222222
        k(    6) = (   0.0000000   0.7000000   0.0000000), wk =   0.0222222
        k(    7) = (   0.0000000   0.7000000   0.3333333), wk =   0.0222222
        k(    8) = (   0.0000000   0.7000000  -0.3333333), wk =   0.0222222
        k(    9) = (   0.0000000   1.0500000   0.0000000), wk =   0.0222222
        k(   10) = (   0.0000000   1.0500000   0.3333333), wk =   0.0222222
        k(   11) = (   0.0000000   1.0500000  -0.3333333), wk =   0.0222222
        k(   12) = (   0.0000000   1.4000000   0.0000000), wk =   0.0222222
        k(   13) = (   0.0000000   1.4000000   0.3333333), wk =   0.0222222
        k(   14) = (   0.0000000   1.4000000  -0.3333333), wk =   0.0222222
        k(   15) = (   0.0000000   1.7500000   0.0000000), wk =   0.0222222
        k(   16) = (   0.0000000   1.7500000   0.3333333), wk =   0.0222222
        k(   17) = (   0.0000000   1.7500000  -0.3333333), wk =   0.0222222
        k(   18) = (   0.0000000   2.1000000   0.0000000), wk =   0.0222222
        k(   19) = (   0.0000000   2.1000000   0.3333333), wk =   0.0222222
        k(   20) = (   0.0000000   2.1000000  -0.3333333), wk =   0.0222222
        k(   21) = (   0.0000000   2.4500000   0.0000000), wk =   0.0222222
        k(   22) = (   0.0000000   2.4500000   0.3333333), wk =   0.0222222
        k(   23) = (   0.0000000   2.4500000  -0.3333333), wk =   0.0222222
        k(   24) = (   0.0000000   2.8000000   0.0000000), wk =   0.0222222
        k(   25) = (   0.0000000   2.8000000   0.3333333), wk =   0.0222222
        k(   26) = (   0.0000000   2.8000000  -0.3333333), wk =   0.0222222
        k(   27) = (   0.0000000   3.1500000   0.0000000), wk =   0.0222222
        k(   28) = (   0.0000000   3.1500000   0.3333333), wk =   0.0222222
        k(   29) = (   0.0000000   3.1500000  -0.3333333), wk =   0.0222222
        k(   30) = (   0.0000000  -3.5000000   0.0000000), wk =   0.0111111
        k(   31) = (   0.0000000  -3.5000000   0.3333333), wk =   0.0222222
        k(   32) = (   0.3333333   0.0000000   0.0000000), wk =   0.0222222
        k(   33) = (   0.3333333   0.0000000   0.3333333), wk =   0.0222222
        k(   34) = (   0.3333333   0.0000000  -0.3333333), wk =   0.0222222
        k(   35) = (   0.3333333   0.3500000   0.0000000), wk =   0.0222222
        k(   36) = (   0.3333333   0.3500000   0.3333333), wk =   0.0222222
        k(   37) = (   0.3333333   0.3500000  -0.3333333), wk =   0.0222222
        k(   38) = (   0.3333333   0.7000000   0.0000000), wk =   0.0222222
        k(   39) = (   0.3333333   0.7000000   0.3333333), wk =   0.0222222
        k(   40) = (   0.3333333   0.7000000  -0.3333333), wk =   0.0222222
        k(   41) = (   0.3333333   1.0500000   0.0000000), wk =   0.0222222
        k(   42) = (   0.3333333   1.0500000   0.3333333), wk =   0.0222222
        k(   43) = (   0.3333333   1.0500000  -0.3333333), wk =   0.0222222
        k(   44) = (   0.3333333   1.4000000   0.0000000), wk =   0.0222222
        k(   45) = (   0.3333333   1.4000000   0.3333333), wk =   0.0222222
        k(   46) = (   0.3333333   1.4000000  -0.3333333), wk =   0.0222222
        k(   47) = (   0.3333333   1.7500000   0.0000000), wk =   0.0222222
        k(   48) = (   0.3333333   1.7500000   0.3333333), wk =   0.0222222
        k(   49) = (   0.3333333   1.7500000  -0.3333333), wk =   0.0222222
        k(   50) = (   0.3333333   2.1000000   0.0000000), wk =   0.0222222
        k(   51) = (   0.3333333   2.1000000   0.3333333), wk =   0.0222222
        k(   52) = (   0.3333333   2.1000000  -0.3333333), wk =   0.0222222
        k(   53) = (   0.3333333   2.4500000   0.0000000), wk =   0.0222222
        k(   54) = (   0.3333333   2.4500000   0.3333333), wk =   0.0222222
        k(   55) = (   0.3333333   2.4500000  -0.3333333), wk =   0.0222222
        k(   56) = (   0.3333333   2.8000000   0.0000000), wk =   0.0222222
        k(   57) = (   0.3333333   2.8000000   0.3333333), wk =   0.0222222
        k(   58) = (   0.3333333   2.8000000  -0.3333333), wk =   0.0222222
        k(   59) = (   0.3333333   3.1500000   0.0000000), wk =   0.0222222
        k(   60) = (   0.3333333   3.1500000   0.3333333), wk =   0.0222222
        k(   61) = (   0.3333333   3.1500000  -0.3333333), wk =   0.0222222
        k(   62) = (   0.3333333  -3.5000000   0.0000000), wk =   0.0222222
        k(   63) = (   0.3333333  -3.5000000   0.3333333), wk =   0.0222222
        k(   64) = (   0.3333333  -3.5000000  -0.3333333), wk =   0.0222222
        k(   65) = (   0.3333333  -3.1500000   0.0000000), wk =   0.0222222
        k(   66) = (   0.3333333  -3.1500000   0.3333333), wk =   0.0222222
        k(   67) = (   0.3333333  -3.1500000  -0.3333333), wk =   0.0222222
        k(   68) = (   0.3333333  -2.8000000   0.0000000), wk =   0.0222222
        k(   69) = (   0.3333333  -2.8000000   0.3333333), wk =   0.0222222
        k(   70) = (   0.3333333  -2.8000000  -0.3333333), wk =   0.0222222
        k(   71) = (   0.3333333  -2.4500000   0.0000000), wk =   0.0222222
        k(   72) = (   0.3333333  -2.4500000   0.3333333), wk =   0.0222222
        k(   73) = (   0.3333333  -2.4500000  -0.3333333), wk =   0.0222222
        k(   74) = (   0.3333333  -2.1000000   0.0000000), wk =   0.0222222
        k(   75) = (   0.3333333  -2.1000000   0.3333333), wk =   0.0222222
        k(   76) = (   0.3333333  -2.1000000  -0.3333333), wk =   0.0222222
        k(   77) = (   0.3333333  -1.7500000   0.0000000), wk =   0.0222222
        k(   78) = (   0.3333333  -1.7500000   0.3333333), wk =   0.0222222
        k(   79) = (   0.3333333  -1.7500000  -0.3333333), wk =   0.0222222
        k(   80) = (   0.3333333  -1.4000000   0.0000000), wk =   0.0222222
        k(   81) = (   0.3333333  -1.4000000   0.3333333), wk =   0.0222222
        k(   82) = (   0.3333333  -1.4000000  -0.3333333), wk =   0.0222222
        k(   83) = (   0.3333333  -1.0500000   0.0000000), wk =   0.0222222
        k(   84) = (   0.3333333  -1.0500000   0.3333333), wk =   0.0222222
        k(   85) = (   0.3333333  -1.0500000  -0.3333333), wk =   0.0222222
        k(   86) = (   0.3333333  -0.7000000   0.0000000), wk =   0.0222222
        k(   87) = (   0.3333333  -0.7000000   0.3333333), wk =   0.0222222
        k(   88) = (   0.3333333  -0.7000000  -0.3333333), wk =   0.0222222
        k(   89) = (   0.3333333  -0.3500000   0.0000000), wk =   0.0222222
        k(   90) = (   0.3333333  -0.3500000   0.3333333), wk =   0.0222222
        k(   91) = (   0.3333333  -0.3500000  -0.3333333), wk =   0.0222222

                       cryst. coord.
        k(    1) = (   0.0000000   0.0000000   0.0000000), wk =   0.0111111
        k(    2) = (   0.0000000   0.0000000   0.3333333), wk =   0.0222222
        k(    3) = (   0.0000000   0.0500000   0.0000000), wk =   0.0222222
        k(    4) = (   0.0000000   0.0500000   0.3333333), wk =   0.0222222
        k(    5) = (   0.0000000   0.0500000  -0.3333333), wk =   0.0222222
        k(    6) = (   0.0000000   0.1000000   0.0000000), wk =   0.0222222
        k(    7) = (   0.0000000   0.1000000   0.3333333), wk =   0.0222222
        k(    8) = (   0.0000000   0.1000000  -0.3333333), wk =   0.0222222
        k(    9) = (   0.0000000   0.1500000   0.0000000), wk =   0.0222222
        k(   10) = (   0.0000000   0.1500000   0.3333333), wk =   0.0222222
        k(   11) = (   0.0000000   0.1500000  -0.3333333), wk =   0.0222222
        k(   12) = (   0.0000000   0.2000000   0.0000000), wk =   0.0222222
        k(   13) = (   0.0000000   0.2000000   0.3333333), wk =   0.0222222
        k(   14) = (   0.0000000   0.2000000  -0.3333333), wk =   0.0222222
        k(   15) = (   0.0000000   0.2500000   0.0000000), wk =   0.0222222
        k(   16) = (   0.0000000   0.2500000   0.3333333), wk =   0.0222222
        k(   17) = (   0.0000000   0.2500000  -0.3333333), wk =   0.0222222
        k(   18) = (   0.0000000   0.3000000   0.0000000), wk =   0.0222222
        k(   19) = (   0.0000000   0.3000000   0.3333333), wk =   0.0222222
        k(   20) = (   0.0000000   0.3000000  -0.3333333), wk =   0.0222222
        k(   21) = (   0.0000000   0.3500000   0.0000000), wk =   0.0222222
        k(   22) = (   0.0000000   0.3500000   0.3333333), wk =   0.0222222
        k(   23) = (   0.0000000   0.3500000  -0.3333333), wk =   0.0222222
        k(   24) = (   0.0000000   0.4000000   0.0000000), wk =   0.0222222
        k(   25) = (   0.0000000   0.4000000   0.3333333), wk =   0.0222222
        k(   26) = (   0.0000000   0.4000000  -0.3333333), wk =   0.0222222
        k(   27) = (   0.0000000   0.4500000   0.0000000), wk =   0.0222222
        k(   28) = (   0.0000000   0.4500000   0.3333333), wk =   0.0222222
        k(   29) = (   0.0000000   0.4500000  -0.3333333), wk =   0.0222222
        k(   30) = (   0.0000000  -0.5000000   0.0000000), wk =   0.0111111
        k(   31) = (   0.0000000  -0.5000000   0.3333333), wk =   0.0222222
        k(   32) = (   0.3333333   0.0000000   0.0000000), wk =   0.0222222
        k(   33) = (   0.3333333   0.0000000   0.3333333), wk =   0.0222222
        k(   34) = (   0.3333333   0.0000000  -0.3333333), wk =   0.0222222
        k(   35) = (   0.3333333   0.0500000   0.0000000), wk =   0.0222222
        k(   36) = (   0.3333333   0.0500000   0.3333333), wk =   0.0222222
        k(   37) = (   0.3333333   0.0500000  -0.3333333), wk =   0.0222222
        k(   38) = (   0.3333333   0.1000000   0.0000000), wk =   0.0222222
        k(   39) = (   0.3333333   0.1000000   0.3333333), wk =   0.0222222
        k(   40) = (   0.3333333   0.1000000  -0.3333333), wk =   0.0222222
        k(   41) = (   0.3333333   0.1500000   0.0000000), wk =   0.0222222
        k(   42) = (   0.3333333   0.1500000   0.3333333), wk =   0.0222222
        k(   43) = (   0.3333333   0.1500000  -0.3333333), wk =   0.0222222
        k(   44) = (   0.3333333   0.2000000   0.0000000), wk =   0.0222222
        k(   45) = (   0.3333333   0.2000000   0.3333333), wk =   0.0222222
        k(   46) = (   0.3333333   0.2000000  -0.3333333), wk =   0.0222222
        k(   47) = (   0.3333333   0.2500000   0.0000000), wk =   0.0222222
        k(   48) = (   0.3333333   0.2500000   0.3333333), wk =   0.0222222
        k(   49) = (   0.3333333   0.2500000  -0.3333333), wk =   0.0222222
        k(   50) = (   0.3333333   0.3000000   0.0000000), wk =   0.0222222
        k(   51) = (   0.3333333   0.3000000   0.3333333), wk =   0.0222222
        k(   52) = (   0.3333333   0.3000000  -0.3333333), wk =   0.0222222
        k(   53) = (   0.3333333   0.3500000   0.0000000), wk =   0.0222222
        k(   54) = (   0.3333333   0.3500000   0.3333333), wk =   0.0222222
        k(   55) = (   0.3333333   0.3500000  -0.3333333), wk =   0.0222222
        k(   56) = (   0.3333333   0.4000000   0.0000000), wk =   0.0222222
        k(   57) = (   0.3333333   0.4000000   0.3333333), wk =   0.0222222
        k(   58) = (   0.3333333   0.4000000  -0.3333333), wk =   0.0222222
        k(   59) = (   0.3333333   0.4500000   0.0000000), wk =   0.0222222
        k(   60) = (   0.3333333   0.4500000   0.3333333), wk =   0.0222222
        k(   61) = (   0.3333333   0.4500000  -0.3333333), wk =   0.0222222
        k(   62) = (   0.3333333  -0.5000000   0.0000000), wk =   0.0222222
        k(   63) = (   0.3333333  -0.5000000   0.3333333), wk =   0.0222222
        k(   64) = (   0.3333333  -0.5000000  -0.3333333), wk =   0.0222222
        k(   65) = (   0.3333333  -0.4500000   0.0000000), wk =   0.0222222
        k(   66) = (   0.3333333  -0.4500000   0.3333333), wk =   0.0222222
        k(   67) = (   0.3333333  -0.4500000  -0.3333333), wk =   0.0222222
        k(   68) = (   0.3333333  -0.4000000   0.0000000), wk =   0.0222222
        k(   69) = (   0.3333333  -0.4000000   0.3333333), wk =   0.0222222
        k(   70) = (   0.3333333  -0.4000000  -0.3333333), wk =   0.0222222
        k(   71) = (   0.3333333  -0.3500000   0.0000000), wk =   0.0222222
        k(   72) = (   0.3333333  -0.3500000   0.3333333), wk =   0.0222222
        k(   73) = (   0.3333333  -0.3500000  -0.3333333), wk =   0.0222222
        k(   74) = (   0.3333333  -0.3000000   0.0000000), wk =   0.0222222
        k(   75) = (   0.3333333  -0.3000000   0.3333333), wk =   0.0222222
        k(   76) = (   0.3333333  -0.3000000  -0.3333333), wk =   0.0222222
        k(   77) = (   0.3333333  -0.2500000   0.0000000), wk =   0.0222222
        k(   78) = (   0.3333333  -0.2500000   0.3333333), wk =   0.0222222
        k(   79) = (   0.3333333  -0.2500000  -0.3333333), wk =   0.0222222
        k(   80) = (   0.3333333  -0.2000000   0.0000000), wk =   0.0222222
        k(   81) = (   0.3333333  -0.2000000   0.3333333), wk =   0.0222222
        k(   82) = (   0.3333333  -0.2000000  -0.3333333), wk =   0.0222222
        k(   83) = (   0.3333333  -0.1500000   0.0000000), wk =   0.0222222
        k(   84) = (   0.3333333  -0.1500000   0.3333333), wk =   0.0222222
        k(   85) = (   0.3333333  -0.1500000  -0.3333333), wk =   0.0222222
        k(   86) = (   0.3333333  -0.1000000   0.0000000), wk =   0.0222222
        k(   87) = (   0.3333333  -0.1000000   0.3333333), wk =   0.0222222
        k(   88) = (   0.3333333  -0.1000000  -0.3333333), wk =   0.0222222
        k(   89) = (   0.3333333  -0.0500000   0.0000000), wk =   0.0222222
        k(   90) = (   0.3333333  -0.0500000   0.3333333), wk =   0.0222222
        k(   91) = (   0.3333333  -0.0500000  -0.3333333), wk =   0.0222222

     Dense  grid:  2983521 G-vectors     FFT dimensions: ( 360,  50, 360)

     Smooth grid:   754991 G-vectors     FFT dimensions: ( 225,  32, 225)

     Dynamical RAM for                 wfc:     101.61 MB

     Dynamical RAM for     wfc (w. buffer):     406.45 MB

     Dynamical RAM for           str. fact:       9.10 MB

     Dynamical RAM for           local pot:       0.00 MB

     Dynamical RAM for          nlocal pot:    1015.56 MB

     Dynamical RAM for                qrad:      13.69 MB

     Dynamical RAM for          rho,v,vnew:      56.98 MB

     Dynamical RAM for               rhoin:      18.99 MB

     Dynamical RAM for            rho*nmix:     145.68 MB

     Dynamical RAM for           G-vectors:      35.30 MB

     Dynamical RAM for          h,s,v(r/c):      91.27 MB

     Dynamical RAM for          <psi|beta>:      19.00 MB

     Dynamical RAM for                 psi:     406.45 MB

     Dynamical RAM for                hpsi:     406.45 MB

     Dynamical RAM for                spsi:     406.45 MB

     Dynamical RAM for      wfcinit/wfcrot:     465.43 MB

     Dynamical RAM for           addusdens:     105.47 MB

     Dynamical RAM for          addusforce:     200.57 MB

     Dynamical RAM for         addusstress:      55.26 MB

     Estimated static dynamical RAM per process >       1.73 GB

     Estimated max dynamical RAM per process >       3.03 GB

     Estimated total dynamical RAM >     544.75 GB

     Initial potential from superposition of free atoms

     starting charge  587.55112, renormalised to  588.00000
     Starting wfcs are  784 randomized atomic wfcs
     Checking if some PAW data can be deallocated... 

     total cpu time spent up to now is      235.6 secs

     Self-consistent Calculation

     iteration #  1     ecut=    40.00 Ry     beta= 0.40
     Davidson diagonalization with overlap
     ethr =  1.00E-02,  avg # of iterations =  3.0

     Threshold (ethr) on eigenvalues was too large:
     Diagonalizing with lowered threshold

     Davidson diagonalization with overlap
     ethr =  1.80E-04,  avg # of iterations =  6.2

     total cpu time spent up to now is     1072.6 secs

     total energy              =   -7742.67951391 Ry
     Harris-Foulkes estimate   =   -7742.80430544 Ry
     estimated scf accuracy    <       1.06770962 Ry

     iteration #  2     ecut=    40.00 Ry     beta= 0.40
     Davidson diagonalization with overlap
     ethr =  1.82E-04,  avg # of iterations =  1.2

     total cpu time spent up to now is     1341.3 secs

     total energy              =   -7742.52602339 Ry
     Harris-Foulkes estimate   =   -7742.68427506 Ry
     estimated scf accuracy    <       0.55636928 Ry

     iteration #  3     ecut=    40.00 Ry     beta= 0.40
     Davidson diagonalization with overlap
     ethr =  9.46E-05,  avg # of iterations =  1.0

     total cpu time spent up to now is     1609.6 secs

     total energy              =   -7742.53329268 Ry
     Harris-Foulkes estimate   =   -7742.53545135 Ry
     estimated scf accuracy    <       0.00240203 Ry

     iteration #  4     ecut=    40.00 Ry     beta= 0.40
     Davidson diagonalization with overlap
     ethr =  4.09E-07,  avg # of iterations = 11.6

     total cpu time spent up to now is     2241.2 secs

     total energy              =   -7742.53491401 Ry
     Harris-Foulkes estimate   =   -7742.53503366 Ry
     estimated scf accuracy    <       0.00025509 Ry

     iteration #  5     ecut=    40.00 Ry     beta= 0.40
     Davidson diagonalization with overlap
     ethr =  4.34E-08,  avg # of iterations =  3.8

     total cpu time spent up to now is     2585.3 secs

     total energy              =   -7742.53489334 Ry
     Harris-Foulkes estimate   =   -7742.53492188 Ry
     estimated scf accuracy    <       0.00002040 Ry

     iteration #  6     ecut=    40.00 Ry     beta= 0.40
     Davidson diagonalization with overlap
     ethr =  3.47E-09,  avg # of iterations =  5.6

     total cpu time spent up to now is     3027.2 secs

     total energy              =   -7742.53489413 Ry
     Harris-Foulkes estimate   =   -7742.53489451 Ry
     estimated scf accuracy    <       0.00000186 Ry

     iteration #  7     ecut=    40.00 Ry     beta= 0.40
     Davidson diagonalization with overlap
     ethr =  3.16E-10,  avg # of iterations =  4.2

     total cpu time spent up to now is     3423.2 secs

     total energy              =   -7742.53489408 Ry
     Harris-Foulkes estimate   =   -7742.53489420 Ry
     estimated scf accuracy    <       0.00000088 Ry

     iteration #  8     ecut=    40.00 Ry     beta= 0.40
     Davidson diagonalization with overlap
     ethr =  1.50E-10,  avg # of iterations =  1.1

     total cpu time spent up to now is     3693.3 secs

     total energy              =   -7742.53489395 Ry
     Harris-Foulkes estimate   =   -7742.53489406 Ry
     estimated scf accuracy    <       0.00000039 Ry

     iteration #  9     ecut=    40.00 Ry     beta= 0.40
     Davidson diagonalization with overlap
     ethr =  6.61E-11,  avg # of iterations =  3.5

     total cpu time spent up to now is     3987.1 secs

     total energy              =   -7742.53489395 Ry
     Harris-Foulkes estimate   =   -7742.53489394 Ry
     estimated scf accuracy    <       0.00000002 Ry

     iteration # 10     ecut=    40.00 Ry     beta= 0.40
     Davidson diagonalization with overlap
     ethr =  4.13E-12,  avg # of iterations =  5.7

     total cpu time spent up to now is     4541.4 secs

     total energy              =   -7742.53489261 Ry
     Harris-Foulkes estimate   =   -7742.53489261 Ry
     estimated scf accuracy    <          3.3E-09 Ry

     iteration # 11     ecut=    40.00 Ry     beta= 0.40
     Davidson diagonalization with overlap
     ethr =  5.55E-13,  avg # of iterations =  1.6

     total cpu time spent up to now is     4819.8 secs

     total energy              =   -7742.53489258 Ry
     Harris-Foulkes estimate   =   -7742.53489259 Ry
     estimated scf accuracy    <          3.4E-09 Ry

     iteration # 12     ecut=    40.00 Ry     beta= 0.40
     Davidson diagonalization with overlap
     ethr =  5.55E-13,  avg # of iterations =  3.5

     total cpu time spent up to now is     5197.3 secs

     total energy              =   -7742.53489257 Ry
     Harris-Foulkes estimate   =   -7742.53489257 Ry
     estimated scf accuracy    <          5.9E-09 Ry

     iteration # 13     ecut=    40.00 Ry     beta= 0.40
     Davidson diagonalization with overlap
     ethr =  5.55E-13,  avg # of iterations =  1.3

     total cpu time spent up to now is     5468.9 secs

     total energy              =   -7742.53489257 Ry
     Harris-Foulkes estimate   =   -7742.53489257 Ry
     estimated scf accuracy    <          1.7E-09 Ry

     iteration # 14     ecut=    40.00 Ry     beta= 0.40
     Davidson diagonalization with overlap
     ethr =  2.81E-13,  avg # of iterations =  3.1

     total cpu time spent up to now is     5769.3 secs

     total energy              =   -7742.53489257 Ry
     Harris-Foulkes estimate   =   -7742.53489257 Ry
     estimated scf accuracy    <          2.2E-10 Ry

     iteration # 15     ecut=    40.00 Ry     beta= 0.40
     Davidson diagonalization with overlap
     ethr =  1.00E-13,  avg # of iterations =  4.2

     total cpu time spent up to now is     6152.5 secs

     total energy              =   -7742.53489219 Ry
     Harris-Foulkes estimate   =   -7742.53489219 Ry
     estimated scf accuracy    <          5.4E-10 Ry

     iteration # 16     ecut=    40.00 Ry     beta= 0.40
     Davidson diagonalization with overlap
     ethr =  1.00E-13,  avg # of iterations =  1.1

     total cpu time spent up to now is     6420.6 secs

     total energy              =   -7742.53489219 Ry
     Harris-Foulkes estimate   =   -7742.53489219 Ry
     estimated scf accuracy    <          1.2E-10 Ry

     iteration # 17     ecut=    40.00 Ry     beta= 0.40
     Davidson diagonalization with overlap
     ethr =  1.00E-13,  avg # of iterations =  1.0

     total cpu time spent up to now is     6688.2 secs

     total energy              =   -7742.53489219 Ry
     Harris-Foulkes estimate   =   -7742.53489219 Ry
     estimated scf accuracy    <          3.3E-10 Ry

     iteration # 18     ecut=    40.00 Ry     beta= 0.40
     Davidson diagonalization with overlap
     ethr =  1.00E-13,  avg # of iterations =  1.0

     total cpu time spent up to now is     6955.7 secs

     total energy              =   -7742.53489219 Ry
     Harris-Foulkes estimate   =   -7742.53489219 Ry
     estimated scf accuracy    <          3.4E-10 Ry

     iteration # 19     ecut=    40.00 Ry     beta= 0.40
     Davidson diagonalization with overlap
     ethr =  1.00E-13,  avg # of iterations =  2.3

     total cpu time spent up to now is     7263.5 secs

     total energy              =   -7742.53489219 Ry
     Harris-Foulkes estimate   =   -7742.53489219 Ry
     estimated scf accuracy    <          1.7E-10 Ry

     iteration # 20     ecut=    40.00 Ry     beta= 0.40
     Davidson diagonalization with overlap
     ethr =  1.00E-13,  avg # of iterations =  1.0

     total cpu time spent up to now is     7530.4 secs

     total energy              =   -7742.53489218 Ry
     Harris-Foulkes estimate   =   -7742.53489218 Ry
     estimated scf accuracy    <          8.9E-12 Ry

     iteration # 21     ecut=    40.00 Ry     beta= 0.40
     Davidson diagonalization with overlap
     ethr =  1.00E-13,  avg # of iterations =  1.0

     total cpu time spent up to now is     7797.1 secs

     total energy              =   -7742.53489218 Ry
     Harris-Foulkes estimate   =   -7742.53489218 Ry
     estimated scf accuracy    <          1.8E-12 Ry

     iteration # 22     ecut=    40.00 Ry     beta= 0.40
     Davidson diagonalization with overlap
     ethr =  1.00E-13,  avg # of iterations =  1.0

     total cpu time spent up to now is     8062.8 secs

     End of self-consistent calculation

          k = 0.0000 0.0000 0.0000 ( 94423 PWs)   bands (ev):

    -3.2719  -3.0883  -3.0883  -3.0883  -3.0883  -2.9050  -2.9050  -2.9050
    -2.9050  -2.5391  -2.5391  -2.5391  -2.5391  -2.3565  -2.3565  -2.3565
    -2.3565  -2.3565  -2.3565  -2.3565  -2.3565  -1.8101  -1.8101  -1.8101
    -1.8101  -1.6284  -1.6284  -1.6284  -1.6284  -1.4470  -1.4470  -1.4470
    -1.4470  -1.4470  -1.4470  -1.4470  -1.4470  -0.9040  -0.9040  -0.9040
    -0.9040  -0.9040  -0.9040  -0.9040  -0.9040  -0.3636  -0.3636  -0.3636
    -0.3636  -0.1838  -0.1838  -0.1838  -0.1838  -0.1838  -0.1838  -0.1838
    -0.1838  -0.0037  -0.0037  -0.0037  -0.0037   0.3544   0.3544   0.3544
     0.3544   0.3544   0.3544   0.3544   0.3544   1.2433   1.2433   1.2433
     1.2433   1.2469   1.2469   1.2469   1.2469   1.2469   1.2469   1.2469
     1.2469   1.4210   1.4210   1.4210   1.4210   1.4210   1.4210   1.4210
     1.4210   1.9530   1.9530   1.9530   1.9530   1.9530   1.9530   1.9530
     1.9530   2.4866   2.4866   2.4866   2.4866   2.8352   2.8352   2.8352
     2.8352   2.8352   2.8352   2.8352   2.8352   3.1627   3.1627   3.1627
     3.1627   3.3375   3.3375   3.3375   3.3375   3.3375   3.3375   3.3375
     3.3375   3.8606   3.8606   3.8606   3.8606   3.8606   3.8606   3.8606
     3.8606   4.0597   4.0597   4.0597   4.0597   4.0597   4.0597   4.0597
     4.0597   4.7278   4.7278   4.7278   4.7278   4.7278   4.7278   4.7278
     4.7278   4.8893   4.8893   4.8893   5.0575   5.0575   5.0575   5.0575
     5.0575   5.0576   5.0576   5.0576   5.2258   5.2258   5.2258   5.2258
     5.5626   5.5626   5.5626   5.5626   5.5626   5.5626   5.5626   5.5626
     5.6060   5.6060   5.6060   5.6060   5.7310   5.7310   5.7310   5.7310
     5.7310   5.7310   5.7310   5.7310   5.9259   5.9259   5.9259   5.9259
     5.9259   5.9259   5.9259   5.9259   6.1865   6.1865   6.1865   6.2367
     6.2367   6.2367   6.2367   6.3642   6.3642   6.3642   6.3642   6.3642
     6.3642   6.3642   6.3642   6.4054   6.4054   6.4054   6.4054   6.4054
     6.4054   6.4054   6.4054   6.5381   6.5381   6.5381   6.5381   6.5741
     6.5741   6.5741   6.5741   6.5741   6.5741   6.5741   6.5741   6.8890
     6.8890   6.8890   6.8890   6.8890   6.8890   6.8890   6.8890   6.9861
     6.9861   6.9861   6.9861   6.9861   6.9861   6.9861   6.9861   7.0805
     7.0805   7.0805   7.0805   7.0805   7.0805   7.0805   7.0805   7.5876
     7.5876   7.5876   7.5876   7.5876   7.5876   7.5876   7.5876   7.6037
     7.6037   7.6037   7.6037   7.6037   7.6037   7.6037   7.6037   7.6628
     7.6628   7.6628   7.6628   7.6966   7.6966   7.6966   7.6966   7.6966
     7.6966   7.6966   7.6966   7.7566   7.7566   7.7566   7.7566   7.7566
     7.7566   7.7566   7.7566   7.9253   7.9253   7.9253   7.9253   7.9935
     7.9935   7.9935   7.9935   7.9935   7.9935   7.9935   7.9935   8.2316
     8.2316   8.2316   8.2316   8.2638   8.2638   8.2638   8.2638   8.2638
     8.2638   8.2638   8.2638   8.4002   8.4002   8.4002   8.4002   8.4002
     8.4002   8.4002   8.4002   8.5257   8.5257   8.5257   8.5257   8.5257
     8.5257   8.5257   8.5257   8.8877   8.8877   8.8877   8.8877   8.8877
     8.8877   8.8877   8.8877   9.0758   9.0758   9.0758   9.0758   9.0758
     9.0758   9.0758   9.0758   9.1096   9.1096   9.1096   9.1096   9.1096
     9.1096   9.1096   9.1096   9.1103   9.1103   9.1103   9.1103   9.1103
     9.1103

     occupation numbers 
     1.0000   1.0000   1.0000   1.0000   1.0000   1.0000   1.0000   1.0000
     1.0000   1.0000   1.0000   1.0000   1.0000   1.0000   1.0000   1.0000
     1.0000   1.0000   1.0000   1.0000   1.0000   1.0000   1.0000   1.0000
     1.0000   1.0000   1.0000   1.0000   1.0000   1.0000   1.0000   1.0000
     1.0000   1.0000   1.0000   1.0000   1.0000   1.0000   1.0000   1.0000
     1.0000   1.0000   1.0000   1.0000   1.0000   1.0000   1.0000   1.0000
     1.0000   1.0000   1.0000   1.0000   1.0000   1.0000   1.0000   1.0000
     1.0000   1.0000   1.0000   1.0000   1.0000   1.0000   1.0000   1.0000
     1.0000   1.0000   1.0000   1.0000   1.0000   1.0000   1.0000   1.0000
     1.0000   1.0000   1.0000   1.0000   1.0000   1.0000   1.0000   1.0000
     1.0000   1.0000   1.0000   1.0000   1.0000   1.0000   1.0000   1.0000
     1.0000   1.0000   1.0000   1.0000   1.0000   1.0000   1.0000   1.0000
     1.0000   1.0000   1.0000   1.0000   1.0000   1.0000   1.0000   1.0000
     1.0000   1.0000   1.0000   1.0000   1.0000   1.0000   1.0000   1.0000
     1.0000   1.0000   1.0000   1.0000   1.0000   1.0000   1.0000   1.0000
     1.0000   1.0000   1.0000   1.0000   1.0000   1.0000   1.0000   1.0000
     1.0000   1.0000   1.0000   1.0000   1.0000   1.0000   1.0000   1.0000
     1.0000   1.0000   1.0000   1.0000   1.0000   1.0000   1.0000   1.0000
     1.0000   1.0000   1.0000   1.0000   1.0000   1.0000   1.0000   1.0000
     1.0000   1.0000   1.0000   1.0000   1.0000   1.0000   1.0000   1.0000
     1.0000   1.0000   1.0000   1.0000   1.0000   1.0000   1.0000   1.0000
     1.0000   1.0000   1.0000   1.0000   1.0000   1.0000   1.0000   1.0000
     1.0000   1.0000   1.0000   1.0000   1.0001   1.0001   1.0001   1.0001
     1.0001   1.0001   1.0001   1.0001   1.0005   1.0005   1.0005   1.0008
     1.0008   1.0008   1.0008   1.0020   1.0020   1.0020   1.0020   1.0020
     1.0020   1.0020   1.0020   1.0026   1.0026   1.0026   1.0026   1.0026
     1.0026   1.0026   1.0026   1.0060   1.0060   1.0060   1.0060   1.0073
     1.0073   1.0073   1.0073   1.0073   1.0073   1.0073   1.0073   1.0275
     1.0275   1.0275   1.0275   1.0275   1.0275   1.0275   1.0275   1.0337
     1.0337   1.0337   1.0337   1.0337   1.0337   1.0337   1.0337   1.0352
     1.0352   1.0352   1.0352   1.0352   1.0352   1.0352   1.0352   0.7690
     0.7690   0.7690   0.7690   0.7690   0.7690   0.7690   0.7690   0.7499
     0.7499   0.7499   0.7499   0.7499   0.7499   0.7499   0.7499   0.6757
     0.6757   0.6757   0.6757   0.6307   0.6307   0.6307   0.6307   0.6307
     0.6307   0.6307   0.6307   0.5479   0.5479   0.5479   0.5479   0.5479
     0.5479   0.5479   0.5479   0.3151   0.3151   0.3151   0.3151   0.2311
     0.2311   0.2311   0.2311   0.2311   0.2311   0.2311   0.2311   0.0285
     0.0285   0.0285   0.0285   0.0129   0.0129   0.0129   0.0129   0.0129
     0.0129   0.0129   0.0129  -0.0267  -0.0267  -0.0267  -0.0267  -0.0267
    -0.0267  -0.0267  -0.0267  -0.0355  -0.0355  -0.0355  -0.0355  -0.0355
    -0.0355  -0.0355  -0.0355  -0.0134  -0.0134  -0.0134  -0.0134  -0.0134
    -0.0134  -0.0134  -0.0134  -0.0049  -0.0049  -0.0049  -0.0049  -0.0049
    -0.0049  -0.0049  -0.0049  -0.0040  -0.0040  -0.0040  -0.0040  -0.0040
    -0.0040  -0.0040  -0.0040  -0.0040  -0.0040  -0.0040  -0.0040  -0.0040
    -0.0040

          k = 0.0000 0.0000 0.3333 ( 94408 PWs)   bands (ev):

    -3.2515  -3.1903  -3.0679  -3.0679  -3.0068  -3.0068  -2.9457  -2.7626
    -2.7626  -2.7626  -2.5797  -2.5797  -2.5188  -2.5188  -2.4579  -2.4579
    -2.2754  -2.2146  -2.2146  -2.0931  -2.0931  -2.0324  -2.0324  -1.9717
    -1.7899  -1.7899  -1.6082  -1.6082  -1.5477  -1.5477  -1.5477  -1.5477
    -1.3060  -1.3060  -1.2457  -1.2456  -1.2456  -1.1250  -1.1250  -1.0647
    -1.0647  -0.8240  -0.6436  -0.6435  -0.6433  -0.6433  -0.5233  -0.5233
    -0.3436  -0.3436  -0.3431  -0.3431  -0.2837  -0.2837  -0.1036  -0.1036
    -0.0441  -0.0441   0.1348   0.1354   0.1354   0.3140   0.3140   0.3747
     0.3747   0.6128   0.6128   0.6707   0.7918   0.7918   0.8492   0.8492
     0.8503   0.8503   0.9104   0.9104   1.2630   1.2630   1.3223   1.3223
     1.3835   1.3835   1.5591   1.5591   1.6221   1.6221   1.7365   1.7365
     1.7397   1.7397   1.8512   2.0281   2.0281   2.0354   2.0354   2.2084
     2.2084   2.2695   2.2695   2.4925   2.5026   2.5026   2.5576   2.5576
     2.6684   2.6684   2.9749   2.9749   3.1822   3.1822   3.1950   3.1950
     3.2059   3.2059   3.2404   3.2404   3.4355   3.4355   3.4733   3.4733
     3.4997   3.4997   3.6143   3.6143   3.6478   3.6478   3.8506   4.0239
     4.0239   4.0680   4.0680   4.1118   4.1118   4.4010   4.4010   4.5123
     4.5414   4.5414   4.5426   4.5426   4.6534   4.6534   4.6832   4.6832
     4.9080   4.9080   4.9641   4.9641   5.0577   5.0577   5.0762   5.0762
     5.0918   5.0918   5.1323   5.1323   5.1884   5.1884   5.1953   5.1953
     5.2775   5.2775   5.3568   5.3568   5.3568   5.3568   5.4024   5.4024
     5.4918   5.4918   5.5251   5.5251   5.5813   5.5813   5.6374   5.6374
     5.8059   5.8059   5.8621   5.8621   5.9744   5.9744   6.0306   6.0306
     6.0457   6.0457   6.0868   6.0868   6.1782   6.1782   6.2063   6.2063
     6.2555   6.2555   6.2656   6.2656   6.3837   6.3837   6.3874   6.3874
     6.4242   6.4242   6.4419   6.4419   6.4803   6.4803   6.4804   6.4804
     6.5016   6.5016   6.5832   6.5832   6.5990   6.6704   6.6704   6.6769
     6.6769   6.7054   6.7054   6.7327   6.7327   6.7616   6.7616   6.7617
     6.7617   6.7737   6.7737   6.8324   6.8324   6.8384   6.8384   6.8742
     6.8742   6.9054   6.9054   6.9305   6.9305   6.9502   6.9502   7.1351
     7.1351   7.1557   7.1557   7.2012   7.2012   7.2899   7.2899   7.3245
     7.3245   7.3246   7.3246   7.3509   7.3509   7.3668   7.4097   7.4097
     7.4372   7.4372   7.4562   7.4563   7.4633   7.4633   7.5384   7.5384
     7.6061   7.6061   7.6063   7.6063   7.6627   7.6627   7.6841   7.6841
     7.8050   7.8050   7.8316   7.8316   7.8880   7.8880   7.8885   7.8885
     7.9104   7.9104   7.9338   7.9338   8.0427   8.0427   8.0571   8.0571
     8.0573   8.0573   8.0663   8.0663   8.1243   8.1243   8.1334   8.1334
     8.1950   8.1950   8.1989   8.1989   8.2264   8.2264   8.2504   8.2504
     8.2823   8.2823   8.3068   8.3068   8.3106   8.3106   8.3432   8.3432
     8.5081   8.5081   8.5299   8.5299   8.5648   8.5648   8.6771   8.6771
     8.6796   8.6796   8.6940   8.6940   8.7174   8.7174   8.7232   8.7232
     8.7338   8.7338   8.7341   8.7341   8.7784   8.7784   8.7900   8.7900
     8.7911   8.7911   8.8812   8.8812   8.8889   8.8889   9.0683   9.0683
     9.0950   9.0950   9.1292   9.1292   9.1494   9.1856   9.1856   9.2329
     9.2329

     occupation numbers 
     1.0000   1.0000   1.0000   1.0000   1.0000   1.0000   1.0000   1.0000
     1.0000   1.0000   1.0000   1.0000   1.0000   1.0000   1.0000   1.0000
     1.0000   1.0000   1.0000   1.0000   1.0000   1.0000   1.0000   1.0000
     1.0000   1.0000   1.0000   1.0000   1.0000   1.0000   1.0000   1.0000
     1.0000   1.0000   1.0000   1.0000   1.0000   1.0000   1.0000   1.0000
     1.0000   1.0000   1.0000   1.0000   1.0000   1.0000   1.0000   1.0000
     1.0000   1.0000   1.0000   1.0000   1.0000   1.0000   1.0000   1.0000
     1.0000   1.0000   1.0000   1.0000   1.0000   1.0000   1.0000   1.0000
     1.0000   1.0000   1.0000   1.0000   1.0000   1.0000   1.0000   1.0000
     1.0000   1.0000   1.0000   1.0000   1.0000   1.0000   1.0000   1.0000
     1.0000   1.0000   1.0000   1.0000   1.0000   1.0000   1.0000   1.0000
     1.0000   1.0000   1.0000   1.0000   1.0000   1.0000   1.0000   1.0000
     1.0000   1.0000   1.0000   1.0000   1.0000   1.0000   1.0000   1.0000
     1.0000   1.0000   1.0000   1.0000   1.0000   1.0000   1.0000   1.0000
     1.0000   1.0000   1.0000   1.0000   1.0000   1.0000   1.0000   1.0000
     1.0000   1.0000   1.0000   1.0000   1.0000   1.0000   1.0000   1.0000
     1.0000   1.0000   1.0000   1.0000   1.0000   1.0000   1.0000   1.0000
     1.0000   1.0000   1.0000   1.0000   1.0000   1.0000   1.0000   1.0000
     1.0000   1.0000   1.0000   1.0000   1.0000   1.0000   1.0000   1.0000
     1.0000   1.0000   1.0000   1.0000   1.0000   1.0000   1.0000   1.0000
     1.0000   1.0000   1.0000   1.0000   1.0000   1.0000   1.0000   1.0000
     1.0000   1.0000   1.0000   1.0000   1.0000   1.0000   1.0000   1.0000
     1.0000   1.0000   1.0000   1.0000   1.0001   1.0001   1.0001   1.0001
     1.0002   1.0002   1.0002   1.0002   1.0005   1.0005   1.0006   1.0006
     1.0009   1.0009   1.0010   1.0010   1.0023   1.0023   1.0023   1.0023
     1.0030   1.0030   1.0033   1.0033   1.0042   1.0042   1.0042   1.0042
     1.0048   1.0048   1.0077   1.0077   1.0084   1.0120   1.0120   1.0124
     1.0124   1.0141   1.0141   1.0159   1.0159   1.0179   1.0179   1.0179
     1.0179   1.0188   1.0188   1.0232   1.0232   1.0237   1.0237   1.0264
     1.0264   1.0287   1.0287   1.0305   1.0305   1.0318   1.0318   1.0323
     1.0323   1.0302   1.0302   1.0232   1.0232   0.9983   0.9983   0.9839
     0.9839   0.9838   0.9838   0.9708   0.9708   0.9620   0.9350   0.9350
     0.9150   0.9150   0.8999   0.8999   0.8940   0.8940   0.8232   0.8232
     0.7471   0.7471   0.7468   0.7468   0.6759   0.6759   0.6475   0.6475
     0.4796   0.4796   0.4423   0.4423   0.3645   0.3645   0.3639   0.3639
     0.3347   0.3347   0.3042   0.3042   0.1768   0.1768   0.1621   0.1621
     0.1619   0.1619   0.1529   0.1529   0.1006   0.1006   0.0932   0.0932
     0.0495   0.0495   0.0471   0.0471   0.0313   0.0313   0.0190   0.0190
     0.0051   0.0051  -0.0039  -0.0039  -0.0052  -0.0052  -0.0149  -0.0149
    -0.0353  -0.0353  -0.0354  -0.0354  -0.0349  -0.0349  -0.0286  -0.0286
    -0.0285  -0.0285  -0.0274  -0.0274  -0.0256  -0.0256  -0.0252  -0.0252
    -0.0244  -0.0244  -0.0243  -0.0243  -0.0209  -0.0209  -0.0201  -0.0201
    -0.0200  -0.0200  -0.0138  -0.0138  -0.0133  -0.0133  -0.0051  -0.0051
    -0.0044  -0.0044  -0.0035  -0.0035  -0.0031  -0.0024  -0.0024  -0.0018
    -0.0018

          k = 0.0000 0.3500 0.0000 ( 94367 PWs)   bands (ev):

    -3.2494  -3.0659  -3.0658  -3.0658  -3.0658  -2.8826  -2.8826  -2.8826
    -2.8826  -2.5167  -2.5167  -2.5167  -2.5167  -2.3341  -2.3341  -2.3341
    -2.3341  -2.3341  -2.3341  -2.3341  -2.3341  -1.7878  -1.7878  -1.7878
    -1.7878  -1.6062  -1.6062  -1.6062  -1.6062  -1.4248  -1.4248  -1.4248
    -1.4248  -1.4248  -1.4248  -1.4248  -1.4248  -0.8819  -0.8819  -0.8819
    -0.8819  -0.8819  -0.8819  -0.8819  -0.8819  -0.3416  -0.3416  -0.3416
    -0.3416  -0.1618  -0.1618  -0.1618  -0.1618  -0.1618  -0.1618  -0.1618
    -0.1618   0.0183   0.0183   0.0183   0.0183   0.3763   0.3763   0.3763
     0.3763   0.3763   0.3763   0.3763   0.3763   1.2651   1.2651   1.2651
     1.2651   1.2687   1.2687   1.2687   1.2687   1.2687   1.2687   1.2687
     1.2687   1.4428   1.4428   1.4428   1.4428   1.4428   1.4428   1.4428
     1.4428   1.9747   1.9747   1.9747   1.9747   1.9747   1.9747   1.9747
     1.9747   2.5082   2.5082   2.5082   2.5082   2.8567   2.8567   2.8567
     2.8567   2.8567   2.8567   2.8567   2.8567   3.1842   3.1842   3.1842
     3.1842   3.3589   3.3589   3.3589   3.3589   3.3589   3.3589   3.3589
     3.3589   3.8819   3.8819   3.8819   3.8819   3.8819   3.8819   3.8819
     3.8819   4.0808   4.0808   4.0808   4.0808   4.0808   4.0808   4.0808
     4.0808   4.4818   4.6529   4.6529   4.6529   4.6529   4.7487   4.7487
     4.7487   4.7487   4.7487   4.7487   4.7487   4.7487   4.8237   4.8237
     4.8237   4.8237   4.9099   4.9099   5.0782   5.0782   5.0782   5.0782
     5.1654   5.1654   5.1654   5.1654   5.3349   5.3349   5.3349   5.3349
     5.3349   5.3349   5.3349   5.3349   5.5832   5.5832   5.5832   5.5832
     5.6003   5.6003   5.6003   5.6003   5.8880   5.8880   5.8880   5.8880
     5.9234   5.9234   5.9234   5.9234   5.9234   5.9234   5.9234   5.9234
     6.0163   6.0163   6.0163   6.0163   6.2083   6.2083   6.2240   6.2240
     6.2240   6.2240   6.2240   6.2240   6.2240   6.2241   6.3857   6.3857
     6.3857   6.3857   6.4261   6.4261   6.4261   6.4261   6.6331   6.7092
     6.7092   6.7092   6.7092   6.7092   6.7092   6.7092   6.7092   6.8076
     6.8076   6.8076   6.8076   6.9071   6.9071   6.9071   6.9071   6.9779
     6.9779   6.9779   6.9779   7.1730   7.1730   7.1730   7.1730   7.3092
     7.3092   7.3092   7.3092   7.3092   7.3092   7.3092   7.3092   7.3232
     7.3232   7.3232   7.3232   7.3855   7.3855   7.3855   7.3855   7.3855
     7.3855   7.3855   7.3855   7.5602   7.5602   7.5602   7.5602   7.6083
     7.6083   7.6083   7.6083   7.7362   7.7362   7.7362   7.7362   7.7362
     7.7362   7.7362   7.7362   7.8093   7.8093   7.8093   7.8093   7.8991
     7.8991   7.8991   7.8991   7.8991   7.8991   7.8991   7.8991   8.0772
     8.0772   8.0772   8.0772   8.0963   8.0963   8.0963   8.0963   8.2524
     8.2524   8.2524   8.2524   8.4037   8.4037   8.4037   8.4037   8.4037
     8.4037   8.4037   8.4037   8.4199   8.4199   8.4199   8.4199   8.4199
     8.4199   8.4199   8.4199   8.7502   8.7502   8.7502   8.7502   8.7502
     8.7502   8.7502   8.7502   8.7642   8.7642   8.7642   8.7642   8.7873
     8.7873   8.7873   8.7873   8.7873   8.7873   8.7873   8.7873   8.9356
     8.9356   8.9356   8.9356   8.9356   8.9356   8.9356   8.9356   9.0605
     9.0605   9.0605   9.0605   9.0605   9.0605   9.0605   9.0605   9.1311
     9.1311

     occupation numbers 
     1.0000   1.0000   1.0000   1.0000   1.0000   1.0000   1.0000   1.0000
     1.0000   1.0000   1.0000   1.0000   1.0000   1.0000   1.0000   1.0000
     1.0000   1.0000   1.0000   1.0000   1.0000   1.0000   1.0000   1.0000
     1.0000   1.0000   1.0000   1.0000   1.0000   1.0000   1.0000   1.0000
     1.0000   1.0000   1.0000   1.0000   1.0000   1.0000   1.0000   1.0000
     1.0000   1.0000   1.0000   1.0000   1.0000   1.0000   1.0000   1.0000
     1.0000   1.0000   1.0000   1.0000   1.0000   1.0000   1.0000   1.0000
     1.0000   1.0000   1.0000   1.0000   1.0000   1.0000   1.0000   1.0000
     1.0000   1.0000   1.0000   1.0000   1.0000   1.0000   1.0000   1.0000
     1.0000   1.0000   1.0000   1.0000   1.0000   1.0000   1.0000   1.0000
     1.0000   1.0000   1.0000   1.0000   1.0000   1.0000   1.0000   1.0000
     1.0000   1.0000   1.0000   1.0000   1.0000   1.0000   1.0000   1.0000
     1.0000   1.0000   1.0000   1.0000   1.0000   1.0000   1.0000   1.0000
     1.0000   1.0000   1.0000   1.0000   1.0000   1.0000   1.0000   1.0000
     1.0000   1.0000   1.0000   1.0000   1.0000   1.0000   1.0000   1.0000
     1.0000   1.0000   1.0000   1.0000   1.0000   1.0000   1.0000   1.0000
     1.0000   1.0000   1.0000   1.0000   1.0000   1.0000   1.0000   1.0000
     1.0000   1.0000   1.0000   1.0000   1.0000   1.0000   1.0000   1.0000
     1.0000   1.0000   1.0000   1.0000   1.0000   1.0000   1.0000   1.0000
     1.0000   1.0000   1.0000   1.0000   1.0000   1.0000   1.0000   1.0000
     1.0000   1.0000   1.0000   1.0000   1.0000   1.0000   1.0000   1.0000
     1.0000   1.0000   1.0000   1.0000   1.0000   1.0000   1.0000   1.0000
     1.0000   1.0000   1.0000   1.0000   1.0000   1.0000   1.0000   1.0000
     1.0000   1.0000   1.0000   1.0000   1.0000   1.0000   1.0000   1.0000
     1.0001   1.0001   1.0001   1.0001   1.0006   1.0006   1.0007   1.0007
     1.0007   1.0007   1.0007   1.0007   1.0007   1.0007   1.0023   1.0023
     1.0023   1.0023   1.0030   1.0030   1.0030   1.0030   1.0100   1.0143
     1.0143   1.0143   1.0143   1.0143   1.0143   1.0143   1.0143   1.0213
     1.0213   1.0213   1.0213   1.0289   1.0289   1.0289   1.0289   1.0333
     1.0333   1.0333   1.0333   1.0279   1.0279   1.0279   1.0279   0.9906
     0.9906   0.9906   0.9906   0.9906   0.9906   0.9906   0.9906   0.9844
     0.9844   0.9844   0.9844   0.9509   0.9509   0.9509   0.9509   0.9509
     0.9509   0.9509   0.9509   0.7998   0.7998   0.7998   0.7998   0.7444
     0.7444   0.7444   0.7444   0.5763   0.5763   0.5763   0.5763   0.5763
     0.5763   0.5763   0.5763   0.4736   0.4736   0.4736   0.4736   0.3496
     0.3496   0.3496   0.3496   0.3496   0.3496   0.3496   0.3496   0.1424
     0.1424   0.1424   0.1424   0.1247   0.1247   0.1247   0.1247   0.0181
     0.0181   0.0181   0.0181  -0.0272  -0.0272  -0.0272  -0.0272  -0.0272
    -0.0272  -0.0272  -0.0272  -0.0295  -0.0295  -0.0295  -0.0295  -0.0295
    -0.0295  -0.0295  -0.0295  -0.0231  -0.0231  -0.0231  -0.0231  -0.0231
    -0.0231  -0.0231  -0.0231  -0.0220  -0.0220  -0.0220  -0.0220  -0.0203
    -0.0203  -0.0203  -0.0203  -0.0203  -0.0203  -0.0203  -0.0203  -0.0106
    -0.0106  -0.0106  -0.0106  -0.0106  -0.0106  -0.0106  -0.0106  -0.0054
    -0.0054  -0.0054  -0.0054  -0.0054  -0.0054  -0.0054  -0.0054  -0.0035
    -0.0035

          k = 0.0000 0.3500 0.3333 ( 94406 PWs)   bands (ev):

    -3.2290  -3.1678  -3.0455  -3.0455  -2.9844  -2.9844  -2.9233  -2.7402
    -2.7402  -2.7402  -2.5573  -2.5573  -2.4964  -2.4964  -2.4355  -2.4355
    -2.2530  -2.1923  -2.1923  -2.0708  -2.0708  -2.0101  -2.0101  -1.9494
    -1.7676  -1.7676  -1.5860  -1.5860  -1.5255  -1.5255  -1.5255  -1.5255
    -1.2838  -1.2838  -1.2235  -1.2235  -1.2235  -1.1028  -1.1028  -1.0426
    -1.0426  -0.8018  -0.6215  -0.6215  -0.6213  -0.6213  -0.5012  -0.5012
    -0.3216  -0.3216  -0.3211  -0.3211  -0.2616  -0.2616  -0.0816  -0.0816
    -0.0221  -0.0221   0.1568   0.1573   0.1573   0.3359   0.3359   0.3967
     0.3967   0.6347   0.6347   0.6926   0.8136   0.8136   0.8711   0.8711
     0.8722   0.8722   0.9323   0.9323   1.2848   1.2848   1.3441   1.3441
     1.4052   1.4052   1.5809   1.5809   1.6438   1.6438   1.7582   1.7582
     1.7615   1.7615   1.8729   2.0498   2.0498   2.0571   2.0571   2.2301
     2.2301   2.2911   2.2911   2.5141   2.5242   2.5242   2.5792   2.5792
     2.6900   2.6900   2.9964   2.9964   3.2036   3.2036   3.2164   3.2164
     3.2274   3.2274   3.2619   3.2619   3.4569   3.4569   3.4947   3.4947
[...]
     atom   14 type  1   force =     0.00000000   -0.00000000   -0.00000001
     atom   15 type  1   force =     0.00000008    0.00000000    0.00000004
     atom   16 type  1   force =     0.00000001   -0.00000000    0.00000001
     atom   17 type  1   force =    -0.00000003    0.00000000    0.00000007
     atom   18 type  1   force =     0.00000007    0.00000000    0.00000000
     atom   19 type  1   force =    -0.00000001    0.00000000   -0.00000002
     atom   20 type  1   force =    -0.00000007    0.00000000    0.00000003
     atom   21 type  1   force =    -0.00000007   -0.00000000   -0.00000007
     atom   22 type  1   force =    -0.00000001   -0.00000000   -0.00000003
     atom   23 type  1   force =     0.00000006    0.00000000   -0.00000000
     atom   24 type  1   force =    -0.00000003    0.00000000   -0.00000005
     atom   25 type  1   force =    -0.00000001   -0.00000000    0.00000007
     atom   26 type  1   force =     0.00000009   -0.00000000    0.00000006
     atom   27 type  1   force =     0.00000006   -0.00000000    0.00000005
     atom   28 type  1   force =    -0.00000004    0.00000000    0.00000008
     atom   29 type  1   force =     0.00000003   -0.00000000   -0.00000006
     atom   30 type  1   force =    -0.00000005   -0.00000000   -0.00000008
     atom   31 type  1   force =    -0.00000004    0.00000000   -0.00000009
     atom   32 type  1   force =    -0.00000000   -0.00000000   -0.00000009
     atom   33 type  1   force =    -0.00000002   -0.00000000    0.00000002
     atom   34 type  1   force =    -0.00000001    0.00000000    0.00000001
     atom   35 type  1   force =    -0.00000003    0.00000000    0.00000003
     atom   36 type  1   force =    -0.00000004   -0.00000000    0.00000005
     atom   37 type  1   force =    -0.00000006    0.00000000   -0.00000005
     atom   38 type  1   force =    -0.00000003   -0.00000000   -0.00000004
     atom   39 type  1   force =     0.00000002   -0.00000000    0.00000000
     atom   40 type  1   force =    -0.00000004    0.00000000   -0.00000005
     atom   41 type  1   force =     0.00000002    0.00000000    0.00000007
     atom   42 type  1   force =     0.00000004   -0.00000000    0.00000010
     atom   43 type  1   force =    -0.00000000   -0.00000000    0.00000005
     atom   44 type  1   force =     0.00000006   -0.00000000    0.00000007
     atom   45 type  1   force =     0.00000005   -0.00000000   -0.00000005
     atom   46 type  1   force =    -0.00000001    0.00000000   -0.00000006
     atom   47 type  1   force =     0.00000001   -0.00000000   -0.00000006
     atom   48 type  1   force =     0.00000001    0.00000000   -0.00000006
     atom   49 type  1   force =     0.00000002   -0.00000000    0.00000003
     atom   50 type  1   force =    -0.00000000    0.00000000    0.00000003
     atom   51 type  1   force =    -0.00000004    0.00000000    0.00000006
     atom   52 type  1   force =     0.00000007   -0.00000000    0.00000005
     atom   53 type  1   force =     0.00000009    0.00000000    0.00000005
     atom   54 type  1   force =    -0.00000006    0.00000000    0.00000004
     atom   55 type  1   force =    -0.00000007   -0.00000000   -0.00000000
     atom   56 type  1   force =     0.00000007    0.00000000    0.00000001
     atom   57 type  1   force =    -0.00000009    0.00000000   -0.00000004
     atom   58 type  1   force =     0.00000001    0.00000000   -0.00000000
     atom   59 type  1   force =     0.00000005    0.00000000    0.00000003
     atom   60 type  1   force =    -0.00000002   -0.00000000   -0.00000003
     atom   61 type  1   force =     0.00000004    0.00000000    0.00000003
     atom   62 type  1   force =     0.00000007   -0.00000000    0.00000006
     atom   63 type  1   force =     0.00000005    0.00000000   -0.00000004
     atom   64 type  1   force =     0.00000003   -0.00000000    0.00000000
     atom   65 type  1   force =     0.00000001   -0.00000000   -0.00000001
     atom   66 type  1   force =     0.00000000    0.00000000   -0.00000004
     atom   67 type  1   force =    -0.00000001    0.00000000    0.00000007
     atom   68 type  1   force =     0.00000004    0.00000000    0.00000005
     atom   69 type  1   force =     0.00000003   -0.00000000    0.00000005
     atom   70 type  1   force =    -0.00000001   -0.00000000    0.00000002
     atom   71 type  1   force =    -0.00000002   -0.00000000   -0.00000004
     atom   72 type  1   force =    -0.00000004   -0.00000000   -0.00000000
     atom   73 type  1   force =    -0.00000004   -0.00000000   -0.00000002
     atom   74 type  1   force =    -0.00000001    0.00000000    0.00000002
     atom   75 type  1   force =     0.00000002    0.00000000    0.00000000
     atom   76 type  1   force =     0.00000002   -0.00000000   -0.00000003
     atom   77 type  1   force =     0.00000000   -0.00000000   -0.00000003
     atom   78 type  1   force =     0.00000002   -0.00000000   -0.00000008
     atom   79 type  1   force =    -0.00000000    0.00000000   -0.00000006
     atom   80 type  1   force =    -0.00000008    0.00000000   -0.00000000
     atom   81 type  1   force =    -0.00000013   -0.00000000    0.00000003
     atom   82 type  1   force =    -0.00000002   -0.00000000    0.00000002
     atom   83 type  1   force =    -0.00000001    0.00000000    0.00000004
     atom   84 type  1   force =    -0.00000012    0.00000000    0.00000002
     atom   85 type  1   force =     0.00000010    0.00000000   -0.00000000
     atom   86 type  1   force =     0.00000003   -0.00000000   -0.00000004
     atom   87 type  1   force =    -0.00000002    0.00000000   -0.00000003
     atom   88 type  1   force =     0.00000007   -0.00000000    0.00000003
     atom   89 type  1   force =     0.00000002   -0.00000000    0.00000004
     atom   90 type  1   force =    -0.00000006    0.00000000    0.00000000
     atom   91 type  1   force =    -0.00000004   -0.00000000   -0.00000007
     atom   92 type  1   force =    -0.00000001   -0.00000000   -0.00000007
     atom   93 type  1   force =    -0.00000004   -0.00000000   -0.00000008
     atom   94 type  1   force =    -0.00000001   -0.00000000   -0.00000008
     atom   95 type  1   force =    -0.00000002    0.00000000    0.00000005
     atom   96 type  1   force =    -0.00000005   -0.00000000    0.00000007
     atom   97 type  1   force =    -0.00000004    0.00000000    0.00000004
     atom   98 type  1   force =    -0.00000004   -0.00000000    0.00000006
     atom   99 type  1   force =    -0.00000003   -0.00000000   -0.00000000
     atom  100 type  1   force =    -0.00000000   -0.00000000   -0.00000003
     atom  101 type  1   force =     0.00000002    0.00000000    0.00000004
     atom  102 type  1   force =    -0.00000003    0.00000000    0.00000004
     atom  103 type  1   force =    -0.00000004    0.00000000    0.00000001
     atom  104 type  1   force =     0.00000002   -0.00000000    0.00000001
     atom  105 type  1   force =     0.00000003    0.00000000   -0.00000008
     atom  106 type  1   force =    -0.00000001   -0.00000000   -0.00000005
     atom  107 type  1   force =     0.00000005    0.00000000    0.00000000
     atom  108 type  1   force =     0.00000006   -0.00000000   -0.00000005
     atom  109 type  1   force =     0.00000009    0.00000000    0.00000004
     atom  110 type  1   force =     0.00000009   -0.00000000    0.00000007
     atom  111 type  1   force =     0.00000008    0.00000000    0.00000003
     atom  112 type  1   force =     0.00000011   -0.00000000    0.00000005
     atom  113 type  1   force =    -0.00000005   -0.00000000   -0.00000008
     atom  114 type  1   force =    -0.00000006    0.00000000   -0.00000003
     atom  115 type  1   force =     0.00000001   -0.00000000   -0.00000003
     atom  116 type  1   force =    -0.00000004    0.00000000   -0.00000006
     atom  117 type  1   force =    -0.00000003   -0.00000000    0.00000002
     atom  118 type  1   force =     0.00000003    0.00000000    0.00000003
     atom  119 type  1   force =     0.00000005   -0.00000000    0.00000005
     atom  120 type  1   force =     0.00000002    0.00000000   -0.00000000
     atom  121 type  1   force =     0.00000009   -0.00000000   -0.00000005
     atom  122 type  1   force =     0.00000008    0.00000000   -0.00000001
     atom  123 type  1   force =     0.00000009    0.00000000   -0.00000002
     atom  124 type  1   force =     0.00000008   -0.00000000    0.00000001
     atom  125 type  1   force =     0.00000002    0.00000000    0.00000003
     atom  126 type  1   force =     0.00000008   -0.00000000   -0.00000001
     atom  127 type  1   force =     0.00000006    0.00000000   -0.00000005
     atom  128 type  1   force =    -0.00000002    0.00000000   -0.00000002
     atom  129 type  1   force =    -0.00000006    0.00000000    0.00000000
     atom  130 type  1   force =     0.00000002    0.00000000   -0.00000006
     atom  131 type  1   force =    -0.00000002    0.00000000    0.00000000
     atom  132 type  1   force =    -0.00000010   -0.00000000    0.00000001
     atom  133 type  1   force =    -0.00000006    0.00000000    0.00000002
     atom  134 type  1   force =    -0.00000003   -0.00000000    0.00000005
     atom  135 type  1   force =    -0.00000005    0.00000000    0.00000007
     atom  136 type  1   force =     0.00000000    0.00000000    0.00000006
     atom  137 type  1   force =     0.00000001   -0.00000000    0.00000006
     atom  138 type  1   force =    -0.00000009   -0.00000000    0.00000002
     atom  139 type  1   force =    -0.00000011    0.00000000   -0.00000002
     atom  140 type  1   force =    -0.00000004    0.00000000   -0.00000001
     atom  141 type  1   force =    -0.00000004    0.00000000    0.00000002
     atom  142 type  1   force =     0.00000005    0.00000000    0.00000000
     atom  143 type  1   force =     0.00000002    0.00000000    0.00000001
     atom  144 type  1   force =    -0.00000003    0.00000000    0.00000001
     atom  145 type  1   force =    -0.00000001   -0.00000000    0.00000004
     atom  146 type  1   force =    -0.00000000    0.00000000    0.00000002
     atom  147 type  1   force =    -0.00000005   -0.00000000    0.00000002
     atom  148 type  1   force =    -0.00000002   -0.00000000    0.00000006
     atom  149 type  1   force =    -0.00000003   -0.00000000    0.00000000
     atom  150 type  1   force =    -0.00000011    0.00000000   -0.00000001
     atom  151 type  1   force =    -0.00000012   -0.00000000   -0.00000000
     atom  152 type  1   force =    -0.00000002    0.00000000   -0.00000001
     atom  153 type  1   force =     0.00000000    0.00000000    0.00000001
     atom  154 type  1   force =    -0.00000009    0.00000000    0.00000006
     atom  155 type  1   force =    -0.00000003   -0.00000000    0.00000004
     atom  156 type  1   force =     0.00000006    0.00000000   -0.00000004
     atom  157 type  1   force =     0.00000010   -0.00000000   -0.00000007
     atom  158 type  1   force =     0.00000006    0.00000000   -0.00000002
     atom  159 type  1   force =     0.00000011   -0.00000000   -0.00000005
     atom  160 type  1   force =     0.00000010    0.00000000   -0.00000003
     atom  161 type  1   force =     0.00000003    0.00000000    0.00000000
     atom  162 type  1   force =     0.00000008   -0.00000000   -0.00000008
     atom  163 type  1   force =     0.00000002    0.00000000   -0.00000004
     atom  164 type  1   force =    -0.00000004   -0.00000000    0.00000002
     atom  165 type  1   force =    -0.00000007    0.00000000    0.00000000
     atom  166 type  1   force =     0.00000001    0.00000000    0.00000002
     atom  167 type  1   force =     0.00000005   -0.00000000    0.00000002
     atom  168 type  1   force =    -0.00000006   -0.00000000   -0.00000001
     atom  169 type  1   force =     0.00000011   -0.00000000   -0.00000001
     atom  170 type  1   force =    -0.00000000   -0.00000000    0.00000001
     atom  171 type  1   force =    -0.00000000    0.00000000   -0.00000003
     atom  172 type  1   force =     0.00000010    0.00000000   -0.00000001
     atom  173 type  1   force =     0.00000005    0.00000000   -0.00000003
     atom  174 type  1   force =    -0.00000000    0.00000000   -0.00000005
     atom  175 type  1   force =     0.00000002   -0.00000000   -0.00000006
     atom  176 type  1   force =    -0.00000001    0.00000000   -0.00000005
     atom  177 type  1   force =    -0.00000004    0.00000000   -0.00000004
     atom  178 type  1   force =     0.00000007   -0.00000000   -0.00000002
     atom  179 type  1   force =     0.00000008    0.00000000   -0.00000001
     atom  180 type  1   force =    -0.00000003    0.00000000    0.00000000
     atom  181 type  1   force =    -0.00000006   -0.00000000    0.00000007
     atom  182 type  1   force =     0.00000002    0.00000000   -0.00000001
     atom  183 type  1   force =    -0.00000006    0.00000000    0.00000006
     atom  184 type  1   force =    -0.00000008    0.00000000    0.00000009
     atom  185 type  1   force =    -0.00000004   -0.00000000    0.00000006
     atom  186 type  1   force =    -0.00000010   -0.00000000    0.00000010
     atom  187 type  1   force =    -0.00000008   -0.00000000    0.00000003
     atom  188 type  1   force =     0.00000002    0.00000000   -0.00000001
     atom  189 type  1   force =     0.00000005   -0.00000000   -0.00000011
     atom  190 type  1   force =    -0.00000005    0.00000000   -0.00000010
     atom  191 type  1   force =    -0.00000003   -0.00000000   -0.00000008
     atom  192 type  1   force =     0.00000003   -0.00000000   -0.00000007
     atom  193 type  1   force =     0.00000003   -0.00000000    0.00000005
     atom  194 type  1   force =    -0.00000002    0.00000000    0.00000007
     atom  195 type  1   force =    -0.00000001   -0.00000000    0.00000009
     atom  196 type  1   force =     0.00000007    0.00000000    0.00000006

     Total force =     0.000006     Total SCF correction =     0.000001
     SCF correction compared to forces is large: reduce conv_thr to get better values


     Computing stress (Cartesian axis) and pressure

          total   stress  (Ry/bohr**3)                   (kbar)     P=  -10.01
  -0.00006797  -0.00000001  -0.00000000        -10.00     -0.00     -0.00
  -0.00000001  -0.00006830   0.00000000         -0.00    -10.05      0.00
  -0.00000000   0.00000000  -0.00006796         -0.00      0.00    -10.00

     kinetic stress (kbar)   1435.07     -0.00     -0.00
                               -0.00   1435.02      0.00
                               -0.00      0.00   1435.07

     local   stress (kbar)    627.67      0.00      0.00
                                0.00    627.67     -0.00
                                0.00     -0.00    627.67

     nonloc. stress (kbar)   1037.77      0.00      0.00
                                0.00   1037.78     -0.00
                                0.00     -0.00   1037.77

     hartree stress (kbar)      2.52     -0.00     -0.00
                               -0.00      2.52      0.00
                               -0.00      0.00      2.52

     exc-cor stress (kbar)    501.06     -0.00     -0.00
                               -0.00    501.06      0.00
                               -0.00      0.00    501.06

     corecor stress (kbar)  -1271.38      0.00      0.00
                                0.00  -1271.38     -0.00
                                0.00     -0.00  -1271.38

     ewald   stress (kbar)  -2342.72     -0.00     -0.00
                               -0.00  -2342.72     -0.00
                               -0.00     -0.00  -2342.72

     hubbard stress (kbar)      0.00      0.00      0.00
                                0.00      0.00      0.00
                                0.00      0.00      0.00

     london  stress (kbar)      0.00      0.00      0.00
                                0.00      0.00      0.00
                                0.00      0.00      0.00

     DFT-D3  stress (kbar)      0.00      0.00      0.00
                                0.00      0.00      0.00
                                0.00      0.00      0.00

     XDM     stress (kbar)      0.00      0.00      0.00
                                0.00      0.00      0.00
                                0.00      0.00      0.00

     dft-nl  stress (kbar)      0.00      0.00      0.00
                                0.00      0.00      0.00
                                0.00      0.00      0.00

     TS-vdW  stress (kbar)      0.00      0.00      0.00
                                0.00      0.00      0.00
                                0.00      0.00      0.00



     Writing output data file aiida.save/
 
     init_run     :    231.74s CPU    234.39s WALL (       1 calls)
     electrons    :   7766.50s CPU   7827.67s WALL (       1 calls)
     forces       :     97.36s CPU     98.34s WALL (       1 calls)
     stress       :   1245.62s CPU   1247.69s WALL (       1 calls)

     Called by init_run:
     wfcinit      :    223.55s CPU    225.78s WALL (       1 calls)
     wfcinit:atom :      0.50s CPU      0.94s WALL (       3 calls)
     wfcinit:wfcr :    219.47s CPU    220.47s WALL (       3 calls)
     potinit      :      3.03s CPU      3.27s WALL (       1 calls)
     hinit0       :      3.30s CPU      3.36s WALL (       1 calls)

     Called by electrons:
     c_bands      :   6698.56s CPU   6745.91s WALL (      23 calls)
     sum_band     :    985.47s CPU    990.43s WALL (      23 calls)
     v_of_rho     :     40.34s CPU     45.04s WALL (      23 calls)
     v_h          :      4.01s CPU      4.81s WALL (      23 calls)
     v_xc         :     39.03s CPU     43.09s WALL (      25 calls)
     newd         :      7.15s CPU      8.87s WALL (      23 calls)
     PAW_pot      :      7.03s CPU      7.46s WALL (      23 calls)
     mix_rho      :     23.22s CPU     24.61s WALL (      23 calls)

     Called by c_bands:
     init_us_2    :    103.95s CPU    104.54s WALL (     147 calls)
     cegterg      :   5841.18s CPU   5886.31s WALL (      69 calls)

     Called by sum_band:
     sum_band:bec :      1.19s CPU      1.19s WALL (      69 calls)
     addusdens    :      5.05s CPU      7.08s WALL (      23 calls)

     Called by *egterg:
     h_psi        :   4083.73s CPU   4103.82s WALL (     285 calls)
     s_psi        :   1071.47s CPU   1073.24s WALL (     285 calls)
     g_psi        :      6.00s CPU      6.01s WALL (     213 calls)
     cdiaghg      :    169.08s CPU    169.96s WALL (     279 calls)
     cegterg:over :    299.07s CPU    299.82s WALL (     213 calls)
     cegterg:upda :    196.51s CPU    202.48s WALL (     213 calls)
     cegterg:last :     97.41s CPU     97.41s WALL (      70 calls)

     Called by h_psi:
     h_psi:pot    :   4077.19s CPU   4087.61s WALL (     285 calls)
     h_psi:calbec :   1058.89s CPU   1059.10s WALL (     285 calls)
     vloc_psi     :   1942.26s CPU   1950.55s WALL (     285 calls)
     add_vuspsi   :   1076.03s CPU   1077.95s WALL (     285 calls)

     General routines
     calbec       :   1558.24s CPU   1558.59s WALL (     369 calls)
     fft          :     43.49s CPU     47.74s WALL (     324 calls)
     ffts         :     10.46s CPU     10.53s WALL (     291 calls)
     fftw         :   2026.39s CPU   2035.29s WALL (  147923 calls)
     interpolate  :      3.91s CPU      4.62s WALL (      23 calls)
 
     Parallel routines
     fft_scatt_xy :    459.34s CPU    461.06s WALL (  148538 calls)
     fft_scatt_yz :    520.51s CPU    526.08s WALL (  148538 calls)

     PAW routines
     PAW_pot      :      7.03s CPU      7.46s WALL (      23 calls)
 
     PWSCF        :      2h38m CPU      2h40m WALL

 
   This run was terminated on:  13:12:17  26Feb2020            

=------------------------------------------------------------------------------=
   JOB DONE.
=------------------------------------------------------------------------------=
