   2   2   1   0
  0.1721481E+02  0.3253200E-09  0.3253200E-09  0.3253200E-09  0.5000000E-15
  1.00000000000000005E-004
  CAR 
 unknown system                          
     16.84639739    -29.34856202  301      5.49980990      1.00000000
    -29.349  0.0000E+00  0.0000E+00
    -29.195  0.0000E+00  0.0000E+00
    -29.041  0.0000E+00  0.0000E+00
    -28.887  0.0000E+00  0.0000E+00
    -28.733  0.0000E+00  0.0000E+00
    -28.579  0.0000E+00  0.0000E+00
    -28.425  0.0000E+00  0.0000E+00
    -28.271  0.0000E+00  0.0000E+00
    -28.117 -0.6357E-32 -0.9789E-33
    -27.963 -0.2165E-21 -0.3334E-22
    -27.809 -0.6083E-13 -0.9367E-14
    -27.655 -0.1438E-06 -0.2214E-07
    -27.501 -0.2585E-02 -0.3981E-03
    -27.347 -0.1644E+00 -0.2572E-01
    -27.193  0.3939E+01  0.5808E+00
    -27.039  0.9962E+01  0.2115E+01
    -26.885  0.1752E+02  0.4812E+01
    -26.731  0.2016E+02  0.7916E+01
    -26.577  0.1752E+02  0.1061E+02
    -26.423  0.9452E+01  0.1207E+02
    -26.269 -0.4477E+00  0.1200E+02
    -26.115 -0.3308E-02  0.1200E+02
    -25.961 -0.1110E-06  0.1200E+02
    -25.807 -0.2898E-13  0.1200E+02
    -25.653  0.0000E+00  0.1200E+02
    -25.499  0.0000E+00  0.1200E+02
    -25.345  0.0000E+00  0.1200E+02
    -25.191  0.0000E+00  0.1200E+02
    -25.037  0.0000E+00  0.1200E+02
    -24.883  0.0000E+00  0.1200E+02
    -24.729  0.0000E+00  0.1200E+02
    -24.575  0.0000E+00  0.1200E+02
    -24.421  0.0000E+00  0.1200E+02
    -24.267  0.0000E+00  0.1200E+02
    -24.113  0.0000E+00  0.1200E+02
    -23.959  0.0000E+00  0.1200E+02
    -23.805  0.0000E+00  0.1200E+02
    -23.651  0.0000E+00  0.1200E+02
    -23.497  0.0000E+00  0.1200E+02
    -23.343  0.0000E+00  0.1200E+02
    -23.189  0.0000E+00  0.1200E+02
    -23.035  0.0000E+00  0.1200E+02
    -22.881  0.0000E+00  0.1200E+02
    -22.727  0.0000E+00  0.1200E+02
    -22.573  0.0000E+00  0.1200E+02
    -22.419  0.0000E+00  0.1200E+02
    -22.265  0.0000E+00  0.1200E+02
    -22.111  0.0000E+00  0.1200E+02
    -21.957  0.0000E+00  0.1200E+02
    -21.803  0.0000E+00  0.1200E+02
    -21.649  0.0000E+00  0.1200E+02
    -21.495  0.0000E+00  0.1200E+02
    -21.341  0.0000E+00  0.1200E+02
    -21.187  0.0000E+00  0.1200E+02
    -21.033  0.0000E+00  0.1200E+02
    -20.879  0.0000E+00  0.1200E+02
    -20.726  0.0000E+00  0.1200E+02
    -20.572  0.0000E+00  0.1200E+02
    -20.418  0.0000E+00  0.1200E+02
    -20.264  0.0000E+00  0.1200E+02
    -20.110  0.0000E+00  0.1200E+02
    -19.956  0.0000E+00  0.1200E+02
    -19.802  0.0000E+00  0.1200E+02
    -19.648  0.0000E+00  0.1200E+02
    -19.494  0.0000E+00  0.1200E+02
    -19.340  0.0000E+00  0.1200E+02
    -19.186  0.0000E+00  0.1200E+02
    -19.032  0.0000E+00  0.1200E+02
    -18.878  0.0000E+00  0.1200E+02
    -18.724  0.0000E+00  0.1200E+02
    -18.570  0.0000E+00  0.1200E+02
    -18.416  0.0000E+00  0.1200E+02
    -18.262  0.0000E+00  0.1200E+02
    -18.108  0.0000E+00  0.1200E+02
    -17.954  0.0000E+00  0.1200E+02
    -17.800  0.0000E+00  0.1200E+02
    -17.646  0.0000E+00  0.1200E+02
    -17.492  0.0000E+00  0.1200E+02
    -17.338  0.0000E+00  0.1200E+02
    -17.184  0.0000E+00  0.1200E+02
    -17.030  0.0000E+00  0.1200E+02
    -16.876  0.0000E+00  0.1200E+02
    -16.722  0.0000E+00  0.1200E+02
    -16.568  0.0000E+00  0.1200E+02
    -16.414  0.0000E+00  0.1200E+02
    -16.260  0.0000E+00  0.1200E+02
    -16.106  0.0000E+00  0.1200E+02
    -15.952  0.0000E+00  0.1200E+02
    -15.798  0.0000E+00  0.1200E+02
    -15.644  0.0000E+00  0.1200E+02
    -15.490  0.0000E+00  0.1200E+02
    -15.336  0.0000E+00  0.1200E+02
    -15.182  0.0000E+00  0.1200E+02
    -15.028  0.0000E+00  0.1200E+02
    -14.874  0.0000E+00  0.1200E+02
    -14.720  0.0000E+00  0.1200E+02
    -14.566  0.0000E+00  0.1200E+02
    -14.412  0.0000E+00  0.1200E+02
    -14.258  0.0000E+00  0.1200E+02
    -14.104  0.0000E+00  0.1200E+02
    -13.950  0.0000E+00  0.1200E+02
    -13.796  0.0000E+00  0.1200E+02
    -13.642  0.0000E+00  0.1200E+02
    -13.488  0.0000E+00  0.1200E+02
    -13.334  0.0000E+00  0.1200E+02
    -13.180  0.0000E+00  0.1200E+02
    -13.026  0.0000E+00  0.1200E+02
    -12.872  0.0000E+00  0.1200E+02
    -12.718  0.0000E+00  0.1200E+02
    -12.564  0.0000E+00  0.1200E+02
    -12.410  0.0000E+00  0.1200E+02
    -12.256  0.0000E+00  0.1200E+02
    -12.102  0.0000E+00  0.1200E+02
    -11.948  0.0000E+00  0.1200E+02
    -11.794  0.0000E+00  0.1200E+02
    -11.640  0.0000E+00  0.1200E+02
    -11.487  0.0000E+00  0.1200E+02
    -11.333  0.0000E+00  0.1200E+02
    -11.179  0.0000E+00  0.1200E+02
    -11.025  0.0000E+00  0.1200E+02
    -10.871  0.0000E+00  0.1200E+02
    -10.717  0.0000E+00  0.1200E+02
    -10.563  0.0000E+00  0.1200E+02
    -10.409  0.0000E+00  0.1200E+02
    -10.255  0.0000E+00  0.1200E+02
    -10.101  0.0000E+00  0.1200E+02
     -9.947  0.0000E+00  0.1200E+02
     -9.793  0.0000E+00  0.1200E+02
     -9.639  0.0000E+00  0.1200E+02
     -9.485  0.0000E+00  0.1200E+02
     -9.331  0.0000E+00  0.1200E+02
     -9.177  0.0000E+00  0.1200E+02
     -9.023  0.0000E+00  0.1200E+02
     -8.869  0.0000E+00  0.1200E+02
     -8.715  0.0000E+00  0.1200E+02
     -8.561  0.0000E+00  0.1200E+02
     -8.407  0.0000E+00  0.1200E+02
     -8.253  0.0000E+00  0.1200E+02
     -8.099  0.0000E+00  0.1200E+02
     -7.945  0.0000E+00  0.1200E+02
     -7.791  0.0000E+00  0.1200E+02
     -7.637  0.0000E+00  0.1200E+02
     -7.483  0.0000E+00  0.1200E+02
     -7.329  0.0000E+00  0.1200E+02
     -7.175  0.0000E+00  0.1200E+02
     -7.021  0.0000E+00  0.1200E+02
     -6.867  0.0000E+00  0.1200E+02
     -6.713  0.0000E+00  0.1200E+02
     -6.559  0.0000E+00  0.1200E+02
     -6.405  0.0000E+00  0.1200E+02
     -6.251  0.0000E+00  0.1200E+02
     -6.097  0.0000E+00  0.1200E+02
     -5.943  0.0000E+00  0.1200E+02
     -5.789  0.0000E+00  0.1200E+02
     -5.635  0.0000E+00  0.1200E+02
     -5.481  0.0000E+00  0.1200E+02
     -5.327  0.0000E+00  0.1200E+02
     -5.173  0.0000E+00  0.1200E+02
     -5.019  0.0000E+00  0.1200E+02
     -4.865  0.0000E+00  0.1200E+02
     -4.711  0.0000E+00  0.1200E+02
     -4.557  0.0000E+00  0.1200E+02
     -4.403  0.0000E+00  0.1200E+02
     -4.249  0.0000E+00  0.1200E+02
     -4.095  0.0000E+00  0.1200E+02
     -3.941  0.0000E+00  0.1200E+02
     -3.787  0.0000E+00  0.1200E+02
     -3.633  0.0000E+00  0.1200E+02
     -3.479  0.0000E+00  0.1200E+02
     -3.325  0.0000E+00  0.1200E+02
     -3.171  0.0000E+00  0.1200E+02
     -3.017  0.0000E+00  0.1200E+02
     -2.863  0.0000E+00  0.1200E+02
     -2.709  0.0000E+00  0.1200E+02
     -2.555  0.0000E+00  0.1200E+02
     -2.402  0.0000E+00  0.1200E+02
     -2.248  0.0000E+00  0.1200E+02
     -2.094  0.0000E+00  0.1200E+02
     -1.940  0.0000E+00  0.1200E+02
     -1.786  0.0000E+00  0.1200E+02
     -1.632  0.0000E+00  0.1200E+02
     -1.478  0.0000E+00  0.1200E+02
     -1.324  0.0000E+00  0.1200E+02
     -1.170 -0.4001E-28  0.1200E+02
     -1.016 -0.1904E-18  0.1200E+02
     -0.862 -0.7339E-11  0.1200E+02
     -0.708 -0.2322E-05  0.1200E+02
     -0.554 -0.4943E-02  0.1200E+02
     -0.400  0.8194E-01  0.1201E+02
     -0.246  0.8253E+00  0.1214E+02
     -0.092  0.4366E+00  0.1221E+02
      0.062  0.3210E+00  0.1226E+02
      0.216  0.2708E+00  0.1230E+02
      0.370  0.2399E+00  0.1233E+02
      0.524  0.2196E+00  0.1237E+02
      0.678  0.2059E+00  0.1240E+02
      0.832  0.1939E+00  0.1243E+02
      0.986  0.1792E+00  0.1246E+02
      1.140  0.1677E+00  0.1248E+02
      1.294  0.1722E+00  0.1251E+02
      1.448  0.1774E+00  0.1254E+02
      1.602  0.1569E+00  0.1256E+02
      1.756  0.1460E+00  0.1258E+02
      1.910  0.1704E+00  0.1261E+02
      2.064  0.1609E+00  0.1263E+02
      2.218  0.1363E+00  0.1266E+02
      2.372  0.1676E+00  0.1268E+02
      2.526  0.1657E+00  0.1271E+02
      2.680  0.1386E+00  0.1273E+02
      2.834  0.1217E+00  0.1275E+02
      2.988  0.1144E+01  0.1292E+02
      3.142  0.5428E+01  0.1376E+02
      3.296  0.2372E+01  0.1412E+02
      3.450  0.2493E+01  0.1451E+02
      3.604  0.2178E+01  0.1484E+02
      3.758  0.1954E+01  0.1514E+02
      3.912  0.1566E+01  0.1539E+02
      4.066  0.8642E+00  0.1552E+02
      4.220  0.8563E+00  0.1565E+02
      4.374  0.8461E+00  0.1578E+02
      4.528  0.1355E+01  0.1599E+02
      4.682  0.1324E+01  0.1619E+02
      4.836  0.3986E+01  0.1681E+02
      4.990  0.8324E+01  0.1809E+02
      5.144  0.5898E+01  0.1900E+02
      5.298  0.1915E+01  0.1929E+02
      5.452  0.3384E+01  0.1981E+02
      5.606  0.3230E+01  0.2031E+02
      5.760  0.1695E+01  0.2057E+02
      5.914  0.1569E+01  0.2081E+02
      6.068  0.1559E+01  0.2105E+02
      6.222  0.1568E+01  0.2129E+02
      6.376  0.2161E+01  0.2163E+02
      6.530  0.7816E+01  0.2283E+02
      6.684  0.3259E+01  0.2333E+02
      6.837  0.4118E+01  0.2397E+02
      6.991  0.1903E+01  0.2426E+02
      7.145  0.1426E+01  0.2448E+02
      7.299  0.1368E+01  0.2469E+02
      7.453  0.1251E+01  0.2488E+02
      7.607  0.1302E+01  0.2508E+02
      7.761  0.1251E+01  0.2528E+02
      7.915  0.1948E+01  0.2558E+02
      8.069  0.1961E+01  0.2588E+02
      8.223  0.5299E+01  0.2669E+02
      8.377  0.6592E+01  0.2771E+02
      8.531  0.5223E+01  0.2851E+02
      8.685  0.1418E+02  0.3070E+02
      8.839  0.3692E+01  0.3126E+02
      8.993  0.2369E+01  0.3163E+02
      9.147  0.4983E+01  0.3240E+02
      9.301  0.3445E+01  0.3293E+02
      9.455  0.3013E+01  0.3339E+02
      9.609  0.1500E+01  0.3362E+02
      9.763  0.1060E+01  0.3379E+02
      9.917  0.1730E+01  0.3405E+02
     10.071  0.5109E+00  0.3413E+02
     10.225  0.4532E+00  0.3420E+02
     10.379  0.4008E+00  0.3426E+02
     10.533  0.3441E+00  0.3431E+02
     10.687  0.3713E+00  0.3437E+02
     10.841  0.2991E+00  0.3442E+02
     10.995  0.3391E+00  0.3447E+02
     11.149  0.2927E+00  0.3452E+02
     11.303  0.2971E+00  0.3456E+02
     11.457  0.3069E+00  0.3461E+02
     11.611  0.2678E+00  0.3465E+02
     11.765  0.3126E+00  0.3470E+02
     11.919  0.2478E+00  0.3474E+02
     12.073  0.3016E+00  0.3478E+02
     12.227  0.2285E+00  0.3482E+02
     12.381  0.3035E+00  0.3486E+02
     12.535  0.2420E+00  0.3490E+02
     12.689  0.3108E+00  0.3495E+02
     12.843  0.2292E+00  0.3498E+02
     12.997  0.3005E+00  0.3503E+02
     13.151  0.2308E+00  0.3507E+02
     13.305  0.2967E+00  0.3511E+02
     13.459  0.2358E+00  0.3515E+02
     13.613  0.7809E+00  0.3527E+02
     13.767  0.9149E+00  0.3541E+02
     13.921  0.7679E+00  0.3553E+02
     14.075  0.1632E+01  0.3578E+02
     14.229  0.3743E+00  0.3584E+02
     14.383  0.2750E+00  0.3588E+02
     14.537  0.2607E+00  0.3592E+02
     14.691  0.2401E+00  0.3596E+02
     14.845  0.2926E+00  0.3600E+02
     14.999 -0.7308E-02  0.3600E+02
     15.153 -0.3427E-03  0.3600E+02
     15.307 -0.2419E-07  0.3600E+02
     15.461 -0.1190E-13  0.3600E+02
     15.615  0.0000E+00  0.3600E+02
     15.769  0.0000E+00  0.3600E+02
     15.922  0.0000E+00  0.3600E+02
     16.076  0.0000E+00  0.3600E+02
     16.230  0.0000E+00  0.3600E+02
     16.384  0.0000E+00  0.3600E+02
     16.538  0.0000E+00  0.3600E+02
     16.692  0.0000E+00  0.3600E+02
     16.846  0.0000E+00  0.3600E+02
     16.84639739    -29.34856202  301      5.49980990      1.00000000
    -29.349  0.0000E+00  0.0000E+00  0.0000E+00  0.0000E+00  0.0000E+00  0.0000E+00  0.0000E+00  0.0000E+00  0.0000E+00
    -29.195  0.0000E+00  0.0000E+00  0.0000E+00  0.0000E+00  0.0000E+00  0.0000E+00  0.0000E+00  0.0000E+00  0.0000E+00
    -29.041  0.0000E+00  0.0000E+00  0.0000E+00  0.0000E+00  0.0000E+00  0.0000E+00  0.0000E+00  0.0000E+00  0.0000E+00
    -28.887  0.0000E+00  0.0000E+00  0.0000E+00  0.0000E+00  0.0000E+00  0.0000E+00  0.0000E+00  0.0000E+00  0.0000E+00
    -28.733  0.0000E+00  0.0000E+00  0.0000E+00  0.0000E+00  0.0000E+00  0.0000E+00  0.0000E+00  0.0000E+00  0.0000E+00
    -28.579  0.0000E+00  0.0000E+00  0.0000E+00  0.0000E+00  0.0000E+00  0.0000E+00  0.0000E+00  0.0000E+00  0.0000E+00
    -28.425  0.0000E+00  0.0000E+00  0.0000E+00  0.0000E+00  0.0000E+00  0.0000E+00  0.0000E+00  0.0000E+00  0.0000E+00
    -28.271  0.0000E+00  0.0000E+00  0.0000E+00  0.0000E+00  0.0000E+00  0.0000E+00  0.0000E+00  0.0000E+00  0.0000E+00
    -28.117 -0.1007E-37 -0.1550E-32 -0.3684E-45 -0.1553E-32 -0.1700E-38 -0.7455E-38 -0.1565E-40 -0.7458E-38 -0.2228E-38
    -27.963 -0.4229E-27 -0.5277E-22 -0.3852E-33 -0.5292E-22 -0.7288E-28 -0.3092E-27 -0.6023E-30 -0.3093E-27 -0.9199E-28
    -27.809 -0.1540E-18 -0.1482E-13 -0.1148E-22 -0.1487E-13 -0.2710E-19 -0.1109E-18 -0.1961E-21 -0.1110E-18 -0.3271E-19
    -27.655 -0.5093E-12 -0.3501E-07 -0.2958E-14 -0.3519E-07 -0.9152E-13 -0.3592E-12 -0.5569E-15 -0.3593E-12 -0.1047E-12
    -27.501 -0.1501E-07 -0.6284E-03 -0.6780E-08 -0.6336E-03 -0.2773E-08 -0.1027E-07 -0.1294E-10 -0.1027E-07 -0.2955E-08
    -27.347 -0.3321E-05 -0.3947E-01 -0.1536E-03 -0.4070E-01 -0.6615E-06 -0.2128E-05 -0.7118E-08 -0.2128E-05 -0.5857E-06
    -27.193  0.4928E-04  0.9758E+00 -0.3588E-01  0.9828E+00  0.6571E-05  0.3363E-04 -0.2234E-05  0.3332E-04  0.8104E-05
    -27.039  0.5139E-03  0.1885E+01  0.7038E+00  0.2299E+01  0.1419E-03  0.3009E-03  0.4560E-04  0.3024E-03  0.1069E-03
    -26.885  0.1428E-02  0.2592E+01  0.2428E+01  0.3603E+01  0.8208E-03  0.6154E-03  0.8204E-04  0.7070E-03  0.1739E-03
    -26.731  0.7401E-03  0.2122E+01  0.6274E+01  0.1581E+01  0.1350E-02  0.5248E-03  0.4237E-04  0.1163E-02  0.1648E-04
    -26.577  0.5852E-03  0.3415E+01  0.2583E+01  0.2705E+01  0.5449E-03  0.3411E-03  0.2282E-04  0.6246E-03  0.5576E-05
    -26.423  0.8697E-04  0.1984E+01  0.9529E+00  0.1770E+01  0.7212E-04  0.4482E-04  0.5933E-05  0.6978E-04  0.4826E-06
    -26.269 -0.5133E-05 -0.9358E-01 -0.4652E-01 -0.8279E-01 -0.4454E-05 -0.2745E-05 -0.3166E-06 -0.4471E-05 -0.3517E-07
    -26.115 -0.1402E-07 -0.6768E-03 -0.3674E-03 -0.6036E-03 -0.1220E-07 -0.7255E-08 -0.1053E-08 -0.1242E-07 -0.9438E-10
    -25.961 -0.2976E-12 -0.2241E-07 -0.1293E-07 -0.1995E-07 -0.2585E-12 -0.1493E-12 -0.2350E-13 -0.2644E-12 -0.2177E-14
    -25.807 -0.5550E-19 -0.5784E-14 -0.3523E-14 -0.5131E-14 -0.4856E-19 -0.2707E-19 -0.4314E-20 -0.5020E-19 -0.4621E-21
    -25.653  0.0000E+00  0.0000E+00  0.0000E+00  0.0000E+00  0.0000E+00  0.0000E+00  0.0000E+00  0.0000E+00  0.0000E+00
    -25.499  0.0000E+00  0.0000E+00  0.0000E+00  0.0000E+00  0.0000E+00  0.0000E+00  0.0000E+00  0.0000E+00  0.0000E+00
    -25.345  0.0000E+00  0.0000E+00  0.0000E+00  0.0000E+00  0.0000E+00  0.0000E+00  0.0000E+00  0.0000E+00  0.0000E+00
    -25.191  0.0000E+00  0.0000E+00  0.0000E+00  0.0000E+00  0.0000E+00  0.0000E+00  0.0000E+00  0.0000E+00  0.0000E+00
    -25.037  0.0000E+00  0.0000E+00  0.0000E+00  0.0000E+00  0.0000E+00  0.0000E+00  0.0000E+00  0.0000E+00  0.0000E+00
    -24.883  0.0000E+00  0.0000E+00  0.0000E+00  0.0000E+00  0.0000E+00  0.0000E+00  0.0000E+00  0.0000E+00  0.0000E+00
    -24.729  0.0000E+00  0.0000E+00  0.0000E+00  0.0000E+00  0.0000E+00  0.0000E+00  0.0000E+00  0.0000E+00  0.0000E+00
    -24.575  0.0000E+00  0.0000E+00  0.0000E+00  0.0000E+00  0.0000E+00  0.0000E+00  0.0000E+00  0.0000E+00  0.0000E+00
    -24.421  0.0000E+00  0.0000E+00  0.0000E+00  0.0000E+00  0.0000E+00  0.0000E+00  0.0000E+00  0.0000E+00  0.0000E+00
    -24.267  0.0000E+00  0.0000E+00  0.0000E+00  0.0000E+00  0.0000E+00  0.0000E+00  0.0000E+00  0.0000E+00  0.0000E+00
    -24.113  0.0000E+00  0.0000E+00  0.0000E+00  0.0000E+00  0.0000E+00  0.0000E+00  0.0000E+00  0.0000E+00  0.0000E+00
    -23.959  0.0000E+00  0.0000E+00  0.0000E+00  0.0000E+00  0.0000E+00  0.0000E+00  0.0000E+00  0.0000E+00  0.0000E+00
    -23.805  0.0000E+00  0.0000E+00  0.0000E+00  0.0000E+00  0.0000E+00  0.0000E+00  0.0000E+00  0.0000E+00  0.0000E+00
    -23.651  0.0000E+00  0.0000E+00  0.0000E+00  0.0000E+00  0.0000E+00  0.0000E+00  0.0000E+00  0.0000E+00  0.0000E+00
    -23.497  0.0000E+00  0.0000E+00  0.0000E+00  0.0000E+00  0.0000E+00  0.0000E+00  0.0000E+00  0.0000E+00  0.0000E+00
    -23.343  0.0000E+00  0.0000E+00  0.0000E+00  0.0000E+00  0.0000E+00  0.0000E+00  0.0000E+00  0.0000E+00  0.0000E+00
    -23.189  0.0000E+00  0.0000E+00  0.0000E+00  0.0000E+00  0.0000E+00  0.0000E+00  0.0000E+00  0.0000E+00  0.0000E+00
    -23.035  0.0000E+00  0.0000E+00  0.0000E+00  0.0000E+00  0.0000E+00  0.0000E+00  0.0000E+00  0.0000E+00  0.0000E+00
    -22.881  0.0000E+00  0.0000E+00  0.0000E+00  0.0000E+00  0.0000E+00  0.0000E+00  0.0000E+00  0.0000E+00  0.0000E+00
    -22.727  0.0000E+00  0.0000E+00  0.0000E+00  0.0000E+00  0.0000E+00  0.0000E+00  0.0000E+00  0.0000E+00  0.0000E+00
    -22.573  0.0000E+00  0.0000E+00  0.0000E+00  0.0000E+00  0.0000E+00  0.0000E+00  0.0000E+00  0.0000E+00  0.0000E+00
    -22.419  0.0000E+00  0.0000E+00  0.0000E+00  0.0000E+00  0.0000E+00  0.0000E+00  0.0000E+00  0.0000E+00  0.0000E+00
    -22.265  0.0000E+00  0.0000E+00  0.0000E+00  0.0000E+00  0.0000E+00  0.0000E+00  0.0000E+00  0.0000E+00  0.0000E+00
    -22.111  0.0000E+00  0.0000E+00  0.0000E+00  0.0000E+00  0.0000E+00  0.0000E+00  0.0000E+00  0.0000E+00  0.0000E+00
    -21.957  0.0000E+00  0.0000E+00  0.0000E+00  0.0000E+00  0.0000E+00  0.0000E+00  0.0000E+00  0.0000E+00  0.0000E+00
    -21.803  0.0000E+00  0.0000E+00  0.0000E+00  0.0000E+00  0.0000E+00  0.0000E+00  0.0000E+00  0.0000E+00  0.0000E+00
    -21.649  0.0000E+00  0.0000E+00  0.0000E+00  0.0000E+00  0.0000E+00  0.0000E+00  0.0000E+00  0.0000E+00  0.0000E+00
    -21.495  0.0000E+00  0.0000E+00  0.0000E+00  0.0000E+00  0.0000E+00  0.0000E+00  0.0000E+00  0.0000E+00  0.0000E+00
    -21.341  0.0000E+00  0.0000E+00  0.0000E+00  0.0000E+00  0.0000E+00  0.0000E+00  0.0000E+00  0.0000E+00  0.0000E+00
    -21.187  0.0000E+00  0.0000E+00  0.0000E+00  0.0000E+00  0.0000E+00  0.0000E+00  0.0000E+00  0.0000E+00  0.0000E+00
    -21.033  0.0000E+00  0.0000E+00  0.0000E+00  0.0000E+00  0.0000E+00  0.0000E+00  0.0000E+00  0.0000E+00  0.0000E+00
    -20.879  0.0000E+00  0.0000E+00  0.0000E+00  0.0000E+00  0.0000E+00  0.0000E+00  0.0000E+00  0.0000E+00  0.0000E+00
    -20.726  0.0000E+00  0.0000E+00  0.0000E+00  0.0000E+00  0.0000E+00  0.0000E+00  0.0000E+00  0.0000E+00  0.0000E+00
    -20.572  0.0000E+00  0.0000E+00  0.0000E+00  0.0000E+00  0.0000E+00  0.0000E+00  0.0000E+00  0.0000E+00  0.0000E+00
    -20.418  0.0000E+00  0.0000E+00  0.0000E+00  0.0000E+00  0.0000E+00  0.0000E+00  0.0000E+00  0.0000E+00  0.0000E+00
    -20.264  0.0000E+00  0.0000E+00  0.0000E+00  0.0000E+00  0.0000E+00  0.0000E+00  0.0000E+00  0.0000E+00  0.0000E+00
    -20.110  0.0000E+00  0.0000E+00  0.0000E+00  0.0000E+00  0.0000E+00  0.0000E+00  0.0000E+00  0.0000E+00  0.0000E+00
    -19.956  0.0000E+00  0.0000E+00  0.0000E+00  0.0000E+00  0.0000E+00  0.0000E+00  0.0000E+00  0.0000E+00  0.0000E+00
    -19.802  0.0000E+00  0.0000E+00  0.0000E+00  0.0000E+00  0.0000E+00  0.0000E+00  0.0000E+00  0.0000E+00  0.0000E+00
    -19.648  0.0000E+00  0.0000E+00  0.0000E+00  0.0000E+00  0.0000E+00  0.0000E+00  0.0000E+00  0.0000E+00  0.0000E+00
    -19.494  0.0000E+00  0.0000E+00  0.0000E+00  0.0000E+00  0.0000E+00  0.0000E+00  0.0000E+00  0.0000E+00  0.0000E+00
    -19.340  0.0000E+00  0.0000E+00  0.0000E+00  0.0000E+00  0.0000E+00  0.0000E+00  0.0000E+00  0.0000E+00  0.0000E+00
    -19.186  0.0000E+00  0.0000E+00  0.0000E+00  0.0000E+00  0.0000E+00  0.0000E+00  0.0000E+00  0.0000E+00  0.0000E+00
    -19.032  0.0000E+00  0.0000E+00  0.0000E+00  0.0000E+00  0.0000E+00  0.0000E+00  0.0000E+00  0.0000E+00  0.0000E+00
    -18.878  0.0000E+00  0.0000E+00  0.0000E+00  0.0000E+00  0.0000E+00  0.0000E+00  0.0000E+00  0.0000E+00  0.0000E+00
    -18.724  0.0000E+00  0.0000E+00  0.0000E+00  0.0000E+00  0.0000E+00  0.0000E+00  0.0000E+00  0.0000E+00  0.0000E+00
    -18.570  0.0000E+00  0.0000E+00  0.0000E+00  0.0000E+00  0.0000E+00  0.0000E+00  0.0000E+00  0.0000E+00  0.0000E+00
    -18.416  0.0000E+00  0.0000E+00  0.0000E+00  0.0000E+00  0.0000E+00  0.0000E+00  0.0000E+00  0.0000E+00  0.0000E+00
    -18.262  0.0000E+00  0.0000E+00  0.0000E+00  0.0000E+00  0.0000E+00  0.0000E+00  0.0000E+00  0.0000E+00  0.0000E+00
    -18.108  0.0000E+00  0.0000E+00  0.0000E+00  0.0000E+00  0.0000E+00  0.0000E+00  0.0000E+00  0.0000E+00  0.0000E+00
    -17.954  0.0000E+00  0.0000E+00  0.0000E+00  0.0000E+00  0.0000E+00  0.0000E+00  0.0000E+00  0.0000E+00  0.0000E+00
    -17.800  0.0000E+00  0.0000E+00  0.0000E+00  0.0000E+00  0.0000E+00  0.0000E+00  0.0000E+00  0.0000E+00  0.0000E+00
    -17.646  0.0000E+00  0.0000E+00  0.0000E+00  0.0000E+00  0.0000E+00  0.0000E+00  0.0000E+00  0.0000E+00  0.0000E+00
    -17.492  0.0000E+00  0.0000E+00  0.0000E+00  0.0000E+00  0.0000E+00  0.0000E+00  0.0000E+00  0.0000E+00  0.0000E+00
    -17.338  0.0000E+00  0.0000E+00  0.0000E+00  0.0000E+00  0.0000E+00  0.0000E+00  0.0000E+00  0.0000E+00  0.0000E+00
    -17.184  0.0000E+00  0.0000E+00  0.0000E+00  0.0000E+00  0.0000E+00  0.0000E+00  0.0000E+00  0.0000E+00  0.0000E+00
    -17.030  0.0000E+00  0.0000E+00  0.0000E+00  0.0000E+00  0.0000E+00  0.0000E+00  0.0000E+00  0.0000E+00  0.0000E+00
    -16.876  0.0000E+00  0.0000E+00  0.0000E+00  0.0000E+00  0.0000E+00  0.0000E+00  0.0000E+00  0.0000E+00  0.0000E+00
    -16.722  0.0000E+00  0.0000E+00  0.0000E+00  0.0000E+00  0.0000E+00  0.0000E+00  0.0000E+00  0.0000E+00  0.0000E+00
    -16.568  0.0000E+00  0.0000E+00  0.0000E+00  0.0000E+00  0.0000E+00  0.0000E+00  0.0000E+00  0.0000E+00  0.0000E+00
    -16.414  0.0000E+00  0.0000E+00  0.0000E+00  0.0000E+00  0.0000E+00  0.0000E+00  0.0000E+00  0.0000E+00  0.0000E+00
    -16.260  0.0000E+00  0.0000E+00  0.0000E+00  0.0000E+00  0.0000E+00  0.0000E+00  0.0000E+00  0.0000E+00  0.0000E+00
    -16.106  0.0000E+00  0.0000E+00  0.0000E+00  0.0000E+00  0.0000E+00  0.0000E+00  0.0000E+00  0.0000E+00  0.0000E+00
    -15.952  0.0000E+00  0.0000E+00  0.0000E+00  0.0000E+00  0.0000E+00  0.0000E+00  0.0000E+00  0.0000E+00  0.0000E+00
    -15.798  0.0000E+00  0.0000E+00  0.0000E+00  0.0000E+00  0.0000E+00  0.0000E+00  0.0000E+00  0.0000E+00  0.0000E+00
    -15.644  0.0000E+00  0.0000E+00  0.0000E+00  0.0000E+00  0.0000E+00  0.0000E+00  0.0000E+00  0.0000E+00  0.0000E+00
    -15.490  0.0000E+00  0.0000E+00  0.0000E+00  0.0000E+00  0.0000E+00  0.0000E+00  0.0000E+00  0.0000E+00  0.0000E+00
    -15.336  0.0000E+00  0.0000E+00  0.0000E+00  0.0000E+00  0.0000E+00  0.0000E+00  0.0000E+00  0.0000E+00  0.0000E+00
    -15.182  0.0000E+00  0.0000E+00  0.0000E+00  0.0000E+00  0.0000E+00  0.0000E+00  0.0000E+00  0.0000E+00  0.0000E+00
    -15.028  0.0000E+00  0.0000E+00  0.0000E+00  0.0000E+00  0.0000E+00  0.0000E+00  0.0000E+00  0.0000E+00  0.0000E+00
    -14.874  0.0000E+00  0.0000E+00  0.0000E+00  0.0000E+00  0.0000E+00  0.0000E+00  0.0000E+00  0.0000E+00  0.0000E+00
    -14.720  0.0000E+00  0.0000E+00  0.0000E+00  0.0000E+00  0.0000E+00  0.0000E+00  0.0000E+00  0.0000E+00  0.0000E+00
    -14.566  0.0000E+00  0.0000E+00  0.0000E+00  0.0000E+00  0.0000E+00  0.0000E+00  0.0000E+00  0.0000E+00  0.0000E+00
    -14.412  0.0000E+00  0.0000E+00  0.0000E+00  0.0000E+00  0.0000E+00  0.0000E+00  0.0000E+00  0.0000E+00  0.0000E+00
    -14.258  0.0000E+00  0.0000E+00  0.0000E+00  0.0000E+00  0.0000E+00  0.0000E+00  0.0000E+00  0.0000E+00  0.0000E+00
    -14.104  0.0000E+00  0.0000E+00  0.0000E+00  0.0000E+00  0.0000E+00  0.0000E+00  0.0000E+00  0.0000E+00  0.0000E+00
    -13.950  0.0000E+00  0.0000E+00  0.0000E+00  0.0000E+00  0.0000E+00  0.0000E+00  0.0000E+00  0.0000E+00  0.0000E+00
    -13.796  0.0000E+00  0.0000E+00  0.0000E+00  0.0000E+00  0.0000E+00  0.0000E+00  0.0000E+00  0.0000E+00  0.0000E+00
    -13.642  0.0000E+00  0.0000E+00  0.0000E+00  0.0000E+00  0.0000E+00  0.0000E+00  0.0000E+00  0.0000E+00  0.0000E+00
    -13.488  0.0000E+00  0.0000E+00  0.0000E+00  0.0000E+00  0.0000E+00  0.0000E+00  0.0000E+00  0.0000E+00  0.0000E+00
    -13.334  0.0000E+00  0.0000E+00  0.0000E+00  0.0000E+00  0.0000E+00  0.0000E+00  0.0000E+00  0.0000E+00  0.0000E+00
    -13.180  0.0000E+00  0.0000E+00  0.0000E+00  0.0000E+00  0.0000E+00  0.0000E+00  0.0000E+00  0.0000E+00  0.0000E+00
    -13.026  0.0000E+00  0.0000E+00  0.0000E+00  0.0000E+00  0.0000E+00  0.0000E+00  0.0000E+00  0.0000E+00  0.0000E+00
    -12.872  0.0000E+00  0.0000E+00  0.0000E+00  0.0000E+00  0.0000E+00  0.0000E+00  0.0000E+00  0.0000E+00  0.0000E+00
    -12.718  0.0000E+00  0.0000E+00  0.0000E+00  0.0000E+00  0.0000E+00  0.0000E+00  0.0000E+00  0.0000E+00  0.0000E+00
    -12.564  0.0000E+00  0.0000E+00  0.0000E+00  0.0000E+00  0.0000E+00  0.0000E+00  0.0000E+00  0.0000E+00  0.0000E+00
    -12.410  0.0000E+00  0.0000E+00  0.0000E+00  0.0000E+00  0.0000E+00  0.0000E+00  0.0000E+00  0.0000E+00  0.0000E+00
    -12.256  0.0000E+00  0.0000E+00  0.0000E+00  0.0000E+00  0.0000E+00  0.0000E+00  0.0000E+00  0.0000E+00  0.0000E+00
    -12.102  0.0000E+00  0.0000E+00  0.0000E+00  0.0000E+00  0.0000E+00  0.0000E+00  0.0000E+00  0.0000E+00  0.0000E+00
    -11.948  0.0000E+00  0.0000E+00  0.0000E+00  0.0000E+00  0.0000E+00  0.0000E+00  0.0000E+00  0.0000E+00  0.0000E+00
    -11.794  0.0000E+00  0.0000E+00  0.0000E+00  0.0000E+00  0.0000E+00  0.0000E+00  0.0000E+00  0.0000E+00  0.0000E+00
    -11.640  0.0000E+00  0.0000E+00  0.0000E+00  0.0000E+00  0.0000E+00  0.0000E+00  0.0000E+00  0.0000E+00  0.0000E+00
    -11.487  0.0000E+00  0.0000E+00  0.0000E+00  0.0000E+00  0.0000E+00  0.0000E+00  0.0000E+00  0.0000E+00  0.0000E+00
    -11.333  0.0000E+00  0.0000E+00  0.0000E+00  0.0000E+00  0.0000E+00  0.0000E+00  0.0000E+00  0.0000E+00  0.0000E+00
    -11.179  0.0000E+00  0.0000E+00  0.0000E+00  0.0000E+00  0.0000E+00  0.0000E+00  0.0000E+00  0.0000E+00  0.0000E+00
    -11.025  0.0000E+00  0.0000E+00  0.0000E+00  0.0000E+00  0.0000E+00  0.0000E+00  0.0000E+00  0.0000E+00  0.0000E+00
    -10.871  0.0000E+00  0.0000E+00  0.0000E+00  0.0000E+00  0.0000E+00  0.0000E+00  0.0000E+00  0.0000E+00  0.0000E+00
    -10.717  0.0000E+00  0.0000E+00  0.0000E+00  0.0000E+00  0.0000E+00  0.0000E+00  0.0000E+00  0.0000E+00  0.0000E+00
    -10.563  0.0000E+00  0.0000E+00  0.0000E+00  0.0000E+00  0.0000E+00  0.0000E+00  0.0000E+00  0.0000E+00  0.0000E+00
    -10.409  0.0000E+00  0.0000E+00  0.0000E+00  0.0000E+00  0.0000E+00  0.0000E+00  0.0000E+00  0.0000E+00  0.0000E+00
    -10.255  0.0000E+00  0.0000E+00  0.0000E+00  0.0000E+00  0.0000E+00  0.0000E+00  0.0000E+00  0.0000E+00  0.0000E+00
    -10.101  0.0000E+00  0.0000E+00  0.0000E+00  0.0000E+00  0.0000E+00  0.0000E+00  0.0000E+00  0.0000E+00  0.0000E+00
     -9.947  0.0000E+00  0.0000E+00  0.0000E+00  0.0000E+00  0.0000E+00  0.0000E+00  0.0000E+00  0.0000E+00  0.0000E+00
     -9.793  0.0000E+00  0.0000E+00  0.0000E+00  0.0000E+00  0.0000E+00  0.0000E+00  0.0000E+00  0.0000E+00  0.0000E+00
     -9.639  0.0000E+00  0.0000E+00  0.0000E+00  0.0000E+00  0.0000E+00  0.0000E+00  0.0000E+00  0.0000E+00  0.0000E+00
     -9.485  0.0000E+00  0.0000E+00  0.0000E+00  0.0000E+00  0.0000E+00  0.0000E+00  0.0000E+00  0.0000E+00  0.0000E+00
     -9.331  0.0000E+00  0.0000E+00  0.0000E+00  0.0000E+00  0.0000E+00  0.0000E+00  0.0000E+00  0.0000E+00  0.0000E+00
     -9.177  0.0000E+00  0.0000E+00  0.0000E+00  0.0000E+00  0.0000E+00  0.0000E+00  0.0000E+00  0.0000E+00  0.0000E+00
     -9.023  0.0000E+00  0.0000E+00  0.0000E+00  0.0000E+00  0.0000E+00  0.0000E+00  0.0000E+00  0.0000E+00  0.0000E+00
     -8.869  0.0000E+00  0.0000E+00  0.0000E+00  0.0000E+00  0.0000E+00  0.0000E+00  0.0000E+00  0.0000E+00  0.0000E+00
     -8.715  0.0000E+00  0.0000E+00  0.0000E+00  0.0000E+00  0.0000E+00  0.0000E+00  0.0000E+00  0.0000E+00  0.0000E+00
     -8.561  0.0000E+00  0.0000E+00  0.0000E+00  0.0000E+00  0.0000E+00  0.0000E+00  0.0000E+00  0.0000E+00  0.0000E+00
     -8.407  0.0000E+00  0.0000E+00  0.0000E+00  0.0000E+00  0.0000E+00  0.0000E+00  0.0000E+00  0.0000E+00  0.0000E+00
     -8.253  0.0000E+00  0.0000E+00  0.0000E+00  0.0000E+00  0.0000E+00  0.0000E+00  0.0000E+00  0.0000E+00  0.0000E+00
     -8.099  0.0000E+00  0.0000E+00  0.0000E+00  0.0000E+00  0.0000E+00  0.0000E+00  0.0000E+00  0.0000E+00  0.0000E+00
     -7.945  0.0000E+00  0.0000E+00  0.0000E+00  0.0000E+00  0.0000E+00  0.0000E+00  0.0000E+00  0.0000E+00  0.0000E+00
     -7.791  0.0000E+00  0.0000E+00  0.0000E+00  0.0000E+00  0.0000E+00  0.0000E+00  0.0000E+00  0.0000E+00  0.0000E+00
     -7.637  0.0000E+00  0.0000E+00  0.0000E+00  0.0000E+00  0.0000E+00  0.0000E+00  0.0000E+00  0.0000E+00  0.0000E+00
     -7.483  0.0000E+00  0.0000E+00  0.0000E+00  0.0000E+00  0.0000E+00  0.0000E+00  0.0000E+00  0.0000E+00  0.0000E+00
     -7.329  0.0000E+00  0.0000E+00  0.0000E+00  0.0000E+00  0.0000E+00  0.0000E+00  0.0000E+00  0.0000E+00  0.0000E+00
     -7.175  0.0000E+00  0.0000E+00  0.0000E+00  0.0000E+00  0.0000E+00  0.0000E+00  0.0000E+00  0.0000E+00  0.0000E+00
     -7.021  0.0000E+00  0.0000E+00  0.0000E+00  0.0000E+00  0.0000E+00  0.0000E+00  0.0000E+00  0.0000E+00  0.0000E+00
     -6.867  0.0000E+00  0.0000E+00  0.0000E+00  0.0000E+00  0.0000E+00  0.0000E+00  0.0000E+00  0.0000E+00  0.0000E+00
     -6.713  0.0000E+00  0.0000E+00  0.0000E+00  0.0000E+00  0.0000E+00  0.0000E+00  0.0000E+00  0.0000E+00  0.0000E+00
     -6.559  0.0000E+00  0.0000E+00  0.0000E+00  0.0000E+00  0.0000E+00  0.0000E+00  0.0000E+00  0.0000E+00  0.0000E+00
     -6.405  0.0000E+00  0.0000E+00  0.0000E+00  0.0000E+00  0.0000E+00  0.0000E+00  0.0000E+00  0.0000E+00  0.0000E+00
     -6.251  0.0000E+00  0.0000E+00  0.0000E+00  0.0000E+00  0.0000E+00  0.0000E+00  0.0000E+00  0.0000E+00  0.0000E+00
     -6.097  0.0000E+00  0.0000E+00  0.0000E+00  0.0000E+00  0.0000E+00  0.0000E+00  0.0000E+00  0.0000E+00  0.0000E+00
     -5.943  0.0000E+00  0.0000E+00  0.0000E+00  0.0000E+00  0.0000E+00  0.0000E+00  0.0000E+00  0.0000E+00  0.0000E+00
     -5.789  0.0000E+00  0.0000E+00  0.0000E+00  0.0000E+00  0.0000E+00  0.0000E+00  0.0000E+00  0.0000E+00  0.0000E+00
     -5.635  0.0000E+00  0.0000E+00  0.0000E+00  0.0000E+00  0.0000E+00  0.0000E+00  0.0000E+00  0.0000E+00  0.0000E+00
     -5.481  0.0000E+00  0.0000E+00  0.0000E+00  0.0000E+00  0.0000E+00  0.0000E+00  0.0000E+00  0.0000E+00  0.0000E+00
     -5.327  0.0000E+00  0.0000E+00  0.0000E+00  0.0000E+00  0.0000E+00  0.0000E+00  0.0000E+00  0.0000E+00  0.0000E+00