    2    2    1    1
  0.1721481E+02  0.3253200E-09  0.3253200E-09  0.3253200E-09  0.5000000E-15
  1.00000000000000005E-004
  CAR 
 unknown system                          
   20  160   18

  0.0000000E+00  0.0000000E+00  0.0000000E+00  0.6250000E-02
   1      -27.0254
   2      -27.0254
   3      -27.0254
   4      -26.5352
   5      -26.5352
   6      -26.5352
   7       -0.3646
   8        3.3744
   9        3.3744
  10        6.4578
  11        6.4578
  12        6.4578
  13        8.2577
  14        8.2577
  15        9.4565
  16        9.4565
  17        9.4565
  18       14.0221

  0.1282051E-01  0.0000000E+00  0.0000000E+00  0.6250000E-02
   1      -27.0254
   2      -27.0252
   3      -27.0252
   4      -26.5356
   5      -26.5354
   6      -26.5354
   7       -0.3617
   8        3.3759
   9        3.3760
  10        6.4575
  11        6.4575
  12        6.4589
  13        8.2552
  14        8.2587
  15        9.4508
  16        9.4508
  17        9.4551
  18       14.0096

  0.2564103E-01  0.0000000E+00  0.0000000E+00  0.6250000E-02
   1      -27.0255
   2      -27.0246
   3      -27.0246
   4      -26.5369
   5      -26.5360
   6      -26.5360
   7       -0.3531
   8        3.3805
   9        3.3807
  10        6.4567
  11        6.4567
  12        6.4621
  13        8.2478
  14        8.2616
  15        9.4337
  16        9.4337
  17        9.4510
  18       13.9725

  0.3846154E-01  0.0000000E+00  0.0000000E+00  0.6250000E-02
   1      -27.0255
   2      -27.0235
   3      -27.0235
   4      -26.5390
   5      -26.5369
   6      -26.5369
   7       -0.3387
   8        3.3880
   9        3.3886
  10        6.4554
  11        6.4554
  12        6.4674
  13        8.2354
  14        8.2663
  15        9.4056
  16        9.4056
  17        9.4442
  18       13.9117

  0.5128205E-01  0.0000000E+00  0.0000000E+00  0.6250000E-02
   1      -27.0255
   2      -27.0220
   3      -27.0220
   4      -26.5423
   5      -26.5382
   6      -26.5382
   7       -0.3187
   8        3.3984
   9        3.3997
  10        6.4535
  11        6.4535
  12        6.4748
  13        8.2180
  14        8.2703
  15        9.3672
  16        9.3672
  17        9.4346
  18       13.8290

  0.6410256E-01  0.0000000E+00  0.0000000E+00  0.6250000E-02
   1      -27.0256
   2      -27.0201
   3      -27.0201
   4      -26.5461
   5      -26.5398
   6      -26.5398
   7       -0.2930
   8        3.4116
   9        3.4139
  10        6.4512
  11        6.4512
  12        6.4844
  13        8.1958
  14        8.2785
  15        9.3194
  16        9.3194
  17        9.4223
  18       13.7260

  0.7692308E-01  0.0000000E+00  0.0000000E+00  0.6250000E-02
   1      -27.0256
   2      -27.0178
   3      -27.0178
   4      -26.5507
   5      -26.5419
   6      -26.5419
   7       -0.2616
   8        3.4275
   9        3.4313
  10        6.4485
  11        6.4485
  12        6.4961
  13        8.1688
  14        8.2885
  15        9.2631
  16        9.2631
  17        9.4073
  18       13.6052

  0.8974359E-01  0.0000000E+00  0.0000000E+00  0.6250000E-02
   1      -27.0256
   2      -27.0151
   3      -27.0151
   4      -26.5561
   5      -26.5443
   6      -26.5443
   7       -0.2247
   8        3.4459
   9        3.4518
  10        6.4454
  11        6.4454
  12        6.5098
  13        8.1371
  14        8.3003
  15        9.1992
  16        9.1992
  17        9.3897
  18       13.4689

  0.1025641E+00  0.0000000E+00  0.0000000E+00  0.6250000E-02
   1      -27.0255
   2      -27.0119
   3      -27.0119
   4      -26.5622
   5      -26.5470
   6      -26.5470
   7       -0.1823
   8        3.4665
   9        3.4754
  10        6.4420
  11        6.4420
  12        6.5257
  13        8.1007
  14        8.3137
  15        9.1288
  16        9.1288
  17        9.3695
  18       13.3192

  0.1153846E+00  0.0000000E+00  0.0000000E+00  0.6250000E-02
   1      -27.0254
   2      -27.0084
   3      -27.0084
   4      -26.5691
   5      -26.5501
   6      -26.5501
   7       -0.1344
   8        3.4893
   9        3.5021
  10        6.4385
  11        6.4385
  12        6.5436
  13        8.0597
  14        8.3287
  15        9.0530
  16        9.0530
  17        9.3468
  18       13.1585

  0.1282051E+00  0.0000000E+00  0.0000000E+00  0.6250000E-02
   1      -27.0253
   2      -27.0045
   3      -27.0045
   4      -26.5767
   5      -26.5536
   6      -26.5536
   7       -0.0812
   8        3.5138
   9        3.5318
  10        6.4349
  11        6.4349
  12        6.5635
  13        8.0143
  14        8.3453
  15        8.9726
  16        8.9726
  17        9.3216
  18       12.9889

  0.1410256E+00  0.0000000E+00  0.0000000E+00  0.6250000E-02
   1      -27.0250
   2      -27.0001
   3      -27.0001
   4      -26.5849
   5      -26.5574
   6      -26.5574
   7       -0.0228
   8        3.5397
   9        3.5647
  10        6.4312
  11        6.4312
  12        6.5855
  13        7.9647
  14        8.3633
  15        8.8886
  16        8.8886
  17        9.2939
  18       12.8123

  0.1538462E+00  0.0000000E+00  0.0000000E+00  0.6250000E-02
   1      -27.0246
   2      -26.9954
   3      -26.9954
   4      -26.5938
   5      -26.5616
   6      -26.5616
   7        0.0408
   8        3.5669
   9        3.6005
  10        6.4277
  11        6.4277
  12        6.6094
  13        7.9108
  14        8.3827
  15        8.8018
  16        8.8018
  17        9.2638
  18       12.6303

  0.1666667E+00  0.0000000E+00  0.0000000E+00  0.6250000E-02
   1      -27.0241
   2      -26.9904
   3      -26.9904
   4      -26.6032
   5      -26.5661
   6      -26.5661
   7        0.1094
   8        3.5948
   9        3.6393
  10        6.4243
  11        6.4243
  12        6.6353
  13        7.8530
  14        8.4034
  15        8.7129
  16        8.7129
  17        9.2315
  18       12.4447

  0.1794872E+00  0.0000000E+00  0.0000000E+00  0.6250000E-02
   1      -27.0251
   2      -26.9850
   3      -26.9850
   4      -26.6132
   5      -26.5709
   6      -26.5709
   7        0.1829
   8        3.6206
   9        3.6812
  10        6.4213
  11        6.4213
  12        6.6632
  13        7.7912
  14        8.4253
  15        8.6214
  16        8.6214
  17        9.1969
  18       12.2554

  0.1923077E+00  0.0000000E+00  0.0000000E+00  0.6250000E-02
   1      -27.0246
   2      -26.9792
   3      -26.9792
   4      -26.6237
   5      -26.5760
   6      -26.5760
   7        0.2612
   8        3.6484
   9        3.7259
  10        6.4187
  11        6.4187
  12        6.6929
  13        7.7258
  14        8.4482
  15        8.5301
  16        8.5301
  17        9.1602
  18       12.0661

  0.2051282E+00  0.0000000E+00  0.0000000E+00  0.6250000E-02
   1      -27.0238
   2      -26.9730
   3      -26.9730
   4      -26.6347
   5      -26.5815
   6      -26.5815
   7        0.3441
   8        3.6757
   9        3.7736
  10        6.4167
  11        6.4167
  12        6.7246
  13        7.6568
  14        8.4383
  15        8.4383
  16        8.4721
  17        9.1213
  18       11.8771

  0.2179487E+00  0.0000000E+00  0.0000000E+00  0.6250000E-02
   1      -27.0229
   2      -26.9666
   3      -26.9666
   4      -26.6461
   5      -26.5873
   6      -26.5873
   7        0.4315
   8        3.7018
   9        3.8241
  10        6.4154
  11        6.4154
  12        6.7581
  13        7.5844
  14        8.3466
  15        8.3466
  16        8.4969
  17        9.0805
  18       11.6894

  0.2307692E+00  0.0000000E+00  0.0000000E+00  0.6250000E-02
   1      -27.0217
   2      -26.9598
   3      -26.9598
   4      -26.6579
   5      -26.5934
   6      -26.5934
   7        0.5232
   8        3.7262
   9        3.8774
  10        6.4148
  11        6.4148
  12        6.7933
  13        7.5089
  14        8.2554
  15        8.2554
  16        8.5224
  17        9.0378
  18       11.5039

  0.2435897E+00  0.0000000E+00  0.0000000E+00  0.6250000E-02
   1      -27.0211
   2      -26.9532
   3      -26.9532
   4      -26.6699
   5      -26.5997
   6      -26.5997
   7        0.6189
   8        3.7482
   9        3.9335
  10        6.4153
  11        6.4153
  12        6.8304
  13        7.4304
  14        8.1614
  15        8.1614
  16        8.5485
  17        8.9902
  18       11.3213

  0.2564103E+00  0.0000000E+00  0.0000000E+00  0.6250000E-02
   1      -27.0195
   2      -26.9458
   3      -26.9458
   4      -26.6823
   5      -26.6064
   6      -26.6064
   7        0.7185
   8        3.7675
   9        3.9924
  10        6.4167
  11        6.4167
  12        6.8691
  13        7.3491
  14        8.0719
  15        8.0719
  16        8.5751
  17        8.9438
  18       11.1430

  0.2692308E+00  0.0000000E+00  0.0000000E+00  0.6250000E-02
   1      -27.0176
   2      -26.9382
   3      -26.9382
   4      -26.6931
   5      -26.6129
   6      -26.6129
   7        0.8220
   8        3.7833
   9        4.0539
  10        6.4232
  11        6.4232
  12        6.9101
  13        7.2656
  14        7.9838
  15        7.9838
  16        8.6088
  17        8.8957
  18       10.9696

  0.2820513E+00  0.0000000E+00  0.0000000E+00  0.6250000E-02
   1      -27.0154
   2      -26.9303
   3      -26.9303
   4      -26.7061
   5      -26.6202
   6      -26.6202
   7        0.9288
   8        3.7950
   9        4.1180
  10        6.4268
  11        6.4268
  12        6.9521
  13        7.1793
  14        7.8972
  15        7.8972
  16        8.6357
  17        8.8461
  18       10.8018

  0.2948718E+00  0.0000000E+00  0.0000000E+00  0.6250000E-02
   1      -27.0128
   2      -26.9222
   3      -26.9222
   4      -26.7192
   5      -26.6277
   6      -26.6277
   7        1.0388
   8        3.8018
   9        4.1848
  10        6.4319
  11        6.4319
  12        6.9957
  13        7.0908
  14        7.8125
  15        7.8125
  16        8.6629
  17        8.7951
  18       10.6401

  0.3076923E+00  0.0000000E+00  0.0000000E+00  0.6250000E-02
   1      -27.0100
   2      -26.9138
   3      -26.9138
   4      -26.7336
   5      -26.6355
   6      -26.6355
   7        1.1517
   8        3.8033
   9        4.2540
  10        6.4374
  11        6.4374
  12        7.0004
  13        7.0407
  14        7.7297
  15        7.7297
  16        8.6815
  17        8.7428
  18       10.4854

  0.3205128E+00  0.0000000E+00  0.0000000E+00  0.6250000E-02
   1      -27.0067
   2      -26.9052
   3      -26.9052
   4      -26.7469
   5      -26.6435
   6      -26.6435
   7        1.2674
   8        3.7987
   9        4.3256
  10        6.4457
  11        6.4457
  12        6.9081
  13        7.0872
  14        7.6491
  15        7.6491
  16        8.6893
  17        8.7080
  18       10.3381

  0.3333333E+00  0.0000000E+00  0.0000000E+00  0.6250000E-02
   1      -27.0031
   2      -26.8964
   3      -26.8964
   4      -26.7602
   5      -26.6517
   6      -26.6517
   7        1.3854
   8        3.7876
   9        4.3996
  10        6.4557
  11        6.4557
  12        6.8143
  13        7.1352
  14        7.5707
  15        7.5707
  16        8.6346
  17        8.7345
  18       10.1986

  0.3461538E+00  0.0000000E+00  0.0000000E+00  0.6250000E-02
   1      -26.9990
   2      -26.8874
   3      -26.8874
   4      -26.7735
   5      -26.6601
   6      -26.6601
   7        1.5054
   8        3.7694
   9        4.4760
  10        6.4676
  11        6.4676
  12        6.7191
  13        7.1845
  14        7.4947
  15        7.4947
  16        8.5790
  17        8.7609
  18       10.0674

  0.3589744E+00  0.0000000E+00  0.0000000E+00  0.6250000E-02
   1      -26.9945
   2      -26.8783
   3      -26.8783
   4      -26.7867
   5      -26.6687
   6      -26.6687
   7        1.6272
   8        3.7437
   9        4.5545
  10        6.4815
  11        6.4815
  12        6.6228
  13        7.2350
  14        7.4212
  15        7.4212
  16        8.5224
  17        8.7873
  18        9.9447

  0.3717949E+00  0.0000000E+00  0.0000000E+00  0.6250000E-02
   1      -26.9896
   2      -26.8689
   3      -26.8689
   4      -26.7997
   5      -26.6774
   6      -26.6774
   7        1.7503
   8        3.7102
   9        4.6352
  10        6.4976
  11        6.4976
  12        6.5255
  13        7.2868
  14        7.3502
  15        7.3502
  16        8.4651
  17        8.8136
  18        9.8307

  0.3846154E+00  0.0000000E+00  0.0000000E+00  0.6250000E-02
   1      -26.9847
   2      -26.8608
   3      -26.8608
   4      -26.8116
   5      -26.6855
   6      -26.6855
   7        1.8745
   8        3.6686
   9        4.7174
  10        6.4293
  11        6.5198
  12        6.5198
  13        7.2788
  14        7.2788
  15        7.3417
  16        8.3954
  17        8.8400
  18        9.7244

  0.3974359E+00  0.0000000E+00  0.0000000E+00  0.6250000E-02
   1      -26.9790
   2      -26.8513
   3      -26.8513
   4      -26.8243
   5      -26.6947
   6      -26.6947
   7        1.9990
   8        3.6189
   9        4.8021
  10        6.3304
  11        6.5400
  12        6.5400
  13        7.2131
  14        7.2131
  15        7.3956
  16        8.3364
  17        8.8667
  18        9.6276

  0.4102564E+00  0.0000000E+00  0.0000000E+00  0.6250000E-02
   1      -26.9727
   2      -26.8417
   3      -26.8417
   4      -26.8368
   5      -26.7040
   6      -26.7040
   7        2.1237
   8        3.5610
   9        4.8886
  10        6.2311
  11        6.5626
  12        6.5626
  13        7.1501
  14        7.1501
  15        7.4505
  16        8.2770
  17        8.8937
  18        9.5392

  0.4230769E+00  0.0000000E+00  0.0000000E+00  0.6250000E-02
   1      -26.9649
   2      -26.8496
   3      -26.8318
   4      -26.8318
   5      -26.7138
   6      -26.7138
   7        2.2478
   8        3.4952
   9        4.9771
  10        6.1295
  11        6.5846
  12        6.5846
  13        7.0917
  14        7.0917
  15        7.5063
  16        8.2171
  17        8.9211
  18        9.4634

  0.4358974E+00  0.0000000E+00  0.0000000E+00  0.6250000E-02
   1      -26.9578
   2      -26.8614
   3      -26.8221
   4      -26.8221
   5      -26.7234
   6      -26.7234
   7        2.3711
   8        3.4217
   9        5.0670
  10        6.0299
  11        6.6120
  12        6.6120
  13        7.0341
  14        7.0341
  15        7.5630
  16        8.1570
  17        8.9496
  18        9.3905

  0.4487179E+00  0.0000000E+00  0.0000000E+00  0.6250000E-02
   1      -26.9503
   2      -26.8730
   3      -26.8122
   4      -26.8122
   5      -26.7331
   6      -26.7331
   7        2.4929
   8        3.3407
   9        5.1584
  10        5.9304
  11        6.6419
  12        6.6419
  13        6.9793
  14        6.9793
  15        7.6204
  16        8.0968
  17        8.9794
  18        9.3247

  0.4615385E+00  0.0000000E+00  0.0000000E+00  0.6250000E-02
   1      -26.9422
   2      -26.8842
   3      -26.8023
   4      -26.8023
   5      -26.7429
   6      -26.7429
   7        2.6126
   8        3.2529
   9        5.2513
  10        5.8313
  11        6.6745
  12        6.6745
  13        6.9273
  14        6.9273
  15        7.6785
  16        8.0364
  17        9.0109
  18        9.2655

  0.4743590E+00  0.0000000E+00  0.0000000E+00  0.6250000E-02
   1      -26.9337
   2      -26.8949
   3      -26.7924
   4      -26.7924
   5      -26.7527
   6      -26.7527
   7        2.7297
   8        3.1586
   9        5.3454
  10        5.7326
  11        6.7097
  12        6.7097
  13        6.8782
  14        6.8782
  15        7.7372
  16        7.9761
  17        9.0445
  18        9.2121

  0.4871795E+00  0.0000000E+00  0.0000000E+00  0.6250000E-02
   1      -26.9247
   2      -26.9053
   3      -26.7825
   4      -26.7825
   5      -26.7626
   6      -26.7626
   7        2.8434
   8        3.0585
   9        5.4408
  10        5.6345
  11        6.7477
  12        6.7477
  13        6.8319
  14        6.8319
  15        7.7964
  16        7.9160
  17        9.0809
  18        9.1640

  0.5000000E+00  0.0000000E+00  0.0000000E+00  0.6250000E-02
   1      -26.9152
   2      -26.9152
   3      -26.7725
   4      -26.7725
   5      -26.7725
   6      -26.7725
   7        2.9532
   8        2.9532
   9        5.5372
  10        5.5372
  11        6.7884
  12        6.7884
  13        6.7884
  14        6.7884
  15        7.8560
  16        7.8560
  17        9.1205
  18        9.1205

  0.5000000E+00  0.0000000E+00  0.0000000E+00  0.6250000E-02
   1      -26.9152
   2      -26.9152
   3      -26.7725
   4      -26.7725
   5      -26.7725
   6      -26.7725
   7        2.9532
   8        2.9532
   9        5.5372
  10        5.5372
  11        6.7884
  12        6.7884
  13        6.7884
  14        6.7884
  15        7.8560
  16        7.8560
  17        9.1205
  18        9.1205

  0.5000000E+00  0.1282051E-01  0.0000000E+00  0.6250000E-02
   1      -26.9166
   2      -26.9166
   3      -26.7725
   4      -26.7725
   5      -26.7713
   6      -26.7713
   7        2.9545
   8        2.9545
   9        5.5346
  10        5.5346
  11        6.7806
  12        6.7806
  13        6.7928
  14        6.7928
  15        7.8642
  16        7.8642
  17        9.1208
  18        9.1208

  0.5000000E+00  0.2564103E-01  0.0000000E+00  0.6250000E-02
   1      -26.9207
   2      -26.9207
   3      -26.7724
   4      -26.7724
   5      -26.7677
   6      -26.7677
   7        2.9584
   8        2.9584
   9        5.5270
  10        5.5270
  11        6.7580
  12        6.7580
  13        6.8060
  14        6.8060
  15        7.8879
  16        7.8879
  17        9.1216
  18        9.1216

  0.5000000E+00  0.3846154E-01  0.0000000E+00  0.6250000E-02
   1      -26.9271
   2      -26.9271
   3      -26.7723
   4      -26.7723
   5      -26.7621
   6      -26.7621
   7        2.9647
   8        2.9647
   9        5.5151
  10        5.5151
  11        6.7224
  12        6.7224
  13        6.8274
  14        6.8274
  15        7.9254
  16        7.9254
  17        9.1229
  18        9.1229

  0.5000000E+00  0.5128205E-01  0.0000000E+00  0.6250000E-02
   1      -26.9353
   2      -26.9353
   3      -26.7722
   4      -26.7722
   5      -26.7549
   6      -26.7549
   7        2.9734
   8        2.9734
   9        5.4995
  10        5.4995
  11        6.6763
  12        6.6763
  13        6.8563
  14        6.8563
  15        7.9741
  16        7.9741
  17        9.1247
  18        9.1247

  0.5000000E+00  0.6410256E-01  0.0000000E+00  0.6250000E-02
   1      -26.9448
   2      -26.9448
   3      -26.7720
   4      -26.7720
   5      -26.7467
   6      -26.7467
   7        2.9843
   8        2.9843
   9        5.4813
  10        5.4813
  11        6.6222
  12        6.6222
  13        6.8918
  14        6.8918
  15        8.0316
  16        8.0316
  17        9.1269
  18        9.1269

  0.5000000E+00  0.7692308E-01  0.0000000E+00  0.6250000E-02
   1      -26.9552
   2      -26.9552
   3      -26.7716
   4      -26.7716
   5      -26.7375
   6      -26.7375
   7        2.9971
   8        2.9971
   9        5.4614
  10        5.4614
  11        6.5621
  12        6.5621
  13        6.9352
  14        6.9352
  15        8.0988
  16        8.0988
  17        9.1293
  18        9.1293

  0.5000000E+00  0.8974359E-01  0.0000000E+00  0.6250000E-02
   1      -26.9666
   2      -26.9666
   3      -26.7714
   4      -26.7714
   5      -26.7281
   6      -26.7281
   7        3.0115
   8        3.0115
   9        5.4413
  10        5.4413
  11        6.4978
  12        6.4978
  13        6.9809
  14        6.9809
  15        8.1676
  16        8.1676
  17        9.1321
  18        9.1321

  0.5000000E+00  0.1025641E+00  0.0000000E+00  0.6250000E-02
   1      -26.9784
   2      -26.9784
   3      -26.7707
   4      -26.7707
   5      -26.7190
   6      -26.7190
   7        3.0272
   8        3.0272
   9        5.4220
  10        5.4220
  11        6.4302
  12        6.4302
  13        7.0284
  14        7.0284
  15        8.2437
  16        8.2437
  17        9.1354
  18        9.1354

  0.5000000E+00  0.1153846E+00  0.0000000E+00  0.6250000E-02
   1      -26.9908
   2      -26.9908
   3      -26.7704
   4      -26.7704
   5      -26.7092
   6      -26.7092
   7        3.0438
   8        3.0438
   9        5.4044
  10        5.4044
  11        6.3613
  12        6.3613
  13        7.0807
  14        7.0807
  15        8.3183
  16        8.3183
  17        9.1384
  18        9.1384

  0.5000000E+00  0.1282051E+00  0.0000000E+00  0.6250000E-02
   1      -27.0034
   2      -27.0034
   3      -26.7701
   4      -26.7701
   5      -26.6994
   6      -26.6994
   7        3.0609
   8        3.0609
   9        5.3896
  10        5.3896
  11        6.2914
  12        6.2914
  13        7.1354
  14        7.1354
  15        8.3944
  16        8.3944
  17        9.1414
  18        9.1414

  0.5000000E+00  0.1410256E+00  0.0000000E+00  0.6250000E-02
   1      -27.0162
   2      -27.0162
   3      -26.7698
   4      -26.7698
   5      -26.6896
   6      -26.6896
   7        3.0781
   8        3.0781
   9        5.3785
  10        5.3785
  11        6.2212
  12        6.2212
  13        7.1919
  14        7.1919
  15        8.4714
  16        8.4714
  17        9.1441
  18        9.1441

  0.5000000E+00  0.1538462E+00  0.0000000E+00  0.6250000E-02
   1      -27.0291
   2      -27.0291
   3      -26.7694
   4      -26.7694
   5      -26.6800
   6      -26.6800
   7        3.0948
   8        3.0948
   9        5.3719
  10        5.3719
  11        6.1512
  12        6.1512
  13        7.2495
  14        7.2495
  15        8.5487
  16        8.5487
  17        9.1465
  18        9.1465

  0.5000000E+00  0.1666667E+00  0.0000000E+00  0.6250000E-02
   1      -27.0424
   2      -27.0424
   3      -26.7690
   4      -26.7690
   5      -26.6705
   6      -26.6705
   7        3.1106
   8        3.1106
   9        5.3703
  10        5.3703
  11        6.0818
  12        6.0818
  13        7.3076
  14        7.3076
  15        8.6259
  16        8.6259
  17        9.1467
  18        9.1467

  0.5000000E+00  0.1794872E+00  0.0000000E+00  0.6250000E-02
   1      -27.0553
   2      -27.0553
   3      -26.7686
   4      -26.7686
   5      -26.6612
   6      -26.6612
   7        3.1252
   8        3.1252
   9        5.3748
  10        5.3748
  11        6.0134
  12        6.0134
  13        7.3662
  14        7.3662
  15        8.7025
  16        8.7025
  17        9.1477
  18        9.1477

  0.5000000E+00  0.1923077E+00  0.0000000E+00  0.6250000E-02
   1      -27.0680
   2      -27.0680
   3      -26.7681
   4      -26.7681
   5      -26.6521
   6      -26.6521
   7        3.1380
   8        3.1380
   9        5.3859
  10        5.3859
  11        5.9462
  12        5.9462
  13        7.4247
  14        7.4247
  15        8.7783
  16        8.7783
  17        9.1478
  18        9.1478

  0.5000000E+00  0.2051282E+00  0.0000000E+00  0.6250000E-02
   1      -27.0806
   2      -27.0806
   3      -26.7676
   4      -26.7676
   5      -26.6433
   6      -26.6433
   7        3.1488
   8        3.1488
   9        5.4038
  10        5.4038
  11        5.8805
  12        5.8805
  13        7.4828
  14        7.4828
  15        8.8529
  16        8.8529
  17        9.1467
  18        9.1467

  0.5000000E+00  0.2179487E+00  0.0000000E+00  0.6250000E-02
   1      -27.0935
   2      -27.0935
   3      -26.7672
   4      -26.7672
   5      -26.6351
   6      -26.6351
   7        3.1573
   8        3.1573
   9        5.4272
  10        5.4272
  11        5.8163
  12        5.8163
  13        7.5400
  14        7.5400
  15        8.9252
  16        8.9252
  17        9.1428
  18        9.1428

  0.5000000E+00  0.2307692E+00  0.0000000E+00  0.6250000E-02
   1      -27.1057
   2      -27.1057
   3      -26.7667
   4      -26.7667
   5      -26.6269
   6      -26.6269
   7        3.1634
   8        3.1634
   9        5.4595
  10        5.4595
  11        5.7541
  12        5.7541
  13        7.5962
  14        7.5962
  15        8.9966
  16        8.9966
  17        9.1384
  18        9.1384

  0.5000000E+00  0.2435897E+00  0.0000000E+00  0.6250000E-02
   1      -27.1176
   2      -27.1176
   3      -26.7662
   4      -26.7662
   5      -26.6190
   6      -26.6190
   7        3.1670
   8        3.1670
   9        5.4991
  10        5.4991
  11        5.6939
  12        5.6939
  13        7.6511
  14        7.6511
  15        9.0660
  16        9.0660
  17        9.1320
  18        9.1320

  0.5000000E+00  0.2564103E+00  0.0000000E+00  0.6250000E-02
   1      -27.1291
   2      -27.1291
   3      -26.7657
   4      -26.7657
   5      -26.6114
   6      -26.6114
   7        3.1682
   8        3.1682
   9        5.5458
  10        5.5458
  11        5.6360
  12        5.6360
  13        7.7045
  14        7.7045
  15        9.1233
  16        9.1233
  17        9.1334
  18        9.1334

  0.5000000E+00  0.2692308E+00  0.0000000E+00  0.6250000E-02
   1      -27.1403
   2      -27.1403
   3      -26.7652
   4      -26.7652
   5      -26.6042
   6      -26.6042
   7        3.1670
   8        3.1670
   9        5.5803
  10        5.5803
  11        5.5994
  12        5.5994
  13        7.7561
  14        7.7561
  15        9.1122
  16        9.1122
  17        9.1984
  18        9.1984

  0.5000000E+00  0.2820513E+00  0.0000000E+00  0.6250000E-02
   1      -27.1511
   2      -27.1511
   3      -26.7647
   4      -26.7647
   5      -26.5973
   6      -26.5973
   7        3.1636
   8        3.1636
   9        5.5271
  10        5.5271
  11        5.6595
  12        5.6595
  13        7.8058
  14        7.8058
  15        9.0982
  16        9.0982
  17        9.2610
  18        9.2610

  0.5000000E+00  0.2948718E+00  0.0000000E+00  0.6250000E-02
   1      -27.1615
   2      -27.1615
   3      -26.7642
   4      -26.7642
   5      -26.5908
   6      -26.5908
   7        3.1584
   8        3.1584
   9        5.4764
  10        5.4764
  11        5.7254
  12        5.7254
  13        7.8534
  14        7.8534
  15        9.0813
  16        9.0813
  17        9.3209
  18        9.3209

  0.5000000E+00  0.3076923E+00  0.0000000E+00  0.6250000E-02
   1      -27.1714
   2      -27.1714
   3      -26.7637
   4      -26.7637
   5      -26.5846
   6      -26.5846
   7        3.1516
   8        3.1516
   9        5.4283
  10        5.4283
  11        5.7967
  12        5.7967
  13        7.8988
  14        7.8988
  15        9.0611
  16        9.0611
  17        9.3780
  18        9.3780

  0.5000000E+00  0.3205128E+00  0.0000000E+00  0.6250000E-02
   1      -27.1808
   2      -27.1808
   3      -26.7632
   4      -26.7632
   5      -26.5788
   6      -26.5788
   7        3.1435
   8        3.1435
   9        5.3830
  10        5.3830
  11        5.8726
  12        5.8726
  13        7.9418
  14        7.9418
  15        9.0376
  16        9.0376
  17        9.4322
  18        9.4322

  0.5000000E+00  0.3333333E+00  0.0000000E+00  0.6250000E-02
   1      -27.1891
   2      -27.1891
   3      -26.7625
   4      -26.7625
   5      -26.5734
   6      -26.5734
   7        3.1348
   8        3.1348
   9        5.3405
  10        5.3405
  11        5.9523
  12        5.9523
  13        7.9826
  14        7.9826
  15        9.0108
  16        9.0108
  17        9.4875
  18        9.4875

  0.5000000E+00  0.3461538E+00  0.0000000E+00  0.6250000E-02
   1      -27.1979
   2      -27.1979
   3      -26.7621
   4      -26.7621
   5      -26.5683
   6      -26.5683
   7        3.1249
   8        3.1249
   9        5.3009
  10        5.3009
  11        6.0340
  12        6.0340
  13        8.0204
  14        8.0204
  15        8.9800
  16        8.9800
  17        9.5351
  18        9.5351

  0.5000000E+00  0.3589744E+00  0.0000000E+00  0.6250000E-02
   1      -27.2057
   2      -27.2057
   3      -26.7617
   4      -26.7617
   5      -26.5637
   6      -26.5637
   7        3.1148
   8        3.1148
   9        5.2642
  10        5.2642
  11        6.1186
  12        6.1186
  13        8.0555
  14        8.0555
  15        8.9465
  16        8.9465
  17        9.5794
  18        9.5794

  0.5000000E+00  0.3717949E+00  0.0000000E+00  0.6250000E-02
   1      -27.2131
   2      -27.2131
   3      -26.7617
   4      -26.7617
   5      -26.5596
   6      -26.5596
   7        3.1046
   8        3.1046
   9        5.2292
  10        5.2292
  11        6.2038
  12        6.2038
  13        8.0877
  14        8.0877
  15        8.9097
  16        8.9097
  17        9.6189
  18        9.6189

  0.5000000E+00  0.3846154E+00  0.0000000E+00  0.6250000E-02
   1      -27.2195
   2      -27.2195
   3      -26.7612
   4      -26.7612
   5      -26.5554
   6      -26.5554
   7        3.0947
   8        3.0947
   9        5.1993
  10        5.1993
  11        6.2892
  12        6.2892
  13        8.1174
  14        8.1174
  15        8.8728
  16        8.8728
  17        9.6579
  18        9.6579

  0.5000000E+00  0.3974359E+00  0.0000000E+00  0.6250000E-02
   1      -27.2255
   2      -27.2255
   3      -26.7609
   4      -26.7609
   5      -26.5519
   6      -26.5519
   7        3.0852
   8        3.0852
   9        5.1717
  10        5.1717
  11        6.3729
  12        6.3729
  13        8.1438
  14        8.1438
  15        8.8319
  16        8.8319
  17        9.6913
  18        9.6913

  0.5000000E+00  0.4102564E+00  0.0000000E+00  0.6250000E-02
   1      -27.2308
   2      -27.2308
   3      -26.7606
   4      -26.7606
   5      -26.5488
   6      -26.5488
   7        3.0763
   8        3.0763
   9        5.1473
  10        5.1473
  11        6.4536
  12        6.4536
  13        8.1673
  14        8.1673
  15        8.7903
  16        8.7903
  17        9.7210
  18        9.7210

  0.5000000E+00  0.4230769E+00  0.0000000E+00  0.6250000E-02
   1      -27.2355
   2      -27.2355
   3      -26.7603
   4      -26.7603
   5      -26.5461
   6      -26.5461
   7        3.0682
   8        3.0682
   9        5.1261
  10        5.1261
  11        6.5295
  12        6.5295
  13        8.1878