 vasp.4.6.36 17Feb09 complex 
 executed on        LinuxGfortran date 2012.11.19  18:07:39
 serial version


--------------------------------------------------------------------------------------------------------


 INCAR:
 POTCAR:   PAW Ti_pv 07Sep2000                    
 POTCAR:   PAW Ti_pv 07Sep2000                    
   VRHFIN =Ti: d3 s1                                                            
   LEXCH  = CA                                                                  
   EATOM  =  1044.4404 eV,   76.7642 Ry                                         
                                                                                
   TITEL  = PAW Ti_pv 07Sep2000                                                 
   LULTRA =        F    use ultrasoft PP ?                                      
   IUNSCR =        1    unscreen: 0-lin 1-nonlin 2-no                           
   RPACOR =    2.200    partial core radius                                     
   POMASS =   47.880; ZVAL   =   10.000    mass and valenz                      
   RCORE  =    2.500    outmost cutoff radius                                   
   RWIGS  =    2.500; RWIGS  =    1.323    wigner-seitz radius (au A)           
   ENMAX  =  222.435; ENMIN  =  166.826 eV                                      
   RCLOC  =    1.701    cutoff for local pot                                    
   LCOR   =        T    correct aug charges                                     
   LPAW   =        T    paw PP                                                  
   EAUG   =  482.848                                                            
   DEXC   =    -.007                                                            
   RMAX   =    3.092    core radius for proj-oper                               
   RAUG   =    1.300    factor for augmentation sphere                          
   RDEP   =    2.538    radius for radial grids                                 
   QCUT   =   -4.043; QGAM   =    8.087    optimization parameters              
                                                                                
   Description                                                                  
     l     E      TYP  RCUT    TYP  RCUT                                        
     1   .000     23  2.300                                                     
     1  -.100     23  2.300                                                     
     2   .000     23  2.500                                                     
     2   .000     23  2.500                                                     
     0   .000     23  2.500                                                     
     0  1.500     23  2.500                                                     
     3   .000      7   .000                                                     
  local pseudopotential read in
  partial core-charges read in
  atomic valenz-charges read in
  non local Contribution for L=           1  read in
    real space projection operators read in
  non local Contribution for L=           1  read in
    real space projection operators read in
  non local Contribution for L=           2  read in
    real space projection operators read in
  non local Contribution for L=           2  read in
    real space projection operators read in
  non local Contribution for L=           0  read in
    real space projection operators read in
  non local Contribution for L=           0  read in
    real space projection operators read in
    PAW grid and wavefunctions read in

   number of l-projection  operators is LMAX  =           6
   number of lm-projection operators is LMMAX =          18

 PAW Ti_pv 07Sep2000                    :
 energy of atom  1       EATOM=-1044.4404
 kinetic energy error for atom=    0.0431 (will be added to EATOM!!)

 EXHCAR: internal setup
 exchange correlation table for  LEXCH =        2
   RHO(1)=    0.500       N(1)  =     2000
   RHO(2)=  100.500       N(2)  =     4000

 POSCAR: Ti optimization                         
  positions in direct lattice
  No initial velocities read in



--------------------------------------------------------------------------------------------------------


 ion  position               nearest neighbor table
   1  0.000  0.000  0.000-   2 2.82   2 2.82   2 2.82   2 2.82   2 2.82   2 2.82   2 2.82   2 2.82

   2  0.500  0.500  0.500-   1 2.82   1 2.82   1 2.82   1 2.82   1 2.82   1 2.82   1 2.82   1 2.82


  LATTYP: Found a simple cubic cell.
 ALAT       =     3.2532000000
  
  Lattice vectors:
  
 A1 = (   3.2532000000,   0.0000000000,   0.0000000000)
 A2 = (   0.0000000000,   3.2532000000,   0.0000000000)
 A3 = (   0.0000000000,   0.0000000000,   3.2532000000)
 Subroutine PRICEL returns following result:
 
  LATTYP: Found a body centered cubic cell.
 ALAT       =     3.2532000000
  
  Lattice vectors:
  
 A1 = (   1.6266000000,   1.6266000000,   1.6266000000)
 A2 = (   1.6266000000,  -1.6266000000,  -1.6266000000)
 A3 = (  -1.6266000000,   1.6266000000,  -1.6266000000)
 
   2 primitive cells build up your supercell.
 

Analysis of symmetry for initial positions (statically):

 Routine SETGRP: Setting up the symmetry group for a 
 simple cubic supercell.


 Subroutine GETGRP returns: Found 48 space group operations
 (whereof 48 operations were pure point group operations)
 out of a pool of 48 trial point group operations.


The static configuration has the point symmetry O_h .

Analysis of symmetry for dynamics (positions and initial velocities):

 Subroutine DYNSYM returns: Found 48 space group operations
 (whereof 48 operations were pure point group operations)
 out of a pool of 48 trial space group operations
 (whereof 48 operations were pure point group operations)
 and found also     2 'primitive' translations


The dynamic configuration has the point symmetry O_h .


 KPOINTS: K-Points                                
  interpolating k-points between supplied coordinates
  k-points in reciprocal lattice


--------------------------------------------------------------------------------------------------------




 Dimension of arrays:
   k-Points           NKPTS =    160   number of bands    NBANDS=     18
   number of dos      NEDOS =    301   number of ions     NIONS =      2
   non local maximal  LDIM  =      6   non local SUM 2l+1 LMDIM =     18
   total plane-waves  NPLWV =   4096
   max r-space proj   IRMAX =      1   max aug-charges    IRDMAX=   4818
   dimension x,y,z NGX =    16 NGY =   16 NGZ =   16
   dimension x,y,z NGXF=    32 NGYF=   32 NGZF=   32
   support grid    NGXF=    32 NGYF=   32 NGZF=   32
   ions per type =               2
 NGX,Y,Z   is equivalent  to a cutoff of   8.18,  8.18,  8.18 a.u.
 NGXF,Y,Z  is equivalent  to a cutoff of  16.35, 16.35, 16.35 a.u.


 I would recommend the setting:
   dimension x,y,z NGX =    16 NGY =   16 NGZ =   16
 SYSTEM =  unknown system                          
 POSCAR =  Ti optimization                         

 Startparameter for this run:
   NWRITE =      2    write-flag & timer
   PREC   = accura    medium, high low
   ISTART =      1    job   : 0-new  1-cont  2-samecut
   ICHARG =     11    charge: 1-file 2-atom 10-const
   ISPIN  =      1    spin polarized calculation?
   LNONCOLLINEAR =      F non collinear calculations
   LSORBIT =      F    spin-orbit coupling
   INIWAV =      1    electr: 0-lowe 1-rand  2-diag
   LASPH  =      F    aspherical Exc in radial PAW
   METAGGA=      F    non-selfconsistent MetaGGA calc.

 Electronic Relaxation 1
   ENCUT  =  222.4 eV  16.35 Ry    4.04 a.u.   3.96  3.96  3.96*2*pi/ulx,y,z
   ENINI  =  222.4     initial cutoff
   ENAUG  =  482.8 eV  augmentation charge cutoff
   NELM   =     60;   NELMIN=  2; NELMDL=  0     # of ELM steps 
   EDIFF  = 0.1E-05   stopping-criterion for ELM
   LREAL  =      F    real-space projection
   LCOMPAT=      F    compatible to vasp.4.4
   LREAL_COMPAT= F    compatible to vasp.4.5.1-3
   GGA_COMPAT  = T    GGA compatible to vasp.4.4-vasp.4.6
   LMAXPAW     = -100 max onsite density
   LMAXMIX     =    2 max onsite mixed and CHGCAR
   VOSKOWN=      0    Vosko Wilk Nusair interpolation
   ROPT   =    0.00000
 Ionic relaxation
   EDIFFG = 0.1E-04   stopping-criterion for IOM
   NSW    =      0    number of steps for IOM
   NBLOCK =      1;   KBLOCK =      1    inner block; outer block 
   IBRION =     -1    ionic relax: 0-MD 1-quasi-New 2-CG
   NFREE  =      0    steps in history (QN), initial steepest desc. (CG)
   ISIF   =      2    stress and relaxation
   IWAVPR =      0    prediction:  0-non 1-charg 2-wave 3-comb
   ISYM   =      2    0-nonsym 1-usesym 2-fastsym
   LCORR  =      T    Harris-Foulkes like correction to forces

   POTIM  =   0.50    time-step for ionic-motion
   TEIN   =    0.0    initial temperature
   TEBEG  =    0.0;   TEEND  =   0.0 temperature during run
   SMASS  =  -3.00    Nose mass-parameter (am)
   estimated Nose-frequenzy (Omega)   =  0.10E-29 period in steps =****** mass=  -0.242E-27a.u.
   NPACO  =    256;   APACO  = 16.0  distance and # of slots for P.C.
   PSTRESS=    0.0 pullay stress

  Mass of Ions in am
   POMASS =  47.88
  Ionic Valenz
   ZVAL   =  10.00
  Atomic Wigner-Seitz radii
   RWIGS  =   1.70
   NELECT =      20.0000    total number of electrons
   NUPDOWN=      -1.0000    fix difference up-down

 DOS related values:
   EMIN   =  10.00;   EMAX   =-10.00  energy-range for DOS
   ISMEAR =     1;   SIGMA  =   0.10  broadening in eV -4-tet -1-fermi 0-gaus

 Electronic relaxation 2 (details)
   IALGO  =     68    algorithm
   LDIAG  =      T    sub-space diagonalisation
   IMIX   =      4    mixing-type and parameters
     AMIX     =   0.40;   BMIX     =  1.00
     AMIX_MAG =   1.60;   BMIX_MAG =  1.00
     AMIN     =   0.10
     WC   =   100.;   INIMIX=   1;  MIXPRE=   1

 Intra band minimization:
   WEIMIN = 0.0000     energy-eigenvalue tresh-hold
   EBREAK =  0.14E-07  absolut break condition
   DEPER  =   0.30     relativ break condition  

   TIME   =   0.10     timestep for ELM

  volume/ion in A,a.u.               =      17.21       116.17
  Fermi-wavevector in a.u.,eV,Ry     =   1.365969 25.386707  1.865870

 Second variation
   LSECVAR=     F    do a second variation

 Write flags
   LWAVE  =      T    write WAVECAR
   LCHARG =      T    write CHGCAR
   LVTOT  =      F    write LOCPOT, local potential
   LELF   =      F    write electronic localiz. function (ELF)
   LORBIT =     12    0 simple, 1 ext, 2 COOP (PROOUT)


 Dipole corrections
   IDIPOL =      0    1-x, 2-y, 3-z
   LDIPOL =      F    correct potential



--------------------------------------------------------------------------------------------------------


 Static calculation
 charge density remains constant during run
 non-spin polarized calculation
 RMM-DIIS sequential band-by-band and
  variant of blocked Davidson during initial phase
 performe sub-space diagonalisation
    before iterative eigenvector-optimisation
 no mixing
 using additional bands            8
 reciprocal scheme for non local part
 use partial core corrections
 calculate Harris-corrections to forces   (improved forces if not selfconsistent)
 use of overlap-Matrix (Vanderbilt PP)
 Methfessel and Paxton  Order N= 1 SIGMA  =   0.10


--------------------------------------------------------------------------------------------------------


  energy-cutoff  :      222.44
  volume of cell :       34.43
      direct lattice vectors                 reciprocal lattice vectors
     3.253200000  0.000000000  0.000000000     0.307389647  0.000000000  0.000000000
     0.000000000  3.253200000  0.000000000     0.000000000  0.307389647  0.000000000
     0.000000000  0.000000000  3.253200000     0.000000000  0.000000000  0.307389647

  length of vectors
     3.253200000  3.253200000  3.253200000     0.307389647  0.307389647  0.307389647



 old parameters found on file WAVECAR:
  energy-cutoff  :      222.44
  volume of cell :       34.43
      direct lattice vectors                 reciprocal lattice vectors
     3.253200000  0.000000000  0.000000000     0.307389647  0.000000000  0.000000000
     0.000000000  3.253200000  0.000000000     0.000000000  0.307389647  0.000000000
     0.000000000  0.000000000  3.253200000     0.000000000  0.000000000  0.307389647

  length of vectors


 k-points in units of 2pi/SCALE and weight: K-Points                                
   0.00000000  0.00000000  0.00000000       0.006
   0.01282051  0.00000000  0.00000000       0.006
   0.02564103  0.00000000  0.00000000       0.006
   0.03846154  0.00000000  0.00000000       0.006
   0.05128205  0.00000000  0.00000000       0.006
   0.06410256  0.00000000  0.00000000       0.006
   0.07692308  0.00000000  0.00000000       0.006
   0.08974359  0.00000000  0.00000000       0.006
   0.10256410  0.00000000  0.00000000       0.006
   0.11538462  0.00000000  0.00000000       0.006
   0.12820513  0.00000000  0.00000000       0.006
   0.14102564  0.00000000  0.00000000       0.006
   0.15384615  0.00000000  0.00000000       0.006
   0.16666667  0.00000000  0.00000000       0.006
   0.17948718  0.00000000  0.00000000       0.006
   0.19230769  0.00000000  0.00000000       0.006
   0.20512821  0.00000000  0.00000000       0.006
   0.21794872  0.00000000  0.00000000       0.006
   0.23076923  0.00000000  0.00000000       0.006
   0.24358974  0.00000000  0.00000000       0.006
   0.25641026  0.00000000  0.00000000       0.006
   0.26923077  0.00000000  0.00000000       0.006
   0.28205128  0.00000000  0.00000000       0.006
   0.29487179  0.00000000  0.00000000       0.006
   0.30769231  0.00000000  0.00000000       0.006
   0.32051282  0.00000000  0.00000000       0.006
   0.33333333  0.00000000  0.00000000       0.006
   0.34615385  0.00000000  0.00000000       0.006
   0.35897436  0.00000000  0.00000000       0.006
   0.37179487  0.00000000  0.00000000       0.006
   0.38461538  0.00000000  0.00000000       0.006
   0.39743590  0.00000000  0.00000000       0.006
   0.41025641  0.00000000  0.00000000       0.006
   0.42307692  0.00000000  0.00000000       0.006
   0.43589744  0.00000000  0.00000000       0.006
   0.44871795  0.00000000  0.00000000       0.006
   0.46153846  0.00000000  0.00000000       0.006
   0.47435897  0.00000000  0.00000000       0.006
   0.48717949  0.00000000  0.00000000       0.006
   0.50000000  0.00000000  0.00000000       0.006
   0.50000000  0.00000000  0.00000000       0.006
   0.50000000  0.01282051  0.00000000       0.006
   0.50000000  0.02564103  0.00000000       0.006
   0.50000000  0.03846154  0.00000000       0.006
   0.50000000  0.05128205  0.00000000       0.006
   0.50000000  0.06410256  0.00000000       0.006
   0.50000000  0.07692308  0.00000000       0.006
   0.50000000  0.08974359  0.00000000       0.006
   0.50000000  0.10256410  0.00000000       0.006
   0.50000000  0.11538462  0.00000000       0.006
   0.50000000  0.12820513  0.00000000       0.006
   0.50000000  0.14102564  0.00000000       0.006
   0.50000000  0.15384615  0.00000000       0.006
   0.50000000  0.16666667  0.00000000       0.006
   0.50000000  0.17948718  0.00000000       0.006
   0.50000000  0.19230769  0.00000000       0.006
   0.50000000  0.20512821  0.00000000       0.006
   0.50000000  0.21794872  0.00000000       0.006
   0.50000000  0.23076923  0.00000000       0.006
   0.50000000  0.24358974  0.00000000       0.006
   0.50000000  0.25641026  0.00000000       0.006
   0.50000000  0.26923077  0.00000000       0.006
   0.50000000  0.28205128  0.00000000       0.006
   0.50000000  0.29487179  0.00000000       0.006
   0.50000000  0.30769231  0.00000000       0.006
   0.50000000  0.32051282  0.00000000       0.006
   0.50000000  0.33333333  0.00000000       0.006
   0.50000000  0.34615385  0.00000000       0.006
   0.50000000  0.35897436  0.00000000       0.006
   0.50000000  0.37179487  0.00000000       0.006
   0.50000000  0.38461538  0.00000000       0.006
   0.50000000  0.39743590  0.00000000       0.006
   0.50000000  0.41025641  0.00000000       0.006
   0.50000000  0.42307692  0.00000000       0.006
   0.50000000  0.43589744  0.00000000       0.006
   0.50000000  0.44871795  0.00000000       0.006
   0.50000000  0.46153846  0.00000000       0.006
   0.50000000  0.47435897  0.00000000       0.006
   0.50000000  0.48717949  0.00000000       0.006
   0.50000000  0.50000000  0.00000000       0.006
   0.50000000  0.50000000  0.00000000       0.006
   0.50000000  0.50000000  0.01282051       0.006
   0.50000000  0.50000000  0.02564103       0.006
   0.50000000  0.50000000  0.03846154       0.006
   0.50000000  0.50000000  0.05128205       0.006
   0.50000000  0.50000000  0.06410256       0.006
   0.50000000  0.50000000  0.07692308       0.006
   0.50000000  0.50000000  0.08974359       0.006
   0.50000000  0.50000000  0.10256410       0.006
   0.50000000  0.50000000  0.11538462       0.006
   0.50000000  0.50000000  0.12820513       0.006
   0.50000000  0.50000000  0.14102564       0.006
   0.50000000  0.50000000  0.15384615       0.006
   0.50000000  0.50000000  0.16666667       0.006
   0.50000000  0.50000000  0.17948718       0.006
   0.50000000  0.50000000  0.19230769       0.006
   0.50000000  0.50000000  0.20512821       0.006
   0.50000000  0.50000000  0.21794872       0.006
   0.50000000  0.50000000  0.23076923       0.006
   0.50000000  0.50000000  0.24358974       0.006
   0.50000000  0.50000000  0.25641026       0.006
   0.50000000  0.50000000  0.26923077       0.006
   0.50000000  0.50000000  0.28205128       0.006
   0.50000000  0.50000000  0.29487179       0.006
   0.50000000  0.50000000  0.30769231       0.006
   0.50000000  0.50000000  0.32051282       0.006
   0.50000000  0.50000000  0.33333333       0.006
   0.50000000  0.50000000  0.34615385       0.006
   0.50000000  0.50000000  0.35897436       0.006
   0.50000000  0.50000000  0.37179487       0.006
   0.50000000  0.50000000  0.38461538       0.006
   0.50000000  0.50000000  0.39743590       0.006
   0.50000000  0.50000000  0.41025641       0.006
   0.50000000  0.50000000  0.42307692       0.006
   0.50000000  0.50000000  0.43589744       0.006
   0.50000000  0.50000000  0.44871795       0.006
   0.50000000  0.50000000  0.46153846       0.006
   0.50000000  0.50000000  0.47435897       0.006
   0.50000000  0.50000000  0.48717949       0.006
   0.50000000  0.50000000  0.50000000       0.006
   0.50000000  0.50000000  0.50000000       0.006
   0.48717949  0.48717949  0.48717949       0.006
   0.47435897  0.47435897  0.47435897       0.006
   0.46153846  0.46153846  0.46153846       0.006
   0.44871795  0.44871795  0.44871795       0.006
   0.43589744  0.43589744  0.43589744       0.006
   0.42307692  0.42307692  0.42307692       0.006
   0.41025641  0.41025641  0.41025641       0.006
   0.39743590  0.39743590  0.39743590       0.006
   0.38461538  0.38461538  0.38461538       0.006
   0.37179487  0.37179487  0.37179487       0.006
   0.35897436  0.35897436  0.35897436       0.006
   0.34615385  0.34615385  0.34615385       0.006
   0.33333333  0.33333333  0.33333333       0.006
   0.32051282  0.32051282  0.32051282       0.006
   0.30769231  0.30769231  0.30769231       0.006
   0.29487179  0.29487179  0.29487179       0.006
   0.28205128  0.28205128  0.28205128       0.006
   0.26923077  0.26923077  0.26923077       0.006
   0.25641026  0.25641026  0.25641026       0.006
   0.24358974  0.24358974  0.24358974       0.006
   0.23076923  0.23076923  0.23076923       0.006
   0.21794872  0.21794872  0.21794872       0.006
   0.20512821  0.20512821  0.20512821       0.006
   0.19230769  0.19230769  0.19230769       0.006
   0.17948718  0.17948718  0.17948718       0.006
   0.16666667  0.16666667  0.16666667       0.006
   0.15384615  0.15384615  0.15384615       0.006
   0.14102564  0.14102564  0.14102564       0.006
   0.12820513  0.12820513  0.12820513       0.006
   0.11538462  0.11538462  0.11538462       0.006
   0.10256410  0.10256410  0.10256410       0.006
   0.08974359  0.08974359  0.08974359       0.006
   0.07692308  0.07692308  0.07692308       0.006
   0.06410256  0.06410256  0.06410256       0.006
   0.05128205  0.05128205  0.05128205       0.006
   0.03846154  0.03846154  0.03846154       0.006
   0.02564103  0.02564103  0.02564103       0.006
   0.01282051  0.01282051  0.01282051       0.006
   0.00000000  0.00000000  0.00000000       0.006

 k-points in reciprocal lattice and weights: K-Points                                
   0.00000000  0.00000000  0.00000000       0.006
   0.01282051  0.00000000  0.00000000       0.006
   0.02564103  0.00000000  0.00000000       0.006
   0.03846154  0.00000000  0.00000000       0.006
   0.05128205  0.00000000  0.00000000       0.006
   0.06410256  0.00000000  0.00000000       0.006
   0.07692308  0.00000000  0.00000000       0.006
   0.08974359  0.00000000  0.00000000       0.006
   0.10256410  0.00000000  0.00000000       0.006
   0.11538462  0.00000000  0.00000000       0.006
   0.12820513  0.00000000  0.00000000       0.006
   0.14102564  0.00000000  0.00000000       0.006
   0.15384615  0.00000000  0.00000000       0.006
   0.16666667  0.00000000  0.00000000       0.006
   0.17948718  0.00000000  0.00000000       0.006
   0.19230769  0.00000000  0.00000000       0.006
   0.20512821  0.00000000  0.00000000       0.006
   0.21794872  0.00000000  0.00000000       0.006
   0.23076923  0.00000000  0.00000000       0.006
   0.24358974  0.00000000  0.00000000       0.006
   0.25641026  0.00000000  0.00000000       0.006
   0.26923077  0.00000000  0.00000000       0.006
   0.28205128  0.00000000  0.00000000       0.006
   0.29487179  0.00000000  0.00000000       0.006
   0.30769231  0.00000000  0.00000000       0.006
   0.32051282  0.00000000  0.00000000       0.006
   0.33333333  0.00000000  0.00000000       0.006
   0.34615385  0.00000000  0.00000000       0.006
   0.35897436  0.00000000  0.00000000       0.006
   0.37179487  0.00000000  0.00000000       0.006
   0.38461538  0.00000000  0.00000000       0.006
   0.39743590  0.00000000  0.00000000       0.006
   0.41025641  0.00000000  0.00000000       0.006
   0.42307692  0.00000000  0.00000000       0.006
   0.43589744  0.00000000  0.00000000       0.006
   0.44871795  0.00000000  0.00000000       0.006
   0.46153846  0.00000000  0.00000000       0.006
   0.47435897  0.00000000  0.00000000       0.006
   0.48717949  0.00000000  0.00000000       0.006
   0.50000000  0.00000000  0.00000000       0.006
   0.50000000  0.00000000  0.00000000       0.006
   0.50000000  0.01282051  0.00000000       0.006
   0.50000000  0.02564103  0.00000000       0.006
   0.50000000  0.03846154  0.00000000       0.006
   0.50000000  0.05128205  0.00000000       0.006
   0.50000000  0.06410256  0.00000000       0.006
   0.50000000  0.07692308  0.00000000       0.006
   0.50000000  0.08974359  0.00000000       0.006
   0.50000000  0.10256410  0.00000000       0.006
   0.50000000  0.11538462  0.00000000       0.006
   0.50000000  0.12820513  0.00000000       0.006
   0.50000000  0.14102564  0.00000000       0.006
   0.50000000  0.15384615  0.00000000       0.006
   0.50000000  0.16666667  0.00000000       0.006
   0.50000000  0.17948718  0.00000000       0.006
   0.50000000  0.19230769  0.00000000       0.006
   0.50000000  0.20512821  0.00000000       0.006
   0.50000000  0.21794872  0.00000000       0.006
   0.50000000  0.23076923  0.00000000       0.006
   0.50000000  0.24358974  0.00000000       0.006
   0.50000000  0.25641026  0.00000000       0.006
   0.50000000  0.26923077  0.00000000       0.006
   0.50000000  0.28205128  0.00000000       0.006
   0.50000000  0.29487179  0.00000000       0.006
   0.50000000  0.30769231  0.00000000       0.006
   0.50000000  0.32051282  0.00000000       0.006
   0.50000000  0.33333333  0.00000000       0.006
   0.50000000  0.34615385  0.00000000       0.006
   0.50000000  0.35897436  0.00000000       0.006
   0.50000000  0.37179487  0.00000000       0.006
   0.50000000  0.38461538  0.00000000       0.006
   0.50000000  0.39743590  0.00000000       0.006
   0.50000000  0.41025641  0.00000000       0.006
   0.50000000  0.42307692  0.00000000       0.006
   0.50000000  0.43589744  0.00000000       0.006
   0.50000000  0.44871795  0.00000000       0.006
   0.50000000  0.46153846  0.00000000       0.006
   0.50000000  0.47435897  0.00000000       0.006
   0.50000000  0.48717949  0.00000000       0.006
   0.50000000  0.50000000  0.00000000       0.006
   0.50000000  0.50000000  0.00000000       0.006
   0.50000000  0.50000000  0.01282051       0.006
   0.50000000  0.50000000  0.02564103       0.006
   0.50000000  0.50000000  0.03846154       0.006
   0.50000000  0.50000000  0.05128205       0.006
   0.50000000  0.50000000  0.06410256       0.006
   0.50000000  0.50000000  0.07692308       0.006
   0.50000000  0.50000000  0.08974359       0.006
   0.50000000  0.50000000  0.10256410       0.006
   0.50000000  0.50000000  0.11538462       0.006
   0.50000000  0.50000000  0.12820513       0.006
   0.50000000  0.50000000  0.14102564       0.006
   0.50000000  0.50000000  0.15384615       0.006
   0.50000000  0.50000000  0.16666667       0.006
   0.50000000  0.50000000  0.17948718       0.006
   0.50000000  0.50000000  0.19230769       0.006
   0.50000000  0.50000000  0.20512821       0.006
   0.50000000  0.50000000  0.21794872       0.006
   0.50000000  0.50000000  0.23076923       0.006
   0.50000000  0.50000000  0.24358974       0.006
   0.50000000  0.50000000  0.25641026       0.006
   0.50000000  0.50000000  0.26923077       0.006
   0.50000000  0.50000000  0.28205128       0.006
   0.50000000  0.50000000  0.29487179       0.006
   0.50000000  0.50000000  0.30769231       0.006
   0.50000000  0.50000000  0.32051282       0.006
   0.50000000  0.50000000  0.33333333       0.006
   0.50000000  0.50000000  0.34615385       0.006
   0.50000000  0.50000000  0.35897436       0.006
   0.50000000  0.50000000  0.37179487       0.006
   0.50000000  0.50000000  0.38461538       0.006
   0.50000000  0.50000000  0.39743590       0.006
   0.50000000  0.50000000  0.41025641       0.006
   0.50000000  0.50000000  0.42307692       0.006
   0.50000000  0.50000000  0.43589744       0.006
   0.50000000  0.50000000  0.44871795       0.006
   0.50000000  0.50000000  0.46153846       0.006
   0.50000000  0.50000000  0.47435897       0.006
   0.50000000  0.50000000  0.48717949       0.006
   0.50000000  0.50000000  0.50000000       0.006
   0.50000000  0.50000000  0.50000000       0.006
   0.48717949  0.48717949  0.48717949       0.006
   0.47435897  0.47435897  0.47435897       0.006
   0.46153846  0.46153846  0.46153846       0.006
   0.44871795  0.44871795  0.44871795       0.006
   0.43589744  0.43589744  0.43589744       0.006
   0.42307692  0.42307692  0.42307692       0.006
   0.41025641  0.41025641  0.41025641       0.006
   0.39743590  0.39743590  0.39743590       0.006
   0.38461538  0.38461538  0.38461538       0.006
   0.37179487  0.37179487  0.37179487       0.006
   0.35897436  0.35897436  0.35897436       0.006
   0.34615385  0.34615385  0.34615385       0.006
   0.33333333  0.33333333  0.33333333       0.006
   0.32051282  0.32051282  0.32051282       0.006
   0.30769231  0.30769231  0.30769231       0.006
   0.29487179  0.29487179  0.29487179       0.006
   0.28205128  0.28205128  0.28205128       0.006
   0.26923077  0.26923077  0.26923077       0.006
   0.25641026  0.25641026  0.25641026       0.006
   0.24358974  0.24358974  0.24358974       0.006
   0.23076923  0.23076923  0.23076923       0.006
   0.21794872  0.21794872  0.21794872       0.006
   0.20512821  0.20512821  0.20512821       0.006
   0.19230769  0.19230769  0.19230769       0.006
   0.17948718  0.17948718  0.17948718       0.006
   0.16666667  0.16666667  0.16666667       0.006
   0.15384615  0.15384615  0.15384615       0.006
   0.14102564  0.14102564  0.14102564       0.006
   0.12820513  0.12820513  0.12820513       0.006
   0.11538462  0.11538462  0.11538462       0.006
   0.10256410  0.10256410  0.10256410       0.006
   0.08974359  0.08974359  0.08974359       0.006
   0.07692308  0.07692308  0.07692308       0.006
   0.06410256  0.06410256  0.06410256       0.006
   0.05128205  0.05128205  0.05128205       0.006
   0.03846154  0.03846154  0.03846154       0.006
   0.02564103  0.02564103  0.02564103       0.006
   0.01282051  0.01282051  0.01282051       0.006
   0.00000000  0.00000000  0.00000000       0.006

 position of ions in fractional coordinates (direct lattice) 
   0.00000000  0.00000000  0.00000000
   0.50000000  0.50000000  0.50000000

 position of ions in cartesian coordinates  (Angst):
   0.00000000  0.00000000  0.00000000
   1.62660000  1.62660000  1.62660000



--------------------------------------------------------------------------------------------------------


 k-point  1 :  0.00000.00000.0000  plane waves:    251
 k-point  2 :  0.01280.00000.0000  plane waves:    251
 k-point  3 :  0.02560.00000.0000  plane waves:    251
 k-point  4 :  0.03850.00000.0000  plane waves:    251
 k-point  5 :  0.05130.00000.0000  plane waves:    252
 k-point  6 :  0.06410.00000.0000  plane waves:    252
 k-point  7 :  0.07690.00000.0000  plane waves:    252
 k-point  8 :  0.08970.00000.0000  plane waves:    252
 k-point  9 :  0.10260.00000.0000  plane waves:    252
 k-point 10 :  0.11540.00000.0000  plane waves:    252
 k-point 11 :  0.12820.00000.0000  plane waves:    252
 k-point 12 :  0.14100.00000.0000  plane waves:    252
 k-point 13 :  0.15380.00000.0000  plane waves:    252
 k-point 14 :  0.16670.00000.0000  plane waves:    252
 k-point 15 :  0.17950.00000.0000  plane waves:    256
 k-point 16 :  0.19230.00000.0000  plane waves:    256
 k-point 17 :  0.20510.00000.0000  plane waves:    256
 k-point 18 :  0.21790.00000.0000  plane waves:    256
 k-point 19 :  0.23080.00000.0000  plane waves:    256
 k-point 20 :  0.24360.00000.0000  plane waves:    260
 k-point 21 :  0.25640.00000.0000  plane waves:    260
 k-point 22 :  0.26920.00000.0000  plane waves:    252
 k-point 23 :  0.28210.00000.0000  plane waves:    252
 k-point 24 :  0.29490.00000.0000  plane waves:    252
 k-point 25 :  0.30770.00000.0000  plane waves:    256
 k-point 26 :  0.32050.00000.0000  plane waves:    256
 k-point 27 :  0.33330.00000.0000  plane waves:    256
 k-point 28 :  0.34620.00000.0000  plane waves:    256
 k-point 29 :  0.35900.00000.0000  plane waves:    256
 k-point 30 :  0.37180.00000.0000  plane waves:    256
 k-point 31 :  0.38460.00000.0000  plane waves:    256
 k-point 32 :  0.39740.00000.0000  plane waves:    256
 k-point 33 :  0.41030.00000.0000  plane waves:    256
 k-point 34 :  0.42310.00000.0000  plane waves:    256
 k-point 35 :  0.43590.00000.0000  plane waves:    256
 k-point 36 :  0.44870.00000.0000  plane waves:    256
 k-point 37 :  0.46150.00000.0000  plane waves:    256
 k-point 38 :  0.47440.00000.0000  plane waves:    256
 k-point 39 :  0.48720.00000.0000  plane waves:    256
 k-point 40 :  0.50000.00000.0000  plane waves:    256
 k-point 41 :  0.50000.00000.0000  plane waves:    256
 k-point 42 :  0.50000.01280.0000  plane waves:    256
 k-point 43 :  0.50000.02560.0000  plane waves:    256
 k-point 44 :  0.50000.03850.0000  plane waves:    256
 k-point 45 :  0.50000.05130.0000  plane waves:    256
 k-point 46 :  0.50000.06410.0000  plane waves:    256
 k-point 47 :  0.50000.07690.0000  plane waves:    252
 k-point 48 :  0.50000.08970.0000  plane waves:    252
 k-point 49 :  0.50000.10260.0000  plane waves:    252
 k-point 50 :  0.50000.11540.0000  plane waves:    252
 k-point 51 :  0.50000.12820.0000  plane waves:    252
 k-point 52 :  0.50000.14100.0000  plane waves:    252
 k-point 53 :  0.50000.15380.0000  plane waves:    252
 k-point 54 :  0.50000.16670.0000  plane waves:    254
 k-point 55 :  0.50000.17950.0000  plane waves:    254
 k-point 56 :  0.50000.19230.0000  plane waves:    254
 k-point 57 :  0.50000.20510.0000  plane waves:    254
 k-point 58 :  0.50000.21790.0000  plane waves:    258
 k-point 59 :  0.50000.23080.0000  plane waves:    258
 k-point 60 :  0.50000.24360.0000  plane waves:    258
 k-point 61 :  0.50000.25640.0000  plane waves:    258
 k-point 62 :  0.50000.26920.0000  plane waves:    258
 k-point 63 :  0.50000.28210.0000  plane waves:    258
 k-point 64 :  0.50000.29490.0000  plane waves:    258
 k-point 65 :  0.50000.30770.0000  plane waves:    258
 k-point 66 :  0.50000.32050.0000  plane waves:    258
 k-point 67 :  0.50000.33330.0000  plane waves:    254
 k-point 68 :  0.50000.34620.0000  plane waves:    256
 k-point 69 :  0.50000.35900.0000  plane waves:    256
 k-point 70 :  0.50000.37180.0000  plane waves:    260
 k-point 71 :  0.50000.38460.0000  plane waves:    256
 k-point 72 :  0.50000.39740.0000  plane waves:    256
 k-point 73 :  0.50000.41030.0000  plane waves:    256
 k-point 74 :  0.50000.42310.0000  plane waves:    256
 k-point 75 :  0.50000.43590.0000  plane waves:    256
 k-point 76 :  0.50000.44870.0000  plane waves:    256
 k-point 77 :  0.50000.46150.0000  plane waves:    260
 k-point 78 :  0.50000.47440.0000  plane waves:    264
 k-point 79 :  0.50000.48720.0000  plane waves:    268
 k-point 80 :  0.50000.50000.0000  plane waves:    268
 k-point 81 :  0.50000.50000.0000  plane waves:    268
 k-point 82 :  0.50000.50000.0128  plane waves:    268
 k-point 83 :  0.50000.50000.0256  plane waves:    260
 k-point 84 :  0.50000.50000.0385  plane waves:    260
 k-point 85 :  0.50000.50000.0513  plane waves:    260
 k-point 86 :  0.50000.50000.0641  plane waves:    260
 k-point 87 :  0.50000.50000.0769  plane waves:    252
 k-point 88 :  0.50000.50000.0897  plane waves:    252
 k-point 89 :  0.50000.50000.1026  plane waves:    252
 k-point 90 :  0.50000.50000.1154  plane waves:    256
 k-point 91 :  0.50000.50000.1282  plane waves:    256
 k-point 92 :  0.50000.50000.1410  plane waves:    256
 k-point 93 :  0.50000.50000.1538  plane waves:    256
 k-point 94 :  0.50000.50000.1667  plane waves:    256
 k-point 95 :  0.50000.50000.1795  plane waves:    256
 k-point 96 :  0.50000.50000.1923  plane waves:    256
 k-point 97 :  0.50000.50000.2051  plane waves:    256
 k-point 98 :  0.50000.50000.2179  plane waves:    256
 k-point 99 :  0.50000.50000.2308  plane waves:    268
 k-point ** :  0.50000.50000.2436  plane waves:    268
 k-point ** :  0.50000.50000.2564  plane waves:    268
 k-point ** :  0.50000.50000.2692  plane waves:    268
 k-point ** :  0.50000.50000.2821  plane waves:    268
 k-point ** :  0.50000.50000.2949  plane waves:    268
 k-point ** :  0.50000.50000.3077  plane waves:    268
 k-point ** :  0.50000.50000.3205  plane waves:    268
 k-point ** :  0.50000.50000.3333  plane waves:    276
 k-point ** :  0.50000.50000.3462  plane waves:    272
 k-point ** :  0.50000.50000.3590  plane waves:    272
 k-point ** :  0.50000.50000.3718  plane waves:    272
 k-point ** :  0.50000.50000.3846  plane waves:    280
 k-point ** :  0.50000.50000.3974  plane waves:    280
 k-point ** :  0.50000.50000.4103  plane waves:    280
 k-point ** :  0.50000.50000.4231  plane waves:    280
 k-point ** :  0.50000.50000.4359  plane waves:    280
 k-point ** :  0.50000.50000.4487  plane waves:    280
 k-point ** :  0.50000.50000.4615  plane waves:    280
 k-point ** :  0.50000.50000.4744  plane waves:    280
 k-point ** :  0.50000.50000.4872  plane waves:    280
 k-point ** :  0.50000.50000.5000  plane waves:    280
 k-point ** :  0.50000.50000.5000  plane waves:    280
 k-point ** :  0.48720.48720.4872  plane waves:    280
 k-point ** :  0.47440.47440.4744  plane waves:    280
 k-point ** :  0.46150.46150.4615  plane waves:    280
 k-point ** :  0.44870.44870.4487  plane waves:    280
 k-point ** :  0.43590.43590.4359  plane waves:    280
 k-point ** :  0.42310.42310.4231  plane waves:    277
 k-point ** :  0.41030.41030.4103  plane waves:    274
 k-point ** :  0.39740.39740.3974  plane waves:    268
 k-point ** :  0.38460.38460.3846  plane waves:    268
 k-point ** :  0.37180.37180.3718  plane waves:    265
 k-point ** :  0.35900.35900.3590  plane waves:    265
 k-point ** :  0.34620.34620.3462  plane waves:    265
 k-point ** :  0.33330.33330.3333  plane waves:    259
 k-point ** :  0.32050.32050.3205  plane waves:    265
 k-point ** :  0.30770.30770.3077  plane waves:    265
 k-point ** :  0.29490.29490.2949  plane waves:    265
 k-point ** :  0.28210.28210.2821  plane waves:    266
 k-point ** :  0.26920.26920.2692  plane waves:    266
 k-point ** :  0.25640.25640.2564  plane waves:    254
 k-point ** :  0.24360.24360.2436  plane waves:    257
 k-point ** :  0.23080.23080.2308  plane waves:    257
 k-point ** :  0.21790.21790.2179  plane waves:    257
 k-point ** :  0.20510.20510.2051  plane waves:    251
 k-point ** :  0.19230.19230.1923  plane waves:    257
 k-point ** :  0.17950.17950.1795  plane waves:    257
 k-point ** :  0.16670.16670.1667  plane waves:    257
 k-point ** :  0.15380.15380.1538  plane waves:    257
 k-point ** :  0.14100.14100.1410  plane waves:    257
 k-point ** :  0.12820.12820.1282  plane waves:    257
 k-point ** :  0.11540.11540.1154  plane waves:    257
 k-point ** :  0.10260.10260.1026  plane waves:    257
 k-point ** :  0.08970.08970.0897  plane waves:    254
 k-point ** :  0.07690.07690.0769  plane waves:    254
 k-point ** :  0.06410.06410.0641  plane waves:    254
 k-point ** :  0.05130.05130.0513  plane waves:    254
 k-point ** :  0.03850.03850.0385  plane waves:    251
 k-point ** :  0.02560.02560.0256  plane waves:    251
 k-point ** :  0.01280.01280.0128  plane waves:    251
 k-point ** :  0.00000.00000.0000  plane waves:    251

 maximum number of plane-waves:    280
 maximal index in each direction: 
   IXMAX=  3   IYMAX=  3   IZMAX=  3
   IXMIN= -4   IYMIN= -4   IZMIN= -4

 NGX is ok and might be reduce to  16
 NGY is ok and might be reduce to  16
 NGZ is ok and might be reduce to  16
 For storing wavefunctions   11.98 MBYTES are necessary
 For predicting wavefunctions    0.48 MBYTES are necessary
 initial charge density was supplied:
 number of electron   20.0000190 magnetization 
 keeping initial charge density in first step


--------------------------------------------------------------------------------------------------------


 Maximum index for augmentation-charges         4457 (set IRDMAX)


--------------------------------------------------------------------------------------------------------


 First call to EWALD:  gamma=   0.545
 Maximum number of real-space cells 3x 3x 3
 Maximum number of reciprocal cells 3x 3x 3

    FEWALD:  VPU time    0.00: CPU time    0.00


----------------------------------------- Iteration    1(   1)  ---------------------------------------


    POTLOK:  VPU time    0.01: CPU time    0.01
    SETDIJ:  VPU time    0.01: CPU time    0.01
    EDDAV :  VPU time    6.42: CPU time    6.42
    DOS   :  VPU time    0.00: CPU time   -0.00
    ------------------------------------------
      LOOP:  VPU time    6.50: CPU time    6.50

 eigenvalue-minimisations  :  6302
 total energy-change (2. order) :-0.1506443E+02  (-0.1751309E+02)
 number of electron   20.0000190 magnetization 
 augmentation part    20.0000190 magnetization 

 Free energy of the ion-electron system (eV)
  ---------------------------------------------------
  alpha Z        PSCENC =       125.00303491
  Ewald energy   TEWEN  =     -1610.85046774
  -1/2 Hartree   DENC   =      -390.83203395
  -V(xc)+E(xc)   XCENC  =        70.54908507
  PAW double counting   =      1433.61498495    -1443.94642783
  entropy T*S    EENTRO =         0.00156274
  eigenvalues    EBANDS =      -287.39882241
  atomic energy  EATOM  =      2088.79464958
  ---------------------------------------------------
  free energy    TOTEN  =       -15.06443468 eV

  energy without entropy =      -15.06599742  energy(sigma->0) =      -15.06495559


--------------------------------------------------------------------------------------------------------




----------------------------------------- Iteration    1(   2)  ---------------------------------------


    EDDIAG:  VPU time    1.29: CPU time    1.30
  RMM-DIIS:  VPU time    4.64: CPU time    4.64
    ORTHCH:  VPU time    0.14: CPU time    0.14
    DOS   :  VPU time    0.00: CPU time   -0.00
    ------------------------------------------
      LOOP:  VPU time    6.12: CPU time    6.12

 eigenvalue-minimisations  :  5892
 total energy-change (2. order) :-0.2631073E+01  (-0.2608459E+01)
 number of electron   20.0000190 magnetization 
 augmentation part    20.0000190 magnetization 

 Free energy of the ion-electron system (eV)
  ---------------------------------------------------
  alpha Z        PSCENC =       125.00303491
  Ewald energy   TEWEN  =     -1610.85046774
  -1/2 Hartree   DENC   =      -390.83203395
  -V(xc)+E(xc)   XCENC  =        70.54908507
  PAW double counting   =      1433.61498495    -1443.94642783
  entropy T*S    EENTRO =        -0.00203614
  eigenvalues    EBANDS =      -290.02629695
  atomic energy  EATOM  =      2088.79464958
  ---------------------------------------------------
  free energy    TOTEN  =       -17.69550810 eV

  energy without entropy =      -17.69347196  energy(sigma->0) =      -17.69482939


--------------------------------------------------------------------------------------------------------




----------------------------------------- Iteration    1(   3)  ---------------------------------------


    EDDIAG:  VPU time    1.29: CPU time    1.30
  RMM-DIIS:  VPU time    5.01: CPU time    5.01
    ORTHCH:  VPU time    0.14: CPU time    0.14
    DOS   :  VPU time    0.00: CPU time   -0.00
    ------------------------------------------
      LOOP:  VPU time    6.49: CPU time    6.49

 eigenvalue-minimisations  :  6443
 total energy-change (2. order) : 0.5816987E-01  (-0.6980044E-01)
 number of electron   20.0000190 magnetization 
 augmentation part    20.0000190 magnetization 

 Free energy of the ion-electron system (eV)
  ---------------------------------------------------
  alpha Z        PSCENC =       125.00303491
  Ewald energy   TEWEN  =     -1610.85046774
  -1/2 Hartree   DENC   =      -390.83203395
  -V(xc)+E(xc)   XCENC  =        70.54908507
  PAW double counting   =      1433.61498495    -1443.94642783
  entropy T*S    EENTRO =        -0.00144528
  eigenvalues    EBANDS =      -289.96871794
  atomic energy  EATOM  =      2088.79464958
  ---------------------------------------------------
  free energy    TOTEN  =       -17.63733823 eV

  energy without entropy =      -17.63589295  energy(sigma->0) =      -17.63685647


--------------------------------------------------------------------------------------------------------




----------------------------------------- Iteration    1(   4)  ---------------------------------------


    EDDIAG:  VPU time    1.29: CPU time    1.29
  RMM-DIIS:  VPU time    5.55: CPU time    5.55
    ORTHCH:  VPU time    0.14: CPU time    0.14
    DOS   :  VPU time    0.00: CPU time   -0.00
    ------------------------------------------
      LOOP:  VPU time    7.02: CPU time    7.03

 eigenvalue-minimisations  :  7222
 total energy-change (2. order) :-0.3924619E-02  (-0.4303766E-02)
 number of electron   20.0000190 magnetization 
 augmentation part    20.0000190 magnetization 

 Free energy of the ion-electron system (eV)
  ---------------------------------------------------
  alpha Z        PSCENC =       125.00303491
  Ewald energy   TEWEN  =     -1610.85046774
  -1/2 Hartree   DENC   =      -390.83203395
  -V(xc)+E(xc)   XCENC  =        70.54908507
  PAW double counting   =      1433.61498495    -1443.94642783
  entropy T*S    EENTRO =        -0.00143467
  eigenvalues    EBANDS =      -289.97265317
  atomic energy  EATOM  =      2088.79464958
  ---------------------------------------------------
  free energy    TOTEN  =       -17.64126285 eV

  energy without entropy =      -17.63982818  energy(sigma->0) =      -17.64078463


--------------------------------------------------------------------------------------------------------




----------------------------------------- Iteration    1(   5)  ---------------------------------------


    EDDIAG:  VPU time    1.29: CPU time    1.29
  RMM-DIIS:  VPU time    5.41: CPU time    5.41
    ORTHCH:  VPU time    0.14: CPU time    0.14
    DOS   :  VPU time    0.00: CPU time   -0.00
    ------------------------------------------
      LOOP:  VPU time    6.88: CPU time    6.89

 eigenvalue-minimisations  :  6991
 total energy-change (2. order) :-0.2981026E-03  (-0.3155696E-03)
 number of electron   20.0000190 magnetization 
 augmentation part    20.0000190 magnetization 

 Free energy of the ion-electron system (eV)
  ---------------------------------------------------
  alpha Z        PSCENC =       125.00303491
  Ewald energy   TEWEN  =     -1610.85046774
  -1/2 Hartree   DENC   =      -390.83203395
  -V(xc)+E(xc)   XCENC  =        70.54908507
  PAW double counting   =      1433.61498495    -1443.94642783
  entropy T*S    EENTRO =        -0.00143431
  eigenvalues    EBANDS =      -289.97295164
  atomic energy  EATOM  =      2088.79464958
  ---------------------------------------------------
  free energy    TOTEN  =       -17.64156095 eV

  energy without entropy =      -17.64012665  energy(sigma->0) =      -17.64108285


--------------------------------------------------------------------------------------------------------




----------------------------------------- Iteration    1(   6)  ---------------------------------------


    EDDIAG:  VPU time    1.29: CPU time    1.29
  RMM-DIIS:  VPU time    4.23: CPU time    4.23
    ORTHCH:  VPU time    0.14: CPU time    0.14
    DOS   :  VPU time   -0.00: CPU time   -0.00
    ------------------------------------------
      LOOP:  VPU time    5.71: CPU time    5.71

 eigenvalue-minimisations  :  5171
 total energy-change (2. order) :-0.2601155E-04  (-0.1850122E-04)
 number of electron   20.0000190 magnetization 
 augmentation part    20.0000190 magnetization 

 Free energy of the ion-electron system (eV)
  ---------------------------------------------------
  alpha Z        PSCENC =       125.00303491
  Ewald energy   TEWEN  =     -1610.85046774
  -1/2 Hartree   DENC   =      -390.83203395
  -V(xc)+E(xc)   XCENC  =        70.54908507
  PAW double counting   =      1433.61498495    -1443.94642783
  entropy T*S    EENTRO =        -0.00143433
  eigenvalues    EBANDS =      -289.97297763
  atomic energy  EATOM  =      2088.79464958
  ---------------------------------------------------
  free energy    TOTEN  =       -17.64158697 eV

  energy without entropy =      -17.64015264  energy(sigma->0) =      -17.64110886


--------------------------------------------------------------------------------------------------------




----------------------------------------- Iteration    1(   7)  ---------------------------------------


    EDDIAG:  VPU time    1.29: CPU time    1.29
  RMM-DIIS:  VPU time    3.10: CPU time    3.10
    ORTHCH:  VPU time    0.14: CPU time    0.14
    DOS   :  VPU time    0.00: CPU time   -0.00
    ------------------------------------------
      LOOP:  VPU time    4.57: CPU time    4.57

 eigenvalue-minimisations  :  3356
 total energy-change (2. order) :-0.8341121E-06  (-0.7233623E-06)
 number of electron   20.0000190 magnetization 
 augmentation part    20.0000190 magnetization 

 Free energy of the ion-electron system (eV)
  ---------------------------------------------------
  alpha Z        PSCENC =       125.00303491
  Ewald energy   TEWEN  =     -1610.85046774
  -1/2 Hartree   DENC   =      -390.83203395
  -V(xc)+E(xc)   XCENC  =        70.54908507
  PAW double counting   =      1433.61498495    -1443.94642783
  entropy T*S    EENTRO =        -0.00143433
  eigenvalues    EBANDS =      -289.97297847
  atomic energy  EATOM  =      2088.79464958
  ---------------------------------------------------
  free energy    TOTEN  =       -17.64158780 eV

  energy without entropy =      -17.64015347  energy(sigma->0) =      -17.64110969


--------------------------------------------------------------------------------------------------------




 average (electrostatic) potential at core
  the test charge radii are     1.0397
  (the norm of the test charge is              1.0000)
       1 -50.8647       2 -50.8647



 E-fermi :   5.4998     XC(G=0): -11.7118     alpha+bet :-13.5410
   add alpha+bet to get absolut eigen values

 k-point   1 :       0.0000    0.0000    0.0000
  band No.  band energies     occupation 
      1     -27.0254      2.00000
      2     -27.0254      2.00000
      3     -27.0254      2.00000
      4     -26.5352      2.00000
      5     -26.5352      2.00000
      6     -26.5352      2.00000
      7      -0.3646      2.00000
      8       3.3744      2.00000
      9       3.3744      2.00000
     10       6.4578     -0.00000
     11       6.4578     -0.00000
     12       6.4578     -0.00000
     13       8.2577      0.00000
     14       8.2577      0.00000
     15       9.4565      0.00000
     16       9.4565      0.00000
     17       9.4565      0.00000
     18      14.0221      0.00000

 k-point   2 :       0.0128    0.0000    0.0000
  band No.  band energies     occupation 
      1     -27.0254      2.00000
      2     -27.0252      2.00000
      3     -27.0252      2.00000
      4     -26.5356      2.00000
      5     -26.5354      2.00000
      6     -26.5354      2.00000
      7      -0.3617      2.00000
      8       3.3759      2.00000
      9       3.3760      2.00000
     10       6.4575     -0.00000
     11       6.4575     -0.00000
     12       6.4589     -0.00000
     13       8.2552      0.00000
     14       8.2587      0.00000
     15       9.4508      0.00000
     16       9.4508      0.00000
     17       9.4551      0.00000
     18      14.0096      0.00000

 k-point   3 :       0.0256    0.0000    0.0000
  band No.  band energies     occupation 
      1     -27.0255      2.00000
      2     -27.0246      2.00000
      3     -27.0246      2.00000
      4     -26.5369      2.00000
      5     -26.5360      2.00000
      6     -26.5360      2.00000
      7      -0.3531      2.00000
      8       3.3805      2.00000
      9       3.3807      2.00000
     10       6.4567     -0.00000
     11       6.4567     -0.00000
     12       6.4621     -0.00000
     13       8.2478      0.00000
     14       8.2616      0.00000
     15       9.4337      0.00000
     16       9.4337      0.00000
     17       9.4510      0.00000
     18      13.9725      0.00000

 k-point   4 :       0.0385    0.0000    0.0000
  band No.  band energies     occupation 
      1     -27.0255      2.00000
      2     -27.0235      2.00000
      3     -27.0235      2.00000
      4     -26.5390      2.00000
      5     -26.5369      2.00000
      6     -26.5369      2.00000
      7      -0.3387      2.00000
      8       3.3880      2.00000
      9       3.3886      2.00000
     10       6.4554     -0.00000
     11       6.4554     -0.00000
     12       6.4674     -0.00000
     13       8.2354      0.00000
     14       8.2663      0.00000
     15       9.4056      0.00000
     16       9.4056      0.00000
     17       9.4442      0.00000
     18      13.9117      0.00000

 k-point   5 :       0.0513    0.0000    0.0000
  band No.  band energies     occupation 
      1     -27.0255      2.00000
      2     -27.0220      2.00000
      3     -27.0220      2.00000
      4     -26.5423      2.00000
      5     -26.5382      2.00000
      6     -26.5382      2.00000
      7      -0.3187      2.00000
      8       3.3984      2.00000
      9       3.3997      2.00000
     10       6.4535     -0.00000
     11       6.4535     -0.00000
     12       6.4748     -0.00000
     13       8.2180     -0.00000
     14       8.2703      0.00000
     15       9.3672      0.00000
     16       9.3672      0.00000
     17       9.4346      0.00000
     18      13.8290      0.00000

 k-point   6 :       0.0641    0.0000    0.0000
  band No.  band energies     occupation 
      1     -27.0256      2.00000
      2     -27.0201      2.00000
      3     -27.0201      2.00000
      4     -26.5461      2.00000
      5     -26.5398      2.00000
      6     -26.5398      2.00000
      7      -0.2930      2.00000
      8       3.4116      2.00000
      9       3.4139      2.00000
     10       6.4512     -0.00000
     11       6.4512     -0.00000
     12       6.4844     -0.00000
     13       8.1958     -0.00000
     14       8.2785      0.00000
     15       9.3194      0.00000
     16       9.3194      0.00000
     17       9.4223      0.00000
     18      13.7260      0.00000

 k-point   7 :       0.0769    0.0000    0.0000
  band No.  band energies     occupation 
      1     -27.0256      2.00000
      2     -27.0178      2.00000
      3     -27.0178      2.00000
      4     -26.5507      2.00000
      5     -26.5419      2.00000
      6     -26.5419      2.00000
      7      -0.2616      2.00000
      8       3.4275      2.00000
      9       3.4313      2.00000
     10       6.4485     -0.00000
     11       6.4485     -0.00000
     12       6.4961     -0.00000
     13       8.1688     -0.00000
     14       8.2885      0.00000
     15       9.2631      0.00000
     16       9.2631      0.00000
     17       9.4073      0.00000
     18      13.6052      0.00000

 k-point   8 :       0.0897    0.0000    0.0000
  band No.  band energies     occupation 
      1     -27.0256      2.00000
      2     -27.0151      2.00000
      3     -27.0151      2.00000
      4     -26.5561      2.00000
      5     -26.5443      2.00000
      6     -26.5443      2.00000
      7      -0.2247      2.00000
      8       3.4459      2.00000
      9       3.4518      2.00000
     10       6.4454     -0.00000
     11       6.4454     -0.00000
     12       6.5098     -0.00000
     13       8.1371     -0.00000
     14       8.3003      0.00000
     15       9.1992      0.00000
     16       9.1992      0.00000
     17       9.3897      0.00000
     18      13.4689      0.00000

 k-point   9 :       0.1026    0.0000    0.0000
  band No.  band energies     occupation 
      1     -27.0255      2.00000
      2     -27.0119      2.00000
      3     -27.0119      2.00000
      4     -26.5622      2.00000
      5     -26.5470      2.00000
      6     -26.5470      2.00000
      7      -0.1823      2.00000
      8       3.4665      2.00000
      9       3.4754      2.00000
     10       6.4420     -0.00000
     11       6.4420     -0.00000
     12       6.5257     -0.00000
     13       8.1007     -0.00000
     14       8.3137      0.00000
     15       9.1288      0.00000
     16       9.1288      0.00000
     17       9.3695      0.00000
     18      13.3192      0.00000

 k-point  10 :       0.1154    0.0000    0.0000
  band No.  band energies     occupation 
      1     -27.0254      2.00000
      2     -27.0084      2.00000
      3     -27.0084      2.00000
      4     -26.5691      2.00000
      5     -26.5501      2.00000
      6     -26.5501      2.00000
      7      -0.1344      2.00000
      8       3.4893      2.00000
      9       3.5021      2.00000
     10       6.4385     -0.00000
     11       6.4385     -0.00000
     12       6.5436     -0.00000
     13       8.0597     -0.00000
     14       8.3287      0.00000
     15       9.0530      0.00000
     16       9.0530      0.00000
     17       9.3468      0.00000
     18      13.1585      0.00000

 k-point  11 :       0.1282    0.0000    0.0000
  band No.  band energies     occupation 
      1     -27.0253      2.00000
      2     -27.0045      2.00000
      3     -27.0045      2.00000
      4     -26.5767      2.00000
      5     -26.5536      2.00000
      6     -26.5536      2.00000
      7      -0.0812      2.00000
      8       3.5138      2.00000
      9       3.5318      2.00000
     10       6.4349     -0.00000
     11       6.4349     -0.00000
     12       6.5635     -0.00000
     13       8.0143     -0.00000
     14       8.3453      0.00000
     15       8.9726      0.00000
     16       8.9726      0.00000
     17       9.3216      0.00000
     18      12.9889      0.00000

 k-point  12 :       0.1410    0.0000    0.0000
  band No.  band energies     occupation 
      1     -27.0250      2.00000
      2     -27.0001      2.00000
      3     -27.0001      2.00000
      4     -26.5849      2.00000
      5     -26.5574      2.00000
      6     -26.5574      2.00000
      7      -0.0228      2.00000
      8       3.5397      2.00000
      9       3.5647      2.00000
     10       6.4312     -0.00000
     11       6.4312     -0.00000
     12       6.5855     -0.00000
     13       7.9647     -0.00000
     14       8.3633      0.00000
     15       8.8886      0.00000
     16       8.8886      0.00000
     17       9.2939      0.00000
     18      12.8123      0.00000

 k-point  13 :       0.1538    0.0000    0.0000
  band No.  band energies     occupation 
      1     -27.0246      2.00000
      2     -26.9954      2.00000
      3     -26.9954      2.00000
      4     -26.5938      2.00000
      5     -26.5616      2.00000
      6     -26.5616      2.00000
      7       0.0408      2.00000
      8       3.5669      2.00000
      9       3.6005      2.00000
     10       6.4277     -0.00000
     11       6.4277     -0.00000
     12       6.6094     -0.00000
     13       7.9108     -0.00000
     14       8.3827      0.00000
     15       8.8018      0.00000
     16       8.8018      0.00000
     17       9.2638      0.00000
     18      12.6303      0.00000

 k-point  14 :       0.1667    0.0000    0.0000
  band No.  band energies     occupation 
      1     -27.0241      2.00000
      2     -26.9904      2.00000
      3     -26.9904      2.00000
      4     -26.6032      2.00000
      5     -26.5661      2.00000
      6     -26.5661      2.00000
      7       0.1094      2.00000
      8       3.5948      2.00000
      9       3.6393      2.00000
     10       6.4243     -0.00000
     11       6.4243     -0.00000
     12       6.6353     -0.00000
     13       7.8530     -0.00000
     14       8.4034      0.00000
     15       8.7129      0.00000
     16       8.7129      0.00000
     17       9.2315      0.00000
     18      12.4447      0.00000

 k-point  15 :       0.1795    0.0000    0.0000
  band No.  band energies     occupation 
      1     -27.0251      2.00000
      2     -26.9850      2.00000
      3     -26.9850      2.00000
      4     -26.6132      2.00000
      5     -26.5709      2.00000
      6     -26.5709      2.00000
      7       0.1829      2.00000
      8       3.6206      2.00000
      9       3.6812      2.00000
     10       6.4213     -0.00000
     11       6.4213     -0.00000
     12       6.6632     -0.00000
     13       7.7912     -0.00000
     14       8.4253      0.00000
     15       8.6214      0.00000
     16       8.6214      0.00000
     17       9.1969      0.00000
     18      12.2554      0.00000

 k-point  16 :       0.1923    0.0000    0.0000
  band No.  band energies     occupation 
      1     -27.0246      2.00000
      2     -26.9792      2.00000
      3     -26.9792      2.00000
      4     -26.6237      2.00000
      5     -26.5760      2.00000
      6     -26.5760      2.00000
      7       0.2612      2.00000
      8       3.6484      2.00000
      9       3.7259      2.00000
     10       6.4187     -0.00000
     11       6.4187     -0.00000
     12       6.6929     -0.00000
     13       7.7258     -0.00000
     14       8.4482      0.00000
     15       8.5301      0.00000
     16       8.5301      0.00000
     17       9.1602      0.00000
     18      12.0661      0.00000

 k-point  17 :       0.2051    0.0000    0.0000
  band No.  band energies     occupation 
      1     -27.0238      2.00000
      2     -26.9730      2.00000
      3     -26.9730      2.00000
      4     -26.6347      2.00000
      5     -26.5815      2.00000
      6     -26.5815      2.00000
      7       0.3441      2.00000
      8       3.6757      2.00000
      9       3.7736      2.00000
     10       6.4167     -0.00000
     11       6.4167     -0.00000
     12       6.7246     -0.00000
     13       7.6568     -0.00000
     14       8.4383      0.00000
     15       8.4383      0.00000
     16       8.4721      0.00000
     17       9.1213      0.00000
     18      11.8771      0.00000

 k-point  18 :       0.2179    0.0000    0.0000
  band No.  band energies     occupation 
      1     -27.0229      2.00000
      2     -26.9666      2.00000
      3     -26.9666      2.00000
      4     -26.6461      2.00000
      5     -26.5873      2.00000
      6     -26.5873      2.00000
      7       0.4315      2.00000
      8       3.7018      2.00000
      9       3.8241      2.00000
     10       6.4154     -0.00000
     11       6.4154     -0.00000
     12       6.7581     -0.00000
     13       7.5844     -0.00000
     14       8.3466      0.00000
     15       8.3466      0.00000
     16       8.4969      0.00000
     17       9.0805      0.00000
     18      11.6894      0.00000

 k-point  19 :       0.2308    0.0000    0.0000
  band No.  band energies     occupation 
      1     -27.0217      2.00000
      2     -26.9598      2.00000
      3     -26.9598      2.00000
      4     -26.6579      2.00000
      5     -26.5934      2.00000
      6     -26.5934      2.00000
      7       0.5232      2.00000
      8       3.7262      2.00000
      9       3.8774      2.00000
     10       6.4148     -0.00000
     11       6.4148     -0.00000
     12       6.7933     -0.00000
     13       7.5089     -0.00000
     14       8.2554      0.00000
     15       8.2554      0.00000
     16       8.5224      0.00000
     17       9.0378      0.00000
     18      11.5039      0.00000

 k-point  20 :       0.2436    0.0000    0.0000
  band No.  band energies     occupation 
      1     -27.0211      2.00000
      2     -26.9532      2.00000
      3     -26.9532      2.00000
      4     -26.6699      2.00000
      5     -26.5997      2.00000
      6     -26.5997      2.00000
      7       0.6189      2.00000
      8       3.7482      2.00000
      9       3.9335      2.00000
     10       6.4153     -0.00000
     11       6.4153     -0.00000
     12       6.8304     -0.00000
     13       7.4304     -0.00000
     14       8.1614     -0.00000
     15       8.1614     -0.00000
     16       8.5485      0.00000
     17       8.9902      0.00000
     18      11.3213      0.00000

 k-point  21 :       0.2564    0.0000    0.0000
  band No.  band energies     occupation 
      1     -27.0195      2.00000
      2     -26.9458      2.00000
      3     -26.9458      2.00000
      4     -26.6823      2.00000
      5     -26.6064      2.00000
      6     -26.6064      2.00000
      7       0.7185      2.00000
      8       3.7675      2.00000
      9       3.9924      2.00000
     10       6.4167     -0.00000
     11       6.4167     -0.00000
     12       6.8691     -0.00000
     13       7.3491     -0.00000
     14       8.0719     -0.00000
     15       8.0719     -0.00000
     16       8.5751      0.00000
     17       8.9438      0.00000
     18      11.1430      0.00000

 k-point  22 :       0.2692    0.0000    0.0000
  band No.  band energies     occupation 
      1     -27.0176      2.00000
      2     -26.9382      2.00000
      3     -26.9382      2.00000
      4     -26.6931      2.00000
      5     -26.6129      2.00000
      6     -26.6129      2.00000
      7       0.8220      2.00000
      8       3.7833      2.00000
      9       4.0539      2.00000
     10       6.4232     -0.00000
     11       6.4232     -0.00000
     12       6.9101     -0.00000
     13       7.2656     -0.00000
     14       7.9838     -0.00000
     15       7.9838     -0.00000
     16       8.6088      0.00000
     17       8.8957      0.00000
     18      10.9696      0.00000

 k-point  23 :       0.2821    0.0000    0.0000
  band No.  band energies     occupation 
      1     -27.0154      2.00000
      2     -26.9303      2.00000
      3     -26.9303      2.00000
      4     -26.7061      2.00000
      5     -26.6202      2.00000
      6     -26.6202      2.00000
      7       0.9288      2.00000
      8       3.7950      2.00000
      9       4.1180      2.00000
     10       6.4268     -0.00000
     11       6.4268     -0.00000
     12       6.9521     -0.00000
     13       7.1793     -0.00000
     14       7.8972     -0.00000
     15       7.8972     -0.00000
     16       8.6357      0.00000
     17       8.8461      0.00000
     18      10.8018      0.00000

 k-point  24 :       0.2949    0.0000    0.0000
  band No.  band energies     occupation 
      1     -27.0128      2.00000
      2     -26.9222      2.00000
      3     -26.9222      2.00000
      4     -26.7192      2.00000
      5     -26.6277      2.00000
      6     -26.6277      2.00000
      7       1.0388      2.00000
      8       3.8018      2.00000
      9       4.1848      2.00000
     10       6.4319     -0.00000
     11       6.4319     -0.00000
     12       6.9957     -0.00000
     13       7.0908     -0.00000
     14       7.8125     -0.00000
     15       7.8125     -0.00000
     16       8.6629      0.00000
     17       8.7951      0.00000
     18      10.6401      0.00000

 k-point  25 :       0.3077    0.0000    0.0000
  band No.  band energies     occupation 
      1     -27.0100      2.00000
      2     -26.9138      2.00000
      3     -26.9138      2.00000
      4     -26.7336      2.00000
      5     -26.6355      2.00000
      6     -26.6355      2.00000
      7       1.1517      2.00000
      8       3.8033      2.00000
      9       4.2540      2.00000
     10       6.4374     -0.00000
     11       6.4374     -0.00000
     12       7.0004     -0.00000
     13       7.0407     -0.00000
     14       7.7297     -0.00000
     15       7.7297     -0.00000
     16       8.6815      0.00000
     17       8.7428      0.00000
     18      10.4854      0.00000

 k-point  26 :       0.3205    0.0000    0.0000
  band No.  band energies     occupation 
      1     -27.0067      2.00000
      2     -26.9052      2.00000
      3     -26.9052      2.00000
      4     -26.7469      2.00000
      5     -26.6435      2.00000
      6     -26.6435      2.00000
      7       1.2674      2.00000
      8       3.7987      2.00000
      9       4.3256      2.00000
     10       6.4457     -0.00000
     11       6.4457     -0.00000
     12       6.9081     -0.00000
     13       7.0872     -0.00000
     14       7.6491     -0.00000
     15       7.6491     -0.00000
     16       8.6893      0.00000
     17       8.7080      0.00000
     18      10.3381      0.00000

 k-point  27 :       0.3333    0.0000    0.0000
  band No.  band energies     occupation 
      1     -27.0031      2.00000
      2     -26.8964      2.00000
      3     -26.8964      2.00000
      4     -26.7602      2.00000
      5     -26.6517      2.00000
      6     -26.6517      2.00000
      7       1.3854      2.00000
      8       3.7876      2.00000
      9       4.3996      2.00000
     10       6.4557     -0.00000
     11       6.4557     -0.00000
     12       6.8143     -0.00000
     13       7.1352     -0.00000
     14       7.5707     -0.00000
     15       7.5707     -0.00000
     16       8.6346      0.00000
     17       8.7345      0.00000
     18      10.1986      0.00000

 k-point  28 :       0.3462    0.0000    0.0000
  band No.  band energies     occupation 
      1     -26.9990      2.00000
      2     -26.8874      2.00000
      3     -26.8874      2.00000
      4     -26.7735      2.00000
      5     -26.6601      2.00000
      6     -26.6601      2.00000
      7       1.5054      2.00000
      8       3.7694      2.00000
      9       4.4760      2.00000
     10       6.4676     -0.00000
     11       6.4676     -0.00000
     12       6.7191     -0.00000
     13       7.1845     -0.00000
     14       7.4947     -0.00000
     15       7.4947     -0.00000
     16       8.5790      0.00000
     17       8.7609      0.00000
     18      10.0674      0.00000

 k-point  29 :       0.3590    0.0000    0.0000
  band No.  band energies     occupation 
      1     -26.9945      2.00000
      2     -26.8783      2.00000
      3     -26.8783      2.00000
      4     -26.7867      2.00000
      5     -26.6687      2.00000
      6     -26.6687      2.00000
      7       1.6272      2.00000
      8       3.7437      2.00000
      9       4.5545      2.00000
     10       6.4815     -0.00000
     11       6.4815     -0.00000
     12       6.6228     -0.00000
     13       7.2350     -0.00000
     14       7.4212     -0.00000
     15       7.4212     -0.00000
     16       8.5224      0.00000
     17       8.7873      0.00000
     18       9.9447      0.00000

 k-point  30 :       0.3718    0.0000    0.0000
  band No.  band energies     occupation 
      1     -26.9896      2.00000
      2     -26.8689      2.00000
      3     -26.8689      2.00000
      4     -26.7997      2.00000
      5     -26.6774      2.00000
      6     -26.6774      2.00000
      7       1.7503      2.00000
      8       3.7102      2.00000
      9       4.6352      2.00000
     10       6.4976     -0.00000
     11       6.4976     -0.00000
     12       6.5255     -0.00000
     13       7.2868     -0.00000
     14       7.3502     -0.00000
     15       7.3502     -0.00000
     16       8.4651      0.00000
     17       8.8136      0.00000
     18       9.8307      0.00000

 k-point  31 :       0.3846    0.0000    0.0000
  band No.  band energies     occupation 
      1     -26.9847      2.00000
      2     -26.8608      2.00000
      3     -26.8608      2.00000
      4     -26.8116      2.00000
      5     -26.6855      2.00000
      6     -26.6855      2.00000
      7       1.8745      2.00000
      8       3.6686      2.00000
      9       4.7174      2.00000
     10       6.4293     -0.00000
     11       6.5198     -0.00000
     12       6.5198     -0.00000
     13       7.2788     -0.00000
     14       7.2788     -0.00000
     15       7.3417     -0.00000
     16       8.3954      0.00000
     17       8.8400      0.00000
     18       9.7244      0.00000

 k-point  32 :       0.3974    0.0000    0.0000
  band No.  band energies     occupation 
      1     -26.9790      2.00000
      2     -26.8513      2.00000
      3     -26.8513      2.00000
      4     -26.8243      2.00000
      5     -26.6947      2.00000
      6     -26.6947      2.00000
      7       1.9990      2.00000
      8       3.6189      2.00000
      9       4.8021      2.00000
     10       6.3304     -0.00000
     11       6.5400     -0.00000
     12       6.5400     -0.00000
     13       7.2131     -0.00000
     14       7.2131     -0.00000
     15       7.3956     -0.00000
     16       8.3364      0.00000
     17       8.8667      0.00000
     18       9.6276      0.00000

 k-point  33 :       0.4103    0.0000    0.0000
  band No.  band energies     occupation 
      1     -26.9727      2.00000
      2     -26.8417      2.00000
      3     -26.8417      2.00000
      4     -26.8368      2.00000
      5     -26.7040      2.00000
      6     -26.7040      2.00000
      7       2.1237      2.00000
      8       3.5610      2.00000
      9       4.8886      2.00000
     10       6.2311     -0.00000
     11       6.5626     -0.00000
     12       6.5626     -0.00000
     13       7.1501     -0.00000
     14       7.1501     -0.00000
     15       7.4505     -0.00000
     16       8.2770      0.00000
     17       8.8937      0.00000
     18       9.5392      0.00000

 k-point  34 :       0.4231    0.0000    0.0000
  band No.  band energies     occupation 
      1     -26.9649      2.00000
      2     -26.8496      2.00000
      3     -26.8318      2.00000
      4     -26.8318      2.00000
      5     -26.7138      2.00000
      6     -26.7138      2.00000
      7       2.2478      2.00000
      8       3.4952      2.00000
      9       4.9771      2.00000
     10       6.1295     -0.00000
     11       6.5846     -0.00000
     12       6.5846     -0.00000
     13       7.0917     -0.00000
     14       7.0917     -0.00000
     15       7.5063     -0.00000
     16       8.2171     -0.00000
     17       8.9211      0.00000
     18       9.4634      0.00000

 k-point  35 :       0.4359    0.0000    0.0000
  band No.  band energies     occupation 
      1     -26.9578      2.00000
      2     -26.8614      2.00000
      3     -26.8221      2.00000
      4     -26.8221      2.00000
      5     -26.7234      2.00000
      6     -26.7234      2.00000
      7       2.3711      2.00000
      8       3.4217      2.00000
      9       5.0670      2.00000
     10       6.0299     -0.00000
     11       6.6120     -0.00000
     12       6.6120     -0.00000
     13       7.0341     -0.00000
     14       7.0341     -0.00000
     15       7.5630     -0.00000
     16       8.1570     -0.00000
     17       8.9496      0.00000
     18       9.3905      0.00000

 k-point  36 :       0.4487    0.0000    0.0000
  band No.  band energies     occupation 
      1     -26.9503      2.00000
      2     -26.8730      2.00000
      3     -26.8122      2.00000
      4     -26.8122      2.00000
      5     -26.7331      2.00000
      6     -26.7331      2.00000
      7       2.4929      2.00000
      8       3.3407      2.00000
      9       5.1584      2.00002
     10       5.9304     -0.00000
     11       6.6419     -0.00000
     12       6.6419     -0.00000
     13       6.9793     -0.00000
     14       6.9793     -0.00000
     15       7.6204     -0.00000
     16       8.0968     -0.00000
     17       8.9794      0.00000
     18       9.3247      0.00000

 k-point  37 :       0.4615    0.0000    0.0000
  band No.  band energies     occupation 
      1     -26.9422      2.00000
      2     -26.8842      2.00000
      3     -26.8023      2.00000
      4     -26.8023      2.00000
      5     -26.7429      2.00000
      6     -26.7429      2.00000
      7       2.6126      2.00000
      8       3.2529      2.00000
      9       5.2513      2.00247
     10       5.8313     -0.00003
     11       6.6745     -0.00000
     12       6.6745     -0.00000
     13       6.9273     -0.00000
     14       6.9273     -0.00000
     15       7.6785     -0.00000
     16       8.0364     -0.00000
     17       9.0109      0.00000
     18       9.2655      0.00000

 k-point  38 :       0.4744    0.0000    0.0000
  band No.  band energies     occupation 
      1     -26.9337      2.00000
      2     -26.8949      2.00000
      3     -26.7924      2.00000
      4     -26.7924      2.00000
      5     -26.7527      2.00000
      6     -26.7527      2.00000
      7       2.7297      2.00000
      8       3.1586      2.00000
      9       5.3454      2.05133
     10       5.7326     -0.00483
     11       6.7097     -0.00000
     12       6.7097     -0.00000
     13       6.8782     -0.00000
     14       6.8782     -0.00000
     15       7.7372     -0.00000
     16       7.9761     -0.00000
     17       9.0445      0.00000
     18       9.2121      0.00000

 k-point  39 :       0.4872    0.0000    0.0000
  band No.  band energies     occupation 
      1     -26.9247      2.00000
      2     -26.9053      2.00000
      3     -26.7825      2.00000
      4     -26.7825      2.00000
      5     -26.7626      2.00000
      6     -26.7626      2.00000
      7       2.8434      2.00000
      8       3.0585      2.00000
      9       5.4408      1.83116
     10       5.6345     -0.06705
     11       6.7477     -0.00000
     12       6.7477     -0.00000
     13       6.8319     -0.00000
     14       6.8319     -0.00000
     15       7.7964     -0.00000
     16       7.9160     -0.00000
     17       9.0809      0.00000
     18       9.1640      0.00000

 k-point  40 :       0.5000    0.0000    0.0000
  band No.  band energies     occupation 
      1     -26.9152      2.00000
      2     -26.9152      2.00000
      3     -26.7725      2.00000
      4     -26.7725      2.00000
      5     -26.7725      2.00000
      6     -26.7725      2.00000
      7       2.9532      2.00000
      8       2.9532      2.00000
      9       5.5372      0.41371
     10       5.5372      0.41371
     11       6.7884     -0.00000
     12       6.7884     -0.00000
     13       6.7884     -0.00000
     14       6.7884     -0.00000
     15       7.8560     -0.00000
     16       7.8560     -0.00000
     17       9.1205      0.00000
     18       9.1205      0.00000

 k-point  41 :       0.5000    0.0000    0.0000
  band No.  band energies     occupation 
      1     -26.9152      2.00000
      2     -26.9152      2.00000
      3     -26.7725      2.00000
      4     -26.7725      2.00000
      5     -26.7725      2.00000
      6     -26.7725      2.00000
      7       2.9532      2.00000
      8       2.9532      2.00000
      9       5.5372      0.41371
     10       5.5372      0.41371
     11       6.7884     -0.00000
     12       6.7884     -0.00000
     13       6.7884     -0.00000
     14       6.7884     -0.00000
     15       7.8560     -0.00000
     16       7.8560     -0.00000
     17       9.1205      0.00000
     18       9.1205      0.00000

 k-point  42 :       0.5000    0.0128    0.0000
  band No.  band energies     occupation 
      1     -26.9166      2.00000
      2     -26.9166      2.00000
      3     -26.7725      2.00000
      4     -26.7725      2.00000
      5     -26.7713      2.00000
      6     -26.7713      2.00000
      7       2.9545      2.00000
      8       2.9545      2.00000
      9       5.5346      0.44877
     10       5.5346      0.44877
     11       6.7806     -0.00000
     12       6.7806     -0.00000
     13       6.7928     -0.00000
     14       6.7928     -0.00000
     15       7.8642     -0.00000
     16       7.8642     -0.00000
     17       9.1208      0.00000
     18       9.1208      0.00000

 k-point  43 :       0.5000    0.0256    0.0000
  band No.  band energies     occupation 
      1     -26.9207      2.00000
      2     -26.9207      2.00000
      3     -26.7724      2.00000
      4     -26.7724      2.00000
      5     -26.7677      2.00000
      6     -26.7677      2.00000
      7       2.9584      2.00000
      8       2.9584      2.00000
      9       5.5270      0.55749
     10       5.5270      0.55749
     11       6.7580     -0.00000
     12       6.7580     -0.00000
     13       6.8060     -0.00000
     14       6.8060     -0.00000
     15       7.8879     -0.00000
     16       7.8879     -0.00000
     17       9.1216      0.00000
     18       9.1216      0.00000

 k-point  44 :       0.5000    0.0385    0.0000
  band No.  band energies     occupation 
      1     -26.9271      2.00000
      2     -26.9271      2.00000
      3     -26.7723      2.00000
      4     -26.7723      2.00000
      5     -26.7621      2.00000
      6     -26.7621      2.00000
      7       2.9647      2.00000
      8       2.9647      2.00000
      9       5.5151      0.74522
     10       5.5151      0.74522
     11       6.7224     -0.00000
     12       6.7224     -0.00000
     13       6.8274     -0.00000
     14       6.8274     -0.00000
     15       7.9254     -0.00000
     16       7.9254     -0.00000
     17       9.1229      0.00000
     18       9.1229      0.00000

 k-point  45 :       0.5000    0.0513    0.0000
  band No.  band energies     occupation 
      1     -26.9353      2.00000
      2     -26.9353      2.00000
      3     -26.7722      2.00000
      4     -26.7722      2.00000
      5     -26.7549      2.00000
      6     -26.7549      2.00000
      7       2.9734      2.00000
      8       2.9734      2.00000
      9       5.4995      1.00569
     10       5.4995      1.00569
     11       6.6763     -0.00000
     12       6.6763     -0.00000
     13       6.8563     -0.00000
     14       6.8563     -0.00000
     15       7.9741     -0.00000
[...]
     14       8.1591     -0.00000
     15       8.1591     -0.00000
     16       8.7835      0.00000
     17       8.7835      0.00000
     18      13.9054      0.00000

 k-point 147 :       0.1667    0.1667    0.1667
  band No.  band energies     occupation 
      1     -27.0430      2.00000
      2     -27.0430      2.00000
      3     -26.8155      2.00000
      4     -26.8075      2.00000
      5     -26.5709      2.00000
      6     -26.5709      2.00000
      7       0.9799      2.00000
      8       4.0633      2.00000
      9       4.0633      2.00000
     10       5.9134     -0.00000
     11       5.9134     -0.00000
     12       6.6884     -0.00000
     13       7.6581     -0.00000
     14       8.1483     -0.00000
     15       8.1483     -0.00000
     16       8.8449      0.00000
     17       8.8449      0.00000
     18      13.9368      0.00000

 k-point 148 :       0.1538    0.1538    0.1538
  band No.  band energies     occupation 
      1     -27.0414      2.00000
      2     -27.0414      2.00000
      3     -26.8408      2.00000
      4     -26.7745      2.00000
      5     -26.5653      2.00000
      6     -26.5653      2.00000
      7       0.7945      2.00000
      8       3.9736      2.00000
      9       3.9736      2.00000
     10       5.9924     -0.00000
     11       5.9924     -0.00000
     12       6.9564     -0.00000
     13       7.4885     -0.00000
     14       8.1420     -0.00000
     15       8.1420     -0.00000
     16       8.9089      0.00000
     17       8.9089      0.00000
     18      13.9642      0.00000

 k-point 149 :       0.1410    0.1410    0.1410
  band No.  band energies     occupation 
      1     -27.0396      2.00000
      2     -27.0396      2.00000
      3     -26.8658      2.00000
      4     -26.7419      2.00000
      5     -26.5603      2.00000
      6     -26.5603      2.00000
      7       0.6200      2.00000
      8       3.8873      2.00000
      9       3.8873      2.00000
     10       6.0672     -0.00000
     11       6.0672     -0.00000
     12       7.2313     -0.00000
     13       7.3307     -0.00000
     14       8.1403     -0.00000
     15       8.1403     -0.00000
     16       8.9745      0.00000
     17       8.9745      0.00000
     18      13.9870      0.00000

 k-point 150 :       0.1282    0.1282    0.1282
  band No.  band energies     occupation 
      1     -27.0372      2.00000
      2     -27.0372      2.00000
      3     -26.8892      2.00000
      4     -26.7122      2.00000
      5     -26.5558      2.00000
      6     -26.5558      2.00000
      7       0.4572      2.00000
      8       3.8068      2.00000
      9       3.8068      2.00000
     10       6.1359     -0.00000
     11       6.1359     -0.00000
     12       7.1770     -0.00000
     13       7.5101     -0.00000
     14       8.1419     -0.00000
     15       8.1419     -0.00000
     16       9.0416      0.00000
     17       9.0416      0.00000
     18      14.0062      0.00000

 k-point 151 :       0.1154    0.1154    0.1154
  band No.  band energies     occupation 
      1     -27.0354      2.00000
      2     -27.0354      2.00000
      3     -26.9125      2.00000
      4     -26.6822      2.00000
      5     -26.5518      2.00000
      6     -26.5518      2.00000
      7       0.3071      2.00000
      8       3.7298      2.00000
      9       3.7298      2.00000
     10       6.1991     -0.00000
     11       6.1991     -0.00000
     12       7.0429     -0.00000
     13       7.7896     -0.00000
     14       8.1489     -0.00000
     15       8.1489     -0.00000
     16       9.1067      0.00000
     17       9.1067      0.00000
     18      14.0193      0.00000

 k-point 152 :       0.1026    0.1026    0.1026
  band No.  band energies     occupation 
      1     -27.0336      2.00000
      2     -27.0336      2.00000
      3     -26.9344      2.00000
      4     -26.6540      2.00000
      5     -26.5483      2.00000
      6     -26.5483      2.00000
      7       0.1705      2.00000
      8       3.6588      2.00000
      9       3.6588      2.00000
     10       6.2556     -0.00000
     11       6.2556     -0.00000
     12       6.9220     -0.00000
     13       8.0658     -0.00000
     14       8.1597     -0.00000
     15       8.1597     -0.00000
     16       9.1698      0.00000
     17       9.1698      0.00000
     18      14.0286      0.00000

 k-point 153 :       0.0897    0.0897    0.0897
  band No.  band energies     occupation 
      1     -27.0319      2.00000
      2     -27.0319      2.00000
      3     -26.9536      2.00000
      4     -26.6280      2.00000
      5     -26.5452      2.00000
      6     -26.5452      2.00000
      7       0.0481      2.00000
      8       3.5947      2.00000
      9       3.5947      2.00000
     10       6.3050     -0.00000
     11       6.3050     -0.00000
     12       6.8144     -0.00000
     13       8.1734     -0.00000
     14       8.1734     -0.00000
     15       8.3402      0.00000
     16       9.2297      0.00000
     17       9.2297      0.00000
     18      14.0325      0.00000

 k-point 154 :       0.0769    0.0769    0.0769
  band No.  band energies     occupation 
      1     -27.0304      2.00000
      2     -27.0304      2.00000
      3     -26.9718      2.00000
      4     -26.6046      2.00000
      5     -26.5426      2.00000
      6     -26.5426      2.00000
      7      -0.0595      2.00000
      8       3.5378      2.00000
      9       3.5378      2.00000
     10       6.3471     -0.00000
     11       6.3471     -0.00000
     12       6.7206     -0.00000
     13       8.1890     -0.00000
     14       8.1890     -0.00000
     15       8.5950      0.00000
     16       9.2849      0.00000
     17       9.2849      0.00000
     18      14.0350      0.00000

 k-point 155 :       0.0641    0.0641    0.0641
  band No.  band energies     occupation 
      1     -27.0289      2.00000
      2     -27.0289      2.00000
      3     -26.9877      2.00000
      4     -26.5842      2.00000
      5     -26.5404      2.00000
      6     -26.5404      2.00000
      7      -0.1516      2.00000
      8       3.4888      2.00000
      9       3.4888      2.00000
     10       6.3820     -0.00000
     11       6.3820     -0.00000
     12       6.6407     -0.00000
     13       8.2053     -0.00000
     14       8.2053     -0.00000
     15       8.8303      0.00000
     16       9.3343      0.00000
     17       9.3343      0.00000
     18      14.0331      0.00000

 k-point 156 :       0.0513    0.0513    0.0513
  band No.  band energies     occupation 
      1     -27.0277      2.00000
      2     -27.0277      2.00000
      3     -27.0010      2.00000
      4     -26.5670      2.00000
      5     -26.5386      2.00000
      6     -26.5386      2.00000
      7      -0.2277      2.00000
      8       3.4481      2.00000
      9       3.4481      2.00000
     10       6.4099     -0.00000
     11       6.4099     -0.00000
     12       6.5751     -0.00000
     13       8.2210     -0.00000
     14       8.2210     -0.00000
     15       9.0392      0.00000
     16       9.3766      0.00000
     17       9.3766      0.00000
     18      14.0306      0.00000

 k-point 157 :       0.0385    0.0385    0.0385
  band No.  band energies     occupation 
      1     -27.0267      2.00000
      2     -27.0267      2.00000
      3     -27.0116      2.00000
      4     -26.5531      2.00000
      5     -26.5369      2.00000
      6     -26.5369      2.00000
      7      -0.2873      2.00000
      8       3.4160      2.00000
      9       3.4160      2.00000
     10       6.4312     -0.00000
     11       6.4312     -0.00000
     12       6.5239     -0.00000
     13       8.2383      0.00000
     14       8.2383      0.00000
     15       9.2136      0.00000
     16       9.4108      0.00000
     17       9.4108      0.00000
     18      14.0281      0.00000

 k-point 158 :       0.0256    0.0256    0.0256
  band No.  band energies     occupation 
      1     -27.0260      2.00000
      2     -27.0260      2.00000
      3     -27.0192      2.00000
      4     -26.5432      2.00000
      5     -26.5360      2.00000
      6     -26.5360      2.00000
      7      -0.3301      2.00000
      8       3.3930      2.00000
      9       3.3930      2.00000
     10       6.4461     -0.00000
     11       6.4461     -0.00000
     12       6.4872     -0.00000
     13       8.2488      0.00000
     14       8.2488      0.00000
     15       9.3457      0.00000
     16       9.4360      0.00000
     17       9.4360      0.00000
     18      14.0250      0.00000

 k-point 159 :       0.0128    0.0128    0.0128
  band No.  band energies     occupation 
      1     -27.0256      2.00000
      2     -27.0256      2.00000
      3     -27.0239      2.00000
      4     -26.5372      2.00000
      5     -26.5354      2.00000
      6     -26.5354      2.00000
      7      -0.3560      2.00000
      8       3.3790      2.00000
      9       3.3790      2.00000
     10       6.4549     -0.00000
     11       6.4549     -0.00000
     12       6.4652     -0.00000
     13       8.2555      0.00000
     14       8.2555      0.00000
     15       9.4284      0.00000
     16       9.4513      0.00000
     17       9.4513      0.00000
     18      14.0228      0.00000

 k-point 160 :       0.0000    0.0000    0.0000
  band No.  band energies     occupation 
      1     -27.0254      2.00000
      2     -27.0254      2.00000
      3     -27.0254      2.00000
      4     -26.5352      2.00000
      5     -26.5352      2.00000
      6     -26.5352      2.00000
      7      -0.3646      2.00000
      8       3.3744      2.00000
      9       3.3744      2.00000
     10       6.4578     -0.00000
     11       6.4578     -0.00000
     12       6.4578     -0.00000
     13       8.2577      0.00000
     14       8.2577      0.00000
     15       9.4565      0.00000
     16       9.4565      0.00000
     17       9.4565      0.00000
     18      14.0221      0.00000


--------------------------------------------------------------------------------------------------------


 soft charge-density along one line, spin component           1
         0         1         2         3         4         5         6         7         8         9
x     0.0000    0.0000    0.0000    0.0000    0.0000    0.0000    0.0000    0.0000    0.0000
y     0.0000    0.0000    0.0000    0.0000    0.0000    0.0000    0.0000    0.0000    0.0000
z     0.0000    0.0000    0.0000    0.0000    0.0000    0.0000    0.0000    0.0000    0.0000
 total charge-density along one line
x    20.0000    0.0000    5.4199    0.0000    0.1290    0.0000   -0.0188    0.0000   -0.0013    0.0000
x     0.0012    0.0000   -0.0004    0.0000   -0.0000    0.0000    0.0002
y    20.0000    0.0000    5.4199    0.0000    0.1290    0.0000   -0.0188    0.0000   -0.0013    0.0000
y     0.0012    0.0000   -0.0004    0.0000   -0.0000    0.0000    0.0002
z    20.0000    0.0000    5.4199    0.0000    0.1290    0.0000   -0.0188    0.0000   -0.0013    0.0000
z     0.0012    0.0000   -0.0004    0.0000   -0.0000    0.0000    0.0002

 pseudopotential strength for first ion, spin component:           1
-28.718   0.000   0.000  12.868  -0.000  -0.000  -0.000   0.000
  0.000 -28.718   0.000  -0.000  12.868  -0.000  -0.000   0.000
  0.000   0.000 -28.718  -0.000  -0.000  12.868   0.000  -0.000
 12.868  -0.000  -0.000  -0.721   0.000   0.000   0.000  -0.000
 -0.000  12.868  -0.000   0.000  -0.721   0.000   0.000  -0.000
 -0.000  -0.000  12.868   0.000   0.000  -0.721  -0.000   0.000
 -0.000  -0.000   0.000   0.000   0.000  -0.000  -2.906   0.000
  0.000   0.000  -0.000  -0.000  -0.000   0.000   0.000  -2.906
  0.000   0.000   0.000   0.000  -0.000  -0.000  -0.000   0.000
 -0.000  -0.000   0.000   0.000   0.000  -0.000   0.000   0.000
  0.000   0.000  -0.000  -0.000  -0.000   0.000  -0.000  -0.000
 -0.000  -0.000   0.000   0.000   0.000  -0.000   0.529   0.000
  0.000   0.000  -0.000  -0.000  -0.000   0.000   0.000   0.529
  0.000   0.000   0.000   0.000  -0.000  -0.000  -0.000   0.000
 -0.000  -0.000   0.000   0.000   0.000  -0.000   0.000   0.000
  0.000   0.000  -0.000  -0.000  -0.000   0.000  -0.000  -0.000
 -0.000  -0.000   0.000   0.000   0.000  -0.000  -0.000  -0.000
  0.000   0.000  -0.000  -0.000  -0.000   0.000   0.000   0.000
 total augmentation occupancy for first ion, spin component:           1
  1.982  -0.000  -0.000  -0.000  -0.000  -0.000  -0.000   0.000   0.000   0.000   0.000   0.000  -0.000  -0.000   0.000   0.000
 -0.000   1.980  -0.000  -0.000  -0.008  -0.000   0.000   0.000  -0.000  -0.000   0.000  -0.000  -0.000   0.000   0.000   0.000
 -0.000  -0.000   1.987  -0.000  -0.000   0.029   0.000  -0.000  -0.000  -0.000   0.000  -0.000  -0.000   0.000   0.000   0.000
 -0.000  -0.000  -0.000   0.117  -0.000  -0.000   0.000  -0.000   0.000  -0.000  -0.000   0.000  -0.000   0.000  -0.000   0.000
 -0.000  -0.008  -0.000  -0.000   0.106  -0.000  -0.000   0.000  -0.000   0.000   0.000  -0.000   0.000  -0.000   0.000  -0.000
 -0.000  -0.000   0.029  -0.000  -0.000   0.239  -0.000   0.000   0.000   0.000  -0.000   0.000  -0.000   0.000  -0.000  -0.000
 -0.000   0.000   0.000   0.000  -0.000  -0.000   0.659  -0.003   0.012  -0.003  -0.000  -0.371  -0.004  -0.007  -0.004   0.000
  0.000   0.000  -0.000  -0.000   0.000   0.000  -0.003   0.634  -0.006  -0.003   0.011  -0.004  -0.246   0.003  -0.004  -0.006
  0.000  -0.000  -0.000   0.000  -0.000   0.000   0.012  -0.006   0.634  -0.006   0.068  -0.007   0.004  -0.377   0.004  -0.003
  0.000  -0.000  -0.000  -0.000   0.000   0.000  -0.003  -0.003  -0.006   0.642  -0.011  -0.004  -0.004   0.003  -0.249   0.006
  0.000   0.000   0.000  -0.000   0.000  -0.000  -0.000   0.011   0.068  -0.011   0.430   0.000  -0.006  -0.002   0.006  -0.261
  0.000  -0.000  -0.000   0.000  -0.000   0.000  -0.371  -0.004  -0.007  -0.004   0.000   0.233   0.004   0.004   0.004  -0.000
 -0.000  -0.000  -0.000  -0.000   0.000  -0.000  -0.004  -0.246   0.004  -0.004  -0.006   0.004   0.100  -0.002   0.004   0.003
 -0.000   0.000   0.000   0.000  -0.000   0.000  -0.007   0.003  -0.377   0.003  -0.002   0.004  -0.002   0.246  -0.002  -0.015
  0.000   0.000   0.000  -0.000   0.000  -0.000  -0.004  -0.004   0.004  -0.249   0.006   0.004   0.004  -0.002   0.103  -0.003
  0.000   0.000   0.000   0.000  -0.000  -0.000   0.000  -0.006  -0.003   0.006  -0.261  -0.000   0.003  -0.015  -0.003   0.172
  0.000   0.000   0.000   0.000   0.000  -0.000  -0.005  -0.005   0.336  -0.005  -0.197   0.013   0.013  -0.267   0.013   0.156
  0.000   0.000   0.000   0.000   0.000  -0.000   0.001   0.001  -0.005   0.001   0.003  -0.001  -0.001   0.004  -0.001  -0.003


------------------------ aborting loop because EDIFF is reached ----------------------------------------





 total charge     

# of ion     s       p       d       tot
----------------------------------------
  1        0.311   6.181   2.179   8.671
  2        0.311   6.181   2.179   8.671
------------------------------------------------
tot        0.622  12.363   4.357  17.342



--------------------------------------------------------------------------------------------------------


    CHARGE:  VPU time    0.46: CPU time    0.46
    FORLOC:  VPU time    0.00: CPU time    0.00
    FORNL :  VPU time    0.86: CPU time    0.86
    STRESS:  VPU time    2.25: CPU time    2.25
    FORCOR:  VPU time    0.02: CPU time    0.02
    FORHAR:  VPU time    0.01: CPU time    0.02


--------------------------------------------------------------------------------------------------------



  FREE ENERGIE OF THE ION-ELECTRON SYSTEM (eV)
  ---------------------------------------------------
  free  energy   TOTEN  =       -17.641588 eV

  energy  without entropy=      -17.640153  energy(sigma->0) =      -17.641110


  FORCE on cell =-STRESS in cart. coord.  units (eV/reduce length):
  Direction    X        Y        Z        XY       YZ       ZX
  --------------------------------------------------------------------------------------
  Alpha Z    125.00    125.00    125.00
  Ewald     -536.95   -536.95   -536.95     -0.00     -0.00     -0.00
  Hartree    132.17    132.17    132.17     -0.00     -0.00     -0.00
  E(xc)      -92.34    -92.34    -92.34     -0.00      0.00     -0.00
  Local      136.36    136.36    136.36      0.00     -0.00     -0.00
  n-local    -59.27    -57.18    -51.05      0.07      0.07      0.07
  augment     99.21     99.21     99.21      0.00      0.00      0.00
  Kinetic    186.78    185.91    195.08     -0.18     -0.18     -0.18
  -------------------------------------------------------------------------------------
  Total       -3.12     -3.12     -3.12     -0.00     -0.00     -0.00
  in kB     -145.14   -145.14   -145.14     -0.00     -0.00     -0.00
  external pressure =     -145.14 kB  Pullay stress =        0.00 kB


 VOLUME and BASIS-vectors are now :
 -----------------------------------------------------------------------------
  energy-cutoff  :      222.44
  volume of cell :       34.43
      direct lattice vectors                 reciprocal lattice vectors
     3.253200000  0.000000000  0.000000000     0.307389647  0.000000000  0.000000000
     0.000000000  3.253200000  0.000000000     0.000000000  0.307389647  0.000000000
     0.000000000  0.000000000  3.253200000     0.000000000  0.000000000  0.307389647

  length of vectors
     3.253200000  3.253200000  3.253200000     0.307389647  0.307389647  0.307389647


 FORCES acting on ions
    electron-ion (+dipol)            ewald-force                    non-local-force                 convergence-correction
 -----------------------------------------------------------------------------------------------
   -.407E-13 0.869E-14 0.101E-13   -.684E-14 0.885E-15 -.190E-14   0.517E-25 0.000E+00 0.000E+00   0.106E-14 -.278E-14 0.134E-13
   0.693E-13 0.118E-12 0.120E-12   0.680E-14 -.154E-16 0.321E-14   0.000E+00 0.000E+00 0.000E+00   0.107E-14 -.616E-14 0.115E-13
 -----------------------------------------------------------------------------------------------
   0.286E-13 0.127E-12 0.130E-12   -.372E-16 0.870E-15 0.130E-14   0.517E-25 0.000E+00 0.000E+00   0.213E-14 -.894E-14 0.249E-13


 POSITION                                       TOTAL-FORCE (eV/Angst)
 -----------------------------------------------------------------------------------
      0.00000      0.00000      0.00000         0.000000      0.000000      0.000000
      1.62660      1.62660      1.62660         0.000000      0.000000      0.000000
 -----------------------------------------------------------------------------------
    total drift:                                0.000000      0.000000      0.000000


--------------------------------------------------------------------------------------------------------



 mean value of Nose-termostat <S>:     1.000 mean value of <T> :     0.000
 mean temperature <T/S>/<1/S>  :     0.000

 writing wavefunctions
     LOOP+:  VPU time   47.14: CPU time   47.16



 total charge     

# of ion     s       p       d       tot
----------------------------------------
  1        0.311   6.181   2.179   8.671
  2        0.311   6.181   2.179   8.671
------------------------------------------------
tot        0.622  12.363   4.357  17.342

  
  
 General timing and accounting informations for this job:
 ========================================================
  
                  Total CPU time used (sec):       48.809
                            User time (sec):       48.750
                          System time (sec):        0.059
                         Elapsed time (sec):       48.825
  
                   Maximum memory used (kb):       30028.
                   Average memory used (kb):           0.
  
                          Minor page faults:         4095
                          Major page faults:            0
                 Voluntary context switches:            1
