PROCAR lm decomposed + phase
# of k-points:  160         # of bands:  18         # of ions:   2

 k-point    1 :    0.00000000 0.00000000 0.00000000     weight = 0.00625000

band   1 # energy  -27.02542451 # occ.  2.00000000

ion      s     py     pz     px    dxy    dyz    dz2    dxz    dx2    tot
  1  0.000  0.493  0.000  0.000  0.000  0.000  0.000  0.000  0.000  0.493
  2  0.000  0.493  0.000  0.000  0.000  0.000  0.000  0.000  0.000  0.493
tot  0.000  0.985  0.000  0.000  0.000  0.000  0.000  0.000  0.000  0.985
ion      s     py     pz     px    dxy    dyz    dz2    dxz    dx2
  1 -0.000 -1.199  0.000 -0.000 -0.000  0.000  0.000  0.000  0.000
  1  0.000  0.746  0.000  0.000  0.000 -0.000  0.000 -0.000 -0.000
  2  0.000  1.199 -0.000  0.000 -0.000  0.000 -0.000  0.000  0.000
  2 -0.000 -0.746 -0.000 -0.000  0.000 -0.000 -0.000 -0.000  0.000

band   2 # energy  -27.02542450 # occ.  2.00000000

ion      s     py     pz     px    dxy    dyz    dz2    dxz    dx2    tot
  1  0.000  0.000  0.493  0.000  0.000  0.000  0.000  0.000  0.000  0.493
  2  0.000  0.000  0.493  0.000  0.000  0.000  0.000  0.000  0.000  0.493
tot  0.000  0.000  0.985  0.000  0.000  0.000  0.000  0.000  0.000  0.985
ion      s     py     pz     px    dxy    dyz    dz2    dxz    dx2
  1 -0.000  0.000 -1.388  0.000 -0.000  0.000  0.000 -0.000 -0.000
  1 -0.000  0.000  0.263  0.000  0.000 -0.000 -0.000  0.000  0.000
  2  0.000 -0.000  1.388 -0.000  0.000 -0.000  0.000 -0.000  0.000
  2  0.000 -0.000 -0.263 -0.000  0.000 -0.000  0.000 -0.000 -0.000

band   3 # energy  -27.02542397 # occ.  2.00000000

ion      s     py     pz     px    dxy    dyz    dz2    dxz    dx2    tot
  1  0.000  0.000  0.000  0.493  0.000  0.000  0.000  0.000  0.000  0.493
  2  0.000  0.000  0.000  0.493  0.000  0.000  0.000  0.000  0.000  0.493
tot  0.000  0.000  0.000  0.985  0.000  0.000  0.000  0.000  0.000  0.985
ion      s     py     pz     px    dxy    dyz    dz2    dxz    dx2
  1  0.000 -0.000  0.000  0.911  0.000 -0.000  0.000  0.000 -0.000
  1  0.000  0.000 -0.000 -1.079  0.000 -0.000  0.000  0.000 -0.000
  2 -0.000  0.000 -0.000 -0.911  0.000 -0.000 -0.000 -0.000  0.000
  2 -0.000 -0.000  0.000  1.079 -0.000  0.000 -0.000  0.000  0.000

band   4 # energy  -26.53521837 # occ.  2.00000000

ion      s     py     pz     px    dxy    dyz    dz2    dxz    dx2    tot
  1  0.000  0.498  0.000  0.000  0.000  0.000  0.000  0.000  0.000  0.498
  2  0.000  0.498  0.000  0.000  0.000  0.000  0.000  0.000  0.000  0.498
tot  0.000  0.997  0.000  0.000  0.000  0.000  0.000  0.000  0.000  0.997
ion      s     py     pz     px    dxy    dyz    dz2    dxz    dx2
  1 -0.000  1.393  0.000  0.000  0.000  0.000 -0.000  0.000 -0.000
  1 -0.000 -0.108 -0.000  0.000  0.000 -0.000  0.000  0.000  0.000
  2  0.000  1.393  0.000  0.000  0.000  0.000 -0.000 -0.000 -0.000
  2 -0.000 -0.108 -0.000  0.000  0.000 -0.000  0.000  0.000  0.000

band   5 # energy  -26.53521836 # occ.  2.00000000

ion      s     py     pz     px    dxy    dyz    dz2    dxz    dx2    tot
  1  0.000  0.000  0.498  0.000  0.000  0.000  0.000  0.000  0.000  0.498
  2  0.000  0.000  0.498  0.000  0.000  0.000  0.000  0.000  0.000  0.498
tot  0.000  0.000  0.997  0.000  0.000  0.000  0.000  0.000  0.000  0.997
ion      s     py     pz     px    dxy    dyz    dz2    dxz    dx2
  1  0.000  0.000  0.735  0.000 -0.000 -0.000  0.000  0.000  0.000
  1  0.000 -0.000  1.189 -0.000  0.000  0.000  0.000 -0.000  0.000
  2 -0.000  0.000  0.735  0.000 -0.000 -0.000  0.000 -0.000  0.000
  2 -0.000 -0.000  1.189 -0.000  0.000  0.000  0.000 -0.000  0.000

band   6 # energy  -26.53521781 # occ.  2.00000000

ion      s     py     pz     px    dxy    dyz    dz2    dxz    dx2    tot
  1  0.000  0.000  0.000  0.498  0.000  0.000  0.000  0.000  0.000  0.498
  2  0.000  0.000  0.000  0.498  0.000  0.000  0.000  0.000  0.000  0.498
tot  0.000  0.000  0.000  0.997  0.000  0.000  0.000  0.000  0.000  0.997
ion      s     py     pz     px    dxy    dyz    dz2    dxz    dx2
  1 -0.000  0.000 -0.000 -0.895  0.000 -0.000  0.000  0.000 -0.000
  1  0.000 -0.000  0.000 -1.074 -0.000 -0.000 -0.000 -0.000  0.000
  2  0.000  0.000 -0.000 -0.895  0.000  0.000  0.000  0.000 -0.000
  2 -0.000 -0.000  0.000 -1.074 -0.000 -0.000 -0.000 -0.000  0.000

band   7 # energy   -0.36455086 # occ.  2.00000000

ion      s     py     pz     px    dxy    dyz    dz2    dxz    dx2    tot
  1  0.231  0.000  0.000  0.000  0.000  0.000  0.000  0.000  0.000  0.231
  2  0.231  0.000  0.000  0.000  0.000  0.000  0.000  0.000  0.000  0.231
tot  0.463  0.000  0.000  0.000  0.000  0.000  0.000  0.000  0.000  0.463
ion      s     py     pz     px    dxy    dyz    dz2    dxz    dx2
  1 -1.445  0.000 -0.000 -0.000  0.000 -0.000 -0.000 -0.000  0.000
  1 -1.505  0.000  0.000  0.000  0.000  0.000 -0.000  0.000  0.000
  2 -1.445 -0.000  0.000 -0.000  0.000  0.000 -0.000 -0.000  0.000
  2 -1.505  0.000  0.000  0.000  0.000  0.000 -0.000  0.000  0.000

band   8 # energy    3.37438987 # occ.  2.00000000

ion      s     py     pz     px    dxy    dyz    dz2    dxz    dx2    tot
  1  0.000  0.000  0.000  0.000  0.000  0.000  0.260  0.000  0.088  0.348
  2  0.000  0.000  0.000  0.000  0.000  0.000  0.260  0.000  0.088  0.348
tot  0.000  0.000  0.000  0.000  0.000  0.000  0.520  0.000  0.176  0.696
ion      s     py     pz     px    dxy    dyz    dz2    dxz    dx2
  1  0.000 -0.000  0.000 -0.000 -0.000  0.000  0.567  0.000  0.330
  1  0.000  0.000 -0.000  0.000  0.000  0.000  1.067 -0.000  0.621
  2 -0.000  0.000 -0.000 -0.000 -0.000  0.000 -0.567  0.000 -0.330
  2 -0.000 -0.000  0.000  0.000  0.000  0.000 -1.067 -0.000 -0.621

band   9 # energy    3.37439052 # occ.  2.00000000

ion      s     py     pz     px    dxy    dyz    dz2    dxz    dx2    tot
  1  0.000  0.000  0.000  0.000  0.000  0.000  0.088  0.000  0.260  0.348
  2  0.000  0.000  0.000  0.000  0.000  0.000  0.088  0.000  0.260  0.348
tot  0.000  0.000  0.000  0.000  0.000  0.000  0.176  0.000  0.520  0.696
ion      s     py     pz     px    dxy    dyz    dz2    dxz    dx2
  1 -0.000 -0.000  0.000  0.000  0.000  0.000 -0.559  0.000  0.960
  1  0.000 -0.000 -0.000  0.000 -0.000 -0.000  0.427  0.000 -0.733
  2  0.000  0.000 -0.000 -0.000 -0.000 -0.000  0.559  0.000 -0.960
  2 -0.000  0.000  0.000 -0.000 -0.000 -0.000 -0.427 -0.000  0.733

band  10 # energy    6.45781286 # occ. -0.00000000

ion      s     py     pz     px    dxy    dyz    dz2    dxz    dx2    tot
  1  0.000  0.000  0.000  0.000  0.000  0.456  0.000  0.000  0.000  0.456
  2  0.000  0.000  0.000  0.000  0.000  0.456  0.000  0.000  0.000  0.456
tot  0.000  0.000  0.000  0.000  0.000  0.913  0.000  0.000  0.000  0.913
ion      s     py     pz     px    dxy    dyz    dz2    dxz    dx2
  1 -0.000 -0.000 -0.000  0.000  0.000  1.409 -0.000 -0.000  0.000
  1 -0.000  0.000 -0.000 -0.000  0.000 -0.639  0.000  0.000 -0.000
  2  0.000  0.000  0.000 -0.000  0.000  1.409 -0.000 -0.000  0.000
  2 -0.000 -0.000  0.000  0.000  0.000 -0.639  0.000  0.000 -0.000

band  11 # energy    6.45781317 # occ. -0.00000000

ion      s     py     pz     px    dxy    dyz    dz2    dxz    dx2    tot
  1  0.000  0.000  0.000  0.000  0.456  0.000  0.000  0.000  0.000  0.456
  2  0.000  0.000  0.000  0.000  0.456  0.000  0.000  0.000  0.000  0.456
tot  0.000  0.000  0.000  0.000  0.913  0.000  0.000  0.000  0.000  0.913
ion      s     py     pz     px    dxy    dyz    dz2    dxz    dx2
  1  0.000 -0.000 -0.000 -0.000 -1.465  0.000  0.000 -0.000 -0.000
  1  0.000 -0.000 -0.000 -0.000 -0.497 -0.000  0.000  0.000 -0.000
  2  0.000  0.000  0.000 -0.000 -1.465  0.000  0.000 -0.000 -0.000
  2 -0.000  0.000  0.000  0.000 -0.497 -0.000  0.000  0.000 -0.000

band  12 # energy    6.45781317 # occ. -0.00000000

ion      s     py     pz     px    dxy    dyz    dz2    dxz    dx2    tot
  1  0.000  0.000  0.000  0.000  0.000  0.000  0.000  0.456  0.000  0.456
  2  0.000  0.000  0.000  0.000  0.000  0.000  0.000  0.456  0.000  0.456
tot  0.000  0.000  0.000  0.000  0.000  0.000  0.000  0.913  0.000  0.913
ion      s     py     pz     px    dxy    dyz    dz2    dxz    dx2
  1  0.000  0.000 -0.000 -0.000  0.000 -0.000  0.000 -1.074 -0.000
  1 -0.000 -0.000  0.000 -0.000  0.000  0.000 -0.000  1.114 -0.000
  2 -0.000 -0.000  0.000  0.000  0.000 -0.000  0.000 -1.074 -0.000
  2  0.000  0.000 -0.000  0.000  0.000  0.000 -0.000  1.114  0.000

band  13 # energy    8.25773382 # occ.  0.00000000

ion      s     py     pz     px    dxy    dyz    dz2    dxz    dx2    tot
  1  0.000  0.000  0.000  0.000  0.000  0.000  0.346  0.000  0.119  0.464
  2  0.000  0.000  0.000  0.000  0.000  0.000  0.346  0.000  0.119  0.464
tot  0.000  0.000  0.000  0.000  0.000  0.000  0.691  0.000  0.237  0.929
ion      s     py     pz     px    dxy    dyz    dz2    dxz    dx2
  1 -0.000  0.000 -0.000  0.000 -0.000  0.000  0.268 -0.000  0.157
  1 -0.000 -0.000 -0.000 -0.000  0.000  0.000 -1.274 -0.000 -0.747
  2  0.000 -0.000  0.000 -0.000  0.000 -0.000  0.268  0.000  0.157
  2 -0.000  0.000  0.000  0.000 -0.000 -0.000 -1.274  0.000 -0.747

band  14 # energy    8.25773446 # occ.  0.00000000

ion      s     py     pz     px    dxy    dyz    dz2    dxz    dx2    tot
  1  0.000  0.000  0.000  0.000  0.000  0.000  0.119  0.000  0.346  0.464
  2  0.000  0.000  0.000  0.000  0.000  0.000  0.119  0.000  0.346  0.464
tot  0.000  0.000  0.000  0.000  0.000  0.000  0.237  0.000  0.691  0.929
ion      s     py     pz     px    dxy    dyz    dz2    dxz    dx2
  1  0.000 -0.000  0.000  0.000 -0.000 -0.000  0.652  0.000 -1.112
  1 -0.000  0.000  0.000  0.000 -0.000  0.000  0.397  0.000 -0.677
  2  0.000  0.000 -0.000 -0.000  0.000  0.000  0.652 -0.000 -1.112
  2 -0.000 -0.000 -0.000 -0.000  0.000 -0.000  0.397 -0.000 -0.677

band  15 # energy    9.45651924 # occ.  0.00000000

ion      s     py     pz     px    dxy    dyz    dz2    dxz    dx2    tot
  1  0.000  0.000  0.000  0.000  0.000  0.489  0.000  0.000  0.000  0.489
  2  0.000  0.000  0.000  0.000  0.000  0.489  0.000  0.000  0.000  0.489
tot  0.000  0.000  0.000  0.000  0.000  0.978  0.000  0.000  0.000  0.978
ion      s     py     pz     px    dxy    dyz    dz2    dxz    dx2
  1  0.000  0.000 -0.000  0.000  0.000 -0.106  0.000 -0.000 -0.000
  1  0.000  0.000 -0.000  0.000 -0.000  1.493  0.000 -0.000 -0.000
  2  0.000 -0.000  0.000 -0.000 -0.000  0.106  0.000  0.000 -0.000
  2  0.000 -0.000  0.000 -0.000  0.000 -1.493 -0.000  0.000 -0.000

band  16 # energy    9.45651960 # occ.  0.00000000

ion      s     py     pz     px    dxy    dyz    dz2    dxz    dx2    tot
  1  0.000  0.000  0.000  0.000  0.489  0.000  0.000  0.000  0.000  0.489
  2  0.000  0.000  0.000  0.000  0.489  0.000  0.000  0.000  0.000  0.489
tot  0.000  0.000  0.000  0.000  0.978  0.000  0.000  0.000  0.000  0.978
ion      s     py     pz     px    dxy    dyz    dz2    dxz    dx2
  1 -0.000 -0.000  0.000 -0.000 -0.216 -0.000  0.000 -0.000 -0.000
  1  0.000  0.000  0.000  0.000 -1.481 -0.000  0.000 -0.003 -0.000
  2 -0.000  0.000 -0.000  0.000  0.216  0.000  0.000  0.000 -0.000
  2 -0.000 -0.000 -0.000 -0.000  1.481  0.000  0.000  0.003 -0.000

band  17 # energy    9.45651961 # occ.  0.00000000

ion      s     py     pz     px    dxy    dyz    dz2    dxz    dx2    tot
  1  0.000  0.000  0.000  0.000  0.000  0.000  0.000  0.489  0.000  0.489
  2  0.000  0.000  0.000  0.000  0.000  0.000  0.000  0.489  0.000  0.489
tot  0.000  0.000  0.000  0.000  0.000  0.000  0.000  0.978  0.000  0.978
ion      s     py     pz     px    dxy    dyz    dz2    dxz    dx2
  1 -0.000 -0.000  0.000  0.000 -0.001 -0.000 -0.000  0.314 -0.000
  1 -0.000  0.000  0.000  0.000 -0.003  0.000  0.000  1.463 -0.000
  2  0.000  0.000 -0.000 -0.000  0.001  0.000 -0.000 -0.314  0.000
  2 -0.000 -0.000 -0.000 -0.000  0.003 -0.000  0.000 -1.463 -0.000

band  18 # energy   14.02206274 # occ.  0.00000000

ion      s     py     pz     px    dxy    dyz    dz2    dxz    dx2    tot
  1  0.000  0.252  0.007  0.011  0.000  0.000  0.000  0.000  0.000  0.270
  2  0.000  0.252  0.007  0.011  0.000  0.000  0.000  0.000  0.000  0.270
tot  0.000  0.505  0.013  0.022  0.000  0.000  0.000  0.000  0.000  0.540
ion      s     py     pz     px    dxy    dyz    dz2    dxz    dx2
  1  0.000  0.393  0.014 -0.047 -0.000  0.000  0.000  0.000 -0.000
  1 -0.000 -0.126  0.066  0.072  0.000  0.000  0.000 -0.000 -0.000
  2 -0.000 -0.393 -0.014  0.047  0.000  0.000 -0.000  0.000  0.000
  2  0.000  0.126 -0.066 -0.072  0.000  0.000 -0.000  0.000  0.000


 k-point    2 :    0.01282051 0.00000000 0.00000000     weight = 0.00625000

band   1 # energy  -27.02543280 # occ.  2.00000000

ion      s     py     pz     px    dxy    dyz    dz2    dxz    dx2    tot
  1  0.000  0.000  0.000  0.493  0.000  0.000  0.000  0.000  0.000  0.493
  2  0.000  0.000  0.000  0.493  0.000  0.000  0.000  0.000  0.000  0.493
tot  0.000  0.000  0.000  0.985  0.000  0.000  0.000  0.000  0.000  0.985
ion      s     py     pz     px    dxy    dyz    dz2    dxz    dx2
  1  0.000 -0.000 -0.000 -1.402 -0.000 -0.000  0.000  0.000 -0.000
  1 -0.002  0.000 -0.000 -0.171 -0.000 -0.000 -0.001 -0.000  0.001
  2 -0.000  0.000  0.000  1.402 -0.000 -0.000 -0.000 -0.000  0.000
  2  0.002 -0.000  0.000  0.171 -0.000 -0.000  0.001  0.000 -0.001

band   2 # energy  -27.02521180 # occ.  2.00000000

ion      s     py     pz     px    dxy    dyz    dz2    dxz    dx2    tot
  1  0.000  0.493  0.000  0.000  0.000  0.000  0.000  0.000  0.000  0.493
  2  0.000  0.493  0.000  0.000  0.000  0.000  0.000  0.000  0.000  0.493
tot  0.000  0.985  0.000  0.000  0.000  0.000  0.000  0.000  0.000  0.985
ion      s     py     pz     px    dxy    dyz    dz2    dxz    dx2
  1 -0.000  1.410 -0.000 -0.000  0.000 -0.000  0.000  0.000 -0.000
  1 -0.000 -0.087 -0.000 -0.000  0.001 -0.000 -0.000 -0.000  0.000
  2 -0.000 -1.410  0.000  0.000 -0.000 -0.000 -0.000 -0.000  0.000
  2  0.000  0.087  0.000  0.000 -0.001 -0.000  0.000  0.000 -0.000

band   3 # energy  -27.02521179 # occ.  2.00000000

ion      s     py     pz     px    dxy    dyz    dz2    dxz    dx2    tot
  1  0.000  0.000  0.493  0.000  0.000  0.000  0.000  0.000  0.000  0.493
  2  0.000  0.000  0.493  0.000  0.000  0.000  0.000  0.000  0.000  0.493
tot  0.000  0.000  0.985  0.000  0.000  0.000  0.000  0.000  0.000  0.985
ion      s     py     pz     px    dxy    dyz    dz2    dxz    dx2
  1  0.000  0.000  1.369 -0.000  0.000  0.000  0.000 -0.000 -0.000
  1 -0.000 -0.000  0.346 -0.000  0.000 -0.000 -0.000  0.001  0.000
  2  0.000 -0.000 -1.369  0.000 -0.000 -0.000 -0.000  0.000  0.000
  2  0.000  0.000 -0.346  0.000 -0.000 -0.000  0.000 -0.001 -0.000

band   4 # energy  -26.53563607 # occ.  2.00000000

ion      s     py     pz     px    dxy    dyz    dz2    dxz    dx2    tot
  1  0.000  0.000  0.000  0.498  0.000  0.000  0.000  0.000  0.000  0.498
  2  0.000  0.000  0.000  0.498  0.000  0.000  0.000  0.000  0.000  0.498
tot  0.000  0.000  0.000  0.997  0.000  0.000  0.000  0.000  0.000  0.997
ion      s     py     pz     px    dxy    dyz    dz2    dxz    dx2
  1 -0.004  0.000  0.000 -0.066  0.000 -0.000  0.000  0.000 -0.000
  1  0.000 -0.000 -0.000 -1.396  0.000 -0.000 -0.000  0.000  0.000
  2 -0.004  0.000  0.000 -0.066  0.000 -0.000  0.000  0.000 -0.000
  2  0.000 -0.000 -0.000 -1.396  0.000 -0.000 -0.000  0.000  0.000

band   5 # energy  -26.53540251 # occ.  2.00000000

ion      s     py     pz     px    dxy    dyz    dz2    dxz    dx2    tot
  1  0.000  0.498  0.000  0.000  0.000  0.000  0.000  0.000  0.000  0.498
  2  0.000  0.498  0.000  0.000  0.000  0.000  0.000  0.000  0.000  0.498
tot  0.000  0.997  0.000  0.000  0.000  0.000  0.000  0.000  0.000  0.997
ion      s     py     pz     px    dxy    dyz    dz2    dxz    dx2
  1 -0.000  1.357 -0.000 -0.000 -0.000 -0.000  0.000  0.000 -0.000
  1 -0.000 -0.335  0.000  0.000 -0.001 -0.000  0.000  0.000 -0.000
  2 -0.000  1.357 -0.000 -0.000 -0.000 -0.000  0.000  0.000 -0.000
  2 -0.000 -0.335  0.000  0.000 -0.001 -0.000  0.000  0.000 -0.000

band   6 # energy  -26.53540250 # occ.  2.00000000

ion      s     py     pz     px    dxy    dyz    dz2    dxz    dx2    tot
  1  0.000  0.000  0.498  0.000  0.000  0.000  0.000  0.000  0.000  0.498
  2  0.000  0.000  0.498  0.000  0.000  0.000  0.000  0.000  0.000  0.498
tot  0.000  0.000  0.997  0.000  0.000  0.000  0.000  0.000  0.000  0.997
ion      s     py     pz     px    dxy    dyz    dz2    dxz    dx2
  1 -0.000  0.000  1.316 -0.000  0.000  0.000 -0.000  0.000  0.000
  1 -0.000  0.000  0.472 -0.000 -0.000  0.000  0.000 -0.001 -0.000
  2  0.000  0.000  1.316 -0.000  0.000  0.000 -0.000  0.000  0.000
  2 -0.000  0.000  0.472 -0.000 -0.000  0.000  0.000 -0.001 -0.000

band   7 # energy   -0.36169008 # occ.  2.00000000

ion      s     py     pz     px    dxy    dyz    dz2    dxz    dx2    tot
  1  0.231  0.000  0.000  0.000  0.000  0.000  0.000  0.000  0.000  0.231
  2  0.231  0.000  0.000  0.000  0.000  0.000  0.000  0.000  0.000  0.231
tot  0.463  0.000  0.000  0.000  0.000  0.000  0.000  0.000  0.000  0.463
ion      s     py     pz     px    dxy    dyz    dz2    dxz    dx2
  1 -2.072  0.000 -0.000 -0.000 -0.000 -0.000 -0.000 -0.000  0.000
  1  0.244 -0.000 -0.000 -0.003 -0.000 -0.000  0.000 -0.000 -0.000
  2 -2.072 -0.000 -0.000 -0.000 -0.000 -0.000 -0.000 -0.000  0.000
  2  0.244 -0.000 -0.000 -0.003 -0.000 -0.000  0.000 -0.000 -0.000

band   8 # energy    3.37590902 # occ.  2.00000000

ion      s     py     pz     px    dxy    dyz    dz2    dxz    dx2    tot
  1  0.000  0.000  0.000  0.000  0.000  0.000  0.087  0.000  0.261  0.348
  2  0.000  0.000  0.000  0.000  0.000  0.000  0.087  0.000  0.261  0.348
tot  0.000  0.000  0.000  0.000  0.000  0.000  0.174  0.000  0.522  0.696
ion      s     py     pz     px    dxy    dyz    dz2    dxz    dx2
  1 -0.000  0.000 -0.000  0.005 -0.000  0.000 -0.085  0.000  0.147
  1  0.001 -0.000 -0.000  0.001  0.000 -0.000  0.693 -0.000 -1.201
  2  0.000 -0.000  0.000 -0.005 -0.000  0.000  0.085 -0.000 -0.147
  2 -0.001  0.000  0.000 -0.001 -0.000 -0.000 -0.693  0.000  1.201

band   9 # energy    3.37597354 # occ.  2.00000000

ion      s     py     pz     px    dxy    dyz    dz2    dxz    dx2    tot
  1  0.000  0.000  0.000  0.000  0.000  0.000  0.261  0.000  0.087  0.348
  2  0.000  0.000  0.000  0.000  0.000  0.000  0.261  0.000  0.087  0.348
tot  0.000  0.000  0.000  0.000  0.000  0.000  0.522  0.000  0.174  0.696
ion      s     py     pz     px    dxy    dyz    dz2    dxz    dx2
  1  0.000  0.000 -0.000  0.000  0.000  0.000  0.351  0.000  0.203
  1  0.000 -0.000 -0.000 -0.000  0.000 -0.000  1.158 -0.000  0.669
  2 -0.000 -0.000  0.000 -0.000 -0.000 -0.000 -0.351 -0.000 -0.203
  2 -0.000  0.000 -0.000  0.000 -0.000  0.000 -1.158  0.000 -0.669

band  10 # energy    6.45753879 # occ. -0.00000000

ion      s     py     pz     px    dxy    dyz    dz2    dxz    dx2    tot
  1  0.000  0.000  0.000  0.000  0.456  0.000  0.000  0.000  0.000  0.456
  2  0.000  0.000  0.000  0.000  0.456  0.000  0.000  0.000  0.000  0.456
tot  0.000  0.000  0.000  0.000  0.913  0.000  0.000  0.000  0.000  0.913
ion      s     py     pz     px    dxy    dyz    dz2    dxz    dx2
  1  0.000  0.002  0.000  0.000 -0.150 -0.000  0.000  0.000 -0.000
  1  0.000 -0.000  0.000  0.000 -1.540  0.000 -0.000 -0.000  0.000
  2  0.000  0.002  0.000 -0.000 -0.150 -0.000 -0.000  0.000  0.000
  2 -0.000 -0.000  0.000 -0.000 -1.540  0.000  0.000 -0.000 -0.000

band  11 # energy    6.45753879 # occ. -0.00000000

ion      s     py     pz     px    dxy    dyz    dz2    dxz    dx2    tot
  1  0.000  0.000  0.000  0.000  0.000  0.000  0.000  0.456  0.000  0.456
  2  0.000  0.000  0.000  0.000  0.000  0.000  0.000  0.456  0.000  0.456
tot  0.000  0.000  0.000  0.000  0.000  0.000  0.000  0.913  0.000  0.913
ion      s     py     pz     px    dxy    dyz    dz2    dxz    dx2
  1 -0.000 -0.000  0.002 -0.000  0.000 -0.000  0.000  0.753 -0.000
  1  0.000  0.000  0.001  0.000  0.000  0.000  0.000 -1.352 -0.000
  2 -0.000 -0.000  0.002 -0.000  0.000 -0.000 -0.000  0.753  0.000
  2 -0.000  0.000  0.001 -0.000  0.000  0.000 -0.000 -1.352  0.000

band  12 # energy    6.45887906 # occ. -0.00000000

ion      s     py     pz     px    dxy    dyz    dz2    dxz    dx2    tot
  1  0.000  0.000  0.000  0.000  0.000  0.456  0.000  0.000  0.000  0.456
  2  0.000  0.000  0.000  0.000  0.000  0.456  0.000  0.000  0.000  0.456
tot  0.000  0.000  0.000  0.000  0.000  0.913  0.000  0.000  0.000  0.913
ion      s     py     pz     px    dxy    dyz    dz2    dxz    dx2
  1 -0.000 -0.000 -0.000  0.000  0.000  0.278  0.000 -0.000 -0.000
  1  0.000  0.000  0.000  0.000 -0.000 -1.522 -0.000 -0.000  0.000
  2  0.000 -0.000 -0.000  0.000 -0.000  0.278 -0.000  0.000  0.000
  2 -0.000  0.000  0.000 -0.000  0.000 -1.522 -0.000  0.000  0.000

band  13 # energy    8.25524473 # occ.  0.00000000

ion      s     py     pz     px    dxy    dyz    dz2    dxz    dx2    tot
  1  0.000  0.000  0.000  0.000  0.000  0.000  0.348  0.000  0.116  0.464
  2  0.000  0.000  0.000  0.000  0.000  0.000  0.348  0.000  0.116  0.464
tot  0.000  0.000  0.000  0.000  0.000  0.000  0.696  0.000  0.232  0.928
ion      s     py     pz     px    dxy    dyz    dz2    dxz    dx2
  1  0.000  0.000 -0.000  0.000 -0.000 -0.000 -0.025 -0.000 -0.014
  1 -0.000 -0.000  0.000 -0.000  0.000  0.000 -1.307 -0.000 -0.754
  2 -0.000 -0.000 -0.000  0.000  0.000  0.000 -0.025 -0.000 -0.014
  2  0.000 -0.000 -0.000  0.000 -0.000  0.000 -1.307  0.000 -0.754

band  14 # energy    8.25869189 # occ.  0.00000000

ion      s     py     pz     px    dxy    dyz    dz2    dxz    dx2    tot
  1  0.000  0.000  0.000  0.000  0.000  0.000  0.116  0.000  0.348  0.464
  2  0.000  0.000  0.000  0.000  0.000  0.000  0.116  0.000  0.348  0.464
tot  0.000  0.000  0.000  0.000  0.000  0.000  0.232  0.000  0.696  0.929
ion      s     py     pz     px    dxy    dyz    dz2    dxz    dx2
  1  0.000 -0.000 -0.000  0.000  0.000 -0.000 -0.746  0.000  1.291
  1 -0.000 -0.000 -0.000  0.001 -0.000  0.000  0.115 -0.000 -0.200
  2  0.000  0.000  0.000  0.000 -0.000 -0.000 -0.746 -0.000  1.291
  2 -0.000  0.000  0.000  0.001  0.000 -0.000  0.115  0.000 -0.200

band  15 # energy    9.45076803 # occ.  0.00000000

ion      s     py     pz     px    dxy    dyz    dz2    dxz    dx2    tot
  1  0.000  0.000  0.000  0.000  0.488  0.000  0.000  0.000  0.000  0.488
  2  0.000  0.000  0.000  0.000  0.488  0.000  0.000  0.000  0.000  0.488
tot  0.000  0.001  0.000  0.000  0.976  0.000  0.000  0.000  0.000  0.977
ion      s     py     pz     px    dxy    dyz    dz2    dxz    dx2
  1 -0.000  0.011  0.000  0.000  0.456 -0.000  0.000 -0.000 -0.000
  1  0.000 -0.003  0.000  0.000  1.425  0.000 -0.000  0.000  0.000
  2  0.000 -0.011 -0.000 -0.000 -0.456  0.000 -0.000  0.000  0.000
  2 -0.000  0.003 -0.000 -0.000 -1.425 -0.000  0.000 -0.000 -0.000

band  16 # energy    9.45076803 # occ.  0.00000000

ion      s     py     pz     px    dxy    dyz    dz2    dxz    dx2    tot
  1  0.000  0.000  0.000  0.000  0.000  0.000  0.000  0.488  0.000  0.488
  2  0.000  0.000  0.000  0.000  0.000  0.000  0.000  0.488  0.000  0.488
tot  0.000  0.000  0.001  0.000  0.000  0.000  0.000  0.976  0.000  0.977
ion      s     py     pz     px    dxy    dyz    dz2    dxz    dx2
  1 -0.000  0.000 -0.011  0.000  0.000  0.000  0.000  0.406 -0.000
  1  0.000 -0.000 -0.003  0.000  0.000  0.000 -0.000 -1.440  0.000
  2  0.000 -0.000  0.011 -0.000 -0.000 -0.000 -0.000 -0.406  0.000
  2 -0.000  0.000  0.003 -0.000 -0.000 -0.000  0.000  1.440 -0.000

band  17 # energy    9.45514237 # occ.  0.00000000

ion      s     py     pz     px    dxy    dyz    dz2    dxz    dx2    tot
  1  0.000  0.000  0.000  0.000  0.000  0.489  0.000  0.000  0.000  0.489
  2  0.000  0.000  0.000  0.000  0.000  0.489  0.000  0.000  0.000  0.489
tot  0.000  0.000  0.000  0.000  0.000  0.977  0.000  0.000  0.000  0.977
ion      s     py     pz     px    dxy    dyz    dz2    dxz    dx2
  1 -0.000 -0.000 -0.000  0.000 -0.000 -1.263 -0.000 -0.000  0.000
  1  0.000 -0.000 -0.000  0.000  0.000 -0.803 -0.000  0.000  0.000
  2 -0.000  0.000  0.000 -0.000  0.000  1.263  0.000  0.000 -0.000
  2  0.000  0.000  0.000 -0.000 -0.000  0.803  0.000 -0.000 -0.000

band  18 # energy   14.00958163 # occ.  0.00000000

ion      s     py     pz     px    dxy    dyz    dz2    dxz    dx2    tot
  1  0.001  0.000  0.000  0.269  0.000  0.000  0.000  0.000  0.000  0.270
  2  0.001  0.000  0.000  0.269  0.000  0.000  0.000  0.000  0.000  0.270
tot  0.001  0.000  0.000  0.539  0.000  0.000  0.000  0.000  0.001  0.541
ion      s     py     pz     px    dxy    dyz    dz2    dxz    dx2
  1 -0.013 -0.000  0.001  0.423  0.000  0.000  0.003  0.000 -0.004
  1  0.109  0.000  0.000  0.052  0.000  0.000 -0.021 -0.000  0.036
  2  0.013  0.000 -0.001 -0.423 -0.000 -0.000 -0.003 -0.000  0.004
  2 -0.109 -0.000 -0.000 -0.052 -0.000 -0.000  0.021  0.000 -0.036


 k-point    3 :    0.02564103 0.00000000 0.00000000     weight = 0.00625000

band   1 # energy  -27.02545087 # occ.  2.00000000

ion      s     py     pz     px    dxy    dyz    dz2    dxz    dx2    tot
  1  0.000  0.000  0.000  0.493  0.000  0.000  0.000  0.000  0.000  0.493
  2  0.000  0.000  0.000  0.493  0.000  0.000  0.000  0.000  0.000  0.493
tot  0.000  0.000  0.000  0.985  0.000  0.000  0.000  0.000  0.000  0.985
ion      s     py     pz     px    dxy    dyz    dz2    dxz    dx2
  1  0.000  0.000 -0.000  1.410 -0.000  0.000  0.000 -0.000 -0.000
  1  0.005  0.000  0.000 -0.082  0.000 -0.000  0.001 -0.000 -0.002
  2 -0.000 -0.000  0.000 -1.410 -0.000  0.000 -0.000  0.000  0.000
  2 -0.005 -0.000 -0.000  0.082  0.000 -0.000 -0.001  0.000  0.002

band   2 # energy  -27.02457250 # occ.  2.00000000

ion      s     py     pz     px    dxy    dyz    dz2    dxz    dx2    tot
  1  0.000  0.493  0.000  0.000  0.000  0.000  0.000  0.000  0.000  0.493
  2  0.000  0.493  0.000  0.000  0.000  0.000  0.000  0.000  0.000  0.493
tot  0.000  0.986  0.000  0.000  0.000  0.000  0.000  0.000  0.000  0.986
ion      s     py     pz     px    dxy    dyz    dz2    dxz    dx2
  1  0.000 -1.179  0.000  0.000 -0.001 -0.000 -0.000  0.000  0.000
  1  0.000  0.778 -0.000 -0.000 -0.002 -0.000  0.000  0.000 -0.000
  2 -0.000  1.179 -0.000 -0.000  0.001  0.000  0.000 -0.000 -0.000
  2 -0.000 -0.778  0.000  0.000  0.002  0.000 -0.000 -0.000  0.000

band   3 # energy  -27.02457249 # occ.  2.00000000

ion      s     py     pz     px    dxy    dyz    dz2    dxz    dx2    tot
  1  0.000  0.000  0.493  0.000  0.000  0.000  0.000  0.000  0.000  0.493
  2  0.000  0.000  0.493  0.000  0.000  0.000  0.000  0.000  0.000  0.493
tot  0.000  0.000  0.986  0.000  0.000  0.000  0.000  0.000  0.000  0.986
ion      s     py     pz     px    dxy    dyz    dz2    dxz    dx2
  1 -0.000  0.000  1.176 -0.000  0.000  0.000 -0.000  0.001 -0.000
  1 -0.000 -0.000 -0.782  0.000  0.000  0.000 -0.000  0.002  0.000
  2  0.000 -0.000 -1.176  0.000 -0.000  0.000 -0.000 -0.001 -0.000
  2  0.000  0.000  0.782 -0.000 -0.000  0.000  0.000 -0.002 -0.000

band   4 # energy  -26.53689245 # occ.  2.00000000

ion      s     py     pz     px    dxy    dyz    dz2    dxz    dx2    tot
  1  0.000  0.000  0.000  0.498  0.000  0.000  0.000  0.000  0.000  0.498
  2  0.000  0.000  0.000  0.498  0.000  0.000  0.000  0.000  0.000  0.498
tot  0.000  0.000  0.000  0.997  0.000  0.000  0.000  0.000  0.000  0.997
ion      s     py     pz     px    dxy    dyz    dz2    dxz    dx2
  1 -0.003  0.000  0.000 -1.303  0.000 -0.000  0.000  0.000 -0.000
  1  0.008  0.000  0.000 -0.507 -0.000 -0.000 -0.000 -0.000  0.000
  2 -0.003  0.000  0.000 -1.303  0.000 -0.000  0.000  0.000 -0.000
  2  0.008  0.000  0.000 -0.507 -0.000 -0.000 -0.000 -0.000  0.000

band   5 # energy  -26.53595636 # occ.  2.00000000

ion      s     py     pz     px    dxy    dyz    dz2    dxz    dx2    tot
  1  0.000  0.498  0.000  0.000  0.000  0.000  0.000  0.000  0.000  0.498
  2  0.000  0.498  0.000  0.000  0.000  0.000  0.000  0.000  0.000  0.498
tot  0.000  0.997  0.000  0.000  0.000  0.000  0.000  0.000  0.000  0.997
ion      s     py     pz     px    dxy    dyz    dz2    dxz    dx2
  1 -0.000  1.398 -0.000  0.000  0.000 -0.000  0.000  0.000 -0.000
  1 -0.000  0.015  0.000 -0.000 -0.002  0.000  0.000  0.000 -0.000
  2  0.000  1.398 -0.000  0.000  0.000 -0.000  0.000  0.000 -0.000
  2  0.000  0.015  0.000 -0.000 -0.002  0.000  0.000  0.000 -0.000

band   6 # energy  -26.53595635 # occ.  2.00000000

ion      s     py     pz     px    dxy    dyz    dz2    dxz    dx2    tot
  1  0.000  0.000  0.498  0.000  0.000  0.000  0.000  0.000  0.000  0.498
  2  0.000  0.000  0.498  0.000  0.000  0.000  0.000  0.000  0.000  0.498
tot  0.000  0.000  0.997  0.000  0.000  0.000  0.000  0.000  0.000  0.997
ion      s     py     pz     px    dxy    dyz    dz2    dxz    dx2
  1 -0.000 -0.000 -0.456  0.000  0.000  0.000 -0.000  0.002  0.000
  1  0.000  0.000  1.321  0.000  0.000 -0.000  0.000  0.001 -0.000
  2 -0.000 -0.000 -0.456  0.000  0.000  0.000 -0.000  0.002  0.000
  2 -0.000  0.000  1.321  0.000  0.000 -0.000  0.000  0.001 -0.000

band   7 # energy   -0.35308205 # occ.  2.00000000

ion      s     py     pz     px    dxy    dyz    dz2    dxz    dx2    tot
  1  0.231  0.000  0.000  0.000  0.000  0.000  0.000  0.000  0.000  0.231
  2  0.231  0.000  0.000  0.000  0.000  0.000  0.000  0.000  0.000  0.231
tot  0.462  0.000  0.000  0.001  0.000  0.000  0.000  0.000  0.000  0.463
ion      s     py     pz     px    dxy    dyz    dz2    dxz    dx2
  1 -0.292  0.000  0.000  0.006  0.000 -0.000 -0.000 -0.000  0.000
  1 -2.065  0.000  0.000 -0.001 -0.000  0.000 -0.001 -0.000  0.001
  2 -0.292  0.000  0.000  0.006  0.000 -0.000 -0.000 -0.000  0.000
  2 -2.065  0.000  0.000 -0.001 -0.000  0.000 -0.001 -0.000  0.001

band   8 # energy    3.38045116 # occ.  2.00000000

ion      s     py     pz     px    dxy    dyz    dz2    dxz    dx2    tot
  1  0.000  0.000  0.000  0.000  0.000  0.000  0.087  0.000  0.261  0.348