<?xml version="1.0" encoding="ISO-8859-1"?>
<modeling>
 <generator>
  <i name="program" type="string">vasp</i>
  <i name="version" type="string">4.6.36 </i>
  <i name="subversion" type="string">17Feb09 complex  serial</i>
  <i name="platform" type="string">LinuxGfortran</i>
  <i name="date" type="string">2012 11 19</i>
  <i name="time" type="string">18:07:39</i>
 </generator>
 <incar>
  <i type="string" name="PREC">accurate</i>
  <i type="string" name="ALGO"> Fast</i>
  <i type="int" name="ICHARG">    11</i>
  <i name="EDIFF">      0.00000100</i>
  <i type="int" name="NBANDS">    18</i>
  <v name="RWIGS">      1.70000000</v>
  <i type="int" name="ISMEAR">     1</i>
  <i name="SIGMA">      0.10000000</i>
  <i type="logical" name="LWAVE"> T  </i>
  <i type="logical" name="LCHARG"> T  </i>
  <i type="logical" name="LORBIT"> F  </i>
 </incar>
 <kpoints>
  <generation param="listgenerated">
   <i name="divisions" type="int">      40</i>
   <v>       0.00000000       0.00000000       0.00000000 </v>
   <v>       0.50000000       0.00000000       0.00000000 </v>
   <v>       0.50000000       0.50000000       0.00000000 </v>
   <v>       0.50000000       0.50000000       0.50000000 </v>
   <v>       0.00000000       0.00000000       0.00000000 </v>
  </generation>
  <varray name="kpointlist" >
   <v>       0.00000000       0.00000000       0.00000000 </v>
   <v>       0.01282051       0.00000000       0.00000000 </v>
   <v>       0.02564103       0.00000000       0.00000000 </v>
   <v>       0.03846154       0.00000000       0.00000000 </v>
   <v>       0.05128205       0.00000000       0.00000000 </v>
   <v>       0.06410256       0.00000000       0.00000000 </v>
   <v>       0.07692308       0.00000000       0.00000000 </v>
   <v>       0.08974359       0.00000000       0.00000000 </v>
   <v>       0.10256410       0.00000000       0.00000000 </v>
   <v>       0.11538462       0.00000000       0.00000000 </v>
   <v>       0.12820513       0.00000000       0.00000000 </v>
   <v>       0.14102564       0.00000000       0.00000000 </v>
   <v>       0.15384615       0.00000000       0.00000000 </v>
   <v>       0.16666667       0.00000000       0.00000000 </v>
   <v>       0.17948718       0.00000000       0.00000000 </v>
   <v>       0.19230769       0.00000000       0.00000000 </v>
   <v>       0.20512821       0.00000000       0.00000000 </v>
   <v>       0.21794872       0.00000000       0.00000000 </v>
   <v>       0.23076923       0.00000000       0.00000000 </v>
   <v>       0.24358974       0.00000000       0.00000000 </v>
   <v>       0.25641026       0.00000000       0.00000000 </v>
   <v>       0.26923077       0.00000000       0.00000000 </v>
   <v>       0.28205128       0.00000000       0.00000000 </v>
   <v>       0.29487179       0.00000000       0.00000000 </v>
   <v>       0.30769231       0.00000000       0.00000000 </v>
   <v>       0.32051282       0.00000000       0.00000000 </v>
   <v>       0.33333333       0.00000000       0.00000000 </v>
   <v>       0.34615385       0.00000000       0.00000000 </v>
   <v>       0.35897436       0.00000000       0.00000000 </v>
   <v>       0.37179487       0.00000000       0.00000000 </v>
   <v>       0.38461538       0.00000000       0.00000000 </v>
   <v>       0.39743590       0.00000000       0.00000000 </v>
   <v>       0.41025641       0.00000000       0.00000000 </v>
   <v>       0.42307692       0.00000000       0.00000000 </v>
   <v>       0.43589744       0.00000000       0.00000000 </v>
   <v>       0.44871795       0.00000000       0.00000000 </v>
   <v>       0.46153846       0.00000000       0.00000000 </v>
   <v>       0.47435897       0.00000000       0.00000000 </v>
   <v>       0.48717949       0.00000000       0.00000000 </v>
   <v>       0.50000000       0.00000000       0.00000000 </v>
   <v>       0.50000000       0.00000000       0.00000000 </v>
   <v>       0.50000000       0.01282051       0.00000000 </v>
   <v>       0.50000000       0.02564103       0.00000000 </v>
   <v>       0.50000000       0.03846154       0.00000000 </v>
   <v>       0.50000000       0.05128205       0.00000000 </v>
   <v>       0.50000000       0.06410256       0.00000000 </v>
   <v>       0.50000000       0.07692308       0.00000000 </v>
   <v>       0.50000000       0.08974359       0.00000000 </v>
   <v>       0.50000000       0.10256410       0.00000000 </v>
   <v>       0.50000000       0.11538462       0.00000000 </v>
   <v>       0.50000000       0.12820513       0.00000000 </v>
   <v>       0.50000000       0.14102564       0.00000000 </v>
   <v>       0.50000000       0.15384615       0.00000000 </v>
   <v>       0.50000000       0.16666667       0.00000000 </v>
   <v>       0.50000000       0.17948718       0.00000000 </v>
   <v>       0.50000000       0.19230769       0.00000000 </v>
   <v>       0.50000000       0.20512821       0.00000000 </v>
   <v>       0.50000000       0.21794872       0.00000000 </v>
   <v>       0.50000000       0.23076923       0.00000000 </v>
   <v>       0.50000000       0.24358974       0.00000000 </v>
   <v>       0.50000000       0.25641026       0.00000000 </v>
   <v>       0.50000000       0.26923077       0.00000000 </v>
   <v>       0.50000000       0.28205128       0.00000000 </v>
   <v>       0.50000000       0.29487179       0.00000000 </v>
   <v>       0.50000000       0.30769231       0.00000000 </v>
   <v>       0.50000000       0.32051282       0.00000000 </v>
   <v>       0.50000000       0.33333333       0.00000000 </v>
   <v>       0.50000000       0.34615385       0.00000000 </v>
   <v>       0.50000000       0.35897436       0.00000000 </v>
   <v>       0.50000000       0.37179487       0.00000000 </v>
   <v>       0.50000000       0.38461538       0.00000000 </v>
   <v>       0.50000000       0.39743590       0.00000000 </v>
   <v>       0.50000000       0.41025641       0.00000000 </v>
   <v>       0.50000000       0.42307692       0.00000000 </v>
   <v>       0.50000000       0.43589744       0.00000000 </v>
   <v>       0.50000000       0.44871795       0.00000000 </v>
   <v>       0.50000000       0.46153846       0.00000000 </v>
   <v>       0.50000000       0.47435897       0.00000000 </v>
   <v>       0.50000000       0.48717949       0.00000000 </v>
   <v>       0.50000000       0.50000000       0.00000000 </v>
   <v>       0.50000000       0.50000000       0.00000000 </v>
   <v>       0.50000000       0.50000000       0.01282051 </v>
   <v>       0.50000000       0.50000000       0.02564103 </v>
   <v>       0.50000000       0.50000000       0.03846154 </v>
   <v>       0.50000000       0.50000000       0.05128205 </v>
   <v>       0.50000000       0.50000000       0.06410256 </v>
   <v>       0.50000000       0.50000000       0.07692308 </v>
   <v>       0.50000000       0.50000000       0.08974359 </v>
   <v>       0.50000000       0.50000000       0.10256410 </v>
   <v>       0.50000000       0.50000000       0.11538462 </v>
   <v>       0.50000000       0.50000000       0.12820513 </v>
   <v>       0.50000000       0.50000000       0.14102564 </v>
   <v>       0.50000000       0.50000000       0.15384615 </v>
   <v>       0.50000000       0.50000000       0.16666667 </v>
   <v>       0.50000000       0.50000000       0.17948718 </v>
   <v>       0.50000000       0.50000000       0.19230769 </v>
   <v>       0.50000000       0.50000000       0.20512821 </v>
   <v>       0.50000000       0.50000000       0.21794872 </v>
   <v>       0.50000000       0.50000000       0.23076923 </v>
   <v>       0.50000000       0.50000000       0.24358974 </v>
   <v>       0.50000000       0.50000000       0.25641026 </v>
   <v>       0.50000000       0.50000000       0.26923077 </v>
   <v>       0.50000000       0.50000000       0.28205128 </v>
   <v>       0.50000000       0.50000000       0.29487179 </v>
   <v>       0.50000000       0.50000000       0.30769231 </v>
   <v>       0.50000000       0.50000000       0.32051282 </v>
   <v>       0.50000000       0.50000000       0.33333333 </v>
   <v>       0.50000000       0.50000000       0.34615385 </v>
   <v>       0.50000000       0.50000000       0.35897436 </v>
   <v>       0.50000000       0.50000000       0.37179487 </v>
   <v>       0.50000000       0.50000000       0.38461538 </v>
   <v>       0.50000000       0.50000000       0.39743590 </v>
   <v>       0.50000000       0.50000000       0.41025641 </v>
   <v>       0.50000000       0.50000000       0.42307692 </v>
   <v>       0.50000000       0.50000000       0.43589744 </v>
   <v>       0.50000000       0.50000000       0.44871795 </v>
   <v>       0.50000000       0.50000000       0.46153846 </v>
   <v>       0.50000000       0.50000000       0.47435897 </v>
   <v>       0.50000000       0.50000000       0.48717949 </v>
   <v>       0.50000000       0.50000000       0.50000000 </v>
   <v>       0.50000000       0.50000000       0.50000000 </v>
   <v>       0.48717949       0.48717949       0.48717949 </v>
   <v>       0.47435897       0.47435897       0.47435897 </v>
   <v>       0.46153846       0.46153846       0.46153846 </v>
   <v>       0.44871795       0.44871795       0.44871795 </v>
   <v>       0.43589744       0.43589744       0.43589744 </v>
   <v>       0.42307692       0.42307692       0.42307692 </v>
   <v>       0.41025641       0.41025641       0.41025641 </v>
   <v>       0.39743590       0.39743590       0.39743590 </v>
   <v>       0.38461538       0.38461538       0.38461538 </v>
   <v>       0.37179487       0.37179487       0.37179487 </v>
   <v>       0.35897436       0.35897436       0.35897436 </v>
   <v>       0.34615385       0.34615385       0.34615385 </v>
   <v>       0.33333333       0.33333333       0.33333333 </v>
   <v>       0.32051282       0.32051282       0.32051282 </v>
   <v>       0.30769231       0.30769231       0.30769231 </v>
   <v>       0.29487179       0.29487179       0.29487179 </v>
   <v>       0.28205128       0.28205128       0.28205128 </v>
   <v>       0.26923077       0.26923077       0.26923077 </v>
   <v>       0.25641026       0.25641026       0.25641026 </v>
   <v>       0.24358974       0.24358974       0.24358974 </v>
   <v>       0.23076923       0.23076923       0.23076923 </v>
   <v>       0.21794872       0.21794872       0.21794872 </v>
   <v>       0.20512821       0.20512821       0.20512821 </v>
   <v>       0.19230769       0.19230769       0.19230769 </v>
   <v>       0.17948718       0.17948718       0.17948718 </v>
   <v>       0.16666667       0.16666667       0.16666667 </v>
   <v>       0.15384615       0.15384615       0.15384615 </v>
   <v>       0.14102564       0.14102564       0.14102564 </v>
   <v>       0.12820513       0.12820513       0.12820513 </v>
   <v>       0.11538462       0.11538462       0.11538462 </v>
   <v>       0.10256410       0.10256410       0.10256410 </v>
   <v>       0.08974359       0.08974359       0.08974359 </v>
   <v>       0.07692308       0.07692308       0.07692308 </v>
   <v>       0.06410256       0.06410256       0.06410256 </v>
   <v>       0.05128205       0.05128205       0.05128205 </v>
   <v>       0.03846154       0.03846154       0.03846154 </v>
   <v>       0.02564103       0.02564103       0.02564103 </v>
   <v>       0.01282051       0.01282051       0.01282051 </v>
   <v>       0.00000000       0.00000000       0.00000000 </v>
  </varray>
  <varray name="weights" >
   <v>       0.00625000 </v>
   <v>       0.00625000 </v>
   <v>       0.00625000 </v>
   <v>       0.00625000 </v>
   <v>       0.00625000 </v>
   <v>       0.00625000 </v>
   <v>       0.00625000 </v>
   <v>       0.00625000 </v>
   <v>       0.00625000 </v>
   <v>       0.00625000 </v>
   <v>       0.00625000 </v>
   <v>       0.00625000 </v>
   <v>       0.00625000 </v>
   <v>       0.00625000 </v>
   <v>       0.00625000 </v>
   <v>       0.00625000 </v>
   <v>       0.00625000 </v>
   <v>       0.00625000 </v>
   <v>       0.00625000 </v>
   <v>       0.00625000 </v>
   <v>       0.00625000 </v>
   <v>       0.00625000 </v>
   <v>       0.00625000 </v>
   <v>       0.00625000 </v>
   <v>       0.00625000 </v>
   <v>       0.00625000 </v>
   <v>       0.00625000 </v>
   <v>       0.00625000 </v>
   <v>       0.00625000 </v>
   <v>       0.00625000 </v>
   <v>       0.00625000 </v>
   <v>       0.00625000 </v>
   <v>       0.00625000 </v>
   <v>       0.00625000 </v>
   <v>       0.00625000 </v>
   <v>       0.00625000 </v>
   <v>       0.00625000 </v>
   <v>       0.00625000 </v>
   <v>       0.00625000 </v>
   <v>       0.00625000 </v>
   <v>       0.00625000 </v>
   <v>       0.00625000 </v>
   <v>       0.00625000 </v>
   <v>       0.00625000 </v>
   <v>       0.00625000 </v>
   <v>       0.00625000 </v>
   <v>       0.00625000 </v>
   <v>       0.00625000 </v>
   <v>       0.00625000 </v>
   <v>       0.00625000 </v>
   <v>       0.00625000 </v>
   <v>       0.00625000 </v>
   <v>       0.00625000 </v>
   <v>       0.00625000 </v>
   <v>       0.00625000 </v>
   <v>       0.00625000 </v>
   <v>       0.00625000 </v>
   <v>       0.00625000 </v>
   <v>       0.00625000 </v>
   <v>       0.00625000 </v>
   <v>       0.00625000 </v>
   <v>       0.00625000 </v>
   <v>       0.00625000 </v>
   <v>       0.00625000 </v>
   <v>       0.00625000 </v>
   <v>       0.00625000 </v>
   <v>       0.00625000 </v>
   <v>       0.00625000 </v>
   <v>       0.00625000 </v>
   <v>       0.00625000 </v>
   <v>       0.00625000 </v>
   <v>       0.00625000 </v>
   <v>       0.00625000 </v>
   <v>       0.00625000 </v>
   <v>       0.00625000 </v>
   <v>       0.00625000 </v>
   <v>       0.00625000 </v>
   <v>       0.00625000 </v>
   <v>       0.00625000 </v>
   <v>       0.00625000 </v>
   <v>       0.00625000 </v>
   <v>       0.00625000 </v>
   <v>       0.00625000 </v>
   <v>       0.00625000 </v>
   <v>       0.00625000 </v>
   <v>       0.00625000 </v>
   <v>       0.00625000 </v>
   <v>       0.00625000 </v>
   <v>       0.00625000 </v>
   <v>       0.00625000 </v>
   <v>       0.00625000 </v>
   <v>       0.00625000 </v>
   <v>       0.00625000 </v>
   <v>       0.00625000 </v>
   <v>       0.00625000 </v>
   <v>       0.00625000 </v>
   <v>       0.00625000 </v>
   <v>       0.00625000 </v>
   <v>       0.00625000 </v>
   <v>       0.00625000 </v>
   <v>       0.00625000 </v>
   <v>       0.00625000 </v>
   <v>       0.00625000 </v>
   <v>       0.00625000 </v>
   <v>       0.00625000 </v>
   <v>       0.00625000 </v>
   <v>       0.00625000 </v>
   <v>       0.00625000 </v>
   <v>       0.00625000 </v>
   <v>       0.00625000 </v>
   <v>       0.00625000 </v>
   <v>       0.00625000 </v>
   <v>       0.00625000 </v>
   <v>       0.00625000 </v>
   <v>       0.00625000 </v>
   <v>       0.00625000 </v>
   <v>       0.00625000 </v>
   <v>       0.00625000 </v>
   <v>       0.00625000 </v>
   <v>       0.00625000 </v>
   <v>       0.00625000 </v>
   <v>       0.00625000 </v>
   <v>       0.00625000 </v>
   <v>       0.00625000 </v>
   <v>       0.00625000 </v>
   <v>       0.00625000 </v>
   <v>       0.00625000 </v>
   <v>       0.00625000 </v>
   <v>       0.00625000 </v>
   <v>       0.00625000 </v>
   <v>       0.00625000 </v>
   <v>       0.00625000 </v>
   <v>       0.00625000 </v>
   <v>       0.00625000 </v>
   <v>       0.00625000 </v>
   <v>       0.00625000 </v>
   <v>       0.00625000 </v>
   <v>       0.00625000 </v>
   <v>       0.00625000 </v>
   <v>       0.00625000 </v>
   <v>       0.00625000 </v>
   <v>       0.00625000 </v>
   <v>       0.00625000 </v>
   <v>       0.00625000 </v>
   <v>       0.00625000 </v>
   <v>       0.00625000 </v>
   <v>       0.00625000 </v>
   <v>       0.00625000 </v>
   <v>       0.00625000 </v>
   <v>       0.00625000 </v>
   <v>       0.00625000 </v>
   <v>       0.00625000 </v>
   <v>       0.00625000 </v>
   <v>       0.00625000 </v>
   <v>       0.00625000 </v>
   <v>       0.00625000 </v>
   <v>       0.00625000 </v>
   <v>       0.00625000 </v>
   <v>       0.00625000 </v>
   <v>       0.00625000 </v>
  </varray>
 </kpoints>
 <parameters>
  <separator name="general" >
   <i type="string" name="SYSTEM">unknown system</i>
   <i type="logical" name="LCOMPAT"> F  </i>
  </separator>
  <separator name="electronic" >
   <i type="string" name="PREC">accura</i>
   <i name="ENMAX">    222.43500000</i>
   <i name="ENAUG">    482.84800000</i>
   <i name="EDIFF">      0.00000100</i>
   <i type="int" name="IALGO">    68</i>
   <i type="int" name="IWAVPR">     0</i>
   <i type="int" name="NBANDS">    18</i>
   <i name="NELECT">     20.00000000</i>
   <separator name="electronic smearing" >
    <i type="int" name="ISMEAR">     1</i>
    <i name="SIGMA">      0.10000000</i>
   </separator>
   <separator name="electronic projectors" >
    <i type="logical" name="LREAL"> F  </i>
    <v name="ROPT">      0.00000000</v>
    <i type="int" name="LMAXPAW">  -100</i>
    <i type="int" name="LMAXMIX">     2</i>
   </separator>
   <separator name="electronic startup" >
    <i type="int" name="ISTART">     1</i>
    <i type="int" name="ICHARG">    11</i>
    <i type="int" name="INIWAV">     1</i>
   </separator>
   <separator name="electronic spin" >
    <i type="int" name="ISPIN">     1</i>
    <i type="logical" name="LNONCOLLINEAR"> F  </i>
    <v name="MAGMOM">      1.00000000      1.00000000</v>
    <i name="NUPDOWN">     -1.00000000</i>
    <i type="logical" name="LSORBIT"> F  </i>
    <v name="SAXIS">      0.00000000      0.00000000      1.00000000</v>
    <i type="logical" name="LSPIRAL"> F  </i>
    <v name="QSPIRAL">      0.00000000      0.00000000      0.00000000</v>
    <i type="logical" name="LZEROZ"> F  </i>
   </separator>
   <separator name="electronic exchange-correlation" >
    <i type="string" name="GGA">--</i>
    <i type="int" name="VOSKOWN">     0</i>
    <i type="logical" name="LASPH"> F  </i>
    <i type="logical" name="LMETAGGA"> F  </i>
    <i type="string" name="GGA2">--</i>
   </separator>
   <separator name="electronic convergence" >
    <i type="int" name="NELM">    60</i>
    <i type="int" name="NELMDL">     0</i>
    <i type="int" name="NELMIN">     2</i>
    <i name="ENINI">    222.43500000</i>
    <separator name="electronic convergence detail" >
     <i type="logical" name="LDIAG"> T  </i>
     <i name="WEIMIN">      0.00000000</i>
     <i name="EBREAK">      0.00000001</i>
     <i name="DEPER">      0.30000000</i>
     <i type="int" name="NRMM">     4</i>
     <i name="TIME">      0.10000000</i>
    </separator>
   </separator>
   <separator name="electronic mixer" >
    <i name="AMIX">      0.40000000</i>
    <i name="BMIX">      1.00000000</i>
    <i name="AMIN">      0.10000000</i>
    <i name="AMIX_MAG">      1.60000000</i>
    <i name="BMIX_MAG">      1.00000000</i>
    <separator name="electronic mixer details" >
     <i type="int" name="IMIX">     4</i>
     <i type="int" name="MAXMIX">   -45</i>
     <i name="WC">    100.00000000</i>
     <i type="int" name="INIMIX">     1</i>
     <i type="int" name="MIXPRE">     1</i>
     <i type="int" name="MREMOVE">     5</i>
    </separator>
   </separator>
   <separator name="electronic dipolcorrection" >
    <i type="int" name="IDIPOL">     0</i>
    <i type="logical" name="LDIPOL"> F  </i>
    <v name="DIPOL">   -100.00000000</v>
    <i name="EFIELD">      0.00000000</i>
   </separator>
  </separator>
  <separator name="grids" >
   <i type="int" name="NGX">    16</i>
   <i type="int" name="NGY">    16</i>
   <i type="int" name="NGZ">    16</i>
   <i type="int" name="NGXF">    32</i>
   <i type="int" name="NGYF">    32</i>
   <i type="int" name="NGZF">    32</i>
   <i type="logical" name="ADDGRID"> F  </i>
  </separator>
  <separator name="ionic" >
   <i type="int" name="NSW">     0</i>
   <i type="int" name="IBRION">    -1</i>
   <i type="int" name="ISIF">     2</i>
   <i name="PSTRESS">      0.00000000</i>
   <i name="EDIFFG">      0.00001000</i>
   <i type="int" name="NFREE">     0</i>
   <i name="POTIM">      0.50000000</i>
   <i name="SMASS">     -3.00000000</i>
  </separator>
  <separator name="ionic md" >
   <i name="TEBEG">      0.00010000</i>
   <i name="TEEND">      0.00010000</i>
   <i type="int" name="NBLOCK">     1</i>
   <i type="int" name="KBLOCK">     1</i>
   <i type="int" name="NPACO">   256</i>
   <i name="APACO">     16.00000000</i>
  </separator>
  <separator name="symmetry" >
   <i type="int" name="ISYM">     2</i>
   <i name="SYMPREC">      0.00001000</i>
  </separator>
  <separator name="dos" >
   <i type="logical" name="LORBIT"> F  </i>
   <v name="RWIGS">      1.70000000</v>
   <i type="int" name="NEDOS">   301</i>
   <i name="EMIN">     10.00000000</i>
   <i name="EMAX">    -10.00000000</i>
  </separator>
  <separator name="writing" >
   <i type="int" name="NWRITE">     2</i>
   <i type="logical" name="LWAVE"> T  </i>
   <i type="logical" name="LCHARG"> T  </i>
   <i type="logical" name="LPARD"> F  </i>
   <i type="logical" name="LVTOT"> F  </i>
   <i type="logical" name="LELF"> F  </i>
   <i type="logical" name="LOPTICS"> F  </i>
   <v name="STM">      0.00000000      0.00000000      0.00000000      0.00000000      0.00000000</v>
  </separator>
  <separator name="performance" >
   <i type="int" name="NPAR">     1</i>
   <i type="int" name="NSIM">     4</i>
   <i type="int" name="NBLK">    32</i>
   <i type="logical" name="LPLANE"> T  </i>
   <i type="logical" name="LCRITICAL_MEM"> F  </i>
   <i type="logical" name="LSCALAPACK"> F  </i>
   <i type="logical" name="LSCALU"> F  </i>
   <i type="logical" name="LASYNC"> F  </i>
  </separator>
  <separator name="miscellaneous" >
   <i type="int" name="IDIOT">     3</i>
   <i type="logical" name="LMUSIC"> F  </i>
   <v name="POMASS">     47.88000000</v>
   <i type="logical" name="LCORR"> T  </i>
  </separator>
  <i type="logical" name="LREAL_COMPAT"> F  </i>
  <i type="logical" name="GGA_COMPAT"> T  </i>
  <i type="logical" name="LBERRY"> F  </i>
  <i type="int" name="ICORELEVEL">     0</i>
  <i type="logical" name="LDAU"> F  </i>
  <i type="int" name="I_CONSTRAINED_M">     0</i>
 </parameters>
 <atominfo>
  <atoms>       2</atoms>
  <types>       1</types>
  <array name="atoms" >
   <dimension dim="1">ion</dimension>
   <field type="string">element</field>
   <field type="int">atomtype</field>
   <set>
    <rc><c>Ti</c><c>   1</c></rc>
    <rc><c>Ti</c><c>   1</c></rc>
   </set>
  </array>
  <array name="atomtypes" >
   <dimension dim="1">type</dimension>
   <field type="int">atomspertype</field>
   <field type="string">element</field>
   <field>mass</field>
   <field>valence</field>
   <field type="string">pseudopotential</field>
   <set>
    <rc><c>   2</c><c>Ti</c><c>     47.88000000</c><c>     10.00000000</c><c> PAW Ti_pv 07Sep2000                    </c></rc>
   </set>
  </array>
 </atominfo>
 <structure name="initialpos" >
  <crystal>
   <varray name="basis" >
    <v>       3.25320000       0.00000000       0.00000000 </v>
    <v>       0.00000000       3.25320000       0.00000000 </v>
    <v>       0.00000000       0.00000000       3.25320000 </v>
   </varray>
   <i name="volume">     34.42962487</i>
   <varray name="rec_basis" >
    <v>       0.30738965       0.00000000       0.00000000 </v>
    <v>       0.00000000       0.30738965       0.00000000 </v>
    <v>       0.00000000       0.00000000       0.30738965 </v>
   </varray>
  </crystal>
  <varray name="positions" >
   <v>       0.00000000       0.00000000       0.00000000 </v>
   <v>       0.50000000       0.50000000       0.50000000 </v>
  </varray>
 </structure>
 <calculation>
  <scstep>
   <time name="dav">    6.42    6.42</time>
   <time name="total">    6.50    6.50</time>
   <energy>
    <i name="alphaZ">    125.00303491</i>
    <i name="ewald">  -1610.85046774</i>
    <i name="hartreedc">   -390.83203395</i>
    <i name="XCdc">     70.54908507</i>
    <i name="pawpsdc">   1433.61498495</i>
    <i name="pawaedc">  -1443.94642783</i>
    <i name="eentropy">      0.00156274</i>
    <i name="bandstr">   -287.39882241</i>
    <i name="atom">   2088.79464958</i>
    <i name="e_fr_energy">    -15.06443468</i>
    <i name="e_wo_entrp">    -15.06599742</i>
    <i name="e_0_energy">    -15.06495559</i>
   </energy>
  </scstep>
  <scstep>
   <time name="diag">    1.29    1.30</time>
   <time name="diis">    4.64    4.64</time>
   <time name="orth">    0.14    0.14</time>
   <time name="total">    6.12    6.12</time>
   <energy>
    <i name="e_fr_energy">    -17.69550810</i>
    <i name="e_wo_entrp">    -17.69347196</i>
    <i name="e_0_energy">    -17.69482939</i>
   </energy>
  </scstep>
  <scstep>
   <time name="diag">    1.29    1.30</time>
   <time name="diis">    5.01    5.01</time>
   <time name="orth">    0.14    0.14</time>
   <time name="total">    6.49    6.49</time>
   <energy>
    <i name="e_fr_energy">    -17.63733823</i>
    <i name="e_wo_entrp">    -17.63589295</i>
    <i name="e_0_energy">    -17.63685647</i>
   </energy>
  </scstep>
  <scstep>
   <time name="diag">    1.29    1.29</time>
   <time name="diis">    5.55    5.55</time>
   <time name="orth">    0.14    0.14</time>
   <time name="total">    7.02    7.03</time>
   <energy>
    <i name="e_fr_energy">    -17.64126285</i>
    <i name="e_wo_entrp">    -17.63982818</i>
    <i name="e_0_energy">    -17.64078463</i>
   </energy>
  </scstep>
  <scstep>
   <time name="diag">    1.29    1.29</time>
   <time name="diis">    5.41    5.41</time>
   <time name="orth">    0.14    0.14</time>
   <time name="total">    6.88    6.89</time>
   <energy>
    <i name="e_fr_energy">    -17.64156095</i>
    <i name="e_wo_entrp">    -17.64012665</i>
    <i name="e_0_energy">    -17.64108285</i>
   </energy>
  </scstep>
  <scstep>
   <time name="diag">    1.29    1.29</time>
   <time name="diis">    4.23    4.23</time>
   <time name="orth">    0.14    0.14</time>
   <time name="total">    5.71    5.71</time>
   <energy>
    <i name="e_fr_energy">    -17.64158697</i>
    <i name="e_wo_entrp">    -17.64015264</i>
    <i name="e_0_energy">    -17.64110886</i>
   </energy>
  </scstep>
  <scstep>
   <time name="diag">    1.29    1.29</time>
   <time name="diis">    3.10    3.10</time>
   <time name="orth">    0.14    0.14</time>
   <time name="total">    4.57    4.57</time>
   <energy>
    <i name="alphaZ">    125.00303491</i>
    <i name="ewald">  -1610.85046774</i>
    <i name="hartreedc">   -390.83203395</i>
    <i name="XCdc">     70.54908507</i>
    <i name="pawpsdc">   1433.61498495</i>
    <i name="pawaedc">  -1443.94642783</i>
    <i name="eentropy">     -0.00143433</i>
    <i name="bandstr">   -289.97297847</i>
    <i name="atom">   2088.79464958</i>
    <i name="e_fr_energy">    -17.64158780</i>
    <i name="e_wo_entrp">    -17.64015347</i>
    <i name="e_0_energy">    -17.64110969</i>
   </energy>
  </scstep>
  <structure>
   <crystal>
    <varray name="basis" >
     <v>       3.25320000       0.00000000       0.00000000 </v>
     <v>       0.00000000       3.25320000       0.00000000 </v>
     <v>       0.00000000       0.00000000       3.25320000 </v>
    </varray>
    <i name="volume">     34.42962487</i>
    <varray name="rec_basis" >
     <v>       0.30738965       0.00000000       0.00000000 </v>
     <v>       0.00000000       0.30738965       0.00000000 </v>
     <v>       0.00000000       0.00000000       0.30738965 </v>
    </varray>
   </crystal>
   <varray name="positions" >
    <v>       0.00000000       0.00000000       0.00000000 </v>
    <v>       0.50000000       0.50000000       0.50000000 </v>
   </varray>
  </structure>
  <varray name="forces" >
   <v>       0.00000000       0.00000000       0.00000000 </v>
   <v>       0.00000000       0.00000000       0.00000000 </v>
  </varray>
  <varray name="stress" >
   <v>    -145.14241990      -0.00000000      -0.00000000 </v>
   <v>      -0.00000000    -145.14241990      -0.00000000 </v>
   <v>       0.00000000      -0.00000000    -145.14241990 </v>
  </varray>
  <energy>
   <i name="e_fr_energy">    -17.64158780</i>
   <i name="e_wo_entrp">    -17.64110969</i>
   <i name="e_0_energy">     -0.00143433</i>
  </energy>
  <eigenvalues>
   <array>
    <dimension dim="1">band</dimension>
    <dimension dim="2">kpoint</dimension>
    <dimension dim="3">spin</dimension>
    <field>eigene</field>
    <field>occ</field>
    <set>
     <set comment="spin 1">
      <set comment="kpoint 1">
       <r> -27.0254  1.0000</r>
       <r> -27.0254  1.0000</r>
       <r> -27.0254  1.0000</r>
       <r> -26.5352  1.0000</r>
       <r> -26.5352  1.0000</r>
       <r> -26.5352  1.0000</r>
       <r>  -0.3646  1.0000</r>
       <r>   3.3744  1.0000</r>
       <r>   3.3744  1.0000</r>
       <r>   6.4578 -0.0000</r>
       <r>   6.4578 -0.0000</r>
       <r>   6.4578 -0.0000</r>
       <r>   8.2577  0.0000</r>
       <r>   8.2577  0.0000</r>
       <r>   9.4565  0.0000</r>
       <r>   9.4565  0.0000</r>
       <r>   9.4565  0.0000</r>
       <r>  14.0221  0.0000</r>
      </set>
      <set comment="kpoint 2">
       <r> -27.0254  1.0000</r>
       <r> -27.0252  1.0000</r>
       <r> -27.0252  1.0000</r>
       <r> -26.5356  1.0000</r>
       <r> -26.5354  1.0000</r>
       <r> -26.5354  1.0000</r>
       <r>  -0.3617  1.0000</r>
       <r>   3.3759  1.0000</r>
       <r>   3.3760  1.0000</r>
       <r>   6.4575 -0.0000</r>
       <r>   6.4575 -0.0000</r>
       <r>   6.4589 -0.0000</r>
       <r>   8.2552  0.0000</r>
       <r>   8.2587  0.0000</r>
       <r>   9.4508  0.0000</r>
       <r>   9.4508  0.0000</r>
       <r>   9.4551  0.0000</r>
       <r>  14.0096  0.0000</r>
      </set>
      <set comment="kpoint 3">
       <r> -27.0255  1.0000</r>
       <r> -27.0246  1.0000</r>
       <r> -27.0246  1.0000</r>
       <r> -26.5369  1.0000</r>
       <r> -26.5360  1.0000</r>
       <r> -26.5360  1.0000</r>
       <r>  -0.3531  1.0000</r>
       <r>   3.3805  1.0000</r>
       <r>   3.3807  1.0000</r>
       <r>   6.4567 -0.0000</r>
       <r>   6.4567 -0.0000</r>
       <r>   6.4621 -0.0000</r>
       <r>   8.2478  0.0000</r>
       <r>   8.2616  0.0000</r>
       <r>   9.4337  0.0000</r>
       <r>   9.4337  0.0000</r>
       <r>   9.4510  0.0000</r>
       <r>  13.9725  0.0000</r>
      </set>
      <set comment="kpoint 4">
       <r> -27.0255  1.0000</r>
       <r> -27.0235  1.0000</r>
       <r> -27.0235  1.0000</r>
       <r> -26.5390  1.0000</r>
       <r> -26.5369  1.0000</r>
       <r> -26.5369  1.0000</r>
       <r>  -0.3387  1.0000</r>
       <r>   3.3880  1.0000</r>
       <r>   3.3886  1.0000</r>
       <r>   6.4554 -0.0000</r>
       <r>   6.4554 -0.0000</r>
       <r>   6.4674 -0.0000</r>
       <r>   8.2354  0.0000</r>
       <r>   8.2663  0.0000</r>
       <r>   9.4056  0.0000</r>
       <r>   9.4056  0.0000</r>
       <r>   9.4442  0.0000</r>
       <r>  13.9117  0.0000</r>
      </set>
      <set comment="kpoint 5">
       <r> -27.0255  1.0000</r>
       <r> -27.0220  1.0000</r>
       <r> -27.0220  1.0000</r>
       <r> -26.5423  1.0000</r>
       <r> -26.5382  1.0000</r>
       <r> -26.5382  1.0000</r>
       <r>  -0.3187  1.0000</r>
       <r>   3.3984  1.0000</r>
       <r>   3.3997  1.0000</r>
       <r>   6.4535 -0.0000</r>
       <r>   6.4535 -0.0000</r>
       <r>   6.4748 -0.0000</r>
       <r>   8.2180 -0.0000</r>
       <r>   8.2703  0.0000</r>
       <r>   9.3672  0.0000</r>
       <r>   9.3672  0.0000</r>
       <r>   9.4346  0.0000</r>
       <r>  13.8290  0.0000</r>
      </set>
      <set comment="kpoint 6">
       <r> -27.0256  1.0000</r>
       <r> -27.0201  1.0000</r>
       <r> -27.0201  1.0000</r>
       <r> -26.5461  1.0000</r>
       <r> -26.5398  1.0000</r>
       <r> -26.5398  1.0000</r>
       <r>  -0.2930  1.0000</r>
       <r>   3.4116  1.0000</r>
       <r>   3.4139  1.0000</r>
       <r>   6.4512 -0.0000</r>
       <r>   6.4512 -0.0000</r>
       <r>   6.4844 -0.0000</r>
       <r>   8.1958 -0.0000</r>
       <r>   8.2785  0.0000</r>
       <r>   9.3194  0.0000</r>
       <r>   9.3194  0.0000</r>
       <r>   9.4223  0.0000</r>
       <r>  13.7260  0.0000</r>
      </set>
      <set comment="kpoint 7">
       <r> -27.0256  1.0000</r>
       <r> -27.0178  1.0000</r>
       <r> -27.0178  1.0000</r>
       <r> -26.5507  1.0000</r>
       <r> -26.5419  1.0000</r>
       <r> -26.5419  1.0000</r>
       <r>  -0.2616  1.0000</r>
       <r>   3.4275  1.0000</r>
       <r>   3.4313  1.0000</r>
       <r>   6.4485 -0.0000</r>
       <r>   6.4485 -0.0000</r>
       <r>   6.4961 -0.0000</r>
       <r>   8.1688 -0.0000</r>
       <r>   8.2885  0.0000</r>
       <r>   9.2631  0.0000</r>
       <r>   9.2631  0.0000</r>
       <r>   9.4073  0.0000</r>
       <r>  13.6052  0.0000</r>
      </set>
      <set comment="kpoint 8">
       <r> -27.0256  1.0000</r>
       <r> -27.0151  1.0000</r>
       <r> -27.0151  1.0000</r>
       <r> -26.5561  1.0000</r>
       <r> -26.5443  1.0000</r>
       <r> -26.5443  1.0000</r>
       <r>  -0.2247  1.0000</r>
       <r>   3.4459  1.0000</r>
       <r>   3.4518  1.0000</r>
       <r>   6.4454 -0.0000</r>
       <r>   6.4454 -0.0000</r>
       <r>   6.5098 -0.0000</r>
       <r>   8.1371 -0.0000</r>
       <r>   8.3003  0.0000</r>
       <r>   9.1992  0.0000</r>
       <r>   9.1992  0.0000</r>
       <r>   9.3897  0.0000</r>
       <r>  13.4689  0.0000</r>
      </set>
      <set comment="kpoint 9">
       <r> -27.0255  1.0000</r>
       <r> -27.0119  1.0000</r>
       <r> -27.0119  1.0000</r>
       <r> -26.5622  1.0000</r>
       <r> -26.5470  1.0000</r>
       <r> -26.5470  1.0000</r>
       <r>  -0.1823  1.0000</r>
       <r>   3.4665  1.0000</r>
       <r>   3.4754  1.0000</r>
       <r>   6.4420 -0.0000</r>
       <r>   6.4420 -0.0000</r>
       <r>   6.5257 -0.0000</r>
       <r>   8.1007 -0.0000</r>
       <r>   8.3137  0.0000</r>
       <r>   9.1288  0.0000</r>
       <r>   9.1288  0.0000</r>
       <r>   9.3695  0.0000</r>
       <r>  13.3192  0.0000</r>
      </set>
      <set comment="kpoint 10">
       <r> -27.0254  1.0000</r>
       <r> -27.0084  1.0000</r>
       <r> -27.0084  1.0000</r>
       <r> -26.5691  1.0000</r>
       <r> -26.5501  1.0000</r>
       <r> -26.5501  1.0000</r>
       <r>  -0.1344  1.0000</r>
       <r>   3.4893  1.0000</r>
       <r>   3.5021  1.0000</r>
       <r>   6.4385 -0.0000</r>
       <r>   6.4385 -0.0000</r>
       <r>   6.5436 -0.0000</r>
       <r>   8.0597 -0.0000</r>
       <r>   8.3287  0.0000</r>
       <r>   9.0530  0.0000</r>
       <r>   9.0530  0.0000</r>
       <r>   9.3468  0.0000</r>
       <r>  13.1585  0.0000</r>
      </set>
      <set comment="kpoint 11">
       <r> -27.0253  1.0000</r>
       <r> -27.0045  1.0000</r>
       <r> -27.0045  1.0000</r>
       <r> -26.5767  1.0000</r>
       <r> -26.5536  1.0000</r>
       <r> -26.5536  1.0000</r>
       <r>  -0.0812  1.0000</r>
       <r>   3.5138  1.0000</r>
       <r>   3.5318  1.0000</r>
       <r>   6.4349 -0.0000</r>
       <r>   6.4349 -0.0000</r>
       <r>   6.5635 -0.0000</r>
       <r>   8.0143 -0.0000</r>
       <r>   8.3453  0.0000</r>
       <r>   8.9726  0.0000</r>
       <r>   8.9726  0.0000</r>
       <r>   9.3216  0.0000</r>
       <r>  12.9889  0.0000</r>
      </set>
      <set comment="kpoint 12">
       <r> -27.0250  1.0000</r>
       <r> -27.0001  1.0000</r>
       <r> -27.0001  1.0000</r>
       <r> -26.5849  1.0000</r>
       <r> -26.5574  1.0000</r>
       <r> -26.5574  1.0000</r>
       <r>  -0.0228  1.0000</r>
       <r>   3.5397  1.0000</r>
       <r>   3.5647  1.0000</r>
       <r>   6.4312 -0.0000</r>
       <r>   6.4312 -0.0000</r>
       <r>   6.5855 -0.0000</r>
       <r>   7.9647 -0.0000</r>
       <r>   8.3633  0.0000</r>
       <r>   8.8886  0.0000</r>
       <r>   8.8886  0.0000</r>
       <r>   9.2939  0.0000</r>
       <r>  12.8123  0.0000</r>
      </set>
      <set comment="kpoint 13">
       <r> -27.0246  1.0000</r>
       <r> -26.9954  1.0000</r>
       <r> -26.9954  1.0000</r>
       <r> -26.5938  1.0000</r>
       <r> -26.5616  1.0000</r>
       <r> -26.5616  1.0000</r>
       <r>   0.0408  1.0000</r>
       <r>   3.5669  1.0000</r>
       <r>   3.6005  1.0000</r>
       <r>   6.4277 -0.0000</r>
       <r>   6.4277 -0.0000</r>
       <r>   6.6094 -0.0000</r>
       <r>   7.9108 -0.0000</r>
       <r>   8.3827  0.0000</r>
       <r>   8.8018  0.0000</r>
       <r>   8.8018  0.0000</r>
       <r>   9.2638  0.0000</r>
       <r>  12.6303  0.0000</r>
      </set>
      <set comment="kpoint 14">
       <r> -27.0241  1.0000</r>
       <r> -26.9904  1.0000</r>
       <r> -26.9904  1.0000</r>
       <r> -26.6032  1.0000</r>
       <r> -26.5661  1.0000</r>
       <r> -26.5661  1.0000</r>
       <r>   0.1094  1.0000</r>
       <r>   3.5948  1.0000</r>
       <r>   3.6393  1.0000</r>
       <r>   6.4243 -0.0000</r>
       <r>   6.4243 -0.0000</r>
       <r>   6.6353 -0.0000</r>
       <r>   7.8530 -0.0000</r>
       <r>   8.4034  0.0000</r>
       <r>   8.7129  0.0000</r>
       <r>   8.7129  0.0000</r>
       <r>   9.2315  0.0000</r>
       <r>  12.4447  0.0000</r>
      </set>
      <set comment="kpoint 15">
       <r> -27.0251  1.0000</r>
       <r> -26.9850  1.0000</r>
       <r> -26.9850  1.0000</r>
       <r> -26.6132  1.0000</r>
       <r> -26.5709  1.0000</r>
       <r> -26.5709  1.0000</r>
       <r>   0.1829  1.0000</r>
       <r>   3.6206  1.0000</r>
       <r>   3.6812  1.0000</r>
       <r>   6.4213 -0.0000</r>
       <r>   6.4213 -0.0000</r>
       <r>   6.6632 -0.0000</r>
       <r>   7.7912 -0.0000</r>
       <r>   8.4253  0.0000</r>
       <r>   8.6214  0.0000</r>
       <r>   8.6214  0.0000</r>
       <r>   9.1969  0.0000</r>
       <r>  12.2554  0.0000</r>
      </set>
      <set comment="kpoint 16">
       <r> -27.0246  1.0000</r>
       <r> -26.9792  1.0000</r>
       <r> -26.9792  1.0000</r>
       <r> -26.6237  1.0000</r>
       <r> -26.5760  1.0000</r>
       <r> -26.5760  1.0000</r>
       <r>   0.2612  1.0000</r>
       <r>   3.6484  1.0000</r>
       <r>   3.7259  1.0000</r>
       <r>   6.4187 -0.0000</r>
       <r>   6.4187 -0.0000</r>
       <r>   6.6929 -0.0000</r>
       <r>   7.7258 -0.0000</r>
       <r>   8.4482  0.0000</r>
       <r>   8.5301  0.0000</r>
       <r>   8.5301  0.0000</r>
       <r>   9.1602  0.0000</r>
       <r>  12.0661  0.0000</r>
      </set>
      <set comment="kpoint 17">
       <r> -27.0238  1.0000</r>
       <r> -26.9730  1.0000</r>
       <r> -26.9730  1.0000</r>
       <r> -26.6347  1.0000</r>
       <r> -26.5815  1.0000</r>
       <r> -26.5815  1.0000</r>
       <r>   0.3441  1.0000</r>
       <r>   3.6757  1.0000</r>
       <r>   3.7736  1.0000</r>
       <r>   6.4167 -0.0000</r>
       <r>   6.4167 -0.0000</r>
       <r>   6.7246 -0.0000</r>
       <r>   7.6568 -0.0000</r>
       <r>   8.4383  0.0000</r>
       <r>   8.4383  0.0000</r>
       <r>   8.4721  0.0000</r>
       <r>   9.1213  0.0000</r>
       <r>  11.8771  0.0000</r>
      </set>
      <set comment="kpoint 18">
       <r> -27.0229  1.0000</r>
       <r> -26.9666  1.0000</r>
       <r> -26.9666  1.0000</r>
       <r> -26.6461  1.0000</r>
       <r> -26.5873  1.0000</r>
       <r> -26.5873  1.0000</r>
       <r>   0.4315  1.0000</r>
       <r>   3.7018  1.0000</r>
       <r>   3.8241  1.0000</r>
       <r>   6.4154 -0.0000</r>
       <r>   6.4154 -0.0000</r>
       <r>   6.7581 -0.0000</r>
       <r>   7.5844 -0.0000</r>
       <r>   8.3466  0.0000</r>
       <r>   8.3466  0.0000</r>
       <r>   8.4969  0.0000</r>
       <r>   9.0805  0.0000</r>
       <r>  11.6894  0.0000</r>
      </set>
      <set comment="kpoint 19">
       <r> -27.0217  1.0000</r>
       <r> -26.9598  1.0000</r>
       <r> -26.9598  1.0000</r>
       <r> -26.6579  1.0000</r>
       <r> -26.5934  1.0000</r>
       <r> -26.5934  1.0000</r>
       <r>   0.5232  1.0000</r>
       <r>   3.7262  1.0000</r>
       <r>   3.8774  1.0000</r>
       <r>   6.4148 -0.0000</r>
       <r>   6.4148 -0.0000</r>
       <r>   6.7933 -0.0000</r>
       <r>   7.5089 -0.0000</r>
       <r>   8.2554  0.0000</r>
       <r>   8.2554  0.0000</r>
       <r>   8.5224  0.0000</r>
       <r>   9.0378  0.0000</r>
       <r>  11.5039  0.0000</r>
      </set>
      <set comment="kpoint 20">
       <r> -27.0211  1.0000</r>
       <r> -26.9532  1.0000</r>
       <r> -26.9532  1.0000</r>
       <r> -26.6699  1.0000</r>
       <r> -26.5997  1.0000</r>
       <r> -26.5997  1.0000</r>
       <r>   0.6189  1.0000</r>
       <r>   3.7482  1.0000</r>
       <r>   3.9335  1.0000</r>
       <r>   6.4153 -0.0000</r>
       <r>   6.4153 -0.0000</r>
       <r>   6.8304 -0.0000</r>
       <r>   7.4304 -0.0000</r>
       <r>   8.1614 -0.0000</r>
       <r>   8.1614 -0.0000</r>
       <r>   8.5485  0.0000</r>
       <r>   8.9902  0.0000</r>
       <r>  11.3213  0.0000</r>
      </set>
      <set comment="kpoint 21">
       <r> -27.0195  1.0000</r>
       <r> -26.9458  1.0000</r>
       <r> -26.9458  1.0000</r>
       <r> -26.6823  1.0000</r>
       <r> -26.6064  1.0000</r>
       <r> -26.6064  1.0000</r>
       <r>   0.7185  1.0000</r>
       <r>   3.7675  1.0000</r>
       <r>   3.9924  1.0000</r>
       <r>   6.4167 -0.0000</r>
       <r>   6.4167 -0.0000</r>
       <r>   6.8691 -0.0000</r>
       <r>   7.3491 -0.0000</r>
       <r>   8.0719 -0.0000</r>
       <r>   8.0719 -0.0000</r>
       <r>   8.5751  0.0000</r>
       <r>   8.9438  0.0000</r>
       <r>  11.1430  0.0000</r>
      </set>
      <set comment="kpoint 22">
       <r> -27.0176  1.0000</r>
       <r> -26.9382  1.0000</r>
       <r> -26.9382  1.0000</r>
       <r> -26.6931  1.0000</r>
       <r> -26.6129  1.0000</r>
       <r> -26.6129  1.0000</r>
       <r>   0.8220  1.0000</r>
       <r>   3.7833  1.0000</r>
       <r>   4.0539  1.0000</r>
       <r>   6.4232 -0.0000</r>
       <r>   6.4232 -0.0000</r>
       <r>   6.9101 -0.0000</r>
       <r>   7.2656 -0.0000</r>
       <r>   7.9838 -0.0000</r>
       <r>   7.9838 -0.0000</r>
       <r>   8.6088  0.0000</r>
       <r>   8.8957  0.0000</r>
       <r>  10.9696  0.0000</r>
      </set>
      <set comment="kpoint 23">
       <r> -27.0154  1.0000</r>
       <r> -26.9303  1.0000</r>
       <r> -26.9303  1.0000</r>
       <r> -26.7061  1.0000</r>
       <r> -26.6202  1.0000</r>
       <r> -26.6202  1.0000</r>
       <r>   0.9288  1.0000</r>
       <r>   3.7950  1.0000</r>
       <r>   4.1180  1.0000</r>
       <r>   6.4268 -0.0000</r>
       <r>   6.4268 -0.0000</r>
       <r>   6.9521 -0.0000</r>
       <r>   7.1793 -0.0000</r>
       <r>   7.8972 -0.0000</r>
       <r>   7.8972 -0.0000</r>
       <r>   8.6357  0.0000</r>
       <r>   8.8461  0.0000</r>
       <r>  10.8018  0.0000</r>
      </set>
      <set comment="kpoint 24">
       <r> -27.0128  1.0000</r>
       <r> -26.9222  1.0000</r>
       <r> -26.9222  1.0000</r>
       <r> -26.7192  1.0000</r>
       <r> -26.6277  1.0000</r>
       <r> -26.6277  1.0000</r>
       <r>   1.0388  1.0000</r>
       <r>   3.8018  1.0000</r>
       <r>   4.1848  1.0000</r>
       <r>   6.4319 -0.0000</r>
       <r>   6.4319 -0.0000</r>
       <r>   6.9957 -0.0000</r>
       <r>   7.0908 -0.0000</r>
       <r>   7.8125 -0.0000</r>
       <r>   7.8125 -0.0000</r>
       <r>   8.6629  0.0000</r>
       <r>   8.7951  0.0000</r>
       <r>  10.6401  0.0000</r>
      </set>
      <set comment="kpoint 25">
       <r> -27.0100  1.0000</r>
       <r> -26.9138  1.0000</r>
       <r> -26.9138  1.0000</r>
       <r> -26.7336  1.0000</r>
       <r> -26.6355  1.0000</r>
       <r> -26.6355  1.0000</r>
       <r>   1.1517  1.0000</r>
       <r>   3.8033  1.0000</r>
       <r>   4.2540  1.0000</r>
       <r>   6.4374 -0.0000</r>
       <r>   6.4374 -0.0000</r>
       <r>   7.0004 -0.0000</r>
       <r>   7.0407 -0.0000</r>
       <r>   7.7297 -0.0000</r>
       <r>   7.7297 -0.0000</r>
       <r>   8.6815  0.0000</r>
       <r>   8.7428  0.0000</r>
       <r>  10.4854  0.0000</r>
      </set>
      <set comment="kpoint 26">
       <r> -27.0067  1.0000</r>
       <r> -26.9052  1.0000</r>
       <r> -26.9052  1.0000</r>
       <r> -26.7469  1.0000</r>
       <r> -26.6435  1.0000</r>
       <r> -26.6435  1.0000</r>
       <r>   1.2674  1.0000</r>
       <r>   3.7987  1.0000</r>
       <r>   4.3256  1.0000</r>
       <r>   6.4457 -0.0000</r>
       <r>   6.4457 -0.0000</r>
       <r>   6.9081 -0.0000</r>
       <r>   7.0872 -0.0000</r>
       <r>   7.6491 -0.0000</r>
       <r>   7.6491 -0.0000</r>
       <r>   8.6893  0.0000</r>
       <r>   8.7080  0.0000</r>
       <r>  10.3381  0.0000</r>
      </set>
      <set comment="kpoint 27">
       <r> -27.0031  1.0000</r>
       <r> -26.8964  1.0000</r>
       <r> -26.8964  1.0000</r>
       <r> -26.7602  1.0000</r>
       <r> -26.6517  1.0000</r>
       <r> -26.6517  1.0000</r>
       <r>   1.3854  1.0000</r>
       <r>   3.7876  1.0000</r>
       <r>   4.3996  1.0000</r>
       <r>   6.4557 -0.0000</r>
       <r>   6.4557 -0.0000</r>
       <r>   6.8143 -0.0000</r>
       <r>   7.1352 -0.0000</r>
       <r>   7.5707 -0.0000</r>
       <r>   7.5707 -0.0000</r>
       <r>   8.6346  0.0000</r>
       <r>   8.7345  0.0000</r>
       <r>  10.1986  0.0000</r>
      </set>
      <set comment="kpoint 28">
       <r> -26.9990  1.0000</r>
       <r> -26.8874  1.0000</r>
       <r> -26.8874  1.0000</r>
       <r> -26.7735  1.0000</r>
       <r> -26.6601  1.0000</r>
       <r> -26.6601  1.0000</r>
       <r>   1.5054  1.0000</r>
       <r>   3.7694  1.0000</r>
       <r>   4.4760  1.0000</r>
       <r>   6.4676 -0.0000</r>
       <r>   6.4676 -0.0000</r>
       <r>   6.7191 -0.0000</r>
       <r>   7.1845 -0.0000</r>
       <r>   7.4947 -0.0000</r>
       <r>   7.4947 -0.0000</r>
       <r>   8.5790  0.0000</r>
       <r>   8.7609  0.0000</r>
       <r>  10.0674  0.0000</r>
      </set>
      <set comment="kpoint 29">
       <r> -26.9945  1.0000</r>
       <r> -26.8783  1.0000</r>
       <r> -26.8783  1.0000</r>
       <r> -26.7867  1.0000</r>
       <r> -26.6687  1.0000</r>
       <r> -26.6687  1.0000</r>
       <r>   1.6272  1.0000</r>
       <r>   3.7437  1.0000</r>
       <r>   4.5545  1.0000</r>
       <r>   6.4815 -0.0000</r>
       <r>   6.4815 -0.0000</r>
       <r>   6.6228 -0.0000</r>
       <r>   7.2350 -0.0000</r>
       <r>   7.4212 -0.0000</r>
       <r>   7.4212 -0.0000</r>
       <r>   8.5224  0.0000</r>
       <r>   8.7873  0.0000</r>
       <r>   9.9447  0.0000</r>
      </set>
      <set comment="kpoint 30">
       <r> -26.9896  1.0000</r>
       <r> -26.8689  1.0000</r>
       <r> -26.8689  1.0000</r>
       <r> -26.7997  1.0000</r>
       <r> -26.6774  1.0000</r>
       <r> -26.6774  1.0000</r>
       <r>   1.7503  1.0000</r>
       <r>   3.7102  1.0000</r>
       <r>   4.6352  1.0000</r>
       <r>   6.4976 -0.0000</r>
       <r>   6.4976 -0.0000</r>
       <r>   6.5255 -0.0000</r>
       <r>   7.2868 -0.0000</r>
       <r>   7.3502 -0.0000</r>
       <r>   7.3502 -0.0000</r>
       <r>   8.4651  0.0000</r>
       <r>   8.8136  0.0000</r>
       <r>   9.8307  0.0000</r>
      </set>
      <set comment="kpoint 31">
       <r> -26.9847  1.0000</r>
       <r> -26.8608  1.0000</r>
       <r> -26.8608  1.0000</r>
       <r> -26.8116  1.0000</r>
       <r> -26.6855  1.0000</r>
       <r> -26.6855  1.0000</r>
       <r>   1.8745  1.0000</r>
       <r>   3.6686  1.0000</r>
       <r>   4.7174  1.0000</r>
       <r>   6.4293 -0.0000</r>
       <r>   6.5198 -0.0000</r>
       <r>   6.5198 -0.0000</r>
       <r>   7.2788 -0.0000</r>
       <r>   7.2788 -0.0000</r>
       <r>   7.3417 -0.0000</r>
       <r>   8.3954  0.0000</r>
       <r>   8.8400  0.0000</r>
       <r>   9.7244  0.0000</r>
      </set>
      <set comment="kpoint 32">
       <r> -26.9790  1.0000</r>
       <r> -26.8513  1.0000</r>
       <r> -26.8513  1.0000</r>
       <r> -26.8243  1.0000</r>
       <r> -26.6947  1.0000</r>
       <r> -26.6947  1.0000</r>
       <r>   1.9990  1.0000</r>
       <r>   3.6189  1.0000</r>
       <r>   4.8021  1.0000</r>
       <r>   6.3304 -0.0000</r>
       <r>   6.5400 -0.0000</r>
       <r>   6.5400 -0.0000</r>
       <r>   7.2131 -0.0000</r>
       <r>   7.2131 -0.0000</r>
       <r>   7.3956 -0.0000</r>
       <r>   8.3364  0.0000</r>
       <r>   8.8667  0.0000</r>
       <r>   9.6276  0.0000</r>
      </set>
      <set comment="kpoint 33">
       <r> -26.9727  1.0000</r>
       <r> -26.8417  1.0000</r>
       <r> -26.8417  1.0000</r>
       <r> -26.8368  1.0000</r>
       <r> -26.7040  1.0000</r>
       <r> -26.7040  1.0000</r>
       <r>   2.1237  1.0000</r>
       <r>   3.5610  1.0000</r>
       <r>   4.8886  1.0000</r>
       <r>   6.2311 -0.0000</r>
       <r>   6.5626 -0.0000</r>
       <r>   6.5626 -0.0000</r>
       <r>   7.1501 -0.0000</r>
       <r>   7.1501 -0.0000</r>
       <r>   7.4505 -0.0000</r>
       <r>   8.2770  0.0000</r>
       <r>   8.8937  0.0000</r>
       <r>   9.5392  0.0000</r>
      </set>
      <set comment="kpoint 34">
       <r> -26.9649  1.0000</r>
       <r> -26.8496  1.0000</r>
       <r> -26.8318  1.0000</r>
       <r> -26.8318  1.0000</r>
       <r> -26.7138  1.0000</r>
       <r> -26.7138  1.0000</r>
       <r>   2.2478  1.0000</r>
       <r>   3.4952  1.0000</r>
       <r>   4.9771  1.0000</r>
       <r>   6.1295 -0.0000</r>
       <r>   6.5846 -0.0000</r>
       <r>   6.5846 -0.0000</r>
       <r>   7.0917 -0.0000</r>
       <r>   7.0917 -0.0000</r>
       <r>   7.5063 -0.0000</r>
       <r>   8.2171 -0.0000</r>
       <r>   8.9211  0.0000</r>
       <r>   9.4634  0.0000</r>
      </set>
      <set comment="kpoint 35">
       <r> -26.9578  1.0000</r>
       <r> -26.8614  1.0000</r>
       <r> -26.8221  1.0000</r>
       <r> -26.8221  1.0000</r>
       <r> -26.7234  1.0000</r>
       <r> -26.7234  1.0000</r>
       <r>   2.3711  1.0000</r>
       <r>   3.4217  1.0000</r>
       <r>   5.0670  1.0000</r>
       <r>   6.0299 -0.0000</r>
       <r>   6.6120 -0.0000</r>
       <r>   6.6120 -0.0000</r>
       <r>   7.0341 -0.0000</r>
       <r>   7.0341 -0.0000</r>
       <r>   7.5630 -0.0000</r>
       <r>   8.1570 -0.0000</r>
       <r>   8.9496  0.0000</r>
       <r>   9.3905  0.0000</r>
      </set>
      <set comment="kpoint 36">
       <r> -26.9503  1.0000</r>
       <r> -26.8730  1.0000</r>
       <r> -26.8122  1.0000</r>
       <r> -26.8122  1.0000</r>
       <r> -26.7331  1.0000</r>
       <r> -26.7331  1.0000</r>
       <r>   2.4929  1.0000</r>
       <r>   3.3407  1.0000</r>
       <r>   5.1584  1.0000</r>
       <r>   5.9304 -0.0000</r>
       <r>   6.6419 -0.0000</r>
       <r>   6.6419 -0.0000</r>
       <r>   6.9793 -0.0000</r>
       <r>   6.9793 -0.0000</r>
       <r>   7.6204 -0.0000</r>
       <r>   8.0968 -0.0000</r>
       <r>   8.9794  0.0000</r>
       <r>   9.3247  0.0000</r>
      </set>
      <set comment="kpoint 37">
       <r> -26.9422  1.0000</r>
       <r> -26.8842  1.0000</r>
       <r> -26.8023  1.0000</r>
       <r> -26.8023  1.0000</r>
       <r> -26.7429  1.0000</r>
       <r> -26.7429  1.0000</r>
       <r>   2.6126  1.0000</r>
       <r>   3.2529  1.0000</r>
       <r>   5.2513  1.0012</r>
       <r>   5.8313 -0.0000</r>
       <r>   6.6745 -0.0000</r>
       <r>   6.6745 -0.0000</r>
       <r>   6.9273 -0.0000</r>
       <r>   6.9273 -0.0000</r>
       <r>   7.6785 -0.0000</r>
       <r>   8.0364 -0.0000</r>
       <r>   9.0109  0.0000</r>
       <r>   9.2655  0.0000</r>
      </set>
      <set comment="kpoint 38">
       <r> -26.9337  1.0000</r>
       <r> -26.8949  1.0000</r>
       <r> -26.7924  1.0000</r>
       <r> -26.7924  1.0000</r>
       <r> -26.7527  1.0000</r>
       <r> -26.7527  1.0000</r>
       <r>   2.7297  1.0000</r>
       <r>   3.1586  1.0000</r>
       <r>   5.3454  1.0257</r>
       <r>   5.7326 -0.0024</r>
       <r>   6.7097 -0.0000</r>
       <r>   6.7097 -0.0000</r>
       <r>   6.8782 -0.0000</r>
       <r>   6.8782 -0.0000</r>
       <r>   7.7372 -0.0000</r>
       <r>   7.9761 -0.0000</r>
       <r>   9.0445  0.0000</r>
       <r>   9.2121  0.0000</r>
      </set>
      <set comment="kpoint 39">
       <r> -26.9247  1.0000</r>
       <r> -26.9053  1.0000</r>
       <r> -26.7825  1.0000</r>
       <r> -26.7825  1.0000</r>
       <r> -26.7626  1.0000</r>
       <r> -26.7626  1.0000</r>
       <r>   2.8434  1.0000</r>
       <r>   3.0585  1.0000</r>
       <r>   5.4408  0.9156</r>
       <r>   5.6345 -0.0335</r>
       <r>   6.7477 -0.0000</r>
       <r>   6.7477 -0.0000</r>
       <r>   6.8319 -0.0000</r>
       <r>   6.8319 -0.0000</r>
       <r>   7.7964 -0.0000</r>
       <r>   7.9160 -0.0000</r>
       <r>   9.0809  0.0000</r>
       <r>   9.1640  0.0000</r>
      </set>
      <set comment="kpoint 40">
       <r> -26.9152  1.0000</r>
       <r> -26.9152  1.0000</r>
       <r> -26.7725  1.0000</r>
       <r> -26.7725  1.0000</r>
       <r> -26.7725  1.0000</r>
       <r> -26.7725  1.0000</r>
       <r>   2.9532  1.0000</r>
       <r>   2.9532  1.0000</r>
       <r>   5.5372  0.2069</r>
       <r>   5.5372  0.2069</r>
       <r>   6.7884 -0.0000</r>
       <r>   6.7884 -0.0000</r>
       <r>   6.7884 -0.0000</r>
       <r>   6.7884 -0.0000</r>
       <r>   7.8560 -0.0000</r>
       <r>   7.8560 -0.0000</r>
       <r>   9.1205  0.0000</r>
       <r>   9.1205  0.0000</r>
      </set>
      <set comment="kpoint 41">
       <r> -26.9152  1.0000</r>
       <r> -26.9152  1.0000</r>
       <r> -26.7725  1.0000</r>
       <r> -26.7725  1.0000</r>
       <r> -26.7725  1.0000</r>
       <r> -26.7725  1.0000</r>
       <r>   2.9532  1.0000</r>
       <r>   2.9532  1.0000</r>
       <r>   5.5372  0.2069</r>
       <r>   5.5372  0.2069</r>
       <r>   6.7884 -0.0000</r>
       <r>   6.7884 -0.0000</r>
       <r>   6.7884 -0.0000</r>
       <r>   6.7884 -0.0000</r>
       <r>   7.8560 -0.0000</r>
       <r>   7.8560 -0.0000</r>
       <r>   9.1205  0.0000</r>
       <r>   9.1205  0.0000</r>
      </set>
      <set comment="kpoint 42">
       <r> -26.9166  1.0000</r>
       <r> -26.9166  1.0000</r>
       <r> -26.7725  1.0000</r>
       <r> -26.7725  1.0000</r>
       <r> -26.7713  1.0000</r>
       <r> -26.7713  1.0000</r>
       <r>   2.9545  1.0000</r>
       <r>   2.9545  1.0000</r>
       <r>   5.5346  0.2244</r>
       <r>   5.5346  0.2244</r>
       <r>   6.7806 -0.0000</r>
       <r>   6.7806 -0.0000</r>
       <r>   6.7928 -0.0000</r>
       <r>   6.7928 -0.0000</r>
       <r>   7.8642 -0.0000</r>
       <r>   7.8642 -0.0000</r>
       <r>   9.1208  0.0000</r>
       <r>   9.1208  0.0000</r>
      </set>
      <set comment="kpoint 43">
       <r> -26.9207  1.0000</r>
       <r> -26.9207  1.0000</r>
       <r> -26.7724  1.0000</r>
       <r> -26.7724  1.0000</r>
       <r> -26.7677  1.0000</r>
       <r> -26.7677  1.0000</r>
       <r>   2.9584  1.0000</r>
       <r>   2.9584  1.0000</r>
       <r>   5.5270  0.2787</r>
       <r>   5.5270  0.2787</r>
       <r>   6.7580 -0.0000</r>
       <r>   6.7580 -0.0000</r>
       <r>   6.8060 -0.0000</r>
       <r>   6.8060 -0.0000</r>
       <r>   7.8879 -0.0000</r>
       <r>   7.8879 -0.0000</r>
       <r>   9.1216  0.0000</r>
       <r>   9.1216  0.0000</r>
      </set>
      <set comment="kpoint 44">
       <r> -26.9271  1.0000</r>
       <r> -26.9271  1.0000</r>
       <r> -26.7723  1.0000</r>
       <r> -26.7723  1.0000</r>
       <r> -26.7621  1.0000</r>
       <r> -26.7621  1.0000</r>
       <r>   2.9647  1.0000</r>
       <r>   2.9647  1.0000</r>
       <r>   5.5151  0.3726</r>
       <r>   5.5151  0.3726</r>
       <r>   6.7224 -0.0000</r>
       <r>   6.7224 -0.0000</r>
       <r>   6.8274 -0.0000</r>
       <r>   6.8274 -0.0000</r>
       <r>   7.9254 -0.0000</r>
       <r>   7.9254 -0.0000</r>
       <r>   9.1229  0.0000</r>
       <r>   9.1229  0.0000</r>
      </set>
      <set comment="kpoint 45">
       <r> -26.9353  1.0000</r>
       <r> -26.9353  1.0000</r>
       <r> -26.7722  1.0000</r>
       <r> -26.7722  1.0000</r>
       <r> -26.7549  1.0000</r>
       <r> -26.7549  1.0000</r>
       <r>   2.9734  1.0000</r>
       <r>   2.9734  1.0000</r>
       <r>   5.4995  0.5028</r>
       <r>   5.4995  0.5028</r>
       <r>   6.6763 -0.0000</r>
       <r>   6.6763 -0.0000</r>
       <r>   6.8563 -0.0000</r>
       <r>   6.8563 -0.0000</r>
       <r>   7.9741 -0.0000</r>
       <r>   7.9741 -0.0000</r>
       <r>   9.1247  0.0000</r>
       <r>   9.1247  0.0000</r>
      </set>
      <set comment="kpoint 46">
       <r> -26.9448  1.0000</r>
       <r> -26.9448  1.0000</r>
       <r> -26.7720  1.0000</r>
       <r> -26.7720  1.0000</r>
       <r> -26.7467  1.0000</r>
       <r> -26.7467  1.0000</r>
       <r>   2.9843  1.0000</r>
       <r>   2.9843  1.0000</r>
       <r>   5.4813  0.6537</r>
       <r>   5.4813  0.6537</r>
       <r>   6.6222 -0.0000</r>
       <r>   6.6222 -0.0000</r>
       <r>   6.8918 -0.0000</r>
       <r>   6.8918 -0.0000</r>
       <r>   8.0316 -0.0000</r>
       <r>   8.0316 -0.0000</r>
       <r>   9.1269  0.0000</r>
       <r>   9.1269  0.0000</r>
      </set>
      <set comment="kpoint 47">
       <r> -26.9552  1.0000</r>
       <r> -26.9552  1.0000</r>
       <r> -26.7716  1.0000</r>
       <r> -26.7716  1.0000</r>
       <r> -26.7375  1.0000</r>
       <r> -26.7375  1.0000</r>
       <r>   2.9971  1.0000</r>
       <r>   2.9971  1.0000</r>
       <r>   5.4614  0.7999</r>
       <r>   5.4614  0.7999</r>
       <r>   6.5621 -0.0000</r>
       <r>   6.5621 -0.0000</r>
       <r>   6.9352 -0.0000</r>
       <r>   6.9352 -0.0000</r>
       <r>   8.0988 -0.0000</r>
       <r>   8.0988 -0.0000</r>
       <r>   9.1293  0.0000</r>
       <r>   9.1293  0.0000</r>
      </set>
      <set comment="kpoint 48">
       <r> -26.9666  1.0000</r>
       <r> -26.9666  1.0000</r>
       <r> -26.7714  1.0000</r>
       <r> -26.7714  1.0000</r>
       <r> -26.7281  1.0000</r>
       <r> -26.7281  1.0000</r>
       <r>   3.0115  1.0000</r>
       <r>   3.0115  1.0000</r>
       <r>   5.4413  0.9132</r>
       <r>   5.4413  0.9132</r>
       <r>   6.4978 -0.0000</r>
       <r>   6.4978 -0.0000</r>
       <r>   6.9809 -0.0000</r>
       <r>   6.9809 -0.0000</r>
       <r>   8.1676 -0.0000</r>
       <r>   8.1676 -0.0000</r>
       <r>   9.1321  0.0000</r>
       <r>   9.1321  0.0000</r>
      </set>
      <set comment="kpoint 49">
       <r> -26.9784  1.0000</r>
       <r> -26.9784  1.0000</r>
       <r> -26.7707  1.0000</r>
       <r> -26.7707  1.0000</r>
       <r> -26.7190  1.0000</r>
       <r> -26.7190  1.0000</r>
       <r>   3.0272  1.0000</r>
       <r>   3.0272  1.0000</r>
       <r>   5.4220  0.9844</r>
       <r>   5.4220  0.9844</r>
       <r>   6.4302 -0.0000</r>
       <r>   6.4302 -0.0000</r>
       <r>   7.0284 -0.0000</r>
       <r>   7.0284 -0.0000</r>
       <r>   8.2437  0.0000</r>
       <r>   8.2437  0.0000</r>
       <r>   9.1354  0.0000</r>
       <r>   9.1354  0.0000</r>
      </set>
      <set comment="kpoint 50">
       <r> -26.9908  1.0000</r>
       <r> -26.9908  1.0000</r>
       <r> -26.7704  1.0000</r>
       <r> -26.7704  1.0000</r>
       <r> -26.7092  1.0000</r>
       <r> -26.7092  1.0000</r>
       <r>   3.0438  1.0000</r>
       <r>   3.0438  1.0000</r>
       <r>   5.4044  1.0197</r>
       <r>   5.4044  1.0197</r>
       <r>   6.3613 -0.0000</r>
       <r>   6.3613 -0.0000</r>
       <r>   7.0807 -0.0000</r>
       <r>   7.0807 -0.0000</r>
       <r>   8.3183  0.0000</r>
       <r>   8.3183  0.0000</r>
       <r>   9.1384  0.0000</r>
       <r>   9.1384  0.0000</r>
      </set>
      <set comment="kpoint 51">
       <r> -27.0034  1.0000</r>
       <r> -27.0034  1.0000</r>
       <r> -26.7701  1.0000</r>
       <r> -26.7701  1.0000</r>
       <r> -26.6994  1.0000</r>
       <r> -26.6994  1.0000</r>
       <r>   3.0609  1.0000</r>
       <r>   3.0609  1.0000</r>
       <r>   5.3896  1.0327</r>
       <r>   5.3896  1.0327</r>
       <r>   6.2914 -0.0000</r>
       <r>   6.2914 -0.0000</r>
       <r>   7.1354 -0.0000</r>
       <r>   7.1354 -0.0000</r>
       <r>   8.3944  0.0000</r>
       <r>   8.3944  0.0000</r>
       <r>   9.1414  0.0000</r>
       <r>   9.1414  0.0000</r>
      </set>
      <set comment="kpoint 52">
       <r> -27.0162  1.0000</r>
       <r> -27.0162  1.0000</r>
       <r> -26.7698  1.0000</r>
       <r> -26.7698  1.0000</r>
       <r> -26.6896  1.0000</r>
       <r> -26.6896  1.0000</r>
       <r>   3.0781  1.0000</r>
       <r>   3.0781  1.0000</r>
       <r>   5.3785  1.0354</r>
       <r>   5.3785  1.0354</r>
       <r>   6.2212 -0.0000</r>
       <r>   6.2212 -0.0000</r>
       <r>   7.1919 -0.0000</r>
       <r>   7.1919 -0.0000</r>
       <r>   8.4714  0.0000</r>
       <r>   8.4714  0.0000</r>
       <r>   9.1441  0.0000</r>
       <r>   9.1441  0.0000</r>
      </set>
      <set comment="kpoint 53">
       <r> -27.0291  1.0000</r>
       <r> -27.0291  1.0000</r>
       <r> -26.7694  1.0000</r>
       <r> -26.7694  1.0000</r>
       <r> -26.6800  1.0000</r>
       <r> -26.6800  1.0000</r>
       <r>   3.0948  1.0000</r>
       <r>   3.0948  1.0000</r>
       <r>   5.3719  1.0350</r>
       <r>   5.3719  1.0350</r>
       <r>   6.1512 -0.0000</r>
       <r>   6.1512 -0.0000</r>
       <r>   7.2495 -0.0000</r>
       <r>   7.2495 -0.0000</r>
       <r>   8.5487  0.0000</r>
       <r>   8.5487  0.0000</r>
       <r>   9.1465  0.0000</r>
       <r>   9.1465  0.0000</r>
      </set>
      <set comment="kpoint 54">
       <r> -27.0424  1.0000</r>
       <r> -27.0424  1.0000</r>
       <r> -26.7690  1.0000</r>
       <r> -26.7690  1.0000</r>
       <r> -26.6705  1.0000</r>
       <r> -26.6705  1.0000</r>
       <r>   3.1106  1.0000</r>
       <r>   3.1106  1.0000</r>
       <r>   5.3703  1.0348</r>
       <r>   5.3703  1.0348</r>
       <r>   6.0818 -0.0000</r>
       <r>   6.0818 -0.0000</r>
       <r>   7.3076 -0.0000</r>
       <r>   7.3076 -0.0000</r>
       <r>   8.6259  0.0000</r>
       <r>   8.6259  0.0000</r>
       <r>   9.1467  0.0000</r>
       <r>   9.1467  0.0000</r>
      </set>
      <set comment="kpoint 55">
       <r> -27.0553  1.0000</r>
       <r> -27.0553  1.0000</r>
       <r> -26.7686  1.0000</r>
       <r> -26.7686  1.0000</r>
       <r> -26.6612  1.0000</r>
       <r> -26.6612  1.0000</r>
       <r>   3.1252  1.0000</r>
       <r>   3.1252  1.0000</r>
       <r>   5.3748  1.0354</r>
       <r>   5.3748  1.0354</r>
       <r>   6.0134 -0.0000</r>
       <r>   6.0134 -0.0000</r>
       <r>   7.3662 -0.0000</r>
       <r>   7.3662 -0.0000</r>
       <r>   8.7025  0.0000</r>
       <r>   8.7025  0.0000</r>
       <r>   9.1477  0.0000</r>
       <r>   9.1477  0.0000</r>
      </set>
      <set comment="kpoint 56">
       <r> -27.0680  1.0000</r>
       <r> -27.0680  1.0000</r>
       <r> -26.7681  1.0000</r>
       <r> -26.7681  1.0000</r>
       <r> -26.6521  1.0000</r>
       <r> -26.6521  1.0000</r>
       <r>   3.1380  1.0000</r>
       <r>   3.1380  1.0000</r>
       <r>   5.3859  1.0342</r>
       <r>   5.3859  1.0342</r>
       <r>   5.9462 -0.0000</r>
       <r>   5.9462 -0.0000</r>
       <r>   7.4247 -0.0000</r>
       <r>   7.4247 -0.0000</r>
       <r>   8.7783  0.0000</r>
       <r>   8.7783  0.0000</r>
       <r>   9.1478  0.0000</r>
       <r>   9.1478  0.0000</r>
      </set>
      <set comment="kpoint 57">
       <r> -27.0806  1.0000</r>
       <r> -27.0806  1.0000</r>
       <r> -26.7676  1.0000</r>
       <r> -26.7676  1.0000</r>
       <r> -26.6433  1.0000</r>
       <r> -26.6433  1.0000</r>
       <r>   3.1488  1.0000</r>
       <r>   3.1488  1.0000</r>
       <r>   5.4038  1.0204</r>
       <r>   5.4038  1.0204</r>
       <r>   5.8805 -0.0000</r>
       <r>   5.8805 -0.0000</r>
       <r>   7.4828 -0.0000</r>
       <r>   7.4828 -0.0000</r>
       <r>   8.8529  0.0000</r>
       <r>   8.8529  0.0000</r>
       <r>   9.1467  0.0000</r>
       <r>   9.1467  0.0000</r>
      </set>
      <set comment="kpoint 58">
       <r> -27.0935  1.0000</r>
       <r> -27.0935  1.0000</r>
       <r> -26.7672  1.0000</r>
       <r> -26.7672  1.0000</r>
       <r> -26.6351  1.0000</r>
       <r> -26.6351  1.0000</r>
       <r>   3.1573  1.0000</r>
       <r>   3.1573  1.0000</r>
       <r>   5.4272  0.9685</r>
       <r>   5.4272  0.9685</r>
       <r>   5.8163 -0.0000</r>
       <r>   5.8163 -0.0000</r>
       <r>   7.5400 -0.0000</r>
       <r>   7.5400 -0.0000</r>
       <r>   8.9252  0.0000</r>
       <r>   8.9252  0.0000</r>
       <r>   9.1428  0.0000</r>
       <r>   9.1428  0.0000</r>
      </set>
      <set comment="kpoint 59">
       <r> -27.1057  1.0000</r>
       <r> -27.1057  1.0000</r>
       <r> -26.7667  1.0000</r>
       <r> -26.7667  1.0000</r>
       <r> -26.6269  1.0000</r>
       <r> -26.6269  1.0000</r>
       <r>   3.1634  1.0000</r>
       <r>   3.1634  1.0000</r>
       <r>   5.4595  0.8122</r>
       <r>   5.4595  0.8122</r>
       <r>   5.7541 -0.0010</r>
       <r>   5.7541 -0.0010</r>
       <r>   7.5962 -0.0000</r>
       <r>   7.5962 -0.0000</r>
       <r>   8.9966  0.0000</r>
       <r>   8.9966  0.0000</r>
       <r>   9.1384  0.0000</r>
       <r>   9.1384  0.0000</r>
      </set>
      <set comment="kpoint 60">
       <r> -27.1176  1.0000</r>
       <r> -27.1176  1.0000</r>
       <r> -26.7662  1.0000</r>
       <r> -26.7662  1.0000</r>
       <r> -26.6190  1.0000</r>
       <r> -26.6190  1.0000</r>
       <r>   3.1670  1.0000</r>
       <r>   3.1670  1.0000</r>
       <r>   5.4991  0.5060</r>
       <r>   5.4991  0.5060</r>
       <r>   5.6939 -0.0096</r>
       <r>   5.6939 -0.0096</r>
       <r>   7.6511 -0.0000</r>
       <r>   7.6511 -0.0000</r>
       <r>   9.0660  0.0000</r>
       <r>   9.0660  0.0000</r>
       <r>   9.1320  0.0000</r>
       <r>   9.1320  0.0000</r>
      </set>
      <set comment="kpoint 61">
       <r> -27.1291  1.0000</r>
       <r> -27.1291  1.0000</r>
       <r> -26.7657  1.0000</r>
       <r> -26.7657  1.0000</r>
       <r> -26.6114  1.0000</r>
       <r> -26.6114  1.0000</r>
       <r>   3.1682  1.0000</r>
       <r>   3.1682  1.0000</r>
       <r>   5.5458  0.1525</r>
       <r>   5.5458  0.1525</r>
       <r>   5.6360 -0.0331</r>
       <r>   5.6360 -0.0331</r>
       <r>   7.7045 -0.0000</r>
       <r>   7.7045 -0.0000</r>
       <r>   9.1233  0.0000</r>
       <r>   9.1233  0.0000</r>
       <r>   9.1334  0.0000</r>
       <r>   9.1334  0.0000</r>
      </set>
      <set comment="kpoint 62">
       <r> -27.1403  1.0000</r>
       <r> -27.1403  1.0000</r>
       <r> -26.7652  1.0000</r>
       <r> -26.7652  1.0000</r>
       <r> -26.6042  1.0000</r>
       <r> -26.6042  1.0000</r>
       <r>   3.1670  1.0000</r>
       <r>   3.1670  1.0000</r>
       <r>   5.5803  0.0087</r>
       <r>   5.5803  0.0087</r>
       <r>   5.5994 -0.0247</r>
       <r>   5.5994 -0.0247</r>
       <r>   7.7561 -0.0000</r>
       <r>   7.7561 -0.0000</r>
       <r>   9.1122  0.0000</r>
       <r>   9.1122  0.0000</r>
       <r>   9.1984  0.0000</r>
       <r>   9.1984  0.0000</r>
      </set>
      <set comment="kpoint 63">
       <r> -27.1511  1.0000</r>
       <r> -27.1511  1.0000</r>
       <r> -26.7647  1.0000</r>
       <r> -26.7647  1.0000</r>
       <r> -26.5973  1.0000</r>
       <r> -26.5973  1.0000</r>
       <r>   3.1636  1.0000</r>
       <r>   3.1636  1.0000</r>
       <r>   5.5271  0.2785</r>
       <r>   5.5271  0.2785</r>
       <r>   5.6595 -0.0232</r>
       <r>   5.6595 -0.0232</r>
       <r>   7.8058 -0.0000</r>
       <r>   7.8058 -0.0000</r>
       <r>   9.0982  0.0000</r>
       <r>   9.0982  0.0000</r>
       <r>   9.2610  0.0000</r>
       <r>   9.2610  0.0000</r>
      </set>
      <set comment="kpoint 64">
       <r> -27.1615  1.0000</r>
       <r> -27.1615  1.0000</r>
       <r> -26.7642  1.0000</r>
       <r> -26.7642  1.0000</r>
       <r> -26.5908  1.0000</r>
       <r> -26.5908  1.0000</r>
       <r>   3.1584  1.0000</r>
       <r>   3.1584  1.0000</r>
       <r>   5.4764  0.6923</r>
       <r>   5.4764  0.6923</r>
       <r>   5.7254 -0.0032</r>
       <r>   5.7254 -0.0032</r>
       <r>   7.8534 -0.0000</r>
       <r>   7.8534 -0.0000</r>
       <r>   9.0813  0.0000</r>
       <r>   9.0813  0.0000</r>
       <r>   9.3209  0.0000</r>
       <r>   9.3209  0.0000</r>
      </set>
      <set comment="kpoint 65">
       <r> -27.1714  1.0000</r>
       <r> -27.1714  1.0000</r>
       <r> -26.7637  1.0000</r>
       <r> -26.7637  1.0000</r>
       <r> -26.5846  1.0000</r>
       <r> -26.5846  1.0000</r>
       <r>   3.1516  1.0000</r>
       <r>   3.1516  1.0000</r>
       <r>   5.4283  0.9649</r>
       <r>   5.4283  0.9649</r>
       <r>   5.7967 -0.0001</r>
       <r>   5.7967 -0.0001</r>
       <r>   7.8988 -0.0000</r>
       <r>   7.8988 -0.0000</r>
       <r>   9.0611  0.0000</r>
       <r>   9.0611  0.0000</r>
       <r>   9.3780  0.0000</r>
       <r>   9.3780  0.0000</r>
      </set>
      <set comment="kpoint 66">
       <r> -27.1808  1.0000</r>
       <r> -27.1808  1.0000</r>
       <r> -26.7632  1.0000</r>
       <r> -26.7632  1.0000</r>
       <r> -26.5788  1.0000</r>
       <r> -26.5788  1.0000</r>
       <r>   3.1435  1.0000</r>
       <r>   3.1435  1.0000</r>
       <r>   5.3830  1.0349</r>
       <r>   5.3830  1.0349</r>
       <r>   5.8726 -0.0000</r>
       <r>   5.8726 -0.0000</r>
       <r>   7.9418 -0.0000</r>
       <r>   7.9418 -0.0000</r>
       <r>   9.0376  0.0000</r>
       <r>   9.0376  0.0000</r>
       <r>   9.4322  0.0000</r>
       <r>   9.4322  0.0000</r>
      </set>
      <set comment="kpoint 67">
       <r> -27.1891  1.0000</r>
       <r> -27.1891  1.0000</r>
       <r> -26.7625  1.0000</r>
       <r> -26.7625  1.0000</r>
       <r> -26.5734  1.0000</r>
       <r> -26.5734  1.0000</r>
       <r>   3.1348  1.0000</r>
       <r>   3.1348  1.0000</r>
       <r>   5.3405  1.0234</r>
       <r>   5.3405  1.0234</r>
       <r>   5.9523 -0.0000</r>
       <r>   5.9523 -0.0000</r>
       <r>   7.9826 -0.0000</r>
       <r>   7.9826 -0.0000</r>
       <r>   9.0108  0.0000</r>
       <r>   9.0108  0.0000</r>
       <r>   9.4875  0.0000</r>
       <r>   9.4875  0.0000</r>
      </set>
      <set comment="kpoint 68">
       <r> -27.1979  1.0000</r>
       <r> -27.1979  1.0000</r>
       <r> -26.7621  1.0000</r>
       <r> -26.7621  1.0000</r>
       <r> -26.5683  1.0000</r>
       <r> -26.5683  1.0000</r>
       <r>   3.1249  1.0000</r>
       <r>   3.1249  1.0000</r>
       <r>   5.3009  1.0083</r>
       <r>   5.3009  1.0083</r>
       <r>   6.0340 -0.0000</r>
       <r>   6.0340 -0.0000</r>
       <r>   8.0204 -0.0000</r>
       <r>   8.0204 -0.0000</r>
       <r>   8.9800  0.0000</r>
       <r>   8.9800  0.0000</r>
       <r>   9.5351  0.0000</r>
       <r>   9.5351  0.0000</r>
      </set>
      <set comment="kpoint 69">
       <r> -27.2057  1.0000</r>
       <r> -27.2057  1.0000</r>
       <r> -26.7617  1.0000</r>
       <r> -26.7617  1.0000</r>
       <r> -26.5637  1.0000</r>
       <r> -26.5637  1.0000</r>
       <r>   3.1148  1.0000</r>
       <r>   3.1148  1.0000</r>
       <r>   5.2642  1.0021</r>
       <r>   5.2642  1.0021</r>
       <r>   6.1186 -0.0000</r>
       <r>   6.1186 -0.0000</r>
       <r>   8.0555 -0.0000</r>
       <r>   8.0555 -0.0000</r>
       <r>   8.9465  0.0000</r>
       <r>   8.9465  0.0000</r>
       <r>   9.5794  0.0000</r>
       <r>   9.5794  0.0000</r>
      </set>
      <set comment="kpoint 70">
       <r> -27.2131  1.0000</r>
       <r> -27.2131  1.0000</r>
       <r> -26.7617  1.0000</r>
       <r> -26.7617  1.0000</r>
       <r> -26.5596  1.0000</r>
       <r> -26.5596  1.0000</r>
       <r>   3.1046  1.0000</r>
       <r>   3.1046  1.0000</r>
       <r>   5.2292  1.0004</r>
       <r>   5.2292  1.0004</r>
       <r>   6.2038 -0.0000</r>
       <r>   6.2038 -0.0000</r>
       <r>   8.0877 -0.0000</r>
       <r>   8.0877 -0.0000</r>
       <r>   8.9097  0.0000</r>
       <r>   8.9097  0.0000</r>
       <r>   9.6189  0.0000</r>
       <r>   9.6189  0.0000</r>
      </set>
      <set comment="kpoint 71">
       <r> -27.2195  1.0000</r>
       <r> -27.2195  1.0000</r>
       <r> -26.7612  1.0000</r>
       <r> -26.7612  1.0000</r>
       <r> -26.5554  1.0000</r>
       <r> -26.5554  1.0000</r>
       <r>   3.0947  1.0000</r>
       <r>   3.0947  1.0000</r>
       <r>   5.1993  1.0001</r>
       <r>   5.1993  1.0001</r>
       <r>   6.2892 -0.0000</r>
       <r>   6.2892 -0.0000</r>
       <r>   8.1174 -0.0000</r>
       <r>   8.1174 -0.0000</r>
       <r>   8.8728  0.0000</r>
       <r>   8.8728  0.0000</r>
       <r>   9.6579  0.0000</r>
       <r>   9.6579  0.0000</r>
      </set>
      <set comment="kpoint 72">
       <r> -27.2255  1.0000</r>
       <r> -27.2255  1.0000</r>
       <r> -26.7609  1.0000</r>
       <r> -26.7609  1.0000</r>
       <r> -26.5519  1.0000</r>
       <r> -26.5519  1.0000</r>
       <r>   3.0852  1.0000</r>
       <r>   3.0852  1.0000</r>
       <r>   5.1717  1.0000</r>
       <r>   5.1717  1.0000</r>
       <r>   6.3729 -0.0000</r>
       <r>   6.3729 -0.0000</r>
       <r>   8.1438 -0.0000</r>
       <r>   8.1438 -0.0000</r>
       <r>   8.8319  0.0000</r>
       <r>   8.8319  0.0000</r>
       <r>   9.6913  0.0000</r>
       <r>   9.6913  0.0000</r>
      </set>
      <set comment="kpoint 73">
       <r> -27.2308  1.0000</r>
       <r> -27.2308  1.0000</r>
       <r> -26.7606  1.0000</r>
       <r> -26.7606  1.0000</r>
       <r> -26.5488  1.0000</r>
       <r> -26.5488  1.0000</r>
       <r>   3.0763  1.0000</r>
       <r>   3.0763  1.0000</r>
       <r>   5.1473  1.0000</r>
       <r>   5.1473  1.0000</r>
       <r>   6.4536 -0.0000</r>
       <r>   6.4536 -0.0000</r>
       <r>   8.1673 -0.0000</r>
       <r>   8.1673 -0.0000</r>
       <r>   8.7903  0.0000</r>
       <r>   8.7903  0.0000</r>
       <r>   9.7210  0.0000</r>
       <r>   9.7210  0.0000</r>
      </set>
      <set comment="kpoint 74">
       <r> -27.2355  1.0000</r>
       <r> -27.2355  1.0000</r>
       <r> -26.7603  1.0000</r>
       <r> -26.7603  1.0000</r>
       <r> -26.5461  1.0000</r>
       <r> -26.5461  1.0000</r>
       <r>   3.0682  1.0000</r>
       <r>   3.0682  1.0000</r>
       <r>   5.1261  1.0000</r>
       <r>   5.1261  1.0000</r>
       <r>   6.5295 -0.0000</r>
       <r>   6.5295 -0.0000</r>
       <r>   8.1878 -0.0000</r>
       <r>   8.1878 -0.0000</r>
       <r>   8.7490  0.0000</r>
       <r>   8.7490  0.0000</r>
       <r>   9.7469  0.0000</r>
       <r>   9.7469  0.0000</r>
      </set>
      <set comment="kpoint 75">
       <r> -27.2394  1.0000</r>
       <r> -27.2394  1.0000</r>
       <r> -26.7601  1.0000</r>
       <r> -26.7601  1.0000</r>
       <r> -26.5438  1.0000</r>
       <r> -26.5438  1.0000</r>
       <r>   3.0612  1.0000</r>
       <r>   3.0612  1.0000</r>
       <r>   5.1081  1.0000</r>
       <r>   5.1081  1.0000</r>
       <r>   6.5990 -0.0000</r>
       <r>   6.5990 -0.0000</r>
       <r>   8.2052 -0.0000</r>
       <r>   8.2052 -0.0000</r>
       <r>   8.7095  0.0000</r>
       <r>   8.7095  0.0000</r>
       <r>   9.7690  0.0000</r>
       <r>   9.7690  0.0000</r>
      </set>
      <set comment="kpoint 76">
       <r> -27.2426  1.0000</r>
       <r> -27.2426  1.0000</r>
       <r> -26.7599  1.0000</r>
       <r> -26.7599  1.0000</r>
       <r> -26.5419  1.0000</r>
       <r> -26.5419  1.0000</r>
       <r>   3.0552  1.0000</r>
       <r>   3.0552  1.0000</r>
       <r>   5.0934  1.0000</r>
       <r>   5.0934  1.0000</r>
       <r>   6.6599 -0.0000</r>
       <r>   6.6599 -0.0000</r>
       <r>   8.2196 -0.0000</r>
       <r>   8.2196 -0.0000</r>
       <r>   8.6736  0.0000</r>
       <r>   8.6736  0.0000</r>
       <r>   9.7872  0.0000</r>
       <r>   9.7872  0.0000</r>
      </set>
      <set comment="kpoint 77">
       <r> -27.2453  1.0000</r>
       <r> -27.2453  1.0000</r>
       <r> -26.7597  1.0000</r>
       <r> -26.7597  1.0000</r>
       <r> -26.5410  1.0000</r>
       <r> -26.5410  1.0000</r>
       <r>   3.0504  1.0000</r>
       <r>   3.0504  1.0000</r>
       <r>   5.0816  1.0000</r>
       <r>   5.0816  1.0000</r>
       <r>   6.7102 -0.0000</r>
       <r>   6.7102 -0.0000</r>
       <r>   8.2282 -0.0000</r>
       <r>   8.2282 -0.0000</r>
       <r>   8.6412  0.0000</r>
       <r>   8.6412  0.0000</r>
       <r>   9.8012  0.0000</r>
       <r>   9.8012  0.0000</r>
      </set>
      <set comment="kpoint 78">
       <r> -27.2472  1.0000</r>
       <r> -27.2472  1.0000</r>
       <r> -26.7600  1.0000</r>
       <r> -26.7600  1.0000</r>
       <r> -26.5401  1.0000</r>
       <r> -26.5401  1.0000</r>
       <r>   3.0469  1.0000</r>
       <r>   3.0469  1.0000</r>
       <r>   5.0723  1.0000</r>
       <r>   5.0723  1.0000</r>
       <r>   6.7480 -0.0000</r>
       <r>   6.7480 -0.0000</r>
       <r>   8.2359  0.0000</r>
       <r>   8.2359  0.0000</r>
       <r>   8.6171  0.0000</r>
       <r>   8.6171  0.0000</r>
       <r>   9.8094  0.0000</r>
       <r>   9.8094  0.0000</r>
      </set>
      <set comment="kpoint 79">
       <r> -27.2484  1.0000</r>
       <r> -27.2484  1.0000</r>
       <r> -26.7600  1.0000</r>
       <r> -26.7600  1.0000</r>
       <r> -26.5400  1.0000</r>
       <r> -26.5400  1.0000</r>
       <r>   3.0448  1.0000</r>
       <r>   3.0448  1.0000</r>
       <r>   5.0670  1.0000</r>
       <r>   5.0670  1.0000</r>
       <r>   6.7714 -0.0000</r>
       <r>   6.7714 -0.0000</r>
       <r>   8.2384  0.0000</r>
       <r>   8.2384  0.0000</r>
       <r>   8.6002  0.0000</r>
       <r>   8.6002  0.0000</r>
       <r>   9.8153  0.0000</r>
       <r>   9.8153  0.0000</r>
      </set>
      <set comment="kpoint 80">
       <r> -27.2488  1.0000</r>
       <r> -27.2488  1.0000</r>
       <r> -26.7600  1.0000</r>
       <r> -26.7600  1.0000</r>
       <r> -26.5398  1.0000</r>
       <r> -26.5398  1.0000</r>
       <r>   3.0441  1.0000</r>
       <r>   3.0441  1.0000</r>
       <r>   5.0654  1.0000</r>
       <r>   5.0654  1.0000</r>
       <r>   6.7794 -0.0000</r>
       <r>   6.7794 -0.0000</r>
       <r>   8.2399  0.0000</r>
       <r>   8.2399  0.0000</r>
       <r>   8.5951  0.0000</r>
       <r>   8.5951  0.0000</r>
       <r>   9.8173  0.0000</r>
       <r>   9.8173  0.0000</r>
      </set>
      <set comment="kpoint 81">
       <r> -27.2488  1.0000</r>
       <r> -27.2488  1.0000</r>
       <r> -26.7600  1.0000</r>
       <r> -26.7600  1.0000</r>
       <r> -26.5398  1.0000</r>
       <r> -26.5398  1.0000</r>
       <r>   3.0441  1.0000</r>
       <r>   3.0441  1.0000</r>
       <r>   5.0654  1.0000</r>
       <r>   5.0654  1.0000</r>
       <r>   6.7794 -0.0000</r>
       <r>   6.7794 -0.0000</r>
       <r>   8.2399  0.0000</r>
       <r>   8.2399  0.0000</r>
       <r>   8.5951  0.0000</r>
       <r>   8.5951  0.0000</r>
       <r>   9.8173  0.0000</r>
       <r>   9.8173  0.0000</r>
      </set>
      <set comment="kpoint 82">
       <r> -27.2485  1.0000</r>
       <r> -27.2485  1.0000</r>
       <r> -26.7602  1.0000</r>
       <r> -26.7602  1.0000</r>
       <r> -26.5400  1.0000</r>
       <r> -26.5400  1.0000</r>
       <r>   3.0466  1.0000</r>
       <r>   3.0466  1.0000</r>
       <r>   5.0647  1.0000</r>
       <r>   5.0647  1.0000</r>
       <r>   6.7748 -0.0000</r>
       <r>   6.7748 -0.0000</r>
       <r>   8.2405  0.0000</r>
       <r>   8.2405  0.0000</r>
       <r>   8.5952  0.0000</r>
       <r>   8.5952  0.0000</r>
       <r>   9.8240  0.0000</r>
       <r>   9.8240  0.0000</r>
      </set>
      <set comment="kpoint 83">
       <r> -27.2474  1.0000</r>
       <r> -27.2474  1.0000</r>
       <r> -26.7599  1.0000</r>
       <r> -26.7599  1.0000</r>
       <r> -26.5405  1.0000</r>
       <r> -26.5405  1.0000</r>
       <r>   3.0543  1.0000</r>
       <r>   3.0543  1.0000</r>
       <r>   5.0649  1.0000</r>
       <r>   5.0649  1.0000</r>
       <r>   6.7612 -0.0000</r>
       <r>   6.7612 -0.0000</r>
       <r>   8.2432  0.0000</r>
       <r>   8.2432  0.0000</r>
       <r>   8.5966  0.0000</r>
       <r>   8.5966  0.0000</r>
       <r>   9.8476  0.0000</r>
       <r>   9.8476  0.0000</r>
      </set>
      <set comment="kpoint 84">
       <r> -27.2459  1.0000</r>
       <r> -27.2459  1.0000</r>
[...]
       </set>
       <set comment="band 6">
        <r>  0.0000  0.0809  0.0852  0.3321  0.0000  0.0000  0.0000  0.0000  0.0000 </r>
        <r>  0.0000  0.0809  0.0852  0.3321  0.0000  0.0000  0.0000  0.0000  0.0000 </r>
       </set>
       <set comment="band 7">
        <r>  0.2282  0.0011  0.0011  0.0011  0.0000  0.0000  0.0000  0.0000  0.0000 </r>
        <r>  0.2282  0.0011  0.0011  0.0011  0.0000  0.0000  0.0000  0.0000  0.0000 </r>
       </set>
       <set comment="band 8">
        <r>  0.0000  0.0011  0.0011  0.0000  0.0000  0.0000  0.2582  0.0000  0.0873 </r>
        <r>  0.0000  0.0011  0.0011  0.0000  0.0000  0.0000  0.2582  0.0000  0.0873 </r>
       </set>
       <set comment="band 9">
        <r>  0.0000  0.0004  0.0004  0.0015  0.0000  0.0000  0.0873  0.0000  0.2582 </r>
        <r>  0.0000  0.0004  0.0004  0.0015  0.0000  0.0000  0.0873  0.0000  0.2582 </r>
       </set>
       <set comment="band 10">
        <r>  0.0000  0.0000  0.0000  0.0002  0.0780  0.3025  0.0001  0.0733  0.0004 </r>
        <r>  0.0000  0.0000  0.0000  0.0002  0.0780  0.3025  0.0001  0.0733  0.0004 </r>
       </set>
       <set comment="band 11">
        <r>  0.0000  0.0001  0.0001  0.0000  0.2245  0.0000  0.0004  0.2292  0.0001 </r>
        <r>  0.0000  0.0001  0.0001  0.0000  0.2245  0.0000  0.0004  0.2292  0.0001 </r>
       </set>
       <set comment="band 12">
        <r>  0.0000  0.0003  0.0003  0.0003  0.1520  0.1520  0.0000  0.1520  0.0000 </r>
        <r>  0.0000  0.0003  0.0003  0.0003  0.1520  0.1520  0.0000  0.1520  0.0000 </r>
       </set>
       <set comment="band 13">
        <r>  0.0000  0.0000  0.0000  0.0000  0.0003  0.0000  0.3436  0.0003  0.1180 </r>
        <r>  0.0000  0.0000  0.0000  0.0000  0.0003  0.0000  0.3436  0.0003  0.1180 </r>
       </set>
       <set comment="band 14">
        <r>  0.0000  0.0000  0.0000  0.0000  0.0001  0.0004  0.1180  0.0001  0.3436 </r>
        <r>  0.0000  0.0000  0.0000  0.0000  0.0001  0.0004  0.1180  0.0001  0.3436 </r>
       </set>
       <set comment="band 15">
        <r>  0.0009  0.0039  0.0039  0.0039  0.1524  0.1524  0.0000  0.1524  0.0000 </r>
        <r>  0.0009  0.0039  0.0039  0.0039  0.1524  0.1524  0.0000  0.1524  0.0000 </r>
       </set>
       <set comment="band 16">
        <r>  0.0000  0.0006  0.0007  0.0025  0.0843  0.3197  0.0001  0.0757  0.0002 </r>
        <r>  0.0000  0.0006  0.0007  0.0025  0.0843  0.3197  0.0001  0.0757  0.0002 </r>
       </set>
       <set comment="band 17">
        <r>  0.0000  0.0019  0.0018  0.0000  0.2355  0.0001  0.0002  0.2442  0.0001 </r>
        <r>  0.0000  0.0019  0.0018  0.0000  0.2355  0.0001  0.0002  0.2442  0.0001 </r>
       </set>
       <set comment="band 18">
        <r>  0.0000  0.0164  0.1061  0.1368  0.0041  0.0052  0.0085  0.0006  0.0053 </r>
        <r>  0.0000  0.0164  0.1061  0.1368  0.0041  0.0052  0.0085  0.0006  0.0053 </r>
       </set>
      </set>
      <set comment="kpoint 157">
       <set comment="band 1">
        <r>  0.0000  0.2483  0.2443  0.0000  0.0000  0.0000  0.0000  0.0000  0.0000 </r>
        <r>  0.0000  0.2483  0.2443  0.0000  0.0000  0.0000  0.0000  0.0000  0.0000 </r>
       </set>
       <set comment="band 2">
        <r>  0.0000  0.0801  0.0841  0.3284  0.0000  0.0000  0.0000  0.0000  0.0000 </r>
        <r>  0.0000  0.0801  0.0841  0.3284  0.0000  0.0000  0.0000  0.0000  0.0000 </r>
       </set>
       <set comment="band 3">
        <r>  0.0000  0.1643  0.1643  0.1643  0.0000  0.0000  0.0000  0.0000  0.0000 </r>
        <r>  0.0000  0.1643  0.1643  0.1643  0.0000  0.0000  0.0000  0.0000  0.0000 </r>
       </set>
       <set comment="band 4">
        <r>  0.0000  0.1660  0.1660  0.1660  0.0000  0.0000  0.0000  0.0000  0.0000 </r>
        <r>  0.0000  0.1660  0.1660  0.1660  0.0000  0.0000  0.0000  0.0000  0.0000 </r>
       </set>
       <set comment="band 5">
        <r>  0.0000  0.2502  0.2481  0.0000  0.0000  0.0000  0.0000  0.0000  0.0000 </r>
        <r>  0.0000  0.2502  0.2481  0.0000  0.0000  0.0000  0.0000  0.0000  0.0000 </r>
       </set>
       <set comment="band 6">
        <r>  0.0000  0.0820  0.0841  0.3322  0.0000  0.0000  0.0000  0.0000  0.0000 </r>
        <r>  0.0000  0.0820  0.0841  0.3322  0.0000  0.0000  0.0000  0.0000  0.0000 </r>
       </set>
       <set comment="band 7">
        <r>  0.2296  0.0006  0.0006  0.0006  0.0000  0.0000  0.0000  0.0000  0.0000 </r>
        <r>  0.2296  0.0006  0.0006  0.0006  0.0000  0.0000  0.0000  0.0000  0.0000 </r>
       </set>
       <set comment="band 8">
        <r>  0.0000  0.0006  0.0006  0.0000  0.0000  0.0000  0.2590  0.0000  0.0877 </r>
        <r>  0.0000  0.0006  0.0006  0.0000  0.0000  0.0000  0.2590  0.0000  0.0877 </r>
       </set>
       <set comment="band 9">
        <r>  0.0000  0.0002  0.0002  0.0008  0.0000  0.0000  0.0877  0.0000  0.2590 </r>
        <r>  0.0000  0.0002  0.0002  0.0008  0.0000  0.0000  0.0877  0.0000  0.2590 </r>
       </set>
       <set comment="band 10">
        <r>  0.0000  0.0000  0.0000  0.0001  0.0767  0.3034  0.0000  0.0750  0.0001 </r>
        <r>  0.0000  0.0000  0.0000  0.0001  0.0767  0.3034  0.0000  0.0750  0.0001 </r>
       </set>
       <set comment="band 11">
        <r>  0.0000  0.0001  0.0001  0.0000  0.2267  0.0000  0.0001  0.2284  0.0000 </r>
        <r>  0.0000  0.0001  0.0001  0.0000  0.2267  0.0000  0.0001  0.2284  0.0000 </r>
       </set>
       <set comment="band 12">
        <r>  0.0000  0.0002  0.0002  0.0002  0.1521  0.1521  0.0000  0.1521  0.0000 </r>
        <r>  0.0000  0.0002  0.0002  0.0002  0.1521  0.1521  0.0000  0.1521  0.0000 </r>
       </set>
       <set comment="band 13">
        <r>  0.0000  0.0000  0.0000  0.0000  0.0001  0.0000  0.3449  0.0001  0.1183 </r>
        <r>  0.0000  0.0000  0.0000  0.0000  0.0001  0.0000  0.3449  0.0001  0.1183 </r>
       </set>
       <set comment="band 14">
        <r>  0.0000  0.0000  0.0000  0.0000  0.0000  0.0001  0.1183  0.0000  0.3449 </r>
        <r>  0.0000  0.0000  0.0000  0.0000  0.0000  0.0001  0.1183  0.0000  0.3449 </r>
       </set>
       <set comment="band 15">
        <r>  0.0003  0.0025  0.0025  0.0025  0.1564  0.1564  0.0000  0.1564  0.0000 </r>
        <r>  0.0003  0.0025  0.0025  0.0025  0.1564  0.1564  0.0000  0.1564  0.0000 </r>
       </set>
       <set comment="band 16">
        <r>  0.0000  0.0004  0.0004  0.0014  0.0832  0.3224  0.0000  0.0780  0.0001 </r>
        <r>  0.0000  0.0004  0.0004  0.0014  0.0832  0.3224  0.0000  0.0780  0.0001 </r>
       </set>
       <set comment="band 17">
        <r>  0.0000  0.0011  0.0011  0.0000  0.2392  0.0000  0.0001  0.2444  0.0000 </r>
        <r>  0.0000  0.0011  0.0011  0.0000  0.2392  0.0000  0.0001  0.2444  0.0000 </r>
       </set>
       <set comment="band 18">
        <r>  0.0001  0.0353  0.0353  0.1933  0.0014  0.0031  0.0020  0.0014  0.0059 </r>
        <r>  0.0001  0.0353  0.0353  0.1933  0.0014  0.0031  0.0020  0.0014  0.0059 </r>
       </set>
      </set>
      <set comment="kpoint 158">
       <set comment="band 1">
        <r>  0.0000  0.2474  0.2454  0.0000  0.0000  0.0000  0.0000  0.0000  0.0000 </r>
        <r>  0.0000  0.2474  0.2454  0.0000  0.0000  0.0000  0.0000  0.0000  0.0000 </r>
       </set>
       <set comment="band 2">
        <r>  0.0000  0.0811  0.0831  0.3285  0.0000  0.0000  0.0000  0.0000  0.0000 </r>
        <r>  0.0000  0.0811  0.0831  0.3285  0.0000  0.0000  0.0000  0.0000  0.0000 </r>
       </set>
       <set comment="band 3">
        <r>  0.0000  0.1643  0.1643  0.1643  0.0000  0.0000  0.0000  0.0000  0.0000 </r>
        <r>  0.0000  0.1643  0.1643  0.1643  0.0000  0.0000  0.0000  0.0000  0.0000 </r>
       </set>
       <set comment="band 4">
        <r>  0.0000  0.1661  0.1661  0.1660  0.0000  0.0000  0.0000  0.0000  0.0000 </r>
        <r>  0.0000  0.1661  0.1661  0.1660  0.0000  0.0000  0.0000  0.0000  0.0000 </r>
       </set>
       <set comment="band 5">
        <r>  0.0000  0.2502  0.2481  0.0000  0.0000  0.0000  0.0000  0.0000  0.0000 </r>
        <r>  0.0000  0.2502  0.2481  0.0000  0.0000  0.0000  0.0000  0.0000  0.0000 </r>
       </set>
       <set comment="band 6">
        <r>  0.0000  0.0820  0.0841  0.3322  0.0000  0.0000  0.0000  0.0000  0.0000 </r>
        <r>  0.0000  0.0820  0.0841  0.3322  0.0000  0.0000  0.0000  0.0000  0.0000 </r>
       </set>
       <set comment="band 7">
        <r>  0.2306  0.0003  0.0003  0.0003  0.0000  0.0000  0.0000  0.0000  0.0000 </r>
        <r>  0.2306  0.0003  0.0003  0.0003  0.0000  0.0000  0.0000  0.0000  0.0000 </r>
       </set>
       <set comment="band 8">
        <r>  0.0000  0.0003  0.0003  0.0000  0.0000  0.0000  0.2596  0.0000  0.0879 </r>
        <r>  0.0000  0.0003  0.0003  0.0000  0.0000  0.0000  0.2596  0.0000  0.0879 </r>
       </set>
       <set comment="band 9">
        <r>  0.0000  0.0001  0.0001  0.0004  0.0000  0.0000  0.0879  0.0000  0.2596 </r>
        <r>  0.0000  0.0001  0.0001  0.0004  0.0000  0.0000  0.0879  0.0000  0.2596 </r>
       </set>
       <set comment="band 10">
        <r>  0.0000  0.0000  0.0000  0.0000  0.0790  0.3039  0.0000  0.0730  0.0000 </r>
        <r>  0.0000  0.0000  0.0000  0.0000  0.0790  0.3039  0.0000  0.0730  0.0000 </r>
       </set>
       <set comment="band 11">
        <r>  0.0000  0.0000  0.0000  0.0000  0.2249  0.0000  0.0000  0.2310  0.0000 </r>
        <r>  0.0000  0.0000  0.0000  0.0000  0.2249  0.0000  0.0000  0.2310  0.0000 </r>
       </set>
       <set comment="band 12">
        <r>  0.0000  0.0001  0.0001  0.0001  0.1521  0.1521  0.0000  0.1521  0.0000 </r>
        <r>  0.0000  0.0001  0.0001  0.0001  0.1521  0.1521  0.0000  0.1521  0.0000 </r>
       </set>
       <set comment="band 13">
        <r>  0.0000  0.0000  0.0000  0.0000  0.0000  0.0000  0.3453  0.0000  0.1185 </r>
        <r>  0.0000  0.0000  0.0000  0.0000  0.0000  0.0000  0.3453  0.0000  0.1185 </r>
       </set>
       <set comment="band 14">
        <r>  0.0000  0.0000  0.0000  0.0000  0.0000  0.0000  0.1185  0.0000  0.3453 </r>
        <r>  0.0000  0.0000  0.0000  0.0000  0.0000  0.0000  0.1185  0.0000  0.3453 </r>
       </set>
       <set comment="band 15">
        <r>  0.0001  0.0012  0.0012  0.0012  0.1598  0.1598  0.0000  0.1598  0.0000 </r>
        <r>  0.0001  0.0012  0.0012  0.0012  0.1598  0.1598  0.0000  0.1598  0.0000 </r>
       </set>
       <set comment="band 16">
        <r>  0.0000  0.0002  0.0002  0.0007  0.0838  0.3243  0.0000  0.0784  0.0000 </r>
        <r>  0.0000  0.0002  0.0002  0.0007  0.0838  0.3243  0.0000  0.0784  0.0000 </r>
       </set>
       <set comment="band 17">
        <r>  0.0000  0.0005  0.0005  0.0000  0.2405  0.0000  0.0000  0.2459  0.0000 </r>
        <r>  0.0000  0.0005  0.0005  0.0000  0.2405  0.0000  0.0000  0.2459  0.0000 </r>
       </set>
       <set comment="band 18">
        <r>  0.0000  0.0362  0.0362  0.1949  0.0006  0.0014  0.0009  0.0006  0.0027 </r>
        <r>  0.0000  0.0362  0.0362  0.1949  0.0006  0.0014  0.0009  0.0006  0.0027 </r>
       </set>
      </set>
      <set comment="kpoint 159">
       <set comment="band 1">
        <r>  0.0000  0.1844  0.2953  0.0130  0.0000  0.0000  0.0000  0.0000  0.0000 </r>
        <r>  0.0000  0.1844  0.2953  0.0130  0.0000  0.0000  0.0000  0.0000  0.0000 </r>
       </set>
       <set comment="band 2">
        <r>  0.0000  0.1441  0.0332  0.3154  0.0000  0.0000  0.0000  0.0000  0.0000 </r>
        <r>  0.0000  0.1441  0.0332  0.3154  0.0000  0.0000  0.0000  0.0000  0.0000 </r>
       </set>
       <set comment="band 3">
        <r>  0.0000  0.1642  0.1642  0.1643  0.0000  0.0000  0.0000  0.0000  0.0000 </r>
        <r>  0.0000  0.1642  0.1642  0.1643  0.0000  0.0000  0.0000  0.0000  0.0000 </r>
       </set>
       <set comment="band 4">
        <r>  0.0000  0.1661  0.1662  0.1660  0.0000  0.0000  0.0000  0.0000  0.0000 </r>
        <r>  0.0000  0.1661  0.1662  0.1660  0.0000  0.0000  0.0000  0.0000  0.0000 </r>
       </set>
       <set comment="band 5">
        <r>  0.0000  0.3231  0.0406  0.1346  0.0000  0.0000  0.0000  0.0000  0.0000 </r>
        <r>  0.0000  0.3231  0.0406  0.1346  0.0000  0.0000  0.0000  0.0000  0.0000 </r>
       </set>
       <set comment="band 6">
        <r>  0.0000  0.0091  0.2915  0.1977  0.0000  0.0000  0.0000  0.0000  0.0000 </r>
        <r>  0.0000  0.0091  0.2915  0.1977  0.0000  0.0000  0.0000  0.0000  0.0000 </r>
       </set>
       <set comment="band 7">
        <r>  0.2312  0.0001  0.0001  0.0001  0.0000  0.0000  0.0000  0.0000  0.0000 </r>
        <r>  0.2312  0.0001  0.0001  0.0001  0.0000  0.0000  0.0000  0.0000  0.0000 </r>
       </set>
       <set comment="band 8">
        <r>  0.0000  0.0001  0.0001  0.0000  0.0000  0.0000  0.2597  0.0000  0.0882 </r>
        <r>  0.0000  0.0001  0.0001  0.0000  0.0000  0.0000  0.2597  0.0000  0.0882 </r>
       </set>
       <set comment="band 9">
        <r>  0.0000  0.0000  0.0000  0.0001  0.0000  0.0000  0.0882  0.0000  0.2597 </r>
        <r>  0.0000  0.0000  0.0000  0.0001  0.0000  0.0000  0.0882  0.0000  0.2597 </r>
       </set>
       <set comment="band 10">
        <r>  0.0000  0.0000  0.0000  0.0000  0.0724  0.3042  0.0000  0.0797  0.0000 </r>
        <r>  0.0000  0.0000  0.0000  0.0000  0.0724  0.3042  0.0000  0.0797  0.0000 </r>
       </set>
       <set comment="band 11">
        <r>  0.0000  0.0000  0.0000  0.0000  0.2318  0.0001  0.0000  0.2245  0.0000 </r>
        <r>  0.0000  0.0000  0.0000  0.0000  0.2318  0.0001  0.0000  0.2245  0.0000 </r>
       </set>
       <set comment="band 12">
        <r>  0.0000  0.0000  0.0000  0.0000  0.1522  0.1521  0.0000  0.1522  0.0000 </r>
        <r>  0.0000  0.0000  0.0000  0.0000  0.1522  0.1521  0.0000  0.1522  0.0000 </r>
       </set>
       <set comment="band 13">
        <r>  0.0000  0.0000  0.0000  0.0000  0.0000  0.0000  0.3450  0.0000  0.1192 </r>
        <r>  0.0000  0.0000  0.0000  0.0000  0.0000  0.0000  0.3450  0.0000  0.1192 </r>
       </set>
       <set comment="band 14">
        <r>  0.0000  0.0000  0.0000  0.0000  0.0000  0.0000  0.1192  0.0000  0.3450 </r>
        <r>  0.0000  0.0000  0.0000  0.0000  0.0000  0.0000  0.1192  0.0000  0.3450 </r>
       </set>
       <set comment="band 15">
        <r>  0.0000  0.0003  0.0003  0.0003  0.1621  0.1621  0.0000  0.1621  0.0000 </r>
        <r>  0.0000  0.0003  0.0003  0.0003  0.1621  0.1621  0.0000  0.1621  0.0000 </r>
       </set>
       <set comment="band 16">
        <r>  0.0000  0.0000  0.0000  0.0002  0.0723  0.3251  0.0000  0.0908  0.0000 </r>
        <r>  0.0000  0.0000  0.0000  0.0002  0.0723  0.3251  0.0000  0.0908  0.0000 </r>
       </set>
       <set comment="band 17">
        <r>  0.0000  0.0001  0.0001  0.0000  0.2531  0.0003  0.0000  0.2347  0.0000 </r>
        <r>  0.0000  0.0001  0.0001  0.0000  0.2531  0.0003  0.0000  0.2347  0.0000 </r>
       </set>
       <set comment="band 18">
        <r>  0.0000  0.1340  0.0000  0.1355  0.0000  0.0003  0.0000  0.0003  0.0009 </r>
        <r>  0.0000  0.1340  0.0000  0.1355  0.0000  0.0003  0.0000  0.0003  0.0009 </r>
       </set>
      </set>
      <set comment="kpoint 160">
       <set comment="band 1">
        <r>  0.0000  0.4461  0.0443  0.0023  0.0000  0.0000  0.0000  0.0000  0.0000 </r>
        <r>  0.0000  0.4461  0.0443  0.0023  0.0000  0.0000  0.0000  0.0000  0.0000 </r>
       </set>
       <set comment="band 2">
        <r>  0.0000  0.0439  0.4484  0.0004  0.0000  0.0000  0.0000  0.0000  0.0000 </r>
        <r>  0.0000  0.0439  0.4484  0.0004  0.0000  0.0000  0.0000  0.0000  0.0000 </r>
       </set>
       <set comment="band 3">
        <r>  0.0000  0.0027  0.0000  0.4900  0.0000  0.0000  0.0000  0.0000  0.0000 </r>
        <r>  0.0000  0.0027  0.0000  0.4900  0.0000  0.0000  0.0000  0.0000  0.0000 </r>
       </set>
       <set comment="band 4">
        <r>  0.0000  0.0564  0.4419  0.0000  0.0000  0.0000  0.0000  0.0000  0.0000 </r>
        <r>  0.0000  0.0564  0.4419  0.0000  0.0000  0.0000  0.0000  0.0000  0.0000 </r>
       </set>
       <set comment="band 5">
        <r>  0.0000  0.3047  0.0396  0.1540  0.0000  0.0000  0.0000  0.0000  0.0000 </r>
        <r>  0.0000  0.3047  0.0396  0.1540  0.0000  0.0000  0.0000  0.0000  0.0000 </r>
       </set>
       <set comment="band 6">
        <r>  0.0000  0.1372  0.0169  0.3443  0.0000  0.0000  0.0000  0.0000  0.0000 </r>
        <r>  0.0000  0.1372  0.0169  0.3443  0.0000  0.0000  0.0000  0.0000  0.0000 </r>
       </set>
       <set comment="band 7">
        <r>  0.2314  0.0000  0.0000  0.0000  0.0000  0.0000  0.0000  0.0000  0.0000 </r>
        <r>  0.2314  0.0000  0.0000  0.0000  0.0000  0.0000  0.0000  0.0000  0.0000 </r>
       </set>
       <set comment="band 8">
        <r>  0.0000  0.0000  0.0000  0.0000  0.0000  0.0000  0.2613  0.0000  0.0868 </r>
        <r>  0.0000  0.0000  0.0000  0.0000  0.0000  0.0000  0.2613  0.0000  0.0868 </r>
       </set>
       <set comment="band 9">
        <r>  0.0000  0.0000  0.0000  0.0000  0.0000  0.0000  0.0868  0.0000  0.2613 </r>
        <r>  0.0000  0.0000  0.0000  0.0000  0.0000  0.0000  0.0868  0.0000  0.2613 </r>
       </set>
       <set comment="band 10">
        <r>  0.0000  0.0000  0.0000  0.0000  0.0147  0.4209  0.0000  0.0209  0.0000 </r>
        <r>  0.0000  0.0000  0.0000  0.0000  0.0147  0.4209  0.0000  0.0209  0.0000 </r>
       </set>
       <set comment="band 11">
        <r>  0.0000  0.0000  0.0000  0.0000  0.2747  0.0000  0.0000  0.1818  0.0000 </r>
        <r>  0.0000  0.0000  0.0000  0.0000  0.2747  0.0000  0.0000  0.1818  0.0000 </r>
       </set>
       <set comment="band 12">
        <r>  0.0000  0.0000  0.0000  0.0000  0.1671  0.0356  0.0000  0.2538  0.0000 </r>
        <r>  0.0000  0.0000  0.0000  0.0000  0.1671  0.0356  0.0000  0.2538  0.0000 </r>
       </set>
       <set comment="band 13">
        <r>  0.0000  0.0000  0.0000  0.0000  0.0000  0.0000  0.3453  0.0000  0.1190 </r>
        <r>  0.0000  0.0000  0.0000  0.0000  0.0000  0.0000  0.3453  0.0000  0.1190 </r>
       </set>
       <set comment="band 14">
        <r>  0.0000  0.0000  0.0000  0.0000  0.0000  0.0000  0.1190  0.0000  0.3453 </r>
        <r>  0.0000  0.0000  0.0000  0.0000  0.0000  0.0000  0.1190  0.0000  0.3453 </r>
       </set>
       <set comment="band 15">
        <r>  0.0000  0.0000  0.0000  0.0000  0.0009  0.4878  0.0000  0.0001  0.0000 </r>
        <r>  0.0000  0.0000  0.0000  0.0000  0.0009  0.4878  0.0000  0.0001  0.0000 </r>
       </set>
       <set comment="band 16">
        <r>  0.0000  0.0000  0.0000  0.0000  0.0496  0.0003  0.0000  0.4389  0.0000 </r>
        <r>  0.0000  0.0000  0.0000  0.0000  0.0496  0.0003  0.0000  0.4389  0.0000 </r>
       </set>
       <set comment="band 17">
        <r>  0.0000  0.0000  0.0000  0.0000  0.4383  0.0006  0.0000  0.0498  0.0000 </r>
        <r>  0.0000  0.0000  0.0000  0.0000  0.4383  0.0006  0.0000  0.0498  0.0000 </r>
       </set>
       <set comment="band 18">
        <r>  0.0000  0.0859  0.0067  0.1775  0.0000  0.0000  0.0000  0.0000  0.0000 </r>
        <r>  0.0000  0.0859  0.0067  0.1775  0.0000  0.0000  0.0000  0.0000  0.0000 </r>
       </set>
      </set>
     </set>
    </set>
   </array>
  </projected>
 </calculation>
 <structure name="finalpos" >
  <crystal>
   <varray name="basis" >
    <v>       3.25320000       0.00000000       0.00000000 </v>
    <v>       0.00000000       3.25320000       0.00000000 </v>
    <v>       0.00000000       0.00000000       3.25320000 </v>
   </varray>
   <i name="volume">     34.42962487</i>
   <varray name="rec_basis" >
    <v>       0.30738965       0.00000000       0.00000000 </v>
    <v>       0.00000000       0.30738965       0.00000000 </v>
    <v>       0.00000000       0.00000000       0.30738965 </v>
   </varray>
  </crystal>
  <varray name="positions" >
   <v>       0.00000000       0.00000000       0.00000000 </v>
   <v>       0.50000000       0.50000000       0.50000000 </v>
  </varray>
 </structure>
</modeling>
