begin
comment 4 atoms, species Al3Mg
lattice      7.7107468946     0.0000000000     0.0000000000
lattice      0.0000000000     7.7107468946     0.0000000000
lattice      0.0000000000     0.0000000000     7.7107468946
atom      0.0000000000     3.8553740000     3.8553740000   Al  0.0 0.0       0.0081546223     0.0015530333     0.0014568474
atom      4.1320580000     0.1871600000     3.8422850000   Al  0.0 0.0      -0.0113299680    -0.0036913283     0.0021318335
atom      3.9456360000     4.0590450000     7.5999080000   Al  0.0 0.0      -0.0019620885    -0.0086020468     0.0039726209
atom      0.1045250000     7.6333320000     0.1212260000   Mg  0.0 0.0       0.0051374342     0.0107403418    -0.0075613018
energy -76.058473997
charge 0.0000
end
begin
comment 4 atoms, species Mg4
lattice      7.5109068973     0.0000000000     0.0000000000
lattice      0.0000000000     7.5109068973     0.0000000000
lattice      0.0000000000     0.0000000000     7.5109068973
atom      0.0000000000     0.0000000000     0.0000000000   Mg  0.0 0.0      -0.0000000359    -0.0000000359    -0.0000000359
atom      3.7554530000     3.7554530000     0.0000000000   Mg  0.0 0.0       0.0000000359     0.0000000359    -0.0000000359
atom      3.7554530000     0.0000000000     3.7554530000   Mg  0.0 0.0       0.0000000359    -0.0000000359     0.0000000359
atom      0.0000000000     3.7554530000     3.7554530000   Mg  0.0 0.0      -0.0000000359     0.0000000359     0.0000000359
energy -67.1630136882
charge 0.0000
end
begin
comment 22 atoms, species Mg10Si12
lattice     24.1677526696     0.0000000000    -8.9649748774
lattice      0.0000000000     6.8793039059     0.0000000000
lattice      0.0000000000     0.0000000000    11.8884938375
atom     20.3950700000     3.4396520000    -6.7895810000   Mg  0.0 0.0      -0.0089807900    -0.0000000053    -0.0066223912
atom     10.2132680000     0.0000000000     3.6787990000   Mg  0.0 0.0      -0.0027184818     0.0000000067     0.0114964684
atom      3.7726830000     3.4396520000     9.7130980000   Mg  0.0 0.0       0.0089807820    -0.0000000053     0.0066224690
atom     13.9544850000     0.0000000000    -0.7552810000   Mg  0.0 0.0       0.0027184928     0.0000000067    -0.0114965091
atom      1.8706080000     3.4396520000     3.7272070000   Mg  0.0 0.0       0.0027185999    -0.0000000067    -0.0114964984
atom      0.0000000000     0.0000000000     0.0000000000   Mg  0.0 0.0       0.0000000262     0.0000000018    -0.0000000718
atom     15.8565590000     0.0000000000     5.2306100000   Mg  0.0 0.0       0.0089807853     0.0000000053     0.0066224664
atom      8.3111940000     0.0000000000    -2.3070930000   Mg  0.0 0.0      -0.0089808009     0.0000000053    -0.0066223849
atom     22.2971450000     3.4396520000    -0.8036890000   Mg  0.0 0.0      -0.0027185439    -0.0000000067     0.0114965100
atom     12.0838760000     3.4396520000     7.4060058375   Mg  0.0 0.0       0.0000000762    -0.0000000018    -0.0000000548
atom     17.1023100000     3.4396520000     1.1362940000   Si  0.0 0.0       0.0095598169    -0.0000000093     0.0094078081
atom     22.7731040000     0.0000000000    -4.5179750000   Si  0.0 0.0       0.0046968551     0.0000000059    -0.0233716020
atom     19.5053830000     0.0000000000     1.5759150000   Si  0.0 0.0       0.0219178502     0.0000000098     0.0254302627
atom      1.3946490000     0.0000000000     7.4414930000   Si  0.0 0.0      -0.0046969206     0.0000000059     0.0233716502
atom      7.4215060000     3.4396520000     6.0584030000   Si  0.0 0.0       0.0219179104    -0.0000000098     0.0254302913
atom      7.0654430000     3.4396520000     1.7872240000   Si  0.0 0.0      -0.0095597327    -0.0000000093    -0.0094078920
atom     10.6892280000     3.4396520000    -0.0354880000   Si  0.0 0.0       0.0046967413    -0.0000000059    -0.0233715933
atom     13.4785250000     3.4396520000     2.9590050000   Si  0.0 0.0      -0.0046968923    -0.0000000059     0.0233717445
atom     19.1493190000     0.0000000000    -2.6952640000   Si  0.0 0.0      -0.0095596741     0.0000000093    -0.0094078108
atom      5.0184340000     0.0000000000     5.6187820000   Si  0.0 0.0       0.0095596407     0.0000000093     0.0094076824
atom      4.6623700000     0.0000000000     1.3476020000   Si  0.0 0.0      -0.0219178413     0.0000000098    -0.0254301968
atom     16.7462470000     3.4396520000    -3.1348850000   Si  0.0 0.0      -0.0219178994    -0.0000000098    -0.0254303477
energy -236.194439648
charge 0.0000
end
begin
comment 22 atoms, species Al6Mg8Si8
lattice     29.0281466031     0.0000000000    -9.3818148717
lattice      0.0000000000     8.3141098863     0.0000000000
lattice      0.3277149955     0.0000000000    13.3578878174
atom      0.0000000000     0.0000000000     0.0000000000   Al  0.0 0.0       0.0000000022     0.0000000004    -0.0000000031
atom     22.8430860000     0.0000000000    -2.2498750000   Al  0.0 0.0       0.0031621289     0.0000000010     0.0015140534
atom      8.3290130000     4.1570550000     2.4410330000   Al  0.0 0.0       0.0031621152    -0.0000000010     0.0015140337
atom      6.5127770000     0.0000000000     6.2259470000   Al  0.0 0.0      -0.0031621398     0.0000000010    -0.0015140480
atom     21.0268500000     4.1570550000     1.5350400000   Al  0.0 0.0      -0.0031621214    -0.0000000010    -0.0015140523
atom     14.5140740000     4.1570550000    -4.6909070000   Al  0.0 0.0       0.0000000017    -0.0000000004    -0.0000000110
atom     24.6544750000     4.1570550000    -6.7760780000   Mg  0.0 0.0      -0.0010185458    -0.0000000010     0.0011711553
atom      2.1960150000     4.1570550000     3.9436330000   Mg  0.0 0.0      -0.0008057446    -0.0000000010    -0.0003462152
atom     12.6457750000     0.0000000000     4.7233470000   Mg  0.0 0.0       0.0008057432     0.0000000010     0.0003462148
atom     16.7100890000     0.0000000000    -0.7472740000   Mg  0.0 0.0      -0.0008057603     0.0000000010    -0.0003462132
atom     27.1598480000     4.1570550000     0.0324390000   Mg  0.0 0.0       0.0008057401    -0.0000000010     0.0003462172
atom     10.1404010000     0.0000000000    -2.0851710000   Mg  0.0 0.0      -0.0010185367     0.0000000010     0.0011711586
atom      4.7013880000     4.1570550000    10.7521510000   Mg  0.0 0.0       0.0010185420    -0.0000000010    -0.0011711491
atom     19.2154620000     0.0000000000     6.0612430000   Mg  0.0 0.0       0.0010185337     0.0000000010    -0.0011711425
atom     23.9742050000     0.0000000000     2.7953660000   Si  0.0 0.0      -0.0022527460     0.0000000012    -0.0039001804
atom     19.8957290000     4.1570550000    -3.5102000000   Si  0.0 0.0       0.0022527903    -0.0000000012     0.0039001484
atom     27.4688480000     0.0000000000    -4.3585580000   Si  0.0 0.0       0.0034444080     0.0000000011     0.0033700958
atom      5.3816560000     0.0000000000     1.1807070000   Si  0.0 0.0       0.0022527871     0.0000000012     0.0039001622
atom     16.4010890000     4.1570550000     3.6437230000   Si  0.0 0.0      -0.0034444463    -0.0000000011    -0.0033700737
atom     12.9547740000     4.1570550000     0.3323490000   Si  0.0 0.0       0.0034444257    -0.0000000011     0.0033700978
atom      9.4601310000     4.1570550000     7.4862730000   Si  0.0 0.0      -0.0022527344    -0.0000000012    -0.0039001618
atom      1.8870160000     0.0000000000     8.3346310000   Si  0.0 0.0      -0.0034444428     0.0000000011    -0.0033700871
energy -298.580241331
charge 0.0000
end
