
     Program PWSCF v.6.3 starts on 27Feb2020 at  1:44:49 

     This program is part of the open-source Quantum ESPRESSO suite
     for quantum simulation of materials; please cite
         "P. Giannozzi et al., J. Phys.:Condens. Matter 21 395502 (2009);
         "P. Giannozzi et al., J. Phys.:Condens. Matter 29 465901 (2017);
          URL http://www.quantum-espresso.org", 
     in publications or presentations arising from this work. More details at
     http://www.quantum-espresso.org/quote

 *** WARNING: using old-style file format, will disappear from next version ***

     Parallel version (MPI & OpenMP), running on     180 processor cores
     Number of MPI processes:               180
     Threads/MPI process:                     1

     MPI processes distributed on     5 nodes
     K-points division:     npool     =      36
     R & G space division:  proc/nbgrp/npool/nimage =       5
     Reading input from aiida.in
Warning: card &IONS ignored
Warning: card   !PRESS_CONV_THR = 0.05                 ! JUST FOR VOLUME RELAXATIONS ignored
Warning: card / ignored

     Current dimensions of program PWSCF are:
     Max number of different atomic species (ntypx) = 10
     Max number of k-points (npk) =  40000
     Max angular momentum in pseudopotentials (lmaxx) =  3
               file Al.pbe-n-kjpaw_psl.1.0.0.UPF: wavefunction(s)  3S 3P renormalized
               file Mg.pbe-n-kjpaw_psl.0.3.0.UPF: wavefunction(s)  3S renormalized

     Subspace diagonalization in iterative solution of the eigenvalue problem:
     a serial algorithm will be used

 
     Parallelization info
     --------------------
     sticks:   dense  smooth     PW     G-vecs:    dense   smooth      PW
     Min        2620    1050    299               596704   150998   22811
     Max        2622    1051    300               596705   150999   22816
     Sum       13105    5251   1499              2983521   754991  114069
 


     bravais-lattice index     =            0
     lattice parameter (alat)  =      53.6663  a.u.
     unit-cell volume          =   22080.4333 (a.u.)^3
     number of atoms/cell      =          196
     number of atomic types    =            3
     number of electrons       =       592.00
     number of Kohn-Sham states=          355
     kinetic-energy cutoff     =      40.0000  Ry
     charge density cutoff     =     400.0000  Ry
     convergence threshold     =      1.0E-12
     mixing beta               =       0.4000
     number of iterations used =            8  local-TF  mixing
     Exchange-correlation      = SLA PW PBX PBC ( 1  4  3  4 0 0)

     celldm(1)=  53.666328  celldm(2)=   0.000000  celldm(3)=   0.000000
     celldm(4)=   0.000000  celldm(5)=   0.000000  celldm(6)=   0.000000

     crystal axes: (cart. coord. in units of alat)
               a(1) = (   1.000000   0.000000   0.000000 )  
               a(2) = (   0.000000   0.142857   0.000000 )  
               a(3) = (   0.000000   0.000000   1.000000 )  

     reciprocal axes: (cart. coord. in units 2 pi/alat)
               b(1) = (  1.000000  0.000000  0.000000 )  
               b(2) = (  0.000000  7.000000  0.000000 )  
               b(3) = (  0.000000  0.000000  1.000000 )  


     PseudoPot. # 1 for Al read from file:
     /users/aglensk/Dropbox/Albert/scripts/dotfiles/scripts/potentials/quantum_espresso/pseudo_SSSPefV1.1_alalloy/Al.pbe-n-kjpaw_psl.1.0.0.UPF
     MD5 check sum: cfc449ca30b5f3223ec38ddd88ac046d
     Pseudo is Projector augmented-wave + core cor, Zval =  3.0
     Generated using "atomic" code by A. Dal Corso v.5.1
     Shape of augmentation charge: PSQ
     Using radial grid of 1135 points,  6 beta functions with: 
                l(1) =   0
                l(2) =   0
                l(3) =   1
                l(4) =   1
                l(5) =   2
                l(6) =   2
     Q(r) pseudized with 0 coefficients 


     PseudoPot. # 2 for Si read from file:
     /users/aglensk/Dropbox/Albert/scripts/dotfiles/scripts/potentials/quantum_espresso/pseudo_SSSPefV1.1_alalloy/Si.pbe-n-rrkjus_psl.1.0.0.UPF
     MD5 check sum: 0b0bb1205258b0d07b9f9672cf965d36
     Pseudo is Ultrasoft + core correction, Zval =  4.0
     Generated using "atomic" code by A. Dal Corso v.5.1
     Using radial grid of 1141 points,  6 beta functions with: 
                l(1) =   0
                l(2) =   0
                l(3) =   1
                l(4) =   1
                l(5) =   2
                l(6) =   2
     Q(r) pseudized with 0 coefficients 


     PseudoPot. # 3 for Mg read from file:
     /users/aglensk/Dropbox/Albert/scripts/dotfiles/scripts/potentials/quantum_espresso/pseudo_SSSPefV1.1_alalloy/Mg.pbe-n-kjpaw_psl.0.3.0.UPF
     MD5 check sum: 24ecedc7f3e3cbe212e682f4413594e4
     Pseudo is Projector augmented-wave + core cor, Zval =  2.0
     Generated using "atomic" code by A. Dal Corso v.5.0.99 svn rev. 10869
     Shape of augmentation charge: PSQ
     Using radial grid of 1129 points,  4 beta functions with: 
                l(1) =   0
                l(2) =   0
                l(3) =   1
                l(4) =   1
     Q(r) pseudized with 0 coefficients 


     atomic species   valence    mass     pseudopotential
        Al             3.00    26.98154     Al( 1.00)
        Si             4.00    28.08500     Si( 1.00)
        Mg             2.00    24.30500     Mg( 1.00)

     No symmetry found


                                    s                        frac. trans.

      isym =  1     identity                                     

 cryst.   s( 1) = (     1          0          0      )
                  (     0          1          0      )
                  (     0          0          1      )

 cart.    s( 1) = (  1.0000000  0.0000000  0.0000000 )
                  (  0.0000000  1.0000000  0.0000000 )
                  (  0.0000000  0.0000000  1.0000000 )


   Cartesian axes

     site n.     atom                  positions (alat units)
         1           Al  tau(   1) = (   0.0674720   0.0712900   0.9950818  )
         2           Al  tau(   2) = (   0.9973055   0.1427172   0.9960009  )
         3           Al  tau(   3) = (   0.0682536   0.1427276   0.0683544  )
         4           Al  tau(   4) = (   0.9960787   0.0712913   0.0665697  )
         5           Al  tau(   5) = (   0.0645198   0.0713024   0.1368674  )
         6           Al  tau(   6) = (   0.9954484   0.1427285   0.1387025  )
         7           Al  tau(   7) = (   0.0590028   0.1427458   0.2114780  )
         8           Al  tau(   8) = (   0.9921664   0.0713051   0.2114225  )
         9           Al  tau(   9) = (   0.0646376   0.0713130   0.2863187  )
        10           Al  tau(  10) = (   0.9956341   0.1427378   0.2842997  )
        11           Al  tau(  11) = (   0.0672424   0.1427445   0.3551084  )
        12           Al  tau(  12) = (   0.9965362   0.0713056   0.3571965  )
        13           Al  tau(  13) = (   0.0657478   0.0713094   0.4295642  )
        14           Al  tau(  14) = (   0.9968108   0.1427340   0.4287545  )
        15           Al  tau(  15) = (   0.0669529   0.1427327   0.5013274  )
        16           Al  tau(  16) = (   0.9970761   0.0712964   0.5007035  )
        17           Al  tau(  17) = (   0.0679173   0.0712938   0.5724872  )
        18           Al  tau(  18) = (   0.9974280   0.1427219   0.5719349  )
        19           Al  tau(  19) = (   0.0685449   0.1427200   0.6429839  )
        20           Al  tau(  20) = (   0.9976597   0.0712843   0.6427425  )
        21           Al  tau(  21) = (   0.0688877   0.0712840   0.7133393  )
        22           Al  tau(  22) = (   0.9978475   0.1427122   0.7134203  )
        23           Al  tau(  23) = (   0.0689710   0.1427136   0.7839443  )
        24           Al  tau(  24) = (   0.9978998   0.0712794   0.7838812  )
        25           Al  tau(  25) = (   0.0688552   0.0712830   0.8543833  )
        26           Al  tau(  26) = (   0.9978671   0.1427111   0.8544797  )
        27           Al  tau(  27) = (   0.0687268   0.1427176   0.9252204  )
        28           Al  tau(  28) = (   0.9974894   0.0712827   0.9250292  )
        29           Al  tau(  29) = (   0.2108624   0.0713109   0.9928266  )
        30           Al  tau(  30) = (   0.1398989   0.1427284   0.9961806  )
        31           Si  tau(  31) = (   0.2127864   0.1427509   0.0583018  )
        32           Al  tau(  32) = (   0.1351285   0.0713007   0.0651277  )
        33           Si  tau(  33) = (   0.2077543   0.0713374   0.1152619  )
        34           Mg  tau(  34) = (   0.1461706   0.1427535   0.1466350  )
        35           Mg  tau(  35) = (   0.2070838   0.0713489   0.2127716  )
        36           Si  tau(  36) = (   0.1155951   0.0713208   0.2116322  )
        37           Si  tau(  37) = (   0.2125286   0.0713549   0.3104535  )
        38           Mg  tau(  38) = (   0.1468746   0.1427604   0.2763359  )
        39           Si  tau(  39) = (   0.2044205   0.1427779   0.3633603  )
        40           Al  tau(  40) = (   0.1346743   0.0713218   0.3580995  )
        41           Al  tau(  41) = (   0.2020973   0.0713371   0.4317939  )
        42           Al  tau(  42) = (   0.1341594   0.1427532   0.4289194  )
        43           Al  tau(  43) = (   0.2083115   0.1427519   0.5034086  )
        44           Al  tau(  44) = (   0.1374804   0.0713103   0.5020251  )
        45           Al  tau(  45) = (   0.2116740   0.0713119   0.5712301  )
        46           Al  tau(  46) = (   0.1388082   0.1427322   0.5727041  )
        47           Al  tau(  47) = (   0.2106815   0.1427322   0.6436079  )
        48           Al  tau(  48) = (   0.1398392   0.0712947   0.6429805  )
        49           Al  tau(  49) = (   0.2113693   0.0712949   0.7134839  )
        50           Al  tau(  50) = (   0.1398647   0.1427203   0.7136150  )
        51           Al  tau(  51) = (   0.2114866   0.1427244   0.7838496  )
        52           Al  tau(  52) = (   0.1401594   0.0712864   0.7839319  )
        53           Al  tau(  53) = (   0.2113751   0.0712951   0.8538454  )
        54           Al  tau(  54) = (   0.1401682   0.1427207   0.8545199  )
        55           Al  tau(  55) = (   0.2115748   0.1427325   0.9240103  )
        56           Al  tau(  56) = (   0.1395399   0.0712926   0.9247108  )
        57           Al  tau(  57) = (   0.3533684   0.0713150   0.9932391  )
        58           Al  tau(  58) = (   0.2846685   0.1427461   0.9962724  )
        59           Mg  tau(  59) = (   0.3647145   0.1427704   0.0747430  )
        60           Al  tau(  60) = (   0.2827171   0.0713259   0.0632500  )
        61           Si  tau(  61) = (   0.3368854   0.0713525   0.1351889  )
        62           Mg  tau(  62) = (   0.2667349   0.1427783   0.1482275  )
        63           Mg  tau(  63) = (   0.3703265   0.1427978   0.1983090  )
        64           Si  tau(  64) = (   0.2988102   0.0713632   0.2098277  )
        65           Si  tau(  65) = (   0.3512479   0.0713803   0.2750651  )
        66           Mg  tau(  66) = (   0.2699498   0.1427927   0.2719406  )
        67           Si  tau(  67) = (   0.3531997   0.1428081   0.3265059  )
        68           Mg  tau(  68) = (   0.2931668   0.0713675   0.3657222  )
        69           Mg  tau(  69) = (   0.3533158   0.1427953   0.4271547  )
        70           Si  tau(  70) = (   0.2603703   0.1427797   0.4285677  )
        71           Si  tau(  71) = (   0.3548814   0.1427724   0.5233934  )
        72           Mg  tau(  72) = (   0.2920045   0.0713420   0.4930416  )
        73           Si  tau(  73) = (   0.3550143   0.0713321   0.5803870  )
        74           Al  tau(  74) = (   0.2800201   0.1427462   0.5735669  )
        75           Al  tau(  75) = (   0.3548596   0.1427494   0.6453336  )
        76           Al  tau(  76) = (   0.2832271   0.0713089   0.6425678  )
        77           Al  tau(  77) = (   0.3550187   0.0713074   0.7143902  )
        78           Al  tau(  78) = (   0.2829251   0.1427328   0.7136836  )
        79           Al  tau(  79) = (   0.3550778   0.1427341   0.7841163  )
        80           Al  tau(  80) = (   0.2831608   0.0712963   0.7836622  )
        81           Al  tau(  81) = (   0.3550161   0.0713028   0.8538702  )
        82           Al  tau(  82) = (   0.2831764   0.1427307   0.8540998  )
        83           Al  tau(  83) = (   0.3557741   0.1427379   0.9244785  )
        84           Al  tau(  84) = (   0.2830109   0.0713053   0.9237285  )
        85           Al  tau(  85) = (   0.5027929   0.0713083   0.9941014  )
        86           Si  tau(  86) = (   0.4275507   0.1427462   0.9873510  )
        87           Mg  tau(  87) = (   0.4911065   0.1427643   0.0747093  )
        88           Si  tau(  88) = (   0.4281110   0.0713366   0.0443668  )
        89           Si  tau(  89) = (   0.5230636   0.0713486   0.1391416  )
        90           Mg  tau(  90) = (   0.4301459   0.0713620   0.1406860  )
        91           Mg  tau(  91) = (   0.4904465   0.1427945   0.2020259  )
        92           Si  tau(  92) = (   0.4304813   0.0713793   0.2413817  )
        93           Mg  tau(  93) = (   0.5137080   0.0713684   0.2959367  )
        94           Si  tau(  94) = (   0.4324364   0.1428089   0.2928435  )
        95           Si  tau(  95) = (   0.4848051   0.1427982   0.3581201  )
        96           Mg  tau(  96) = (   0.4132608   0.0713735   0.3695928  )
        97           Mg  tau(  97) = (   0.5167681   0.0713588   0.4197322  )
        98           Si  tau(  98) = (   0.4465611   0.1427887   0.4327488  )
        99           Al  tau(  99) = (   0.5005270   0.1427702   0.5046840  )
       100           Mg  tau( 100) = (   0.4184108   0.0713515   0.4931550  )
       101           Al  tau( 101) = (   0.4981797   0.0713293   0.5716654  )
       102           Al  tau( 102) = (   0.4295150   0.1427580   0.5745742  )
       103           Al  tau( 103) = (   0.4996193   0.1427466   0.6441239  )
       104           Al  tau( 104) = (   0.4266961   0.0713172   0.6433061  )
       105           Al  tau( 105) = (   0.4992307   0.0713047   0.7136877  )
       106           Al  tau( 106) = (   0.4273340   0.1427389   0.7138591  )
       107           Al  tau( 107) = (   0.4991642   0.1427315   0.7840240  )
       108           Al  tau( 108) = (   0.4271482   0.0713024   0.7835233  )
       109           Al  tau( 109) = (   0.4994191   0.0712992   0.8540072  )
       110           Al  tau( 110) = (   0.4272773   0.1427351   0.8533143  )
       111           Al  tau( 111) = (   0.4992411   0.1427334   0.9251361  )
       112           Al  tau( 112) = (   0.4276159   0.0713098   0.9223813  )
       113           Al  tau( 113) = (   0.6440272   0.0712977   0.9948437  )
       114           Al  tau( 114) = (   0.5710627   0.1427376   0.9963539  )
       115           Al  tau( 115) = (   0.6456053   0.1427382   0.0654905  )
       116           Al  tau( 116) = (   0.5747173   0.0713172   0.0641465  )
       117           Al  tau( 117) = (   0.6491345   0.0713222   0.1386489  )
       118           Al  tau( 118) = (   0.5812243   0.1427719   0.1358552  )
       119           Al  tau( 119) = (   0.6487742   0.1427557   0.2094893  )
       120           Si  tau( 120) = (   0.5790567   0.0713535   0.2043524  )
       121           Mg  tau( 121) = (   0.6367065   0.0713374   0.2913206  )
       122           Si  tau( 122) = (   0.5710022   0.1427882   0.2573165  )
       123           Si  tau( 123) = (   0.6679187   0.1427573   0.3560546  )
       124           Mg  tau( 124) = (   0.5764566   0.1427863   0.3551323  )
       125           Mg  tau( 125) = (   0.6373311   0.0713350   0.4212010  )
       126           Si  tau( 126) = (   0.5756817   0.1427764   0.4526899  )
       127           Al  tau( 127) = (   0.6482329   0.1427431   0.5027594  )
       128           Si  tau( 128) = (   0.5703452   0.0713397   0.5097299  )
       129           Al  tau( 129) = (   0.6431417   0.0713104   0.5717243  )
       130           Al  tau( 130) = (   0.5720893   0.1427551   0.5750947  )
       131           Al  tau( 131) = (   0.6432839   0.1427332   0.6431467  )
       132           Al  tau( 132) = (   0.5711077   0.0713129   0.6438357  )
       133           Al  tau( 133) = (   0.6424490   0.0712941   0.7132800  )
       134           Al  tau( 134) = (   0.5711493   0.1427340   0.7139688  )
       135           Al  tau( 135) = (   0.6423917   0.1427229   0.7838122  )
       136           Al  tau( 136) = (   0.5709471   0.0712957   0.7838839  )
       137           Al  tau( 137) = (   0.6426469   0.0712893   0.8540756  )
       138           Al  tau( 138) = (   0.5710173   0.1427262   0.8542183  )
       139           Al  tau( 139) = (   0.6427817   0.1427224   0.9246228  )
       140           Al  tau( 140) = (   0.5718712   0.0712970   0.9239838  )
       141           Al  tau( 141) = (   0.7855610   0.0712869   0.9956016  )
       142           Al  tau( 142) = (   0.7149936   0.1427232   0.9950427  )
       143           Al  tau( 143) = (   0.7860440   0.1427261   0.0668185  )
       144           Al  tau( 144) = (   0.7161602   0.0712997   0.0661937  )
       145           Al  tau( 145) = (   0.7864686   0.0713015   0.1387329  )
       146           Al  tau( 146) = (   0.7175154   0.1427410   0.1379829  )
       147           Al  tau( 147) = (   0.7868412   0.1427376   0.2102848  )
       148           Al  tau( 148) = (   0.7161693   0.0713175   0.2124187  )
       149           Al  tau( 149) = (   0.7877893   0.0713091   0.2831696  )
       150           Al  tau( 150) = (   0.7188153   0.1427481   0.2813038  )
       151           Al  tau( 151) = (   0.7912728   0.1427427   0.3560952  )
       152           Al  tau( 152) = (   0.7244550   0.0713169   0.3560797  )
       153           Al  tau( 153) = (   0.7879009   0.0713058   0.4288983  )
       154           Al  tau( 154) = (   0.7189033   0.1427431   0.4308423  )
       155           Al  tau( 155) = (   0.7871438   0.1427293   0.5011523  )
       156           Al  tau( 156) = (   0.7150469   0.0713072   0.4994350  )
       157           Al  tau( 157) = (   0.7857554   0.0712936   0.5717552  )
       158           Al  tau( 158) = (   0.7156291   0.1427309   0.5727885  )
       159           Al  tau( 159) = (   0.7854704   0.1427200   0.6427846  )
       160           Al  tau( 160) = (   0.7141768   0.0712928   0.6426097  )
       161           Al  tau( 161) = (   0.7849478   0.0712840   0.7133075  )
       162           Al  tau( 162) = (   0.7139167   0.1427198   0.7134067  )
       163           Al  tau( 163) = (   0.7848385   0.1427117   0.7838593  )
       164           Al  tau( 164) = (   0.7136748   0.0712845   0.7838031  )
       165           Al  tau( 165) = (   0.7848872   0.0712794   0.8542637  )
       166           Al  tau( 166) = (   0.7137650   0.1427163   0.8543193  )
       167           Al  tau( 167) = (   0.7851665   0.1427135   0.9248224  )
       168           Al  tau( 168) = (   0.7141653   0.0712859   0.9245841  )
       169           Al  tau( 169) = (   0.9264473   0.0712850   0.9959000  )
       170           Al  tau( 170) = (   0.8559954   0.1427165   0.9959955  )
       171           Al  tau( 171) = (   0.9260580   0.1427201   0.0670011  )
       172           Al  tau( 172) = (   0.8558462   0.0712893   0.0671787  )
       173           Al  tau( 173) = (   0.9253816   0.0712947   0.1385321  )
       174           Al  tau( 174) = (   0.8560795   0.1427281   0.1387139  )
       175           Al  tau( 175) = (   0.9247636   0.1427330   0.2110829  )
       176           Al  tau( 176) = (   0.8560214   0.0713010   0.2108930  )
       177           Al  tau( 177) = (   0.9261043   0.0713037   0.2842297  )
       178           Al  tau( 178) = (   0.8573216   0.1427355   0.2832465  )
       179           Al  tau( 179) = (   0.9273773   0.1427339   0.3565610  )
       180           Al  tau( 180) = (   0.8586452   0.0713044   0.3564098  )
       181           Al  tau( 181) = (   0.9272283   0.0712992   0.4287925  )
       182           Al  tau( 182) = (   0.8579525   0.1427318   0.4290168  )
       183           Al  tau( 183) = (   0.9273261   0.1427266   0.5003721  )
       184           Al  tau( 184) = (   0.8571227   0.0712944   0.5006280  )
       185           Al  tau( 185) = (   0.9270213   0.0712874   0.5716167  )
       186           Al  tau( 186) = (   0.8566128   0.1427199   0.5717947  )
       187           Al  tau( 187) = (   0.9268612   0.1427142   0.6425842  )
       188           Al  tau( 188) = (   0.8559992   0.0712842   0.6424786  )
       189           Al  tau( 189) = (   0.9268299   0.0712797   0.7133589  )
       190           Al  tau( 190) = (   0.8559513   0.1427133   0.7133265  )
       191           Al  tau( 191) = (   0.9268919   0.1427083   0.7839515  )
       192           Al  tau( 192) = (   0.8558900   0.0712780   0.7837993  )
       193           Al  tau( 193) = (   0.9268717   0.0712774   0.8544385  )
       194           Al  tau( 194) = (   0.8559727   0.1427075   0.8543522  )
       195           Al  tau( 195) = (   0.9269268   0.1427118   0.9252485  )
       196           Al  tau( 196) = (   0.8560404   0.0712797   0.9250600  )

   Crystallographic axes

     site n.     atom                  positions (cryst. coord.)
         1           Al  tau(   1) = (  0.0674720  0.4990301  0.9950818  )
         2           Al  tau(   2) = (  0.9973055  0.9990203  0.9960009  )
         3           Al  tau(   3) = (  0.0682536  0.9990930  0.0683544  )
         4           Al  tau(   4) = (  0.9960787  0.4990390  0.0665697  )
         5           Al  tau(   5) = (  0.0645198  0.4991170  0.1368674  )
         6           Al  tau(   6) = (  0.9954484  0.9990997  0.1387025  )
         7           Al  tau(   7) = (  0.0590028  0.9992204  0.2114780  )
         8           Al  tau(   8) = (  0.9921664  0.4991356  0.2114225  )
         9           Al  tau(   9) = (  0.0646376  0.4991913  0.2863187  )
        10           Al  tau(  10) = (  0.9956341  0.9991643  0.2842997  )
        11           Al  tau(  11) = (  0.0672424  0.9992114  0.3551084  )
        12           Al  tau(  12) = (  0.9965362  0.4991395  0.3571965  )
        13           Al  tau(  13) = (  0.0657478  0.4991655  0.4295642  )
        14           Al  tau(  14) = (  0.9968108  0.9991381  0.4287545  )
        15           Al  tau(  15) = (  0.0669529  0.9991292  0.5013274  )
        16           Al  tau(  16) = (  0.9970761  0.4990750  0.5007035  )
        17           Al  tau(  17) = (  0.0679173  0.4990567  0.5724872  )
        18           Al  tau(  18) = (  0.9974280  0.9990536  0.5719349  )
        19           Al  tau(  19) = (  0.0685449  0.9990400  0.6429839  )
        20           Al  tau(  20) = (  0.9976597  0.4989902  0.6427425  )
        21           Al  tau(  21) = (  0.0688877  0.4989883  0.7133393  )
        22           Al  tau(  22) = (  0.9978475  0.9989857  0.7134203  )
        23           Al  tau(  23) = (  0.0689710  0.9989953  0.7839443  )
        24           Al  tau(  24) = (  0.9978998  0.4989556  0.7838812  )
        25           Al  tau(  25) = (  0.0688552  0.4989810  0.8543833  )
        26           Al  tau(  26) = (  0.9978671  0.9989775  0.8544797  )
        27           Al  tau(  27) = (  0.0687268  0.9990230  0.9252204  )
        28           Al  tau(  28) = (  0.9974894  0.4989791  0.9250292  )
        29           Al  tau(  29) = (  0.2108624  0.4991763  0.9928266  )
        30           Al  tau(  30) = (  0.1398989  0.9990988  0.9961806  )
        31           Si  tau(  31) = (  0.2127864  0.9992565  0.0583018  )
        32           Al  tau(  32) = (  0.1351285  0.4991047  0.0651277  )
        33           Si  tau(  33) = (  0.2077543  0.4993619  0.1152619  )
        34           Mg  tau(  34) = (  0.1461706  0.9992744  0.1466350  )
        35           Mg  tau(  35) = (  0.2070838  0.4994420  0.2127716  )
        36           Si  tau(  36) = (  0.1155951  0.4992460  0.2116322  )
        37           Si  tau(  37) = (  0.2125286  0.4994845  0.3104535  )
        38           Mg  tau(  38) = (  0.1468746  0.9993226  0.2763359  )
        39           Si  tau(  39) = (  0.2044205  0.9994456  0.3633603  )
        40           Al  tau(  40) = (  0.1346743  0.4992525  0.3580995  )
        41           Al  tau(  41) = (  0.2020973  0.4993597  0.4317939  )
        42           Al  tau(  42) = (  0.1341594  0.9992727  0.4289194  )
        43           Al  tau(  43) = (  0.2083115  0.9992632  0.5034086  )
        44           Al  tau(  44) = (  0.1374804  0.4991719  0.5020251  )
        45           Al  tau(  45) = (  0.2116740  0.4991832  0.5712301  )
        46           Al  tau(  46) = (  0.1388082  0.9991253  0.5727041  )
        47           Al  tau(  47) = (  0.2106815  0.9991256  0.6436079  )
        48           Al  tau(  48) = (  0.1398392  0.4990628  0.6429805  )
        49           Al  tau(  49) = (  0.2113693  0.4990641  0.7134839  )
        50           Al  tau(  50) = (  0.1398647  0.9990420  0.7136150  )
        51           Al  tau(  51) = (  0.2114866  0.9990709  0.7838496  )
        52           Al  tau(  52) = (  0.1401594  0.4990046  0.7839319  )
        53           Al  tau(  53) = (  0.2113751  0.4990660  0.8538454  )
        54           Al  tau(  54) = (  0.1401682  0.9990451  0.8545199  )
        55           Al  tau(  55) = (  0.2115748  0.9991273  0.9240103  )
        56           Al  tau(  56) = (  0.1395399  0.4990482  0.9247108  )
        57           Al  tau(  57) = (  0.3533684  0.4992049  0.9932391  )
        58           Al  tau(  58) = (  0.2846685  0.9992230  0.9962724  )
        59           Mg  tau(  59) = (  0.3647145  0.9993926  0.0747430  )
        60           Al  tau(  60) = (  0.2827171  0.4992813  0.0632500  )
        61           Si  tau(  61) = (  0.3368854  0.4994672  0.1351889  )
        62           Mg  tau(  62) = (  0.2667349  0.9994483  0.1482275  )
        63           Mg  tau(  63) = (  0.3703265  0.9995843  0.1983090  )
        64           Si  tau(  64) = (  0.2988102  0.4995422  0.2098277  )
        65           Si  tau(  65) = (  0.3512479  0.4996624  0.2750651  )
        66           Mg  tau(  66) = (  0.2699498  0.9995490  0.2719406  )
        67           Si  tau(  67) = (  0.3531997  0.9996571  0.3265059  )
        68           Mg  tau(  68) = (  0.2931668  0.4995727  0.3657222  )
        69           Mg  tau(  69) = (  0.3533158  0.9995671  0.4271547  )
        70           Si  tau(  70) = (  0.2603703  0.9994579  0.4285677  )
        71           Si  tau(  71) = (  0.3548814  0.9994068  0.5233934  )
        72           Mg  tau(  72) = (  0.2920045  0.4993939  0.4930416  )
        73           Si  tau(  73) = (  0.3550143  0.4993245  0.5803870  )
        74           Al  tau(  74) = (  0.2800201  0.9992234  0.5735669  )
        75           Al  tau(  75) = (  0.3548596  0.9992461  0.6453336  )
        76           Al  tau(  76) = (  0.2832271  0.4991622  0.6425678  )
        77           Al  tau(  77) = (  0.3550187  0.4991519  0.7143902  )
        78           Al  tau(  78) = (  0.2829251  0.9991299  0.7136836  )
        79           Al  tau(  79) = (  0.3550778  0.9991387  0.7841163  )
        80           Al  tau(  80) = (  0.2831608  0.4990744  0.7836622  )
        81           Al  tau(  81) = (  0.3550161  0.4991196  0.8538702  )
        82           Al  tau(  82) = (  0.2831764  0.9991150  0.8540998  )
        83           Al  tau(  83) = (  0.3557741  0.9991655  0.9244785  )
        84           Al  tau(  84) = (  0.2830109  0.4991374  0.9237285  )
        85           Al  tau(  85) = (  0.5027929  0.4991583  0.9941014  )
        86           Si  tau(  86) = (  0.4275507  0.9992234  0.9873510  )
        87           Mg  tau(  87) = (  0.4911065  0.9993502  0.0747093  )
        88           Si  tau(  88) = (  0.4281110  0.4993564  0.0443668  )
        89           Si  tau(  89) = (  0.5230636  0.4994402  0.1391416  )
        90           Mg  tau(  90) = (  0.4301459  0.4995340  0.1406860  )
        91           Mg  tau(  91) = (  0.4904465  0.9995616  0.2020259  )
        92           Si  tau(  92) = (  0.4304813  0.4996551  0.2413817  )
        93           Mg  tau(  93) = (  0.5137080  0.4995786  0.2959367  )
        94           Si  tau(  94) = (  0.4324364  0.9996620  0.2928435  )
        95           Si  tau(  95) = (  0.4848051  0.9995873  0.3581201  )
        96           Mg  tau(  96) = (  0.4132608  0.4996146  0.3695928  )
        97           Mg  tau(  97) = (  0.5167681  0.4995116  0.4197322  )
        98           Si  tau(  98) = (  0.4465611  0.9995209  0.4327488  )
        99           Al  tau(  99) = (  0.5005270  0.9993911  0.5046840  )
       100           Mg  tau( 100) = (  0.4184108  0.4994608  0.4931550  )
       101           Al  tau( 101) = (  0.4981797  0.4993049  0.5716654  )
       102           Al  tau( 102) = (  0.4295150  0.9993057  0.5745742  )
       103           Al  tau( 103) = (  0.4996193  0.9992265  0.6441239  )
       104           Al  tau( 104) = (  0.4266961  0.4992205  0.6433061  )
       105           Al  tau( 105) = (  0.4992307  0.4991331  0.7136877  )
       106           Al  tau( 106) = (  0.4273340  0.9991723  0.7138591  )
       107           Al  tau( 107) = (  0.4991642  0.9991209  0.7840240  )
       108           Al  tau( 108) = (  0.4271482  0.4991166  0.7835233  )
       109           Al  tau( 109) = (  0.4994191  0.4990941  0.8540072  )
       110           Al  tau( 110) = (  0.4272773  0.9991455  0.8533143  )
       111           Al  tau( 111) = (  0.4992411  0.9991338  0.9251361  )
       112           Al  tau( 112) = (  0.4276159  0.4991687  0.9223813  )
       113           Al  tau( 113) = (  0.6440272  0.4990838  0.9948437  )
       114           Al  tau( 114) = (  0.5710627  0.9991634  0.9963539  )
       115           Al  tau( 115) = (  0.6456053  0.9991673  0.0654905  )
       116           Al  tau( 116) = (  0.5747173  0.4992203  0.0641465  )
       117           Al  tau( 117) = (  0.6491345  0.4992556  0.1386489  )
       118           Al  tau( 118) = (  0.5812243  0.9994030  0.1358552  )
       119           Al  tau( 119) = (  0.6487742  0.9992898  0.2094893  )
       120           Si  tau( 120) = (  0.5790567  0.4994749  0.2043524  )
       121           Mg  tau( 121) = (  0.6367065  0.4993619  0.2913206  )
       122           Si  tau( 122) = (  0.5710022  0.9995173  0.2573165  )
       123           Si  tau( 123) = (  0.6679187  0.9993009  0.3560546  )
       124           Mg  tau( 124) = (  0.5764566  0.9995045  0.3551323  )
       125           Mg  tau( 125) = (  0.6373311  0.4993447  0.4212010  )
       126           Si  tau( 126) = (  0.5756817  0.9994348  0.4526899  )
       127           Al  tau( 127) = (  0.6482329  0.9992017  0.5027594  )
       128           Si  tau( 128) = (  0.5703452  0.4993777  0.5097299  )
       129           Al  tau( 129) = (  0.6431417  0.4991725  0.5717243  )
       130           Al  tau( 130) = (  0.5720893  0.9992855  0.5750947  )
       131           Al  tau( 131) = (  0.6432839  0.9991325  0.6431467  )
       132           Al  tau( 132) = (  0.5711077  0.4991904  0.6438357  )
       133           Al  tau( 133) = (  0.6424490  0.4990590  0.7132800  )
       134           Al  tau( 134) = (  0.5711493  0.9991383  0.7139688  )
       135           Al  tau( 135) = (  0.6423917  0.9990602  0.7838122  )
       136           Al  tau( 136) = (  0.5709471  0.4990700  0.7838839  )
       137           Al  tau( 137) = (  0.6426469  0.4990254  0.8540756  )
       138           Al  tau( 138) = (  0.5710173  0.9990833  0.8542183  )
       139           Al  tau( 139) = (  0.6427817  0.9990570  0.9246228  )
       140           Al  tau( 140) = (  0.5718712  0.4990791  0.9239838  )
       141           Al  tau( 141) = (  0.7855610  0.4990083  0.9956016  )
       142           Al  tau( 142) = (  0.7149936  0.9990623  0.9950427  )
       143           Al  tau( 143) = (  0.7860440  0.9990826  0.0668185  )
       144           Al  tau( 144) = (  0.7161602  0.4990979  0.0661937  )
       145           Al  tau( 145) = (  0.7864686  0.4991106  0.1387329  )
       146           Al  tau( 146) = (  0.7175154  0.9991873  0.1379829  )
       147           Al  tau( 147) = (  0.7868412  0.9991635  0.2102848  )
       148           Al  tau( 148) = (  0.7161693  0.4992223  0.2124187  )
       149           Al  tau( 149) = (  0.7877893  0.4991638  0.2831696  )
       150           Al  tau( 150) = (  0.7188153  0.9992366  0.2813038  )
       151           Al  tau( 151) = (  0.7912728  0.9991989  0.3560952  )
       152           Al  tau( 152) = (  0.7244550  0.4992183  0.3560797  )
       153           Al  tau( 153) = (  0.7879009  0.4991404  0.4288983  )
       154           Al  tau( 154) = (  0.7189033  0.9992016  0.4308423  )
       155           Al  tau( 155) = (  0.7871438  0.9991053  0.5011523  )
       156           Al  tau( 156) = (  0.7150469  0.4991503  0.4994350  )
       157           Al  tau( 157) = (  0.7857554  0.4990553  0.5717552  )
       158           Al  tau( 158) = (  0.7156291  0.9991166  0.5727885  )
       159           Al  tau( 159) = (  0.7854704  0.9990397  0.6427846  )
       160           Al  tau( 160) = (  0.7141768  0.4990498  0.6426097  )
       161           Al  tau( 161) = (  0.7849478  0.4989882  0.7133075  )
       162           Al  tau( 162) = (  0.7139167  0.9990387  0.7134067  )
       163           Al  tau( 163) = (  0.7848385  0.9989818  0.7838593  )
       164           Al  tau( 164) = (  0.7136748  0.4989919  0.7838031  )
       165           Al  tau( 165) = (  0.7848872  0.4989560  0.8542637  )
       166           Al  tau( 166) = (  0.7137650  0.9990143  0.8543193  )
       167           Al  tau( 167) = (  0.7851665  0.9989945  0.9248224  )
       168           Al  tau( 168) = (  0.7141653  0.4990013  0.9245841  )
       169           Al  tau( 169) = (  0.9264473  0.4989950  0.9959000  )
       170           Al  tau( 170) = (  0.8559954  0.9990157  0.9959955  )
       171           Al  tau( 171) = (  0.9260580  0.9990405  0.0670011  )
       172           Al  tau( 172) = (  0.8558462  0.4990250  0.0671787  )
       173           Al  tau( 173) = (  0.9253816  0.4990632  0.1385321  )
       174           Al  tau( 174) = (  0.8560795  0.9990967  0.1387139  )
       175           Al  tau( 175) = (  0.9247636  0.9991313  0.2110829  )
       176           Al  tau( 176) = (  0.8560214  0.4991072  0.2108930  )
       177           Al  tau( 177) = (  0.9261043  0.4991261  0.2842297  )
       178           Al  tau( 178) = (  0.8573216  0.9991486  0.2832465  )
       179           Al  tau( 179) = (  0.9273773  0.9991372  0.3565610  )
       180           Al  tau( 180) = (  0.8586452  0.4991306  0.3564098  )
       181           Al  tau( 181) = (  0.9272283  0.4990946  0.4287925  )
       182           Al  tau( 182) = (  0.8579525  0.9991224  0.4290168  )
       183           Al  tau( 183) = (  0.9273261  0.9990859  0.5003721  )
       184           Al  tau( 184) = (  0.8571227  0.4990611  0.5006280  )
       185           Al  tau( 185) = (  0.9270213  0.4990116  0.5716167  )
       186           Al  tau( 186) = (  0.8566128  0.9990393  0.5717947  )
       187           Al  tau( 187) = (  0.9268612  0.9989993  0.6425842  )
       188           Al  tau( 188) = (  0.8559992  0.4989894  0.6424786  )
       189           Al  tau( 189) = (  0.9268299  0.4989578  0.7133589  )
       190           Al  tau( 190) = (  0.8559513  0.9989929  0.7133265  )
       191           Al  tau( 191) = (  0.9268919  0.9989582  0.7839515  )
       192           Al  tau( 192) = (  0.8558900  0.4989458  0.7837993  )
       193           Al  tau( 193) = (  0.9268717  0.4989415  0.8544385  )
       194           Al  tau( 194) = (  0.8559727  0.9989523  0.8543522  )
       195           Al  tau( 195) = (  0.9269268  0.9989823  0.9252485  )
       196           Al  tau( 196) = (  0.8560404  0.4989579  0.9250600  )

     number of k points=    91  Methfessel-Paxton smearing, width (Ry)=  0.0441
                       cart. coord. in units 2pi/alat
        k(    1) = (   0.0000000   0.0000000   0.0000000), wk =   0.0111111
        k(    2) = (   0.0000000   0.0000000   0.3333333), wk =   0.0222222
        k(    3) = (   0.0000000   0.3500000   0.0000000), wk =   0.0222222
        k(    4) = (   0.0000000   0.3500000   0.3333333), wk =   0.0222222
        k(    5) = (   0.0000000   0.3500000  -0.3333333), wk =   0.0222222
        k(    6) = (   0.0000000   0.7000000   0.0000000), wk =   0.0222222
        k(    7) = (   0.0000000   0.7000000   0.3333333), wk =   0.0222222
        k(    8) = (   0.0000000   0.7000000  -0.3333333), wk =   0.0222222
        k(    9) = (   0.0000000   1.0500000   0.0000000), wk =   0.0222222
        k(   10) = (   0.0000000   1.0500000   0.3333333), wk =   0.0222222
        k(   11) = (   0.0000000   1.0500000  -0.3333333), wk =   0.0222222
        k(   12) = (   0.0000000   1.4000001   0.0000000), wk =   0.0222222
        k(   13) = (   0.0000000   1.4000001   0.3333333), wk =   0.0222222
        k(   14) = (   0.0000000   1.4000001  -0.3333333), wk =   0.0222222
        k(   15) = (   0.0000000   1.7500001   0.0000000), wk =   0.0222222
        k(   16) = (   0.0000000   1.7500001   0.3333333), wk =   0.0222222
        k(   17) = (   0.0000000   1.7500001  -0.3333333), wk =   0.0222222
        k(   18) = (   0.0000000   2.1000001   0.0000000), wk =   0.0222222
        k(   19) = (   0.0000000   2.1000001   0.3333333), wk =   0.0222222
        k(   20) = (   0.0000000   2.1000001  -0.3333333), wk =   0.0222222
        k(   21) = (   0.0000000   2.4500001   0.0000000), wk =   0.0222222
        k(   22) = (   0.0000000   2.4500001   0.3333333), wk =   0.0222222
        k(   23) = (   0.0000000   2.4500001  -0.3333333), wk =   0.0222222
        k(   24) = (   0.0000000   2.8000001   0.0000000), wk =   0.0222222
        k(   25) = (   0.0000000   2.8000001   0.3333333), wk =   0.0222222
        k(   26) = (   0.0000000   2.8000001  -0.3333333), wk =   0.0222222
        k(   27) = (   0.0000000   3.1500001   0.0000000), wk =   0.0222222
        k(   28) = (   0.0000000   3.1500001   0.3333333), wk =   0.0222222
        k(   29) = (   0.0000000   3.1500001  -0.3333333), wk =   0.0222222
        k(   30) = (   0.0000000  -3.5000001   0.0000000), wk =   0.0111111
        k(   31) = (   0.0000000  -3.5000001   0.3333333), wk =   0.0222222
        k(   32) = (   0.3333333   0.0000000   0.0000000), wk =   0.0222222
        k(   33) = (   0.3333333   0.0000000   0.3333333), wk =   0.0222222
        k(   34) = (   0.3333333   0.0000000  -0.3333333), wk =   0.0222222
        k(   35) = (   0.3333333   0.3500000   0.0000000), wk =   0.0222222
        k(   36) = (   0.3333333   0.3500000   0.3333333), wk =   0.0222222
        k(   37) = (   0.3333333   0.3500000  -0.3333333), wk =   0.0222222
        k(   38) = (   0.3333333   0.7000000   0.0000000), wk =   0.0222222
        k(   39) = (   0.3333333   0.7000000   0.3333333), wk =   0.0222222
        k(   40) = (   0.3333333   0.7000000  -0.3333333), wk =   0.0222222
        k(   41) = (   0.3333333   1.0500000   0.0000000), wk =   0.0222222
        k(   42) = (   0.3333333   1.0500000   0.3333333), wk =   0.0222222
        k(   43) = (   0.3333333   1.0500000  -0.3333333), wk =   0.0222222
        k(   44) = (   0.3333333   1.4000001   0.0000000), wk =   0.0222222
        k(   45) = (   0.3333333   1.4000001   0.3333333), wk =   0.0222222
        k(   46) = (   0.3333333   1.4000001  -0.3333333), wk =   0.0222222
        k(   47) = (   0.3333333   1.7500001   0.0000000), wk =   0.0222222
        k(   48) = (   0.3333333   1.7500001   0.3333333), wk =   0.0222222
        k(   49) = (   0.3333333   1.7500001  -0.3333333), wk =   0.0222222
        k(   50) = (   0.3333333   2.1000001   0.0000000), wk =   0.0222222
        k(   51) = (   0.3333333   2.1000001   0.3333333), wk =   0.0222222
        k(   52) = (   0.3333333   2.1000001  -0.3333333), wk =   0.0222222
        k(   53) = (   0.3333333   2.4500001   0.0000000), wk =   0.0222222
        k(   54) = (   0.3333333   2.4500001   0.3333333), wk =   0.0222222
        k(   55) = (   0.3333333   2.4500001  -0.3333333), wk =   0.0222222
        k(   56) = (   0.3333333   2.8000001   0.0000000), wk =   0.0222222
        k(   57) = (   0.3333333   2.8000001   0.3333333), wk =   0.0222222
        k(   58) = (   0.3333333   2.8000001  -0.3333333), wk =   0.0222222
        k(   59) = (   0.3333333   3.1500001   0.0000000), wk =   0.0222222
        k(   60) = (   0.3333333   3.1500001   0.3333333), wk =   0.0222222
        k(   61) = (   0.3333333   3.1500001  -0.3333333), wk =   0.0222222
        k(   62) = (   0.3333333  -3.5000001   0.0000000), wk =   0.0222222
        k(   63) = (   0.3333333  -3.5000001   0.3333333), wk =   0.0222222
        k(   64) = (   0.3333333  -3.5000001  -0.3333333), wk =   0.0222222
        k(   65) = (   0.3333333  -3.1500001   0.0000000), wk =   0.0222222
        k(   66) = (   0.3333333  -3.1500001   0.3333333), wk =   0.0222222
        k(   67) = (   0.3333333  -3.1500001  -0.3333333), wk =   0.0222222
        k(   68) = (   0.3333333  -2.8000001   0.0000000), wk =   0.0222222
        k(   69) = (   0.3333333  -2.8000001   0.3333333), wk =   0.0222222
        k(   70) = (   0.3333333  -2.8000001  -0.3333333), wk =   0.0222222
        k(   71) = (   0.3333333  -2.4500001   0.0000000), wk =   0.0222222
        k(   72) = (   0.3333333  -2.4500001   0.3333333), wk =   0.0222222
        k(   73) = (   0.3333333  -2.4500001  -0.3333333), wk =   0.0222222
        k(   74) = (   0.3333333  -2.1000001   0.0000000), wk =   0.0222222
        k(   75) = (   0.3333333  -2.1000001   0.3333333), wk =   0.0222222
        k(   76) = (   0.3333333  -2.1000001  -0.3333333), wk =   0.0222222
        k(   77) = (   0.3333333  -1.7500001   0.0000000), wk =   0.0222222
        k(   78) = (   0.3333333  -1.7500001   0.3333333), wk =   0.0222222
        k(   79) = (   0.3333333  -1.7500001  -0.3333333), wk =   0.0222222
        k(   80) = (   0.3333333  -1.4000001   0.0000000), wk =   0.0222222
        k(   81) = (   0.3333333  -1.4000001   0.3333333), wk =   0.0222222
        k(   82) = (   0.3333333  -1.4000001  -0.3333333), wk =   0.0222222
        k(   83) = (   0.3333333  -1.0500000   0.0000000), wk =   0.0222222
        k(   84) = (   0.3333333  -1.0500000   0.3333333), wk =   0.0222222
        k(   85) = (   0.3333333  -1.0500000  -0.3333333), wk =   0.0222222
        k(   86) = (   0.3333333  -0.7000000   0.0000000), wk =   0.0222222
        k(   87) = (   0.3333333  -0.7000000   0.3333333), wk =   0.0222222
        k(   88) = (   0.3333333  -0.7000000  -0.3333333), wk =   0.0222222
        k(   89) = (   0.3333333  -0.3500000   0.0000000), wk =   0.0222222
        k(   90) = (   0.3333333  -0.3500000   0.3333333), wk =   0.0222222
        k(   91) = (   0.3333333  -0.3500000  -0.3333333), wk =   0.0222222

                       cryst. coord.
        k(    1) = (   0.0000000   0.0000000   0.0000000), wk =   0.0111111
        k(    2) = (   0.0000000   0.0000000   0.3333333), wk =   0.0222222
        k(    3) = (   0.0000000   0.0500000   0.0000000), wk =   0.0222222
        k(    4) = (   0.0000000   0.0500000   0.3333333), wk =   0.0222222
        k(    5) = (   0.0000000   0.0500000  -0.3333333), wk =   0.0222222
        k(    6) = (   0.0000000   0.1000000   0.0000000), wk =   0.0222222
        k(    7) = (   0.0000000   0.1000000   0.3333333), wk =   0.0222222
        k(    8) = (   0.0000000   0.1000000  -0.3333333), wk =   0.0222222
        k(    9) = (   0.0000000   0.1500000   0.0000000), wk =   0.0222222
        k(   10) = (   0.0000000   0.1500000   0.3333333), wk =   0.0222222
        k(   11) = (   0.0000000   0.1500000  -0.3333333), wk =   0.0222222
        k(   12) = (   0.0000000   0.2000000   0.0000000), wk =   0.0222222
        k(   13) = (   0.0000000   0.2000000   0.3333333), wk =   0.0222222
        k(   14) = (   0.0000000   0.2000000  -0.3333333), wk =   0.0222222
        k(   15) = (   0.0000000   0.2500000   0.0000000), wk =   0.0222222
        k(   16) = (   0.0000000   0.2500000   0.3333333), wk =   0.0222222
        k(   17) = (   0.0000000   0.2500000  -0.3333333), wk =   0.0222222
        k(   18) = (   0.0000000   0.3000000   0.0000000), wk =   0.0222222
        k(   19) = (   0.0000000   0.3000000   0.3333333), wk =   0.0222222
        k(   20) = (   0.0000000   0.3000000  -0.3333333), wk =   0.0222222
        k(   21) = (   0.0000000   0.3500000   0.0000000), wk =   0.0222222
        k(   22) = (   0.0000000   0.3500000   0.3333333), wk =   0.0222222
        k(   23) = (   0.0000000   0.3500000  -0.3333333), wk =   0.0222222
        k(   24) = (   0.0000000   0.4000000   0.0000000), wk =   0.0222222
        k(   25) = (   0.0000000   0.4000000   0.3333333), wk =   0.0222222
        k(   26) = (   0.0000000   0.4000000  -0.3333333), wk =   0.0222222
        k(   27) = (   0.0000000   0.4500000   0.0000000), wk =   0.0222222
        k(   28) = (   0.0000000   0.4500000   0.3333333), wk =   0.0222222
        k(   29) = (   0.0000000   0.4500000  -0.3333333), wk =   0.0222222
        k(   30) = (   0.0000000  -0.5000000   0.0000000), wk =   0.0111111
        k(   31) = (   0.0000000  -0.5000000   0.3333333), wk =   0.0222222
        k(   32) = (   0.3333333   0.0000000   0.0000000), wk =   0.0222222
        k(   33) = (   0.3333333   0.0000000   0.3333333), wk =   0.0222222
        k(   34) = (   0.3333333   0.0000000  -0.3333333), wk =   0.0222222
        k(   35) = (   0.3333333   0.0500000   0.0000000), wk =   0.0222222
        k(   36) = (   0.3333333   0.0500000   0.3333333), wk =   0.0222222
        k(   37) = (   0.3333333   0.0500000  -0.3333333), wk =   0.0222222
        k(   38) = (   0.3333333   0.1000000   0.0000000), wk =   0.0222222
        k(   39) = (   0.3333333   0.1000000   0.3333333), wk =   0.0222222
        k(   40) = (   0.3333333   0.1000000  -0.3333333), wk =   0.0222222
        k(   41) = (   0.3333333   0.1500000   0.0000000), wk =   0.0222222
        k(   42) = (   0.3333333   0.1500000   0.3333333), wk =   0.0222222
        k(   43) = (   0.3333333   0.1500000  -0.3333333), wk =   0.0222222
        k(   44) = (   0.3333333   0.2000000   0.0000000), wk =   0.0222222
        k(   45) = (   0.3333333   0.2000000   0.3333333), wk =   0.0222222
        k(   46) = (   0.3333333   0.2000000  -0.3333333), wk =   0.0222222
        k(   47) = (   0.3333333   0.2500000   0.0000000), wk =   0.0222222
        k(   48) = (   0.3333333   0.2500000   0.3333333), wk =   0.0222222
        k(   49) = (   0.3333333   0.2500000  -0.3333333), wk =   0.0222222
        k(   50) = (   0.3333333   0.3000000   0.0000000), wk =   0.0222222
        k(   51) = (   0.3333333   0.3000000   0.3333333), wk =   0.0222222
        k(   52) = (   0.3333333   0.3000000  -0.3333333), wk =   0.0222222
        k(   53) = (   0.3333333   0.3500000   0.0000000), wk =   0.0222222
        k(   54) = (   0.3333333   0.3500000   0.3333333), wk =   0.0222222
        k(   55) = (   0.3333333   0.3500000  -0.3333333), wk =   0.0222222
        k(   56) = (   0.3333333   0.4000000   0.0000000), wk =   0.0222222
        k(   57) = (   0.3333333   0.4000000   0.3333333), wk =   0.0222222
        k(   58) = (   0.3333333   0.4000000  -0.3333333), wk =   0.0222222
        k(   59) = (   0.3333333   0.4500000   0.0000000), wk =   0.0222222
        k(   60) = (   0.3333333   0.4500000   0.3333333), wk =   0.0222222
        k(   61) = (   0.3333333   0.4500000  -0.3333333), wk =   0.0222222
        k(   62) = (   0.3333333  -0.5000000   0.0000000), wk =   0.0222222
        k(   63) = (   0.3333333  -0.5000000   0.3333333), wk =   0.0222222
        k(   64) = (   0.3333333  -0.5000000  -0.3333333), wk =   0.0222222
        k(   65) = (   0.3333333  -0.4500000   0.0000000), wk =   0.0222222
        k(   66) = (   0.3333333  -0.4500000   0.3333333), wk =   0.0222222
        k(   67) = (   0.3333333  -0.4500000  -0.3333333), wk =   0.0222222
        k(   68) = (   0.3333333  -0.4000000   0.0000000), wk =   0.0222222
        k(   69) = (   0.3333333  -0.4000000   0.3333333), wk =   0.0222222
        k(   70) = (   0.3333333  -0.4000000  -0.3333333), wk =   0.0222222
        k(   71) = (   0.3333333  -0.3500000   0.0000000), wk =   0.0222222
        k(   72) = (   0.3333333  -0.3500000   0.3333333), wk =   0.0222222
        k(   73) = (   0.3333333  -0.3500000  -0.3333333), wk =   0.0222222
        k(   74) = (   0.3333333  -0.3000000   0.0000000), wk =   0.0222222
        k(   75) = (   0.3333333  -0.3000000   0.3333333), wk =   0.0222222
        k(   76) = (   0.3333333  -0.3000000  -0.3333333), wk =   0.0222222
        k(   77) = (   0.3333333  -0.2500000   0.0000000), wk =   0.0222222
        k(   78) = (   0.3333333  -0.2500000   0.3333333), wk =   0.0222222
        k(   79) = (   0.3333333  -0.2500000  -0.3333333), wk =   0.0222222
        k(   80) = (   0.3333333  -0.2000000   0.0000000), wk =   0.0222222
        k(   81) = (   0.3333333  -0.2000000   0.3333333), wk =   0.0222222
        k(   82) = (   0.3333333  -0.2000000  -0.3333333), wk =   0.0222222
        k(   83) = (   0.3333333  -0.1500000   0.0000000), wk =   0.0222222
        k(   84) = (   0.3333333  -0.1500000   0.3333333), wk =   0.0222222
        k(   85) = (   0.3333333  -0.1500000  -0.3333333), wk =   0.0222222
        k(   86) = (   0.3333333  -0.1000000   0.0000000), wk =   0.0222222
        k(   87) = (   0.3333333  -0.1000000   0.3333333), wk =   0.0222222
        k(   88) = (   0.3333333  -0.1000000  -0.3333333), wk =   0.0222222
        k(   89) = (   0.3333333  -0.0500000   0.0000000), wk =   0.0222222
        k(   90) = (   0.3333333  -0.0500000   0.3333333), wk =   0.0222222
        k(   91) = (   0.3333333  -0.0500000  -0.3333333), wk =   0.0222222

     Dense  grid:  2983521 G-vectors     FFT dimensions: ( 360,  50, 360)

     Smooth grid:   754991 G-vectors     FFT dimensions: ( 225,  32, 225)

     Dynamical RAM for                 wfc:     102.19 MB

     Dynamical RAM for     wfc (w. buffer):     408.76 MB

     Dynamical RAM for           str. fact:      27.31 MB

     Dynamical RAM for           local pot:       0.00 MB

     Dynamical RAM for          nlocal pot:     957.99 MB

     Dynamical RAM for                qrad:      41.06 MB

     Dynamical RAM for          rho,v,vnew:      56.98 MB

     Dynamical RAM for               rhoin:      18.99 MB

     Dynamical RAM for            rho*nmix:     145.68 MB

     Dynamical RAM for           G-vectors:      35.30 MB

     Dynamical RAM for          h,s,v(r/c):      92.30 MB

     Dynamical RAM for          <psi|beta>:      18.03 MB

     Dynamical RAM for                 psi:     408.76 MB

     Dynamical RAM for                hpsi:     408.76 MB

     Dynamical RAM for                spsi:     408.76 MB

     Dynamical RAM for      wfcinit/wfcrot:     465.43 MB

     Dynamical RAM for           addusdens:      94.34 MB

     Dynamical RAM for          addusforce:     200.57 MB

     Dynamical RAM for         addusstress:      55.26 MB

     Estimated static dynamical RAM per process >       1.74 GB

     Estimated max dynamical RAM per process >       3.04 GB

     Estimated total dynamical RAM >     547.48 GB

     Initial potential from superposition of free atoms

     starting charge  591.61999, renormalised to  592.00000
     Starting wfcs are  784 randomized atomic wfcs
     Checking if some PAW data can be deallocated... 
       PAW data deallocated on   43 nodes for type:  1
       PAW data deallocated on  160 nodes for type:  3

     total cpu time spent up to now is      250.2 secs

     Self-consistent Calculation

     iteration #  1     ecut=    40.00 Ry     beta= 0.40
     Davidson diagonalization with overlap
     ethr =  1.00E-02,  avg # of iterations =  3.0

     total cpu time spent up to now is      634.9 secs

     total energy              =   -6950.58851972 Ry
     Harris-Foulkes estimate   =   -6951.24146263 Ry
     estimated scf accuracy    <      35.96524985 Ry

     iteration #  2     ecut=    40.00 Ry     beta= 0.40
     Davidson diagonalization with overlap
     ethr =  6.08E-03,  avg # of iterations =  1.0

     total cpu time spent up to now is      915.0 secs

     total energy              =   -6949.85503233 Ry
     Harris-Foulkes estimate   =   -6950.98368814 Ry
     estimated scf accuracy    <      19.07814871 Ry

     iteration #  3     ecut=    40.00 Ry     beta= 0.40
     Davidson diagonalization with overlap
     ethr =  3.22E-03,  avg # of iterations =  1.1

     total cpu time spent up to now is     1195.1 secs

     total energy              =   -6950.43775208 Ry
     Harris-Foulkes estimate   =   -6950.46552653 Ry
     estimated scf accuracy    <       0.17368418 Ry

     iteration #  4     ecut=    40.00 Ry     beta= 0.40
     Davidson diagonalization with overlap
     c_bands:  3 eigenvalues not converged
     ethr =  2.93E-05,  avg # of iterations = 14.0

     total cpu time spent up to now is     1823.3 secs

     total energy              =   -6950.57216352 Ry
     Harris-Foulkes estimate   =   -6950.58642028 Ry
     estimated scf accuracy    <       0.48836811 Ry

     iteration #  5     ecut=    40.00 Ry     beta= 0.40
     Davidson diagonalization with overlap
     ethr =  2.93E-05,  avg # of iterations =  4.1

     total cpu time spent up to now is     2136.5 secs

     total energy              =   -6950.56730906 Ry
     Harris-Foulkes estimate   =   -6950.57746932 Ry
     estimated scf accuracy    <       0.05251432 Ry

     iteration #  6     ecut=    40.00 Ry     beta= 0.40
     Davidson diagonalization with overlap
     ethr =  8.87E-06,  avg # of iterations = 15.6

     total cpu time spent up to now is     2536.6 secs

     total energy              =   -6950.57105198 Ry
     Harris-Foulkes estimate   =   -6950.57158309 Ry
     estimated scf accuracy    <       0.02400423 Ry

     iteration #  7     ecut=    40.00 Ry     beta= 0.40
     Davidson diagonalization with overlap
     ethr =  4.05E-06,  avg # of iterations =  2.5

     total cpu time spent up to now is     2868.0 secs

     total energy              =   -6950.57113847 Ry
     Harris-Foulkes estimate   =   -6950.57140599 Ry
     estimated scf accuracy    <       0.01195208 Ry

     iteration #  8     ecut=    40.00 Ry     beta= 0.40
     Davidson diagonalization with overlap
     ethr =  2.02E-06,  avg # of iterations =  3.0

     total cpu time spent up to now is     3169.9 secs

     total energy              =   -6950.57084704 Ry
     Harris-Foulkes estimate   =   -6950.57126112 Ry
     estimated scf accuracy    <       0.00531605 Ry

     iteration #  9     ecut=    40.00 Ry     beta= 0.40
     Davidson diagonalization with overlap
     ethr =  8.98E-07,  avg # of iterations =  5.4

     total cpu time spent up to now is     3514.3 secs

     total energy              =   -6950.57114358 Ry
     Harris-Foulkes estimate   =   -6950.57115471 Ry
     estimated scf accuracy    <       0.00065038 Ry

     iteration # 10     ecut=    40.00 Ry     beta= 0.40
     Davidson diagonalization with overlap
     ethr =  1.10E-07,  avg # of iterations =  5.9

     total cpu time spent up to now is     3951.8 secs

     total energy              =   -6950.57129032 Ry
     Harris-Foulkes estimate   =   -6950.57129474 Ry
     estimated scf accuracy    <       0.00057497 Ry

     iteration # 11     ecut=    40.00 Ry     beta= 0.40
     Davidson diagonalization with overlap
     ethr =  9.71E-08,  avg # of iterations =  1.4

     total cpu time spent up to now is     4234.3 secs

     total energy              =   -6950.57126224 Ry
     Harris-Foulkes estimate   =   -6950.57129629 Ry
     estimated scf accuracy    <       0.00048943 Ry

     iteration # 12     ecut=    40.00 Ry     beta= 0.40
     Davidson diagonalization with overlap
     ethr =  8.27E-08,  avg # of iterations =  1.6

     total cpu time spent up to now is     4520.7 secs

     total energy              =   -6950.57128200 Ry
     Harris-Foulkes estimate   =   -6950.57128346 Ry
     estimated scf accuracy    <       0.00002014 Ry

     iteration # 13     ecut=    40.00 Ry     beta= 0.40
     Davidson diagonalization with overlap
     ethr =  3.40E-09,  avg # of iterations =  4.3

     total cpu time spent up to now is     5050.4 secs

     total energy              =   -6950.57129493 Ry
     Harris-Foulkes estimate   =   -6950.57129508 Ry
     estimated scf accuracy    <       0.00000296 Ry

     iteration # 14     ecut=    40.00 Ry     beta= 0.40
     Davidson diagonalization with overlap
     ethr =  5.01E-10,  avg # of iterations =  3.1

     total cpu time spent up to now is     5353.6 secs

     total energy              =   -6950.57129456 Ry
     Harris-Foulkes estimate   =   -6950.57129469 Ry
     estimated scf accuracy    <       0.00000109 Ry

     iteration # 15     ecut=    40.00 Ry     beta= 0.40
     Davidson diagonalization with overlap
     ethr =  1.84E-10,  avg # of iterations =  3.9

     total cpu time spent up to now is     5689.2 secs

     total energy              =   -6950.57129436 Ry
     Harris-Foulkes estimate   =   -6950.57129437 Ry
     estimated scf accuracy    <       0.00000027 Ry

     iteration # 16     ecut=    40.00 Ry     beta= 0.40
     Davidson diagonalization with overlap
     ethr =  4.58E-11,  avg # of iterations =  2.5

     total cpu time spent up to now is     5986.1 secs

     total energy              =   -6950.57129421 Ry
     Harris-Foulkes estimate   =   -6950.57129422 Ry
     estimated scf accuracy    <       0.00000013 Ry

     iteration # 17     ecut=    40.00 Ry     beta= 0.40
     Davidson diagonalization with overlap
     ethr =  2.14E-11,  avg # of iterations =  4.0

     total cpu time spent up to now is     6315.9 secs

     total energy              =   -6950.57129407 Ry
     Harris-Foulkes estimate   =   -6950.57129408 Ry
     estimated scf accuracy    <       0.00000001 Ry

     iteration # 18     ecut=    40.00 Ry     beta= 0.40
     Davidson diagonalization with overlap
     ethr =  2.07E-12,  avg # of iterations =  4.8

     total cpu time spent up to now is     6866.4 secs

     total energy              =   -6950.57129372 Ry
     Harris-Foulkes estimate   =   -6950.57129372 Ry
     estimated scf accuracy    <          7.7E-09 Ry

     iteration # 19     ecut=    40.00 Ry     beta= 0.40
     Davidson diagonalization with overlap
     ethr =  1.30E-12,  avg # of iterations =  1.0

     total cpu time spent up to now is     7146.2 secs

     total energy              =   -6950.57129367 Ry
     Harris-Foulkes estimate   =   -6950.57129367 Ry
     estimated scf accuracy    <          2.1E-10 Ry

     iteration # 20     ecut=    40.00 Ry     beta= 0.40
     Davidson diagonalization with overlap
     ethr =  1.00E-13,  avg # of iterations =  4.2

     total cpu time spent up to now is     7506.2 secs

     total energy              =   -6950.57129362 Ry
     Harris-Foulkes estimate   =   -6950.57129362 Ry
     estimated scf accuracy    <          1.3E-10 Ry

     iteration # 21     ecut=    40.00 Ry     beta= 0.40
     Davidson diagonalization with overlap
     ethr =  1.00E-13,  avg # of iterations =  1.5

     total cpu time spent up to now is     7789.6 secs

     total energy              =   -6950.57129360 Ry
     Harris-Foulkes estimate   =   -6950.57129360 Ry
     estimated scf accuracy    <          1.3E-10 Ry

     iteration # 22     ecut=    40.00 Ry     beta= 0.40
     Davidson diagonalization with overlap
     ethr =  1.00E-13,  avg # of iterations =  1.0

     total cpu time spent up to now is     8069.8 secs

     total energy              =   -6950.57129359 Ry
     Harris-Foulkes estimate   =   -6950.57129359 Ry
     estimated scf accuracy    <          1.3E-11 Ry

     iteration # 23     ecut=    40.00 Ry     beta= 0.40
     Davidson diagonalization with overlap
     ethr =  1.00E-13,  avg # of iterations =  1.0

     total cpu time spent up to now is     8349.7 secs

     total energy              =   -6950.57129358 Ry
     Harris-Foulkes estimate   =   -6950.57129358 Ry
     estimated scf accuracy    <          3.5E-11 Ry

     iteration # 24     ecut=    40.00 Ry     beta= 0.40
     Davidson diagonalization with overlap
     ethr =  1.00E-13,  avg # of iterations =  1.0

     total cpu time spent up to now is     8629.2 secs

     total energy              =   -6950.57129357 Ry
     Harris-Foulkes estimate   =   -6950.57129357 Ry
     estimated scf accuracy    <          1.3E-11 Ry

     iteration # 25     ecut=    40.00 Ry     beta= 0.40
     Davidson diagonalization with overlap
     ethr =  1.00E-13,  avg # of iterations =  1.0

     total cpu time spent up to now is     8909.0 secs

     total energy              =   -6950.57129356 Ry
     Harris-Foulkes estimate   =   -6950.57129356 Ry
     estimated scf accuracy    <          8.6E-12 Ry

     iteration # 26     ecut=    40.00 Ry     beta= 0.40
     Davidson diagonalization with overlap
     ethr =  1.00E-13,  avg # of iterations =  1.0

     total cpu time spent up to now is     9188.3 secs

     total energy              =   -6950.57129356 Ry
     Harris-Foulkes estimate   =   -6950.57129356 Ry
     estimated scf accuracy    <          9.6E-12 Ry

     iteration # 27     ecut=    40.00 Ry     beta= 0.40
     Davidson diagonalization with overlap
     ethr =  1.00E-13,  avg # of iterations =  1.0

     total cpu time spent up to now is     9467.9 secs

     total energy              =   -6950.57129355 Ry
     Harris-Foulkes estimate   =   -6950.57129355 Ry
     estimated scf accuracy    <          2.5E-11 Ry

     iteration # 28     ecut=    40.00 Ry     beta= 0.40
     Davidson diagonalization with overlap
     ethr =  1.00E-13,  avg # of iterations =  1.0

     total cpu time spent up to now is     9747.4 secs

     total energy              =   -6950.57129355 Ry
     Harris-Foulkes estimate   =   -6950.57129355 Ry
     estimated scf accuracy    <          1.9E-11 Ry

     iteration # 29     ecut=    40.00 Ry     beta= 0.40
     Davidson diagonalization with overlap
     ethr =  1.00E-13,  avg # of iterations =  1.0

     total cpu time spent up to now is    10027.0 secs

     total energy              =   -6950.57129354 Ry
     Harris-Foulkes estimate   =   -6950.57129354 Ry
     estimated scf accuracy    <          1.7E-11 Ry

     iteration # 30     ecut=    40.00 Ry     beta= 0.40
     Davidson diagonalization with overlap
     ethr =  1.00E-13,  avg # of iterations =  1.0

     total cpu time spent up to now is    10306.4 secs

     total energy              =   -6950.57129354 Ry
     Harris-Foulkes estimate   =   -6950.57129354 Ry
     estimated scf accuracy    <          3.1E-11 Ry

     iteration # 31     ecut=    40.00 Ry     beta= 0.40
     Davidson diagonalization with overlap
     ethr =  1.00E-13,  avg # of iterations =  1.0

     total cpu time spent up to now is    10586.1 secs

     total energy              =   -6950.57129353 Ry
     Harris-Foulkes estimate   =   -6950.57129353 Ry
     estimated scf accuracy    <          3.9E-11 Ry

     iteration # 32     ecut=    40.00 Ry     beta= 0.40
     Davidson diagonalization with overlap
     ethr =  1.00E-13,  avg # of iterations =  1.0

     total cpu time spent up to now is    10865.6 secs

     total energy              =   -6950.57129353 Ry
     Harris-Foulkes estimate   =   -6950.57129353 Ry
     estimated scf accuracy    <          4.5E-11 Ry

     iteration # 33     ecut=    40.00 Ry     beta= 0.40
     Davidson diagonalization with overlap
     ethr =  1.00E-13,  avg # of iterations =  1.0

     total cpu time spent up to now is    11144.9 secs

     total energy              =   -6950.57129352 Ry
     Harris-Foulkes estimate   =   -6950.57129352 Ry
     estimated scf accuracy    <          5.1E-11 Ry

     iteration # 34     ecut=    40.00 Ry     beta= 0.40
     Davidson diagonalization with overlap
     ethr =  1.00E-13,  avg # of iterations =  1.0

     total cpu time spent up to now is    11424.2 secs

     total energy              =   -6950.57129352 Ry
     Harris-Foulkes estimate   =   -6950.57129352 Ry
     estimated scf accuracy    <          6.9E-11 Ry

     iteration # 35     ecut=    40.00 Ry     beta= 0.40
     Davidson diagonalization with overlap
     ethr =  1.00E-13,  avg # of iterations =  1.0

     total cpu time spent up to now is    11703.9 secs

     total energy              =   -6950.57129352 Ry
     Harris-Foulkes estimate   =   -6950.57129352 Ry
     estimated scf accuracy    <          1.0E-10 Ry

     iteration # 36     ecut=    40.00 Ry     beta= 0.40
     Davidson diagonalization with overlap
     ethr =  1.00E-13,  avg # of iterations =  1.0

     total cpu time spent up to now is    11983.5 secs

     total energy              =   -6950.57129351 Ry
     Harris-Foulkes estimate   =   -6950.57129351 Ry
     estimated scf accuracy    <          1.2E-10 Ry

     iteration # 37     ecut=    40.00 Ry     beta= 0.40
     Davidson diagonalization with overlap
     ethr =  1.00E-13,  avg # of iterations =  1.0

     total cpu time spent up to now is    12263.2 secs

     total energy              =   -6950.57129351 Ry
     Harris-Foulkes estimate   =   -6950.57129351 Ry
     estimated scf accuracy    <          1.5E-10 Ry

     iteration # 38     ecut=    40.00 Ry     beta= 0.40
     Davidson diagonalization with overlap
     ethr =  1.00E-13,  avg # of iterations =  1.0

     total cpu time spent up to now is    12542.8 secs

     total energy              =   -6950.57129350 Ry
     Harris-Foulkes estimate   =   -6950.57129350 Ry
     estimated scf accuracy    <          1.4E-10 Ry

     iteration # 39     ecut=    40.00 Ry     beta= 0.40
     Davidson diagonalization with overlap
     ethr =  1.00E-13,  avg # of iterations =  1.0

     total cpu time spent up to now is    12822.0 secs

     total energy              =   -6950.57129350 Ry
     Harris-Foulkes estimate   =   -6950.57129350 Ry
     estimated scf accuracy    <          1.6E-10 Ry

     iteration # 40     ecut=    40.00 Ry     beta= 0.40
     Davidson diagonalization with overlap
     ethr =  1.00E-13,  avg # of iterations =  1.0

     total cpu time spent up to now is    13101.4 secs

     total energy              =   -6950.57129349 Ry
     Harris-Foulkes estimate   =   -6950.57129349 Ry
     estimated scf accuracy    <          1.7E-10 Ry

     iteration # 41     ecut=    40.00 Ry     beta= 0.40
     Davidson diagonalization with overlap
     ethr =  1.00E-13,  avg # of iterations =  1.0

     total cpu time spent up to now is    13381.2 secs

     total energy              =   -6950.57129349 Ry
     Harris-Foulkes estimate   =   -6950.57129349 Ry
     estimated scf accuracy    <          1.8E-10 Ry

     iteration # 42     ecut=    40.00 Ry     beta= 0.40
     Davidson diagonalization with overlap
     ethr =  1.00E-13,  avg # of iterations =  1.0

     total cpu time spent up to now is    13660.8 secs

     total energy              =   -6950.57129349 Ry
     Harris-Foulkes estimate   =   -6950.57129349 Ry
     estimated scf accuracy    <          1.6E-10 Ry

     iteration # 43     ecut=    40.00 Ry     beta= 0.40
     Davidson diagonalization with overlap
     ethr =  1.00E-13,  avg # of iterations =  1.0

     total cpu time spent up to now is    13940.5 secs

     total energy              =   -6950.57129348 Ry
     Harris-Foulkes estimate   =   -6950.57129348 Ry
     estimated scf accuracy    <          1.4E-10 Ry

     iteration # 44     ecut=    40.00 Ry     beta= 0.40
     Davidson diagonalization with overlap
     ethr =  1.00E-13,  avg # of iterations =  1.0

     total cpu time spent up to now is    14220.0 secs

     total energy              =   -6950.57129348 Ry
     Harris-Foulkes estimate   =   -6950.57129348 Ry
     estimated scf accuracy    <          1.3E-10 Ry

     iteration # 45     ecut=    40.00 Ry     beta= 0.40
     Davidson diagonalization with overlap
     ethr =  1.00E-13,  avg # of iterations =  1.0

     total cpu time spent up to now is    14499.5 secs

     total energy              =   -6950.57129347 Ry
     Harris-Foulkes estimate   =   -6950.57129347 Ry
     estimated scf accuracy    <          1.6E-10 Ry

     iteration # 46     ecut=    40.00 Ry     beta= 0.40
     Davidson diagonalization with overlap
     ethr =  1.00E-13,  avg # of iterations =  1.0

     total cpu time spent up to now is    14779.1 secs

     total energy              =   -6950.57129347 Ry
     Harris-Foulkes estimate   =   -6950.57129347 Ry
     estimated scf accuracy    <          1.4E-10 Ry

     iteration # 47     ecut=    40.00 Ry     beta= 0.40
     Davidson diagonalization with overlap
     ethr =  1.00E-13,  avg # of iterations =  1.0

     total cpu time spent up to now is    15058.7 secs

     total energy              =   -6950.57129347 Ry
     Harris-Foulkes estimate   =   -6950.57129347 Ry
     estimated scf accuracy    <          1.2E-10 Ry

     iteration # 48     ecut=    40.00 Ry     beta= 0.40
     Davidson diagonalization with overlap
     ethr =  1.00E-13,  avg # of iterations =  1.0

     total cpu time spent up to now is    15338.7 secs

     total energy              =   -6950.57129347 Ry
     Harris-Foulkes estimate   =   -6950.57129347 Ry
     estimated scf accuracy    <          1.2E-10 Ry

     iteration # 49     ecut=    40.00 Ry     beta= 0.40
     Davidson diagonalization with overlap
     ethr =  1.00E-13,  avg # of iterations =  1.0

     total cpu time spent up to now is    15618.6 secs

     total energy              =   -6950.57129346 Ry
     Harris-Foulkes estimate   =   -6950.57129346 Ry
     estimated scf accuracy    <          9.5E-11 Ry

     iteration # 50     ecut=    40.00 Ry     beta= 0.40
     Davidson diagonalization with overlap
     ethr =  1.00E-13,  avg # of iterations =  1.0

     total cpu time spent up to now is    15898.3 secs

     total energy              =   -6950.57129346 Ry
     Harris-Foulkes estimate   =   -6950.57129346 Ry
     estimated scf accuracy    <          2.4E-11 Ry

     iteration # 51     ecut=    40.00 Ry     beta= 0.40
     Davidson diagonalization with overlap
     ethr =  1.00E-13,  avg # of iterations =  1.0

     total cpu time spent up to now is    16177.7 secs

     total energy              =   -6950.57129346 Ry
     Harris-Foulkes estimate   =   -6950.57129346 Ry
     estimated scf accuracy    <          1.7E-12 Ry

     iteration # 52     ecut=    40.00 Ry     beta= 0.40
     Davidson diagonalization with overlap
     ethr =  1.00E-13,  avg # of iterations =  1.0

     total cpu time spent up to now is    16456.2 secs

     End of self-consistent calculation

          k = 0.0000 0.0000 0.0000 ( 94423 PWs)   bands (ev):

    -4.3979  -3.9536  -3.9227  -3.8306  -3.8200  -3.6723  -3.6528  -3.3523
    -3.2248  -3.1820  -3.1180  -3.0005  -2.9845  -2.9436  -2.8759  -2.6942
    -2.6545  -2.6184  -2.5959  -2.5402  -2.5309  -2.3969  -2.3269  -2.3079
    -2.1928  -2.1204  -2.0748  -2.0166  -1.9629  -1.8545  -1.8418  -1.7602
    -1.7402  -1.7119  -1.6760  -1.6473  -1.4864  -1.4583  -1.4525  -1.3347
    -1.2652  -1.1960  -1.0635  -1.0371  -0.9673  -0.9331  -0.9133  -0.6942
    -0.5883  -0.5227  -0.4847  -0.4818  -0.4595  -0.4449  -0.4171  -0.3361
    -0.3306  -0.2544  -0.1998  -0.1249  -0.0471  -0.0045   0.0349   0.0629
     0.1155   0.2429   0.2935   0.2966   0.4311   0.6660   0.7028   0.7500
     0.9072   0.9558   0.9618   1.0276   1.0800   1.0917   1.1100   1.1417
     1.1684   1.1973   1.2465   1.2491   1.3260   1.3299   1.3867   1.4813
     1.5834   1.5993   1.7335   1.7490   1.7713   1.8467   1.8497   2.0179
     2.1103   2.1517   2.2299   2.2756   2.3819   2.4770   2.4867   2.5955
     2.6202   2.6412   2.6460   2.6731   2.7869   2.7933   2.9663   3.0017
     3.0501   3.0671   3.0710   3.0988   3.1416   3.2727   3.2909   3.3404
     3.4754   3.5120   3.5560   3.5642   3.5994   3.6400   3.6767   3.7503
     3.8081   3.8156   3.8616   3.8754   3.9010   3.9179   3.9470   3.9861
     4.1165   4.1778   4.2529   4.2761   4.2993   4.3543   4.3602   4.3659
     4.4213   4.4699   4.4811   4.4836   4.4939   4.5002   4.5954   4.7412
     4.7555   4.7931   4.7970   4.8695   4.9149   4.9220   4.9520   5.0189
     5.0217   5.0345   5.1266   5.1371   5.1380   5.1691   5.2203   5.2294
     5.2597   5.2778   5.2908   5.3725   5.3773   5.4199   5.4215   5.4522
     5.4734   5.5041   5.5093   5.5174   5.5253   5.5488   5.5661   5.5932
     5.6176   5.7258   5.7416   5.7565   5.7694   5.7699   5.7871   5.8214
     5.8357   5.8525   5.8689   5.8862   5.8990   5.9399   5.9782   5.9946
     6.0005   6.0368   6.0485   6.0725   6.1003   6.1261   6.1311   6.1415
     6.1584   6.2012   6.2032   6.2097   6.2187   6.2667   6.2830   6.2892
     6.2898   6.2995   6.3180   6.3307   6.3425   6.3806   6.3814   6.4230
     6.4565   6.4973   6.5401   6.5546   6.5571   6.5588   6.5925   6.6294
     6.6805   6.7297   6.7400   6.7632   6.7759   6.7794   6.8019   6.8031
     6.8454   6.8485   6.8935   6.9654   6.9738   6.9758   6.9958   7.0383
     7.0411   7.0451   7.1279   7.1331   7.1471   7.1787   7.1871   7.1894
     7.2564   7.3234   7.3628   7.3776   7.3865   7.4045   7.4220   7.4242
     7.4326   7.4544   7.4928   7.5030   7.5039   7.5100   7.5233   7.5339
     7.5382   7.5940   7.6039   7.6379   7.6446   7.6817   7.6818   7.7026
     7.7107   7.7109   7.7651   7.7655   7.7860   7.7868   7.7992   7.8781
     7.8791   7.8977   7.9101   7.9184   7.9366   7.9620   7.9942   8.0082
     8.0458   8.0560   8.0683   8.0821   8.0855   8.1205   8.1283   8.1398
     8.1593   8.1795   8.2030   8.2110   8.2165   8.2634   8.2662   8.2936
     8.3103   8.3258   8.3384   8.3678   8.3820   8.4000   8.4515   8.4670
     8.4810   8.4913   8.5494   8.5569   8.6023   8.6365   8.6381   8.6521
     8.6979   8.6990   8.7224   8.7421   8.7475   8.7795   8.8155   8.8265
     8.8329   8.8685   8.8729   8.8817   8.8870   8.9002   8.9293   8.9350
     8.9459   8.9565   8.9628   8.9927   8.9944   8.9979   9.0043   9.0384
     9.0405   9.0417   9.0750

     occupation numbers 
     1.0000   1.0000   1.0000   1.0000   1.0000   1.0000   1.0000   1.0000
     1.0000   1.0000   1.0000   1.0000   1.0000   1.0000   1.0000   1.0000
     1.0000   1.0000   1.0000   1.0000   1.0000   1.0000   1.0000   1.0000
     1.0000   1.0000   1.0000   1.0000   1.0000   1.0000   1.0000   1.0000
     1.0000   1.0000   1.0000   1.0000   1.0000   1.0000   1.0000   1.0000
     1.0000   1.0000   1.0000   1.0000   1.0000   1.0000   1.0000   1.0000
     1.0000   1.0000   1.0000   1.0000   1.0000   1.0000   1.0000   1.0000
     1.0000   1.0000   1.0000   1.0000   1.0000   1.0000   1.0000   1.0000
     1.0000   1.0000   1.0000   1.0000   1.0000   1.0000   1.0000   1.0000
     1.0000   1.0000   1.0000   1.0000   1.0000   1.0000   1.0000   1.0000
     1.0000   1.0000   1.0000   1.0000   1.0000   1.0000   1.0000   1.0000
     1.0000   1.0000   1.0000   1.0000   1.0000   1.0000   1.0000   1.0000
     1.0000   1.0000   1.0000   1.0000   1.0000   1.0000   1.0000   1.0000
     1.0000   1.0000   1.0000   1.0000   1.0000   1.0000   1.0000   1.0000
     1.0000   1.0000   1.0000   1.0000   1.0000   1.0000   1.0000   1.0000
     1.0000   1.0000   1.0000   1.0000   1.0000   1.0000   1.0000   1.0000
     1.0000   1.0000   1.0000   1.0000   1.0000   1.0000   1.0000   1.0000
     1.0000   1.0000   1.0000   1.0000   1.0000   1.0000   1.0000   1.0000
     1.0000   1.0000   1.0000   1.0000   1.0000   1.0000   1.0000   1.0000
     1.0000   1.0000   1.0000   1.0000   1.0000   1.0000   1.0000   1.0000
     1.0000   1.0000   1.0000   1.0000   1.0000   1.0000   1.0000   1.0000
     1.0000   1.0000   1.0000   1.0000   1.0000   1.0000   1.0000   1.0000
     1.0000   1.0000   1.0000   1.0000   1.0000   1.0000   1.0000   1.0000
     1.0000   1.0000   1.0000   1.0000   1.0000   1.0000   1.0000   1.0000
     1.0000   1.0000   1.0001   1.0001   1.0001   1.0001   1.0001   1.0002
     1.0002   1.0002   1.0003   1.0003   1.0004   1.0005   1.0005   1.0006
     1.0007   1.0009   1.0010   1.0010   1.0011   1.0015   1.0017   1.0018
     1.0018   1.0019   1.0022   1.0024   1.0026   1.0033   1.0033   1.0043
     1.0053   1.0067   1.0085   1.0092   1.0093   1.0094   1.0111   1.0132
     1.0166   1.0201   1.0209   1.0227   1.0236   1.0239   1.0256   1.0257
     1.0289   1.0291   1.0321   1.0351   1.0353   1.0353   1.0355   1.0345
     1.0344   1.0342   1.0252   1.0243   1.0216   1.0141   1.0118   1.0112
     0.9866   0.9509   0.9243   0.9132   0.9061   0.8913   0.8760   0.8741
     0.8664   0.8455   0.8058   0.7946   0.7936   0.7868   0.7716   0.7593
     0.7541   0.6846   0.6717   0.6263   0.6172   0.5659   0.5657   0.5365
     0.5253   0.5249   0.4486   0.4481   0.4194   0.4183   0.4011   0.2962
     0.2949   0.2717   0.2565   0.2466   0.2252   0.1967   0.1630   0.1492
     0.1145   0.1059   0.0958   0.0849   0.0823   0.0575   0.0525   0.0454
     0.0341   0.0234   0.0124   0.0089   0.0067  -0.0099  -0.0107  -0.0180
    -0.0217  -0.0246  -0.0267  -0.0306  -0.0321  -0.0335  -0.0354  -0.0355
    -0.0353  -0.0351  -0.0329  -0.0325  -0.0296  -0.0271  -0.0269  -0.0259
    -0.0224  -0.0223  -0.0205  -0.0190  -0.0186  -0.0164  -0.0140  -0.0133
    -0.0129  -0.0109  -0.0107  -0.0102  -0.0099  -0.0093  -0.0080  -0.0077
    -0.0073  -0.0069  -0.0066  -0.0056  -0.0055  -0.0054  -0.0052  -0.0042
    -0.0042  -0.0042  -0.0034

          k = 0.0000 0.0000 0.3333 ( 94408 PWs)   bands (ev):

    -4.3979  -3.9541  -3.9215  -3.8404  -3.8102  -3.6680  -3.6576  -3.3377
    -3.2850  -3.1276  -3.0832  -3.0274  -3.0042  -2.9178  -2.8780  -2.7735
    -2.7117  -2.5741  -2.5528  -2.5441  -2.4487  -2.3965  -2.3000  -2.2565
    -2.2359  -2.2099  -2.0814  -2.0028  -1.9909  -1.9103  -1.8551  -1.7797
    -1.7216  -1.7059  -1.6580  -1.5735  -1.5059  -1.4674  -1.4152  -1.3112
    -1.2727  -1.1622  -1.0702  -1.0329  -0.9325  -0.8814  -0.8498  -0.8063
    -0.6946  -0.6382  -0.5615  -0.5168  -0.4838  -0.4252  -0.3861  -0.3700
    -0.3316  -0.2328  -0.1778  -0.1002  -0.0176   0.0322   0.0764   0.1685
     0.2353   0.3229   0.3826   0.4440   0.5469   0.5557   0.5974   0.6625
     0.6888   0.7234   0.7540   0.8571   1.0204   1.0721   1.1079   1.1263
     1.1947   1.2427   1.3068   1.3870   1.4136   1.5043   1.5416   1.5633
     1.6244   1.6451   1.6768   1.8032   1.8299   1.8653   1.9180   1.9789
     2.0844   2.1347   2.2053   2.2418   2.3052   2.3966   2.4173   2.4902
     2.5139   2.5711   2.6630   2.8292   2.8527   2.9068   2.9619   2.9843
     3.0042   3.0624   3.0698   3.1274   3.1451   3.1892   3.2507   3.3393
     3.3595   3.4353   3.4624   3.4781   3.6097   3.6421   3.6897   3.7519
     3.7795   3.8491   3.9266   3.9470   4.0224   4.0663   4.1220   4.1605
     4.1958   4.2525   4.2769   4.2780   4.3275   4.3544   4.3704   4.3714
     4.4209   4.4328   4.4836   4.4914   4.5524   4.5673   4.6470   4.6712
     4.7289   4.7639   4.8078   4.8397   4.8570   4.8618   4.8659   4.9293
     4.9417   4.9963   5.0031   5.0484   5.0707   5.1266   5.1410   5.1599
     5.1798   5.1971   5.2146   5.2594   5.3154   5.3248   5.3482   5.3893
     5.5263   5.5320   5.5401   5.5489   5.5772   5.5908   5.6266   5.6800
     5.6846   5.7023   5.7315   5.7908   5.7927   5.8121   5.8344   5.8366
     5.8615   5.8701   5.8876   5.9102   5.9545   5.9748   5.9770   6.0313
     6.0391   6.0489   6.0763   6.0901   6.1205   6.1261   6.1459   6.1470
     6.1715   6.1745   6.2199   6.2309   6.2651   6.2676   6.3119   6.3190
     6.3294   6.3325   6.3809   6.4034   6.4111   6.4634   6.4780   6.4974
     6.5138   6.5236   6.5342   6.5610   6.5669   6.5912   6.6033   6.6173
[...]
     atom   13 type  1   force =    -0.00000007   -0.00000000   -0.00000001
     atom   14 type  1   force =    -0.00000008    0.00000000    0.00000001
     atom   15 type  1   force =    -0.00000007    0.00000000    0.00000001
     atom   16 type  1   force =    -0.00000008   -0.00000000    0.00000000
     atom   17 type  1   force =    -0.00000006   -0.00000000    0.00000003
     atom   18 type  1   force =    -0.00000006   -0.00000000    0.00000001
     atom   19 type  1   force =    -0.00000005    0.00000000    0.00000002
     atom   20 type  1   force =    -0.00000004   -0.00000000    0.00000001
     atom   21 type  1   force =    -0.00000004    0.00000000    0.00000000
     atom   22 type  1   force =    -0.00000003   -0.00000000   -0.00000000
     atom   23 type  1   force =    -0.00000004   -0.00000000   -0.00000001
     atom   24 type  1   force =    -0.00000003    0.00000000   -0.00000001
     atom   25 type  1   force =    -0.00000004    0.00000000   -0.00000002
     atom   26 type  1   force =    -0.00000003   -0.00000000   -0.00000001
     atom   27 type  1   force =    -0.00000004   -0.00000000    0.00000001
     atom   28 type  1   force =    -0.00000003    0.00000000    0.00000001
     atom   29 type  1   force =    -0.00000007    0.00000000   -0.00000001
     atom   30 type  1   force =    -0.00000007   -0.00000000    0.00000001
     atom   31 type  2   force =    -0.00000013   -0.00000000   -0.00000003
     atom   32 type  1   force =    -0.00000008    0.00000000   -0.00000000
     atom   33 type  2   force =    -0.00000015    0.00000000   -0.00000003
     atom   34 type  3   force =    -0.00000007   -0.00000000   -0.00000001
     atom   35 type  3   force =    -0.00000006    0.00000000   -0.00000000
     atom   36 type  2   force =    -0.00000010    0.00000000   -0.00000003
     atom   37 type  2   force =    -0.00000010    0.00000000    0.00000000
     atom   38 type  3   force =    -0.00000006   -0.00000000   -0.00000000
     atom   39 type  2   force =    -0.00000009   -0.00000000   -0.00000002
     atom   40 type  1   force =    -0.00000007    0.00000000   -0.00000002
     atom   41 type  1   force =    -0.00000006    0.00000000    0.00000002
     atom   42 type  1   force =    -0.00000007    0.00000000   -0.00000000
     atom   43 type  1   force =    -0.00000004    0.00000000    0.00000004
     atom   44 type  1   force =    -0.00000005   -0.00000000    0.00000002
     atom   45 type  1   force =    -0.00000003   -0.00000000    0.00000004
     atom   46 type  1   force =    -0.00000004    0.00000000    0.00000003
     atom   47 type  1   force =    -0.00000003    0.00000000    0.00000001
     atom   48 type  1   force =    -0.00000005   -0.00000000    0.00000002
     atom   49 type  1   force =    -0.00000004    0.00000000   -0.00000001
     atom   50 type  1   force =    -0.00000005   -0.00000000   -0.00000000
     atom   51 type  1   force =    -0.00000005   -0.00000000   -0.00000002
     atom   52 type  1   force =    -0.00000006    0.00000000   -0.00000001
     atom   53 type  1   force =    -0.00000005    0.00000000   -0.00000002
     atom   54 type  1   force =    -0.00000006    0.00000000   -0.00000002
     atom   55 type  1   force =    -0.00000005    0.00000000    0.00000000
     atom   56 type  1   force =    -0.00000006   -0.00000000    0.00000001
     atom   57 type  1   force =    -0.00000001    0.00000000   -0.00000002
     atom   58 type  1   force =    -0.00000004   -0.00000000   -0.00000004
     atom   59 type  3   force =     0.00000001    0.00000000   -0.00000002
     atom   60 type  1   force =    -0.00000004    0.00000000   -0.00000003
     atom   61 type  2   force =    -0.00000001   -0.00000000   -0.00000001
     atom   62 type  3   force =    -0.00000003   -0.00000000   -0.00000001
     atom   63 type  3   force =    -0.00000000    0.00000000    0.00000001
     atom   64 type  2   force =    -0.00000003   -0.00000000   -0.00000000
     atom   65 type  2   force =     0.00000000   -0.00000000    0.00000002
     atom   66 type  3   force =    -0.00000002   -0.00000000    0.00000001
     atom   67 type  2   force =    -0.00000000    0.00000000   -0.00000001
     atom   68 type  3   force =    -0.00000002    0.00000000   -0.00000001
     atom   69 type  3   force =    -0.00000000    0.00000000    0.00000002
     atom   70 type  2   force =    -0.00000004   -0.00000000    0.00000004
     atom   71 type  2   force =    -0.00000003   -0.00000000    0.00000005
     atom   72 type  3   force =    -0.00000001    0.00000000    0.00000003
     atom   73 type  2   force =    -0.00000004    0.00000000    0.00000003
     atom   74 type  1   force =    -0.00000003   -0.00000000    0.00000003
     atom   75 type  1   force =    -0.00000004    0.00000000   -0.00000001
     atom   76 type  1   force =    -0.00000003    0.00000000    0.00000000
     atom   77 type  1   force =    -0.00000004   -0.00000000   -0.00000001
     atom   78 type  1   force =    -0.00000004   -0.00000000   -0.00000001
     atom   79 type  1   force =    -0.00000003   -0.00000000   -0.00000001
     atom   80 type  1   force =    -0.00000004    0.00000000   -0.00000002
     atom   81 type  1   force =    -0.00000002    0.00000000   -0.00000001
     atom   82 type  1   force =    -0.00000004   -0.00000000   -0.00000002
     atom   83 type  1   force =    -0.00000001   -0.00000000   -0.00000000
     atom   84 type  1   force =    -0.00000004    0.00000000   -0.00000000
     atom   85 type  1   force =     0.00000003    0.00000000   -0.00000003
     atom   86 type  2   force =     0.00000004   -0.00000000   -0.00000002
     atom   87 type  3   force =     0.00000002   -0.00000000   -0.00000003
     atom   88 type  2   force =     0.00000003    0.00000000   -0.00000004
     atom   89 type  2   force =     0.00000003   -0.00000000   -0.00000003
     atom   90 type  3   force =     0.00000000   -0.00000000   -0.00000001
     atom   91 type  3   force =     0.00000001    0.00000000    0.00000001
     atom   92 type  2   force =     0.00000001   -0.00000000    0.00000003
     atom   93 type  3   force =     0.00000001    0.00000000   -0.00000000
     atom   94 type  2   force =     0.00000001   -0.00000000   -0.00000000
     atom   95 type  2   force =     0.00000002   -0.00000000   -0.00000000
     atom   96 type  3   force =     0.00000000    0.00000000   -0.00000001
     atom   97 type  3   force =     0.00000003    0.00000000    0.00000000
     atom   98 type  2   force =    -0.00000000   -0.00000000    0.00000001
     atom   99 type  1   force =     0.00000004   -0.00000000    0.00000003
     atom  100 type  3   force =    -0.00000001    0.00000000    0.00000002
     atom  101 type  1   force =     0.00000003    0.00000000    0.00000003
     atom  102 type  1   force =    -0.00000001   -0.00000000    0.00000002
     atom  103 type  1   force =     0.00000002   -0.00000000   -0.00000002
     atom  104 type  1   force =    -0.00000001    0.00000000   -0.00000001
     atom  105 type  1   force =     0.00000003    0.00000000    0.00000001
     atom  106 type  1   force =    -0.00000001    0.00000000   -0.00000001
     atom  107 type  1   force =     0.00000004    0.00000000    0.00000002
     atom  108 type  1   force =     0.00000000   -0.00000000   -0.00000000
     atom  109 type  1   force =     0.00000005   -0.00000000    0.00000001
     atom  110 type  1   force =     0.00000002   -0.00000000    0.00000000
     atom  111 type  1   force =     0.00000004    0.00000000    0.00000000
     atom  112 type  1   force =     0.00000002    0.00000000    0.00000000
     atom  113 type  1   force =     0.00000004   -0.00000000   -0.00000003
     atom  114 type  1   force =     0.00000004    0.00000000   -0.00000003
     atom  115 type  1   force =     0.00000005    0.00000000   -0.00000003
     atom  116 type  1   force =     0.00000004   -0.00000000   -0.00000005
     atom  117 type  1   force =     0.00000007    0.00000000   -0.00000000
     atom  118 type  1   force =     0.00000005   -0.00000000   -0.00000002
     atom  119 type  1   force =     0.00000008   -0.00000000    0.00000003
     atom  120 type  2   force =     0.00000008   -0.00000000    0.00000003
     atom  121 type  3   force =     0.00000006    0.00000000    0.00000002
     atom  122 type  2   force =     0.00000009   -0.00000000    0.00000002
     atom  123 type  2   force =     0.00000011    0.00000000    0.00000004
     atom  124 type  3   force =     0.00000006   -0.00000000    0.00000001
     atom  125 type  3   force =     0.00000008    0.00000000    0.00000002
     atom  126 type  2   force =     0.00000016   -0.00000000    0.00000003
     atom  127 type  1   force =     0.00000009   -0.00000000   -0.00000001
     atom  128 type  2   force =     0.00000013    0.00000000    0.00000002
     atom  129 type  1   force =     0.00000008    0.00000000   -0.00000002
     atom  130 type  1   force =     0.00000007   -0.00000000   -0.00000000
     atom  131 type  1   force =     0.00000008    0.00000000   -0.00000002
     atom  132 type  1   force =     0.00000005   -0.00000000   -0.00000001
     atom  133 type  1   force =     0.00000007   -0.00000000    0.00000002
     atom  134 type  1   force =     0.00000006    0.00000000    0.00000002
     atom  135 type  1   force =     0.00000006   -0.00000000    0.00000001
     atom  136 type  1   force =     0.00000006    0.00000000    0.00000002
     atom  137 type  1   force =     0.00000006    0.00000000   -0.00000000
     atom  138 type  1   force =     0.00000005    0.00000000    0.00000000
     atom  139 type  1   force =     0.00000005    0.00000000   -0.00000001
     atom  140 type  1   force =     0.00000004   -0.00000000   -0.00000000
     atom  141 type  1   force =     0.00000005   -0.00000000   -0.00000001
     atom  142 type  1   force =     0.00000006    0.00000000   -0.00000003
     atom  143 type  1   force =     0.00000007    0.00000000   -0.00000002
     atom  144 type  1   force =     0.00000006   -0.00000000   -0.00000002
     atom  145 type  1   force =     0.00000006   -0.00000000   -0.00000001
     atom  146 type  1   force =     0.00000006    0.00000000    0.00000001
     atom  147 type  1   force =     0.00000004    0.00000000    0.00000002
     atom  148 type  1   force =     0.00000006   -0.00000000    0.00000002
     atom  149 type  1   force =     0.00000003   -0.00000000    0.00000003
     atom  150 type  1   force =     0.00000005    0.00000000    0.00000003
     atom  151 type  1   force =     0.00000003    0.00000000    0.00000003
     atom  152 type  1   force =     0.00000004   -0.00000000    0.00000003
     atom  153 type  1   force =     0.00000002   -0.00000000    0.00000002
     atom  154 type  1   force =     0.00000004   -0.00000000    0.00000002
     atom  155 type  1   force =     0.00000003    0.00000000   -0.00000001
     atom  156 type  1   force =     0.00000005    0.00000000   -0.00000001
     atom  157 type  1   force =     0.00000003    0.00000000   -0.00000002
     atom  158 type  1   force =     0.00000005   -0.00000000   -0.00000003
     atom  159 type  1   force =     0.00000004   -0.00000000   -0.00000001
     atom  160 type  1   force =     0.00000006    0.00000000   -0.00000002
     atom  161 type  1   force =     0.00000004   -0.00000000    0.00000001
     atom  162 type  1   force =     0.00000005    0.00000000    0.00000001
     atom  163 type  1   force =     0.00000004   -0.00000000    0.00000000
     atom  164 type  1   force =     0.00000005    0.00000000    0.00000000
     atom  165 type  1   force =     0.00000003    0.00000000   -0.00000000
     atom  166 type  1   force =     0.00000005   -0.00000000   -0.00000000
     atom  167 type  1   force =     0.00000004    0.00000000   -0.00000001
     atom  168 type  1   force =     0.00000005    0.00000000   -0.00000002
     atom  169 type  1   force =    -0.00000002   -0.00000000    0.00000001
     atom  170 type  1   force =     0.00000002    0.00000000    0.00000001
     atom  171 type  1   force =    -0.00000002   -0.00000000   -0.00000001
     atom  172 type  1   force =     0.00000003    0.00000000   -0.00000001
     atom  173 type  1   force =    -0.00000001    0.00000000   -0.00000002
     atom  174 type  1   force =     0.00000003   -0.00000000   -0.00000002
     atom  175 type  1   force =    -0.00000001    0.00000000   -0.00000000
     atom  176 type  1   force =     0.00000002   -0.00000000    0.00000000
     atom  177 type  1   force =    -0.00000001   -0.00000000    0.00000002
     atom  178 type  1   force =     0.00000001    0.00000000    0.00000002
     atom  179 type  1   force =    -0.00000002    0.00000000    0.00000003
     atom  180 type  1   force =     0.00000002   -0.00000000    0.00000003
     atom  181 type  1   force =    -0.00000003   -0.00000000    0.00000002
     atom  182 type  1   force =     0.00000002    0.00000000    0.00000002
     atom  183 type  1   force =    -0.00000003    0.00000000   -0.00000001
     atom  184 type  1   force =     0.00000002    0.00000000   -0.00000000
     atom  185 type  1   force =    -0.00000002    0.00000000   -0.00000001
     atom  186 type  1   force =     0.00000002   -0.00000000   -0.00000002
     atom  187 type  1   force =    -0.00000001   -0.00000000   -0.00000000
     atom  188 type  1   force =     0.00000002    0.00000000   -0.00000001
     atom  189 type  1   force =    -0.00000001    0.00000000    0.00000000
     atom  190 type  1   force =     0.00000003    0.00000000    0.00000000
     atom  191 type  1   force =    -0.00000002   -0.00000000   -0.00000001
     atom  192 type  1   force =     0.00000002   -0.00000000   -0.00000000
     atom  193 type  1   force =    -0.00000002    0.00000000   -0.00000001
     atom  194 type  1   force =     0.00000001   -0.00000000   -0.00000001
     atom  195 type  1   force =    -0.00000002    0.00000000    0.00000000
     atom  196 type  1   force =     0.00000001   -0.00000000   -0.00000000

     Total force =     0.010438     Total SCF correction =     0.000001


     Computing stress (Cartesian axis) and pressure

          total   stress  (Ry/bohr**3)                   (kbar)     P=    8.40
   0.00009027   0.00000000  -0.00000273         13.28      0.00     -0.40
   0.00000000   0.00002798   0.00000001          0.00      4.12      0.00
  -0.00000273   0.00000001   0.00005299         -0.40      0.00      7.80

     kinetic stress (kbar)   1523.20     -0.00     -0.30
                               -0.00   1518.93     -0.00
                               -0.30     -0.00   1518.60

     local   stress (kbar)    486.16     -0.01    -11.49
                               -0.01    275.13     -0.00
                              -11.49     -0.00    554.76

     nonloc. stress (kbar)   1119.33      0.00      0.19
                                0.00   1109.51      0.00
                                0.19      0.00   1115.12

     hartree stress (kbar)     56.07      0.00      5.69
                                0.00    157.43      0.00
                                5.69      0.00     16.38

     exc-cor stress (kbar)    870.07      0.00      0.01
                                0.00    869.84      0.00
                                0.01      0.00    870.02

     corecor stress (kbar)  -1664.57     -0.00     -0.02
                               -0.00  -1663.14     -0.00
                               -0.02     -0.00  -1663.92

     ewald   stress (kbar)  -2376.97      0.01      5.51
                                0.01  -2263.60      0.00
                                5.51      0.00  -2403.16

     hubbard stress (kbar)      0.00      0.00      0.00
                                0.00      0.00      0.00
                                0.00      0.00      0.00

     london  stress (kbar)      0.00      0.00      0.00
                                0.00      0.00      0.00
                                0.00      0.00      0.00

     DFT-D3  stress (kbar)      0.00      0.00      0.00
                                0.00      0.00      0.00
                                0.00      0.00      0.00

     XDM     stress (kbar)      0.00      0.00      0.00
                                0.00      0.00      0.00
                                0.00      0.00      0.00

     dft-nl  stress (kbar)      0.00      0.00      0.00
                                0.00      0.00      0.00
                                0.00      0.00      0.00

     TS-vdW  stress (kbar)      0.00      0.00      0.00
                                0.00      0.00      0.00
                                0.00      0.00      0.00



     Writing output data file aiida.save/
 
     init_run     :    244.96s CPU    247.64s WALL (       1 calls)
     electrons    :  16078.62s CPU  16206.38s WALL (       1 calls)
     forces       :    110.77s CPU    111.74s WALL (       1 calls)
     stress       :   1221.31s CPU   1223.65s WALL (       1 calls)

     Called by init_run:
     wfcinit      :    224.08s CPU    226.27s WALL (       1 calls)
     wfcinit:atom :      0.52s CPU      0.96s WALL (       3 calls)
     wfcinit:wfcr :    220.02s CPU    221.00s WALL (       3 calls)
     potinit      :      4.70s CPU      4.91s WALL (       1 calls)
     hinit0       :      6.68s CPU      6.78s WALL (       1 calls)

     Called by electrons:
     c_bands      :  13575.97s CPU  13666.57s WALL (      52 calls)
     sum_band     :   2302.89s CPU   2315.30s WALL (      52 calls)
     v_of_rho     :     93.53s CPU    104.63s WALL (      53 calls)
     v_h          :      9.15s CPU     11.11s WALL (      53 calls)
     v_xc         :     87.35s CPU     96.63s WALL (      55 calls)
     newd         :     18.92s CPU     25.08s WALL (      53 calls)
     PAW_pot      :     15.04s CPU     15.82s WALL (      53 calls)
     mix_rho      :     58.01s CPU     63.13s WALL (      52 calls)

     Called by c_bands:
     init_us_2    :    221.30s CPU    221.81s WALL (     321 calls)
     cegterg      :  11684.96s CPU  11772.30s WALL (     156 calls)

     Called by sum_band:
     sum_band:bec :      2.86s CPU      2.86s WALL (     156 calls)
     addusdens    :     13.43s CPU     19.19s WALL (      52 calls)

     Called by *egterg:
     h_psi        :   8180.19s CPU   8218.87s WALL (     545 calls)
     s_psi        :   2127.75s CPU   2130.99s WALL (     545 calls)
     g_psi        :     11.33s CPU     11.34s WALL (     386 calls)
     cdiaghg      :    279.00s CPU    279.43s WALL (     542 calls)
     cegterg:over :    502.04s CPU    502.40s WALL (     386 calls)
     cegterg:upda :    327.01s CPU    338.68s WALL (     386 calls)
     cegterg:last :    217.96s CPU    217.97s WALL (     161 calls)

     Called by h_psi:
     h_psi:pot    :   8166.97s CPU   8186.24s WALL (     545 calls)
     h_psi:calbec :   2104.85s CPU   2105.06s WALL (     545 calls)
     vloc_psi     :   3930.97s CPU   3946.42s WALL (     545 calls)
     add_vuspsi   :   2131.15s CPU   2134.75s WALL (     545 calls)

     General routines
     calbec       :   3149.55s CPU   3150.15s WALL (     716 calls)
     fft          :     97.37s CPU    107.80s WALL (     713 calls)
     ffts         :     26.63s CPU     26.72s WALL (     724 calls)
     fftw         :   4166.65s CPU   4182.92s WALL (  300436 calls)
     interpolate  :      8.97s CPU     10.58s WALL (      53 calls)
 
     Parallel routines
     fft_scatt_xy :   1026.08s CPU   1030.10s WALL (  301873 calls)
     fft_scatt_yz :    891.99s CPU    901.72s WALL (  301873 calls)

     PAW routines
     PAW_pot      :     15.04s CPU     15.82s WALL (      53 calls)
 
     PWSCF        :      4h56m CPU      4h59m WALL

 
   This run was terminated on:   6:44:45  27Feb2020            

=------------------------------------------------------------------------------=
   JOB DONE.
=------------------------------------------------------------------------------=
