
     Program PWSCF v.6.3 starts on 22Feb2020 at 14:12:28 

     This program is part of the open-source Quantum ESPRESSO suite
     for quantum simulation of materials; please cite
         "P. Giannozzi et al., J. Phys.:Condens. Matter 21 395502 (2009);
         "P. Giannozzi et al., J. Phys.:Condens. Matter 29 465901 (2017);
          URL http://www.quantum-espresso.org", 
     in publications or presentations arising from this work. More details at
     http://www.quantum-espresso.org/quote

 *** WARNING: using old-style file format, will disappear from next version ***

     Parallel version (MPI & OpenMP), running on      36 processor cores
     Number of MPI processes:                36
     Threads/MPI process:                     1

     MPI processes distributed on     1 nodes
     K-points division:     npool     =       4
     R & G space division:  proc/nbgrp/npool/nimage =       9
     Reading input from aiida.in
Warning: card &IONS ignored
Warning: card   !PRESS_CONV_THR = 0.05                 ! JUST FOR VOLUME RELAXATIONS ignored
Warning: card / ignored

     Current dimensions of program PWSCF are:
     Max number of different atomic species (ntypx) = 10
     Max number of k-points (npk) =  40000
     Max angular momentum in pseudopotentials (lmaxx) =  3
               file Mg.pbe-n-kjpaw_psl.0.3.0.UPF: wavefunction(s)  3S renormalized

     Subspace diagonalization in iterative solution of the eigenvalue problem:
     one sub-group per band group will be used
     scalapack distributed-memory algorithm (size of sub-group:  2*  2 procs)

 
     Parallelization info
     --------------------
     sticks:   dense  smooth     PW     G-vecs:    dense   smooth      PW
     Min         751     300     87                39999    10126    1579
     Max         751     301     88                40000    10127    1580
     Sum        6759    2705    787               359993    91139   14217
 


     bravais-lattice index     =            0
     lattice parameter (alat)  =      27.6424  a.u.
     unit-cell volume          =    2664.3194 (a.u.)^3
     number of atoms/cell      =           22
     number of atomic types    =            2
     number of electrons       =        68.00
     number of Kohn-Sham states=           41
     kinetic-energy cutoff     =      40.0000  Ry
     charge density cutoff     =     400.0000  Ry
     convergence threshold     =      1.0E-12
     mixing beta               =       0.4000
     number of iterations used =            8  local-TF  mixing
     Exchange-correlation      = PBE ( 1  4  3  4 0 0)

     celldm(1)=  27.642385  celldm(2)=   0.000000  celldm(3)=   0.000000
     celldm(4)=   0.000000  celldm(5)=   0.000000  celldm(6)=   0.000000

     crystal axes: (cart. coord. in units of alat)
               a(1) = (   0.964764   0.000000  -0.263117 )  
               a(2) = (   0.000000   0.277352   0.000000 )  
               a(3) = (   0.000000   0.000000   0.471419 )  

     reciprocal axes: (cart. coord. in units 2 pi/alat)
               b(1) = (  1.036523  0.000000  0.000000 )  
               b(2) = (  0.000000  3.605521  0.000000 )  
               b(3) = (  0.578525  0.000000  2.121257 )  


     PseudoPot. # 1 for Mg read from file:
     /users/aglensk/Dropbox/Albert/scripts/dotfiles/scripts/potentials/quantum_espresso/pseudo_SSSPefV1.1_alalloy/Mg.pbe-n-kjpaw_psl.0.3.0.UPF
     MD5 check sum: 24ecedc7f3e3cbe212e682f4413594e4
     Pseudo is Projector augmented-wave + core cor, Zval =  2.0
     Generated using "atomic" code by A. Dal Corso v.5.0.99 svn rev. 10869
     Shape of augmentation charge: PSQ
     Using radial grid of 1129 points,  4 beta functions with: 
                l(1) =   0
                l(2) =   0
                l(3) =   1
                l(4) =   1
     Q(r) pseudized with 0 coefficients 


     PseudoPot. # 2 for Si read from file:
     /users/aglensk/Dropbox/Albert/scripts/dotfiles/scripts/potentials/quantum_espresso/pseudo_SSSPefV1.1_alalloy/Si.pbe-n-rrkjus_psl.1.0.0.UPF
     MD5 check sum: 0b0bb1205258b0d07b9f9672cf965d36
     Pseudo is Ultrasoft + core correction, Zval =  4.0
     Generated using "atomic" code by A. Dal Corso v.5.1
     Using radial grid of 1141 points,  6 beta functions with: 
                l(1) =   0
                l(2) =   0
                l(3) =   1
                l(4) =   1
                l(5) =   2
                l(6) =   2
     Q(r) pseudized with 0 coefficients 


     atomic species   valence    mass     pseudopotential
        Mg             2.00    24.30500     Mg( 1.00)
        Si             4.00    28.08500     Si( 1.00)

     No symmetry found


                                    s                        frac. trans.

      isym =  1     identity                                     

 cryst.   s( 1) = (     1          0          0      )
                  (     0          1          0      )
                  (     0          0          1      )

 cart.    s( 1) = (  1.0000000  0.0000000  0.0000000 )
                  (  0.0000000  1.0000000  0.0000000 )
                  ( -0.0000000  0.0000000  1.0000000 )


   Cartesian axes

     site n.     atom                  positions (alat units)
         1           Mg  tau(   1) = (   0.0013599   0.0000000   0.3199733  )
         2           Mg  tau(   2) = (   0.0768221   0.1386762   0.0007188  )
         3           Mg  tau(   3) = (   0.1503633   0.1386762   0.2447782  )
         4           Mg  tau(   4) = (   0.3347342   0.0000000   0.2636231  )
         5           Mg  tau(   5) = (   0.4082788   0.0000000   0.0362571  )
         6           Si  tau(   6) = (   0.0546463   0.0000000   0.1470790  )
         7           Si  tau(   7) = (   0.1875149   0.0000000   0.3877554  )
         8           Si  tau(   8) = (   0.2048881   0.0000000   0.0882065  )
         9           Si  tau(   9) = (   0.2802219   0.1386762  -0.0512273  )
        10           Si  tau(  10) = (   0.2975884   0.1386762   0.1206451  )
        11           Si  tau(  11) = (   0.4304644   0.1386762  -0.1100973  )
        12           Mg  tau(  12) = (   0.4837336   0.1386762   0.1884237  )
        13           Mg  tau(  13) = (   0.5592359   0.0000000  -0.1308227  )
        14           Mg  tau(  14) = (   0.6327611   0.0000000   0.1132274  )
        15           Mg  tau(  15) = (   0.8170998   0.1386762   0.1320601  )
        16           Mg  tau(  16) = (   0.8906293   0.1386762  -0.0953173  )
        17           Si  tau(  17) = (   0.5370346   0.1386762   0.0155324  )
        18           Si  tau(  18) = (   0.6698909   0.1386762   0.2561971  )
        19           Si  tau(  19) = (   0.6872802   0.1386762  -0.0433494  )
        20           Si  tau(  20) = (   0.7625949   0.0000000  -0.1827846  )
        21           Si  tau(  21) = (   0.7799768   0.0000000  -0.0109100  )
        22           Si  tau(  22) = (   0.9128395   0.0000000  -0.2416675  )

   Crystallographic axes

     site n.     atom                  positions (cryst. coord.)
         1           Mg  tau(   1) = (  0.0014095  0.0000000  0.6795321  )
         2           Mg  tau(   2) = (  0.0796279  0.5000000  0.0459682  )
         3           Mg  tau(   3) = (  0.1558550  0.5000000  0.6062263  )
         4           Mg  tau(   4) = (  0.3469597  0.0000000  0.7528641  )
         5           Mg  tau(   5) = (  0.4231904  0.0000000  0.3131099  )
         6           Si  tau(   6) = (  0.0566422  0.0000000  0.3436066  )
         7           Si  tau(   7) = (  0.1943635  0.0000000  0.9310106  )
         8           Si  tau(   8) = (  0.2123712  0.0000000  0.3056415  )
         9           Si  tau(   9) = (  0.2904565  0.5000000  0.0534491  )
        10           Si  tau(  10) = (  0.3084573  0.5000000  0.4280814  )
        11           Si  tau(  11) = (  0.4461863  0.5000000  0.0154895  )
        12           Mg  tau(  12) = (  0.5014010  0.5000000  0.6795468  )
        13           Mg  tau(  13) = (  0.5796609  0.0000000  0.0460232  )
        14           Mg  tau(  14) = (  0.6558715  0.0000000  0.6062522  )
        15           Mg  tau(  15) = (  0.8469428  0.5000000  0.7528456  )
        16           Mg  tau(  16) = (  0.9231578  0.5000000  0.3130585  )
        17           Si  tau(  17) = (  0.5566488  0.5000000  0.3436360  )
        18           Si  tau(  18) = (  0.6943574  0.5000000  0.9310082  )
        19           Si  tau(  19) = (  0.7123818  0.5000000  0.3056532  )
        20           Si  tau(  20) = (  0.7904473  0.0000000  0.0534468  )
        21           Si  tau(  21) = (  0.8084640  0.0000000  0.4280928  )
        22           Si  tau(  22) = (  0.9461792  0.0000000  0.0154614  )

     number of k points=   782  Methfessel-Paxton smearing, width (Ry)=  0.0441
                       cart. coord. in units 2pi/alat
        k(    1) = (   0.0000000   0.0000000   0.0000000), wk =   0.0012821
        k(    2) = (   0.0445019   0.0000000   0.1631736), wk =   0.0025641
        k(    3) = (   0.0890038   0.0000000   0.3263472), wk =   0.0025641
        k(    4) = (   0.1335057   0.0000000   0.4895207), wk =   0.0025641
        k(    5) = (   0.1780076   0.0000000   0.6526943), wk =   0.0025641
        k(    6) = (   0.2225094   0.0000000   0.8158679), wk =   0.0025641
        k(    7) = (   0.2670113   0.0000000   0.9790415), wk =   0.0025641
        k(    8) = (   0.0000000   0.1802761   0.0000000), wk =   0.0025641
        k(    9) = (   0.0445019   0.1802761   0.1631736), wk =   0.0025641
        k(   10) = (   0.0890038   0.1802761   0.3263472), wk =   0.0025641
        k(   11) = (   0.1335057   0.1802761   0.4895207), wk =   0.0025641
        k(   12) = (   0.1780076   0.1802761   0.6526943), wk =   0.0025641
        k(   13) = (   0.2225094   0.1802761   0.8158679), wk =   0.0025641
        k(   14) = (   0.2670113   0.1802761   0.9790415), wk =   0.0025641
        k(   15) = (  -0.2670113   0.1802761  -0.9790415), wk =   0.0025641
        k(   16) = (  -0.2225094   0.1802761  -0.8158679), wk =   0.0025641
        k(   17) = (  -0.1780076   0.1802761  -0.6526943), wk =   0.0025641
        k(   18) = (  -0.1335057   0.1802761  -0.4895207), wk =   0.0025641
        k(   19) = (  -0.0890038   0.1802761  -0.3263472), wk =   0.0025641
        k(   20) = (  -0.0445019   0.1802761  -0.1631736), wk =   0.0025641
        k(   21) = (   0.0000000   0.3605521   0.0000000), wk =   0.0025641
        k(   22) = (   0.0445019   0.3605521   0.1631736), wk =   0.0025641
        k(   23) = (   0.0890038   0.3605521   0.3263472), wk =   0.0025641
        k(   24) = (   0.1335057   0.3605521   0.4895207), wk =   0.0025641
        k(   25) = (   0.1780076   0.3605521   0.6526943), wk =   0.0025641
        k(   26) = (   0.2225094   0.3605521   0.8158679), wk =   0.0025641
        k(   27) = (   0.2670113   0.3605521   0.9790415), wk =   0.0025641
        k(   28) = (  -0.2670113   0.3605521  -0.9790415), wk =   0.0025641
        k(   29) = (  -0.2225094   0.3605521  -0.8158679), wk =   0.0025641
        k(   30) = (  -0.1780076   0.3605521  -0.6526943), wk =   0.0025641
        k(   31) = (  -0.1335057   0.3605521  -0.4895207), wk =   0.0025641
        k(   32) = (  -0.0890038   0.3605521  -0.3263472), wk =   0.0025641
        k(   33) = (  -0.0445019   0.3605521  -0.1631736), wk =   0.0025641
        k(   34) = (   0.0000000   0.5408282   0.0000000), wk =   0.0025641
        k(   35) = (   0.0445019   0.5408282   0.1631736), wk =   0.0025641
        k(   36) = (   0.0890038   0.5408282   0.3263472), wk =   0.0025641
        k(   37) = (   0.1335057   0.5408282   0.4895207), wk =   0.0025641
        k(   38) = (   0.1780076   0.5408282   0.6526943), wk =   0.0025641
        k(   39) = (   0.2225094   0.5408282   0.8158679), wk =   0.0025641
        k(   40) = (   0.2670113   0.5408282   0.9790415), wk =   0.0025641
        k(   41) = (  -0.2670113   0.5408282  -0.9790415), wk =   0.0025641
        k(   42) = (  -0.2225094   0.5408282  -0.8158679), wk =   0.0025641
        k(   43) = (  -0.1780076   0.5408282  -0.6526943), wk =   0.0025641
        k(   44) = (  -0.1335057   0.5408282  -0.4895207), wk =   0.0025641
        k(   45) = (  -0.0890038   0.5408282  -0.3263472), wk =   0.0025641
        k(   46) = (  -0.0445019   0.5408282  -0.1631736), wk =   0.0025641
        k(   47) = (   0.0000000   0.7211043   0.0000000), wk =   0.0025641
        k(   48) = (   0.0445019   0.7211043   0.1631736), wk =   0.0025641
        k(   49) = (   0.0890038   0.7211043   0.3263472), wk =   0.0025641
        k(   50) = (   0.1335057   0.7211043   0.4895207), wk =   0.0025641
        k(   51) = (   0.1780076   0.7211043   0.6526943), wk =   0.0025641
        k(   52) = (   0.2225094   0.7211043   0.8158679), wk =   0.0025641
        k(   53) = (   0.2670113   0.7211043   0.9790415), wk =   0.0025641
        k(   54) = (  -0.2670113   0.7211043  -0.9790415), wk =   0.0025641
        k(   55) = (  -0.2225094   0.7211043  -0.8158679), wk =   0.0025641
        k(   56) = (  -0.1780076   0.7211043  -0.6526943), wk =   0.0025641
        k(   57) = (  -0.1335057   0.7211043  -0.4895207), wk =   0.0025641
        k(   58) = (  -0.0890038   0.7211043  -0.3263472), wk =   0.0025641
        k(   59) = (  -0.0445019   0.7211043  -0.1631736), wk =   0.0025641
        k(   60) = (   0.0000000   0.9013803   0.0000000), wk =   0.0025641
        k(   61) = (   0.0445019   0.9013803   0.1631736), wk =   0.0025641
        k(   62) = (   0.0890038   0.9013803   0.3263472), wk =   0.0025641
        k(   63) = (   0.1335057   0.9013803   0.4895207), wk =   0.0025641
        k(   64) = (   0.1780076   0.9013803   0.6526943), wk =   0.0025641
        k(   65) = (   0.2225094   0.9013803   0.8158679), wk =   0.0025641
        k(   66) = (   0.2670113   0.9013803   0.9790415), wk =   0.0025641
        k(   67) = (  -0.2670113   0.9013803  -0.9790415), wk =   0.0025641
        k(   68) = (  -0.2225094   0.9013803  -0.8158679), wk =   0.0025641
        k(   69) = (  -0.1780076   0.9013803  -0.6526943), wk =   0.0025641
        k(   70) = (  -0.1335057   0.9013803  -0.4895207), wk =   0.0025641
        k(   71) = (  -0.0890038   0.9013803  -0.3263472), wk =   0.0025641
        k(   72) = (  -0.0445019   0.9013803  -0.1631736), wk =   0.0025641
        k(   73) = (   0.0000000   1.0816564   0.0000000), wk =   0.0025641
        k(   74) = (   0.0445019   1.0816564   0.1631736), wk =   0.0025641
        k(   75) = (   0.0890038   1.0816564   0.3263472), wk =   0.0025641
        k(   76) = (   0.1335057   1.0816564   0.4895207), wk =   0.0025641
        k(   77) = (   0.1780076   1.0816564   0.6526943), wk =   0.0025641
        k(   78) = (   0.2225094   1.0816564   0.8158679), wk =   0.0025641
        k(   79) = (   0.2670113   1.0816564   0.9790415), wk =   0.0025641
        k(   80) = (  -0.2670113   1.0816564  -0.9790415), wk =   0.0025641
        k(   81) = (  -0.2225094   1.0816564  -0.8158679), wk =   0.0025641
        k(   82) = (  -0.1780076   1.0816564  -0.6526943), wk =   0.0025641
        k(   83) = (  -0.1335057   1.0816564  -0.4895207), wk =   0.0025641
        k(   84) = (  -0.0890038   1.0816564  -0.3263472), wk =   0.0025641
        k(   85) = (  -0.0445019   1.0816564  -0.1631736), wk =   0.0025641
        k(   86) = (   0.0000000   1.2619324   0.0000000), wk =   0.0025641
        k(   87) = (   0.0445019   1.2619324   0.1631736), wk =   0.0025641
        k(   88) = (   0.0890038   1.2619324   0.3263472), wk =   0.0025641
        k(   89) = (   0.1335057   1.2619324   0.4895207), wk =   0.0025641
        k(   90) = (   0.1780076   1.2619324   0.6526943), wk =   0.0025641
        k(   91) = (   0.2225094   1.2619324   0.8158679), wk =   0.0025641
        k(   92) = (   0.2670113   1.2619324   0.9790415), wk =   0.0025641
        k(   93) = (  -0.2670113   1.2619324  -0.9790415), wk =   0.0025641
        k(   94) = (  -0.2225094   1.2619324  -0.8158679), wk =   0.0025641
        k(   95) = (  -0.1780076   1.2619324  -0.6526943), wk =   0.0025641
        k(   96) = (  -0.1335057   1.2619324  -0.4895207), wk =   0.0025641
        k(   97) = (  -0.0890038   1.2619324  -0.3263472), wk =   0.0025641
        k(   98) = (  -0.0445019   1.2619324  -0.1631736), wk =   0.0025641
        k(   99) = (   0.0000000   1.4422085   0.0000000), wk =   0.0025641
        k(  100) = (   0.0445019   1.4422085   0.1631736), wk =   0.0025641
        k(  101) = (   0.0890038   1.4422085   0.3263472), wk =   0.0025641
        k(  102) = (   0.1335057   1.4422085   0.4895207), wk =   0.0025641
        k(  103) = (   0.1780076   1.4422085   0.6526943), wk =   0.0025641
        k(  104) = (   0.2225094   1.4422085   0.8158679), wk =   0.0025641
        k(  105) = (   0.2670113   1.4422085   0.9790415), wk =   0.0025641
        k(  106) = (  -0.2670113   1.4422085  -0.9790415), wk =   0.0025641
        k(  107) = (  -0.2225094   1.4422085  -0.8158679), wk =   0.0025641
        k(  108) = (  -0.1780076   1.4422085  -0.6526943), wk =   0.0025641
        k(  109) = (  -0.1335057   1.4422085  -0.4895207), wk =   0.0025641
        k(  110) = (  -0.0890038   1.4422085  -0.3263472), wk =   0.0025641
        k(  111) = (  -0.0445019   1.4422085  -0.1631736), wk =   0.0025641
        k(  112) = (   0.0000000   1.6224846   0.0000000), wk =   0.0025641
        k(  113) = (   0.0445019   1.6224846   0.1631736), wk =   0.0025641
        k(  114) = (   0.0890038   1.6224846   0.3263472), wk =   0.0025641
        k(  115) = (   0.1335057   1.6224846   0.4895207), wk =   0.0025641
        k(  116) = (   0.1780076   1.6224846   0.6526943), wk =   0.0025641
        k(  117) = (   0.2225094   1.6224846   0.8158679), wk =   0.0025641
        k(  118) = (   0.2670113   1.6224846   0.9790415), wk =   0.0025641
        k(  119) = (  -0.2670113   1.6224846  -0.9790415), wk =   0.0025641
        k(  120) = (  -0.2225094   1.6224846  -0.8158679), wk =   0.0025641
        k(  121) = (  -0.1780076   1.6224846  -0.6526943), wk =   0.0025641
        k(  122) = (  -0.1335057   1.6224846  -0.4895207), wk =   0.0025641
        k(  123) = (  -0.0890038   1.6224846  -0.3263472), wk =   0.0025641
        k(  124) = (  -0.0445019   1.6224846  -0.1631736), wk =   0.0025641
        k(  125) = (   0.0000000  -1.8027606   0.0000000), wk =   0.0012821
        k(  126) = (   0.0445019  -1.8027606   0.1631736), wk =   0.0025641
        k(  127) = (   0.0890038  -1.8027606   0.3263472), wk =   0.0025641
        k(  128) = (   0.1335057  -1.8027606   0.4895207), wk =   0.0025641
        k(  129) = (   0.1780076  -1.8027606   0.6526943), wk =   0.0025641
        k(  130) = (   0.2225094  -1.8027606   0.8158679), wk =   0.0025641
        k(  131) = (   0.2670113  -1.8027606   0.9790415), wk =   0.0025641
        k(  132) = (   0.1727539   0.0000000   0.0000000), wk =   0.0025641
        k(  133) = (   0.2172557   0.0000000   0.1631736), wk =   0.0025641
        k(  134) = (   0.2617576   0.0000000   0.3263472), wk =   0.0025641
        k(  135) = (   0.3062595   0.0000000   0.4895207), wk =   0.0025641
        k(  136) = (   0.3507614   0.0000000   0.6526943), wk =   0.0025641
        k(  137) = (   0.3952633   0.0000000   0.8158679), wk =   0.0025641
        k(  138) = (   0.4397652   0.0000000   0.9790415), wk =   0.0025641
        k(  139) = (  -0.0942575   0.0000000  -0.9790415), wk =   0.0025641
        k(  140) = (  -0.0497556   0.0000000  -0.8158679), wk =   0.0025641
        k(  141) = (  -0.0052537   0.0000000  -0.6526943), wk =   0.0025641
        k(  142) = (   0.0392482   0.0000000  -0.4895207), wk =   0.0025641
        k(  143) = (   0.0837501   0.0000000  -0.3263472), wk =   0.0025641
        k(  144) = (   0.1282520   0.0000000  -0.1631736), wk =   0.0025641
        k(  145) = (   0.1727539   0.1802761   0.0000000), wk =   0.0025641
        k(  146) = (   0.2172557   0.1802761   0.1631736), wk =   0.0025641
        k(  147) = (   0.2617576   0.1802761   0.3263472), wk =   0.0025641
        k(  148) = (   0.3062595   0.1802761   0.4895207), wk =   0.0025641
        k(  149) = (   0.3507614   0.1802761   0.6526943), wk =   0.0025641
        k(  150) = (   0.3952633   0.1802761   0.8158679), wk =   0.0025641
        k(  151) = (   0.4397652   0.1802761   0.9790415), wk =   0.0025641
        k(  152) = (  -0.0942575   0.1802761  -0.9790415), wk =   0.0025641
        k(  153) = (  -0.0497556   0.1802761  -0.8158679), wk =   0.0025641
        k(  154) = (  -0.0052537   0.1802761  -0.6526943), wk =   0.0025641
        k(  155) = (   0.0392482   0.1802761  -0.4895207), wk =   0.0025641
        k(  156) = (   0.0837501   0.1802761  -0.3263472), wk =   0.0025641
        k(  157) = (   0.1282520   0.1802761  -0.1631736), wk =   0.0025641
        k(  158) = (   0.1727539   0.3605521   0.0000000), wk =   0.0025641
        k(  159) = (   0.2172557   0.3605521   0.1631736), wk =   0.0025641
        k(  160) = (   0.2617576   0.3605521   0.3263472), wk =   0.0025641
        k(  161) = (   0.3062595   0.3605521   0.4895207), wk =   0.0025641
        k(  162) = (   0.3507614   0.3605521   0.6526943), wk =   0.0025641
        k(  163) = (   0.3952633   0.3605521   0.8158679), wk =   0.0025641
        k(  164) = (   0.4397652   0.3605521   0.9790415), wk =   0.0025641
        k(  165) = (  -0.0942575   0.3605521  -0.9790415), wk =   0.0025641
        k(  166) = (  -0.0497556   0.3605521  -0.8158679), wk =   0.0025641
        k(  167) = (  -0.0052537   0.3605521  -0.6526943), wk =   0.0025641
        k(  168) = (   0.0392482   0.3605521  -0.4895207), wk =   0.0025641
        k(  169) = (   0.0837501   0.3605521  -0.3263472), wk =   0.0025641
        k(  170) = (   0.1282520   0.3605521  -0.1631736), wk =   0.0025641
        k(  171) = (   0.1727539   0.5408282   0.0000000), wk =   0.0025641
        k(  172) = (   0.2172557   0.5408282   0.1631736), wk =   0.0025641
        k(  173) = (   0.2617576   0.5408282   0.3263472), wk =   0.0025641
        k(  174) = (   0.3062595   0.5408282   0.4895207), wk =   0.0025641
        k(  175) = (   0.3507614   0.5408282   0.6526943), wk =   0.0025641
        k(  176) = (   0.3952633   0.5408282   0.8158679), wk =   0.0025641
        k(  177) = (   0.4397652   0.5408282   0.9790415), wk =   0.0025641
        k(  178) = (  -0.0942575   0.5408282  -0.9790415), wk =   0.0025641
        k(  179) = (  -0.0497556   0.5408282  -0.8158679), wk =   0.0025641
        k(  180) = (  -0.0052537   0.5408282  -0.6526943), wk =   0.0025641
        k(  181) = (   0.0392482   0.5408282  -0.4895207), wk =   0.0025641
        k(  182) = (   0.0837501   0.5408282  -0.3263472), wk =   0.0025641
        k(  183) = (   0.1282520   0.5408282  -0.1631736), wk =   0.0025641
        k(  184) = (   0.1727539   0.7211043   0.0000000), wk =   0.0025641
        k(  185) = (   0.2172557   0.7211043   0.1631736), wk =   0.0025641
        k(  186) = (   0.2617576   0.7211043   0.3263472), wk =   0.0025641
        k(  187) = (   0.3062595   0.7211043   0.4895207), wk =   0.0025641
        k(  188) = (   0.3507614   0.7211043   0.6526943), wk =   0.0025641
        k(  189) = (   0.3952633   0.7211043   0.8158679), wk =   0.0025641
        k(  190) = (   0.4397652   0.7211043   0.9790415), wk =   0.0025641
        k(  191) = (  -0.0942575   0.7211043  -0.9790415), wk =   0.0025641
        k(  192) = (  -0.0497556   0.7211043  -0.8158679), wk =   0.0025641
        k(  193) = (  -0.0052537   0.7211043  -0.6526943), wk =   0.0025641
        k(  194) = (   0.0392482   0.7211043  -0.4895207), wk =   0.0025641
        k(  195) = (   0.0837501   0.7211043  -0.3263472), wk =   0.0025641
        k(  196) = (   0.1282520   0.7211043  -0.1631736), wk =   0.0025641
        k(  197) = (   0.1727539   0.9013803   0.0000000), wk =   0.0025641
        k(  198) = (   0.2172557   0.9013803   0.1631736), wk =   0.0025641
        k(  199) = (   0.2617576   0.9013803   0.3263472), wk =   0.0025641
        k(  200) = (   0.3062595   0.9013803   0.4895207), wk =   0.0025641
        k(  201) = (   0.3507614   0.9013803   0.6526943), wk =   0.0025641
        k(  202) = (   0.3952633   0.9013803   0.8158679), wk =   0.0025641
        k(  203) = (   0.4397652   0.9013803   0.9790415), wk =   0.0025641
        k(  204) = (  -0.0942575   0.9013803  -0.9790415), wk =   0.0025641
        k(  205) = (  -0.0497556   0.9013803  -0.8158679), wk =   0.0025641
        k(  206) = (  -0.0052537   0.9013803  -0.6526943), wk =   0.0025641
        k(  207) = (   0.0392482   0.9013803  -0.4895207), wk =   0.0025641
        k(  208) = (   0.0837501   0.9013803  -0.3263472), wk =   0.0025641
        k(  209) = (   0.1282520   0.9013803  -0.1631736), wk =   0.0025641
        k(  210) = (   0.1727539   1.0816564   0.0000000), wk =   0.0025641
        k(  211) = (   0.2172557   1.0816564   0.1631736), wk =   0.0025641
        k(  212) = (   0.2617576   1.0816564   0.3263472), wk =   0.0025641
        k(  213) = (   0.3062595   1.0816564   0.4895207), wk =   0.0025641
        k(  214) = (   0.3507614   1.0816564   0.6526943), wk =   0.0025641
        k(  215) = (   0.3952633   1.0816564   0.8158679), wk =   0.0025641
        k(  216) = (   0.4397652   1.0816564   0.9790415), wk =   0.0025641
        k(  217) = (  -0.0942575   1.0816564  -0.9790415), wk =   0.0025641
        k(  218) = (  -0.0497556   1.0816564  -0.8158679), wk =   0.0025641
        k(  219) = (  -0.0052537   1.0816564  -0.6526943), wk =   0.0025641
        k(  220) = (   0.0392482   1.0816564  -0.4895207), wk =   0.0025641
        k(  221) = (   0.0837501   1.0816564  -0.3263472), wk =   0.0025641
        k(  222) = (   0.1282520   1.0816564  -0.1631736), wk =   0.0025641
        k(  223) = (   0.1727539   1.2619324   0.0000000), wk =   0.0025641
        k(  224) = (   0.2172557   1.2619324   0.1631736), wk =   0.0025641
        k(  225) = (   0.2617576   1.2619324   0.3263472), wk =   0.0025641
        k(  226) = (   0.3062595   1.2619324   0.4895207), wk =   0.0025641
        k(  227) = (   0.3507614   1.2619324   0.6526943), wk =   0.0025641
        k(  228) = (   0.3952633   1.2619324   0.8158679), wk =   0.0025641
        k(  229) = (   0.4397652   1.2619324   0.9790415), wk =   0.0025641
        k(  230) = (  -0.0942575   1.2619324  -0.9790415), wk =   0.0025641
        k(  231) = (  -0.0497556   1.2619324  -0.8158679), wk =   0.0025641
        k(  232) = (  -0.0052537   1.2619324  -0.6526943), wk =   0.0025641
        k(  233) = (   0.0392482   1.2619324  -0.4895207), wk =   0.0025641
        k(  234) = (   0.0837501   1.2619324  -0.3263472), wk =   0.0025641
        k(  235) = (   0.1282520   1.2619324  -0.1631736), wk =   0.0025641
        k(  236) = (   0.1727539   1.4422085   0.0000000), wk =   0.0025641
        k(  237) = (   0.2172557   1.4422085   0.1631736), wk =   0.0025641
        k(  238) = (   0.2617576   1.4422085   0.3263472), wk =   0.0025641
        k(  239) = (   0.3062595   1.4422085   0.4895207), wk =   0.0025641
        k(  240) = (   0.3507614   1.4422085   0.6526943), wk =   0.0025641
        k(  241) = (   0.3952633   1.4422085   0.8158679), wk =   0.0025641
        k(  242) = (   0.4397652   1.4422085   0.9790415), wk =   0.0025641
        k(  243) = (  -0.0942575   1.4422085  -0.9790415), wk =   0.0025641
        k(  244) = (  -0.0497556   1.4422085  -0.8158679), wk =   0.0025641
        k(  245) = (  -0.0052537   1.4422085  -0.6526943), wk =   0.0025641
        k(  246) = (   0.0392482   1.4422085  -0.4895207), wk =   0.0025641
        k(  247) = (   0.0837501   1.4422085  -0.3263472), wk =   0.0025641
        k(  248) = (   0.1282520   1.4422085  -0.1631736), wk =   0.0025641
        k(  249) = (   0.1727539   1.6224846   0.0000000), wk =   0.0025641
        k(  250) = (   0.2172557   1.6224846   0.1631736), wk =   0.0025641
        k(  251) = (   0.2617576   1.6224846   0.3263472), wk =   0.0025641
        k(  252) = (   0.3062595   1.6224846   0.4895207), wk =   0.0025641
        k(  253) = (   0.3507614   1.6224846   0.6526943), wk =   0.0025641
        k(  254) = (   0.3952633   1.6224846   0.8158679), wk =   0.0025641
        k(  255) = (   0.4397652   1.6224846   0.9790415), wk =   0.0025641
        k(  256) = (  -0.0942575   1.6224846  -0.9790415), wk =   0.0025641
        k(  257) = (  -0.0497556   1.6224846  -0.8158679), wk =   0.0025641
        k(  258) = (  -0.0052537   1.6224846  -0.6526943), wk =   0.0025641
        k(  259) = (   0.0392482   1.6224846  -0.4895207), wk =   0.0025641
        k(  260) = (   0.0837501   1.6224846  -0.3263472), wk =   0.0025641
        k(  261) = (   0.1282520   1.6224846  -0.1631736), wk =   0.0025641
        k(  262) = (   0.1727539  -1.8027606   0.0000000), wk =   0.0025641
        k(  263) = (   0.2172557  -1.8027606   0.1631736), wk =   0.0025641
        k(  264) = (   0.2617576  -1.8027606   0.3263472), wk =   0.0025641
        k(  265) = (   0.3062595  -1.8027606   0.4895207), wk =   0.0025641
        k(  266) = (   0.3507614  -1.8027606   0.6526943), wk =   0.0025641
        k(  267) = (   0.3952633  -1.8027606   0.8158679), wk =   0.0025641
        k(  268) = (   0.4397652  -1.8027606   0.9790415), wk =   0.0025641
        k(  269) = (  -0.0942575  -1.8027606  -0.9790415), wk =   0.0025641
        k(  270) = (  -0.0497556  -1.8027606  -0.8158679), wk =   0.0025641
        k(  271) = (  -0.0052537  -1.8027606  -0.6526943), wk =   0.0025641
        k(  272) = (   0.0392482  -1.8027606  -0.4895207), wk =   0.0025641
        k(  273) = (   0.0837501  -1.8027606  -0.3263472), wk =   0.0025641
        k(  274) = (   0.1282520  -1.8027606  -0.1631736), wk =   0.0025641
        k(  275) = (   0.1727539  -1.6224846   0.0000000), wk =   0.0025641
        k(  276) = (   0.2172557  -1.6224846   0.1631736), wk =   0.0025641
        k(  277) = (   0.2617576  -1.6224846   0.3263472), wk =   0.0025641
        k(  278) = (   0.3062595  -1.6224846   0.4895207), wk =   0.0025641
        k(  279) = (   0.3507614  -1.6224846   0.6526943), wk =   0.0025641
        k(  280) = (   0.3952633  -1.6224846   0.8158679), wk =   0.0025641
        k(  281) = (   0.4397652  -1.6224846   0.9790415), wk =   0.0025641
        k(  282) = (  -0.0942575  -1.6224846  -0.9790415), wk =   0.0025641
        k(  283) = (  -0.0497556  -1.6224846  -0.8158679), wk =   0.0025641
        k(  284) = (  -0.0052537  -1.6224846  -0.6526943), wk =   0.0025641
        k(  285) = (   0.0392482  -1.6224846  -0.4895207), wk =   0.0025641
        k(  286) = (   0.0837501  -1.6224846  -0.3263472), wk =   0.0025641
        k(  287) = (   0.1282520  -1.6224846  -0.1631736), wk =   0.0025641
        k(  288) = (   0.1727539  -1.4422085   0.0000000), wk =   0.0025641
        k(  289) = (   0.2172557  -1.4422085   0.1631736), wk =   0.0025641
        k(  290) = (   0.2617576  -1.4422085   0.3263472), wk =   0.0025641
        k(  291) = (   0.3062595  -1.4422085   0.4895207), wk =   0.0025641
        k(  292) = (   0.3507614  -1.4422085   0.6526943), wk =   0.0025641
        k(  293) = (   0.3952633  -1.4422085   0.8158679), wk =   0.0025641
        k(  294) = (   0.4397652  -1.4422085   0.9790415), wk =   0.0025641
        k(  295) = (  -0.0942575  -1.4422085  -0.9790415), wk =   0.0025641
        k(  296) = (  -0.0497556  -1.4422085  -0.8158679), wk =   0.0025641
        k(  297) = (  -0.0052537  -1.4422085  -0.6526943), wk =   0.0025641
        k(  298) = (   0.0392482  -1.4422085  -0.4895207), wk =   0.0025641
        k(  299) = (   0.0837501  -1.4422085  -0.3263472), wk =   0.0025641
        k(  300) = (   0.1282520  -1.4422085  -0.1631736), wk =   0.0025641
        k(  301) = (   0.1727539  -1.2619324   0.0000000), wk =   0.0025641
        k(  302) = (   0.2172557  -1.2619324   0.1631736), wk =   0.0025641
        k(  303) = (   0.2617576  -1.2619324   0.3263472), wk =   0.0025641
        k(  304) = (   0.3062595  -1.2619324   0.4895207), wk =   0.0025641
        k(  305) = (   0.3507614  -1.2619324   0.6526943), wk =   0.0025641
        k(  306) = (   0.3952633  -1.2619324   0.8158679), wk =   0.0025641
        k(  307) = (   0.4397652  -1.2619324   0.9790415), wk =   0.0025641
        k(  308) = (  -0.0942575  -1.2619324  -0.9790415), wk =   0.0025641
        k(  309) = (  -0.0497556  -1.2619324  -0.8158679), wk =   0.0025641
        k(  310) = (  -0.0052537  -1.2619324  -0.6526943), wk =   0.0025641
        k(  311) = (   0.0392482  -1.2619324  -0.4895207), wk =   0.0025641
        k(  312) = (   0.0837501  -1.2619324  -0.3263472), wk =   0.0025641
        k(  313) = (   0.1282520  -1.2619324  -0.1631736), wk =   0.0025641
        k(  314) = (   0.1727539  -1.0816564   0.0000000), wk =   0.0025641
        k(  315) = (   0.2172557  -1.0816564   0.1631736), wk =   0.0025641
        k(  316) = (   0.2617576  -1.0816564   0.3263472), wk =   0.0025641
        k(  317) = (   0.3062595  -1.0816564   0.4895207), wk =   0.0025641
        k(  318) = (   0.3507614  -1.0816564   0.6526943), wk =   0.0025641
        k(  319) = (   0.3952633  -1.0816564   0.8158679), wk =   0.0025641
        k(  320) = (   0.4397652  -1.0816564   0.9790415), wk =   0.0025641
        k(  321) = (  -0.0942575  -1.0816564  -0.9790415), wk =   0.0025641
        k(  322) = (  -0.0497556  -1.0816564  -0.8158679), wk =   0.0025641
        k(  323) = (  -0.0052537  -1.0816564  -0.6526943), wk =   0.0025641
        k(  324) = (   0.0392482  -1.0816564  -0.4895207), wk =   0.0025641
        k(  325) = (   0.0837501  -1.0816564  -0.3263472), wk =   0.0025641
        k(  326) = (   0.1282520  -1.0816564  -0.1631736), wk =   0.0025641
        k(  327) = (   0.1727539  -0.9013803   0.0000000), wk =   0.0025641
        k(  328) = (   0.2172557  -0.9013803   0.1631736), wk =   0.0025641
        k(  329) = (   0.2617576  -0.9013803   0.3263472), wk =   0.0025641
        k(  330) = (   0.3062595  -0.9013803   0.4895207), wk =   0.0025641
        k(  331) = (   0.3507614  -0.9013803   0.6526943), wk =   0.0025641
        k(  332) = (   0.3952633  -0.9013803   0.8158679), wk =   0.0025641
        k(  333) = (   0.4397652  -0.9013803   0.9790415), wk =   0.0025641
        k(  334) = (  -0.0942575  -0.9013803  -0.9790415), wk =   0.0025641
        k(  335) = (  -0.0497556  -0.9013803  -0.8158679), wk =   0.0025641
        k(  336) = (  -0.0052537  -0.9013803  -0.6526943), wk =   0.0025641
        k(  337) = (   0.0392482  -0.9013803  -0.4895207), wk =   0.0025641
        k(  338) = (   0.0837501  -0.9013803  -0.3263472), wk =   0.0025641
        k(  339) = (   0.1282520  -0.9013803  -0.1631736), wk =   0.0025641
        k(  340) = (   0.1727539  -0.7211043   0.0000000), wk =   0.0025641
        k(  341) = (   0.2172557  -0.7211043   0.1631736), wk =   0.0025641
        k(  342) = (   0.2617576  -0.7211043   0.3263472), wk =   0.0025641
        k(  343) = (   0.3062595  -0.7211043   0.4895207), wk =   0.0025641
        k(  344) = (   0.3507614  -0.7211043   0.6526943), wk =   0.0025641
        k(  345) = (   0.3952633  -0.7211043   0.8158679), wk =   0.0025641
        k(  346) = (   0.4397652  -0.7211043   0.9790415), wk =   0.0025641
        k(  347) = (  -0.0942575  -0.7211043  -0.9790415), wk =   0.0025641
        k(  348) = (  -0.0497556  -0.7211043  -0.8158679), wk =   0.0025641
        k(  349) = (  -0.0052537  -0.7211043  -0.6526943), wk =   0.0025641
        k(  350) = (   0.0392482  -0.7211043  -0.4895207), wk =   0.0025641
        k(  351) = (   0.0837501  -0.7211043  -0.3263472), wk =   0.0025641
        k(  352) = (   0.1282520  -0.7211043  -0.1631736), wk =   0.0025641
        k(  353) = (   0.1727539  -0.5408282   0.0000000), wk =   0.0025641
        k(  354) = (   0.2172557  -0.5408282   0.1631736), wk =   0.0025641
        k(  355) = (   0.2617576  -0.5408282   0.3263472), wk =   0.0025641
        k(  356) = (   0.3062595  -0.5408282   0.4895207), wk =   0.0025641
        k(  357) = (   0.3507614  -0.5408282   0.6526943), wk =   0.0025641
        k(  358) = (   0.3952633  -0.5408282   0.8158679), wk =   0.0025641
        k(  359) = (   0.4397652  -0.5408282   0.9790415), wk =   0.0025641
        k(  360) = (  -0.0942575  -0.5408282  -0.9790415), wk =   0.0025641
        k(  361) = (  -0.0497556  -0.5408282  -0.8158679), wk =   0.0025641
        k(  362) = (  -0.0052537  -0.5408282  -0.6526943), wk =   0.0025641
        k(  363) = (   0.0392482  -0.5408282  -0.4895207), wk =   0.0025641
        k(  364) = (   0.0837501  -0.5408282  -0.3263472), wk =   0.0025641
        k(  365) = (   0.1282520  -0.5408282  -0.1631736), wk =   0.0025641
        k(  366) = (   0.1727539  -0.3605521   0.0000000), wk =   0.0025641
        k(  367) = (   0.2172557  -0.3605521   0.1631736), wk =   0.0025641
        k(  368) = (   0.2617576  -0.3605521   0.3263472), wk =   0.0025641
        k(  369) = (   0.3062595  -0.3605521   0.4895207), wk =   0.0025641
        k(  370) = (   0.3507614  -0.3605521   0.6526943), wk =   0.0025641
        k(  371) = (   0.3952633  -0.3605521   0.8158679), wk =   0.0025641
        k(  372) = (   0.4397652  -0.3605521   0.9790415), wk =   0.0025641
        k(  373) = (  -0.0942575  -0.3605521  -0.9790415), wk =   0.0025641
        k(  374) = (  -0.0497556  -0.3605521  -0.8158679), wk =   0.0025641
        k(  375) = (  -0.0052537  -0.3605521  -0.6526943), wk =   0.0025641
        k(  376) = (   0.0392482  -0.3605521  -0.4895207), wk =   0.0025641
        k(  377) = (   0.0837501  -0.3605521  -0.3263472), wk =   0.0025641
        k(  378) = (   0.1282520  -0.3605521  -0.1631736), wk =   0.0025641
        k(  379) = (   0.1727539  -0.1802761   0.0000000), wk =   0.0025641
        k(  380) = (   0.2172557  -0.1802761   0.1631736), wk =   0.0025641
        k(  381) = (   0.2617576  -0.1802761   0.3263472), wk =   0.0025641
        k(  382) = (   0.3062595  -0.1802761   0.4895207), wk =   0.0025641
        k(  383) = (   0.3507614  -0.1802761   0.6526943), wk =   0.0025641
        k(  384) = (   0.3952633  -0.1802761   0.8158679), wk =   0.0025641
        k(  385) = (   0.4397652  -0.1802761   0.9790415), wk =   0.0025641
        k(  386) = (  -0.0942575  -0.1802761  -0.9790415), wk =   0.0025641
        k(  387) = (  -0.0497556  -0.1802761  -0.8158679), wk =   0.0025641
        k(  388) = (  -0.0052537  -0.1802761  -0.6526943), wk =   0.0025641
        k(  389) = (   0.0392482  -0.1802761  -0.4895207), wk =   0.0025641
        k(  390) = (   0.0837501  -0.1802761  -0.3263472), wk =   0.0025641
        k(  391) = (   0.1282520  -0.1802761  -0.1631736), wk =   0.0025641
        k(  392) = (   0.3455077   0.0000000   0.0000000), wk =   0.0025641
        k(  393) = (   0.3900096   0.0000000   0.1631736), wk =   0.0025641
        k(  394) = (   0.4345115   0.0000000   0.3263472), wk =   0.0025641
        k(  395) = (   0.4790134   0.0000000   0.4895207), wk =   0.0025641
        k(  396) = (   0.5235153   0.0000000   0.6526943), wk =   0.0025641
        k(  397) = (   0.5680171   0.0000000   0.8158679), wk =   0.0025641
        k(  398) = (   0.6125190   0.0000000   0.9790415), wk =   0.0025641
        k(  399) = (   0.0784964   0.0000000  -0.9790415), wk =   0.0025641
        k(  400) = (   0.1229983   0.0000000  -0.8158679), wk =   0.0025641
        k(  401) = (   0.1675002   0.0000000  -0.6526943), wk =   0.0025641
        k(  402) = (   0.2120020   0.0000000  -0.4895207), wk =   0.0025641
        k(  403) = (   0.2565039   0.0000000  -0.3263472), wk =   0.0025641
        k(  404) = (   0.3010058   0.0000000  -0.1631736), wk =   0.0025641
        k(  405) = (   0.3455077   0.1802761   0.0000000), wk =   0.0025641
        k(  406) = (   0.3900096   0.1802761   0.1631736), wk =   0.0025641
        k(  407) = (   0.4345115   0.1802761   0.3263472), wk =   0.0025641
        k(  408) = (   0.4790134   0.1802761   0.4895207), wk =   0.0025641
        k(  409) = (   0.5235153   0.1802761   0.6526943), wk =   0.0025641
        k(  410) = (   0.5680171   0.1802761   0.8158679), wk =   0.0025641
        k(  411) = (   0.6125190   0.1802761   0.9790415), wk =   0.0025641
        k(  412) = (   0.0784964   0.1802761  -0.9790415), wk =   0.0025641
        k(  413) = (   0.1229983   0.1802761  -0.8158679), wk =   0.0025641
        k(  414) = (   0.1675002   0.1802761  -0.6526943), wk =   0.0025641
        k(  415) = (   0.2120020   0.1802761  -0.4895207), wk =   0.0025641
        k(  416) = (   0.2565039   0.1802761  -0.3263472), wk =   0.0025641
        k(  417) = (   0.3010058   0.1802761  -0.1631736), wk =   0.0025641
        k(  418) = (   0.3455077   0.3605521   0.0000000), wk =   0.0025641
        k(  419) = (   0.3900096   0.3605521   0.1631736), wk =   0.0025641
        k(  420) = (   0.4345115   0.3605521   0.3263472), wk =   0.0025641
        k(  421) = (   0.4790134   0.3605521   0.4895207), wk =   0.0025641
        k(  422) = (   0.5235153   0.3605521   0.6526943), wk =   0.0025641
        k(  423) = (   0.5680171   0.3605521   0.8158679), wk =   0.0025641
        k(  424) = (   0.6125190   0.3605521   0.9790415), wk =   0.0025641
        k(  425) = (   0.0784964   0.3605521  -0.9790415), wk =   0.0025641
        k(  426) = (   0.1229983   0.3605521  -0.8158679), wk =   0.0025641
        k(  427) = (   0.1675002   0.3605521  -0.6526943), wk =   0.0025641
        k(  428) = (   0.2120020   0.3605521  -0.4895207), wk =   0.0025641
        k(  429) = (   0.2565039   0.3605521  -0.3263472), wk =   0.0025641
        k(  430) = (   0.3010058   0.3605521  -0.1631736), wk =   0.0025641
        k(  431) = (   0.3455077   0.5408282   0.0000000), wk =   0.0025641
        k(  432) = (   0.3900096   0.5408282   0.1631736), wk =   0.0025641
        k(  433) = (   0.4345115   0.5408282   0.3263472), wk =   0.0025641
        k(  434) = (   0.4790134   0.5408282   0.4895207), wk =   0.0025641
        k(  435) = (   0.5235153   0.5408282   0.6526943), wk =   0.0025641
        k(  436) = (   0.5680171   0.5408282   0.8158679), wk =   0.0025641
        k(  437) = (   0.6125190   0.5408282   0.9790415), wk =   0.0025641
        k(  438) = (   0.0784964   0.5408282  -0.9790415), wk =   0.0025641
        k(  439) = (   0.1229983   0.5408282  -0.8158679), wk =   0.0025641
        k(  440) = (   0.1675002   0.5408282  -0.6526943), wk =   0.0025641
        k(  441) = (   0.2120020   0.5408282  -0.4895207), wk =   0.0025641
        k(  442) = (   0.2565039   0.5408282  -0.3263472), wk =   0.0025641
        k(  443) = (   0.3010058   0.5408282  -0.1631736), wk =   0.0025641
        k(  444) = (   0.3455077   0.7211043   0.0000000), wk =   0.0025641
        k(  445) = (   0.3900096   0.7211043   0.1631736), wk =   0.0025641
        k(  446) = (   0.4345115   0.7211043   0.3263472), wk =   0.0025641
        k(  447) = (   0.4790134   0.7211043   0.4895207), wk =   0.0025641
        k(  448) = (   0.5235153   0.7211043   0.6526943), wk =   0.0025641
        k(  449) = (   0.5680171   0.7211043   0.8158679), wk =   0.0025641
        k(  450) = (   0.6125190   0.7211043   0.9790415), wk =   0.0025641
        k(  451) = (   0.0784964   0.7211043  -0.9790415), wk =   0.0025641
        k(  452) = (   0.1229983   0.7211043  -0.8158679), wk =   0.0025641
        k(  453) = (   0.1675002   0.7211043  -0.6526943), wk =   0.0025641
        k(  454) = (   0.2120020   0.7211043  -0.4895207), wk =   0.0025641
        k(  455) = (   0.2565039   0.7211043  -0.3263472), wk =   0.0025641
        k(  456) = (   0.3010058   0.7211043  -0.1631736), wk =   0.0025641
        k(  457) = (   0.3455077   0.9013803   0.0000000), wk =   0.0025641
        k(  458) = (   0.3900096   0.9013803   0.1631736), wk =   0.0025641
        k(  459) = (   0.4345115   0.9013803   0.3263472), wk =   0.0025641
        k(  460) = (   0.4790134   0.9013803   0.4895207), wk =   0.0025641
        k(  461) = (   0.5235153   0.9013803   0.6526943), wk =   0.0025641
        k(  462) = (   0.5680171   0.9013803   0.8158679), wk =   0.0025641
        k(  463) = (   0.6125190   0.9013803   0.9790415), wk =   0.0025641
        k(  464) = (   0.0784964   0.9013803  -0.9790415), wk =   0.0025641
        k(  465) = (   0.1229983   0.9013803  -0.8158679), wk =   0.0025641
        k(  466) = (   0.1675002   0.9013803  -0.6526943), wk =   0.0025641
        k(  467) = (   0.2120020   0.9013803  -0.4895207), wk =   0.0025641
        k(  468) = (   0.2565039   0.9013803  -0.3263472), wk =   0.0025641
        k(  469) = (   0.3010058   0.9013803  -0.1631736), wk =   0.0025641
        k(  470) = (   0.3455077   1.0816564   0.0000000), wk =   0.0025641
        k(  471) = (   0.3900096   1.0816564   0.1631736), wk =   0.0025641
        k(  472) = (   0.4345115   1.0816564   0.3263472), wk =   0.0025641
        k(  473) = (   0.4790134   1.0816564   0.4895207), wk =   0.0025641
        k(  474) = (   0.5235153   1.0816564   0.6526943), wk =   0.0025641
        k(  475) = (   0.5680171   1.0816564   0.8158679), wk =   0.0025641
        k(  476) = (   0.6125190   1.0816564   0.9790415), wk =   0.0025641
        k(  477) = (   0.0784964   1.0816564  -0.9790415), wk =   0.0025641
        k(  478) = (   0.1229983   1.0816564  -0.8158679), wk =   0.0025641
        k(  479) = (   0.1675002   1.0816564  -0.6526943), wk =   0.0025641
        k(  480) = (   0.2120020   1.0816564  -0.4895207), wk =   0.0025641
        k(  481) = (   0.2565039   1.0816564  -0.3263472), wk =   0.0025641
        k(  482) = (   0.3010058   1.0816564  -0.1631736), wk =   0.0025641
        k(  483) = (   0.3455077   1.2619324   0.0000000), wk =   0.0025641
        k(  484) = (   0.3900096   1.2619324   0.1631736), wk =   0.0025641
        k(  485) = (   0.4345115   1.2619324   0.3263472), wk =   0.0025641
        k(  486) = (   0.4790134   1.2619324   0.4895207), wk =   0.0025641
        k(  487) = (   0.5235153   1.2619324   0.6526943), wk =   0.0025641
        k(  488) = (   0.5680171   1.2619324   0.8158679), wk =   0.0025641
        k(  489) = (   0.6125190   1.2619324   0.9790415), wk =   0.0025641
        k(  490) = (   0.0784964   1.2619324  -0.9790415), wk =   0.0025641
        k(  491) = (   0.1229983   1.2619324  -0.8158679), wk =   0.0025641
        k(  492) = (   0.1675002   1.2619324  -0.6526943), wk =   0.0025641
        k(  493) = (   0.2120020   1.2619324  -0.4895207), wk =   0.0025641
        k(  494) = (   0.2565039   1.2619324  -0.3263472), wk =   0.0025641
        k(  495) = (   0.3010058   1.2619324  -0.1631736), wk =   0.0025641
        k(  496) = (   0.3455077   1.4422085   0.0000000), wk =   0.0025641
        k(  497) = (   0.3900096   1.4422085   0.1631736), wk =   0.0025641
        k(  498) = (   0.4345115   1.4422085   0.3263472), wk =   0.0025641
        k(  499) = (   0.4790134   1.4422085   0.4895207), wk =   0.0025641
        k(  500) = (   0.5235153   1.4422085   0.6526943), wk =   0.0025641
        k(  501) = (   0.5680171   1.4422085   0.8158679), wk =   0.0025641
        k(  502) = (   0.6125190   1.4422085   0.9790415), wk =   0.0025641
        k(  503) = (   0.0784964   1.4422085  -0.9790415), wk =   0.0025641
        k(  504) = (   0.1229983   1.4422085  -0.8158679), wk =   0.0025641
        k(  505) = (   0.1675002   1.4422085  -0.6526943), wk =   0.0025641
        k(  506) = (   0.2120020   1.4422085  -0.4895207), wk =   0.0025641
        k(  507) = (   0.2565039   1.4422085  -0.3263472), wk =   0.0025641
        k(  508) = (   0.3010058   1.4422085  -0.1631736), wk =   0.0025641
        k(  509) = (   0.3455077   1.6224846   0.0000000), wk =   0.0025641
        k(  510) = (   0.3900096   1.6224846   0.1631736), wk =   0.0025641
        k(  511) = (   0.4345115   1.6224846   0.3263472), wk =   0.0025641
        k(  512) = (   0.4790134   1.6224846   0.4895207), wk =   0.0025641
        k(  513) = (   0.5235153   1.6224846   0.6526943), wk =   0.0025641
        k(  514) = (   0.5680171   1.6224846   0.8158679), wk =   0.0025641
        k(  515) = (   0.6125190   1.6224846   0.9790415), wk =   0.0025641
        k(  516) = (   0.0784964   1.6224846  -0.9790415), wk =   0.0025641
        k(  517) = (   0.1229983   1.6224846  -0.8158679), wk =   0.0025641
        k(  518) = (   0.1675002   1.6224846  -0.6526943), wk =   0.0025641
        k(  519) = (   0.2120020   1.6224846  -0.4895207), wk =   0.0025641
        k(  520) = (   0.2565039   1.6224846  -0.3263472), wk =   0.0025641
        k(  521) = (   0.3010058   1.6224846  -0.1631736), wk =   0.0025641
        k(  522) = (   0.3455077  -1.8027606   0.0000000), wk =   0.0025641
        k(  523) = (   0.3900096  -1.8027606   0.1631736), wk =   0.0025641
        k(  524) = (   0.4345115  -1.8027606   0.3263472), wk =   0.0025641
        k(  525) = (   0.4790134  -1.8027606   0.4895207), wk =   0.0025641
        k(  526) = (   0.5235153  -1.8027606   0.6526943), wk =   0.0025641
        k(  527) = (   0.5680171  -1.8027606   0.8158679), wk =   0.0025641
        k(  528) = (   0.6125190  -1.8027606   0.9790415), wk =   0.0025641
        k(  529) = (   0.0784964  -1.8027606  -0.9790415), wk =   0.0025641
        k(  530) = (   0.1229983  -1.8027606  -0.8158679), wk =   0.0025641
        k(  531) = (   0.1675002  -1.8027606  -0.6526943), wk =   0.0025641
        k(  532) = (   0.2120020  -1.8027606  -0.4895207), wk =   0.0025641
        k(  533) = (   0.2565039  -1.8027606  -0.3263472), wk =   0.0025641
        k(  534) = (   0.3010058  -1.8027606  -0.1631736), wk =   0.0025641
        k(  535) = (   0.3455077  -1.6224846   0.0000000), wk =   0.0025641
        k(  536) = (   0.3900096  -1.6224846   0.1631736), wk =   0.0025641
        k(  537) = (   0.4345115  -1.6224846   0.3263472), wk =   0.0025641
        k(  538) = (   0.4790134  -1.6224846   0.4895207), wk =   0.0025641
        k(  539) = (   0.5235153  -1.6224846   0.6526943), wk =   0.0025641
        k(  540) = (   0.5680171  -1.6224846   0.8158679), wk =   0.0025641
        k(  541) = (   0.6125190  -1.6224846   0.9790415), wk =   0.0025641
        k(  542) = (   0.0784964  -1.6224846  -0.9790415), wk =   0.0025641
        k(  543) = (   0.1229983  -1.6224846  -0.8158679), wk =   0.0025641
        k(  544) = (   0.1675002  -1.6224846  -0.6526943), wk =   0.0025641
        k(  545) = (   0.2120020  -1.6224846  -0.4895207), wk =   0.0025641
        k(  546) = (   0.2565039  -1.6224846  -0.3263472), wk =   0.0025641
        k(  547) = (   0.3010058  -1.6224846  -0.1631736), wk =   0.0025641
        k(  548) = (   0.3455077  -1.4422085   0.0000000), wk =   0.0025641
        k(  549) = (   0.3900096  -1.4422085   0.1631736), wk =   0.0025641
        k(  550) = (   0.4345115  -1.4422085   0.3263472), wk =   0.0025641
        k(  551) = (   0.4790134  -1.4422085   0.4895207), wk =   0.0025641
        k(  552) = (   0.5235153  -1.4422085   0.6526943), wk =   0.0025641
        k(  553) = (   0.5680171  -1.4422085   0.8158679), wk =   0.0025641
        k(  554) = (   0.6125190  -1.4422085   0.9790415), wk =   0.0025641
        k(  555) = (   0.0784964  -1.4422085  -0.9790415), wk =   0.0025641
        k(  556) = (   0.1229983  -1.4422085  -0.8158679), wk =   0.0025641
        k(  557) = (   0.1675002  -1.4422085  -0.6526943), wk =   0.0025641
        k(  558) = (   0.2120020  -1.4422085  -0.4895207), wk =   0.0025641
        k(  559) = (   0.2565039  -1.4422085  -0.3263472), wk =   0.0025641
        k(  560) = (   0.3010058  -1.4422085  -0.1631736), wk =   0.0025641
        k(  561) = (   0.3455077  -1.2619324   0.0000000), wk =   0.0025641
        k(  562) = (   0.3900096  -1.2619324   0.1631736), wk =   0.0025641
        k(  563) = (   0.4345115  -1.2619324   0.3263472), wk =   0.0025641
        k(  564) = (   0.4790134  -1.2619324   0.4895207), wk =   0.0025641
        k(  565) = (   0.5235153  -1.2619324   0.6526943), wk =   0.0025641
        k(  566) = (   0.5680171  -1.2619324   0.8158679), wk =   0.0025641
        k(  567) = (   0.6125190  -1.2619324   0.9790415), wk =   0.0025641
        k(  568) = (   0.0784964  -1.2619324  -0.9790415), wk =   0.0025641
        k(  569) = (   0.1229983  -1.2619324  -0.8158679), wk =   0.0025641
        k(  570) = (   0.1675002  -1.2619324  -0.6526943), wk =   0.0025641
        k(  571) = (   0.2120020  -1.2619324  -0.4895207), wk =   0.0025641
        k(  572) = (   0.2565039  -1.2619324  -0.3263472), wk =   0.0025641
        k(  573) = (   0.3010058  -1.2619324  -0.1631736), wk =   0.0025641
        k(  574) = (   0.3455077  -1.0816564   0.0000000), wk =   0.0025641
        k(  575) = (   0.3900096  -1.0816564   0.1631736), wk =   0.0025641
        k(  576) = (   0.4345115  -1.0816564   0.3263472), wk =   0.0025641
        k(  577) = (   0.4790134  -1.0816564   0.4895207), wk =   0.0025641
        k(  578) = (   0.5235153  -1.0816564   0.6526943), wk =   0.0025641
        k(  579) = (   0.5680171  -1.0816564   0.8158679), wk =   0.0025641
        k(  580) = (   0.6125190  -1.0816564   0.9790415), wk =   0.0025641
        k(  581) = (   0.0784964  -1.0816564  -0.9790415), wk =   0.0025641
        k(  582) = (   0.1229983  -1.0816564  -0.8158679), wk =   0.0025641
        k(  583) = (   0.1675002  -1.0816564  -0.6526943), wk =   0.0025641
        k(  584) = (   0.2120020  -1.0816564  -0.4895207), wk =   0.0025641
        k(  585) = (   0.2565039  -1.0816564  -0.3263472), wk =   0.0025641
        k(  586) = (   0.3010058  -1.0816564  -0.1631736), wk =   0.0025641
        k(  587) = (   0.3455077  -0.9013803   0.0000000), wk =   0.0025641
        k(  588) = (   0.3900096  -0.9013803   0.1631736), wk =   0.0025641
        k(  589) = (   0.4345115  -0.9013803   0.3263472), wk =   0.0025641
        k(  590) = (   0.4790134  -0.9013803   0.4895207), wk =   0.0025641
        k(  591) = (   0.5235153  -0.9013803   0.6526943), wk =   0.0025641
        k(  592) = (   0.5680171  -0.9013803   0.8158679), wk =   0.0025641
        k(  593) = (   0.6125190  -0.9013803   0.9790415), wk =   0.0025641
        k(  594) = (   0.0784964  -0.9013803  -0.9790415), wk =   0.0025641
        k(  595) = (   0.1229983  -0.9013803  -0.8158679), wk =   0.0025641
        k(  596) = (   0.1675002  -0.9013803  -0.6526943), wk =   0.0025641
        k(  597) = (   0.2120020  -0.9013803  -0.4895207), wk =   0.0025641
        k(  598) = (   0.2565039  -0.9013803  -0.3263472), wk =   0.0025641
        k(  599) = (   0.3010058  -0.9013803  -0.1631736), wk =   0.0025641
        k(  600) = (   0.3455077  -0.7211043   0.0000000), wk =   0.0025641
        k(  601) = (   0.3900096  -0.7211043   0.1631736), wk =   0.0025641
        k(  602) = (   0.4345115  -0.7211043   0.3263472), wk =   0.0025641
        k(  603) = (   0.4790134  -0.7211043   0.4895207), wk =   0.0025641
        k(  604) = (   0.5235153  -0.7211043   0.6526943), wk =   0.0025641
        k(  605) = (   0.5680171  -0.7211043   0.8158679), wk =   0.0025641
        k(  606) = (   0.6125190  -0.7211043   0.9790415), wk =   0.0025641
        k(  607) = (   0.0784964  -0.7211043  -0.9790415), wk =   0.0025641
        k(  608) = (   0.1229983  -0.7211043  -0.8158679), wk =   0.0025641
        k(  609) = (   0.1675002  -0.7211043  -0.6526943), wk =   0.0025641
        k(  610) = (   0.2120020  -0.7211043  -0.4895207), wk =   0.0025641
        k(  611) = (   0.2565039  -0.7211043  -0.3263472), wk =   0.0025641
        k(  612) = (   0.3010058  -0.7211043  -0.1631736), wk =   0.0025641
        k(  613) = (   0.3455077  -0.5408282   0.0000000), wk =   0.0025641
        k(  614) = (   0.3900096  -0.5408282   0.1631736), wk =   0.0025641
        k(  615) = (   0.4345115  -0.5408282   0.3263472), wk =   0.0025641
        k(  616) = (   0.4790134  -0.5408282   0.4895207), wk =   0.0025641
        k(  617) = (   0.5235153  -0.5408282   0.6526943), wk =   0.0025641
        k(  618) = (   0.5680171  -0.5408282   0.8158679), wk =   0.0025641
        k(  619) = (   0.6125190  -0.5408282   0.9790415), wk =   0.0025641
        k(  620) = (   0.0784964  -0.5408282  -0.9790415), wk =   0.0025641
        k(  621) = (   0.1229983  -0.5408282  -0.8158679), wk =   0.0025641
        k(  622) = (   0.1675002  -0.5408282  -0.6526943), wk =   0.0025641
        k(  623) = (   0.2120020  -0.5408282  -0.4895207), wk =   0.0025641
        k(  624) = (   0.2565039  -0.5408282  -0.3263472), wk =   0.0025641
        k(  625) = (   0.3010058  -0.5408282  -0.1631736), wk =   0.0025641
        k(  626) = (   0.3455077  -0.3605521   0.0000000), wk =   0.0025641
        k(  627) = (   0.3900096  -0.3605521   0.1631736), wk =   0.0025641
        k(  628) = (   0.4345115  -0.3605521   0.3263472), wk =   0.0025641
        k(  629) = (   0.4790134  -0.3605521   0.4895207), wk =   0.0025641
        k(  630) = (   0.5235153  -0.3605521   0.6526943), wk =   0.0025641
        k(  631) = (   0.5680171  -0.3605521   0.8158679), wk =   0.0025641
        k(  632) = (   0.6125190  -0.3605521   0.9790415), wk =   0.0025641
        k(  633) = (   0.0784964  -0.3605521  -0.9790415), wk =   0.0025641
        k(  634) = (   0.1229983  -0.3605521  -0.8158679), wk =   0.0025641
        k(  635) = (   0.1675002  -0.3605521  -0.6526943), wk =   0.0025641
        k(  636) = (   0.2120020  -0.3605521  -0.4895207), wk =   0.0025641
        k(  637) = (   0.2565039  -0.3605521  -0.3263472), wk =   0.0025641
        k(  638) = (   0.3010058  -0.3605521  -0.1631736), wk =   0.0025641
        k(  639) = (   0.3455077  -0.1802761   0.0000000), wk =   0.0025641
        k(  640) = (   0.3900096  -0.1802761   0.1631736), wk =   0.0025641
        k(  641) = (   0.4345115  -0.1802761   0.3263472), wk =   0.0025641
        k(  642) = (   0.4790134  -0.1802761   0.4895207), wk =   0.0025641
        k(  643) = (   0.5235153  -0.1802761   0.6526943), wk =   0.0025641
        k(  644) = (   0.5680171  -0.1802761   0.8158679), wk =   0.0025641
        k(  645) = (   0.6125190  -0.1802761   0.9790415), wk =   0.0025641
        k(  646) = (   0.0784964  -0.1802761  -0.9790415), wk =   0.0025641
        k(  647) = (   0.1229983  -0.1802761  -0.8158679), wk =   0.0025641
        k(  648) = (   0.1675002  -0.1802761  -0.6526943), wk =   0.0025641
        k(  649) = (   0.2120020  -0.1802761  -0.4895207), wk =   0.0025641
        k(  650) = (   0.2565039  -0.1802761  -0.3263472), wk =   0.0025641
        k(  651) = (   0.3010058  -0.1802761  -0.1631736), wk =   0.0025641
        k(  652) = (  -0.5182616   0.0000000   0.0000000), wk =   0.0012821
        k(  653) = (  -0.4737597   0.0000000   0.1631736), wk =   0.0025641
        k(  654) = (  -0.4292578   0.0000000   0.3263472), wk =   0.0025641
        k(  655) = (  -0.3847559   0.0000000   0.4895207), wk =   0.0025641
        k(  656) = (  -0.3402540   0.0000000   0.6526943), wk =   0.0025641
        k(  657) = (  -0.2957521   0.0000000   0.8158679), wk =   0.0025641
        k(  658) = (  -0.2512502   0.0000000   0.9790415), wk =   0.0025641
        k(  659) = (  -0.5182616   0.1802761   0.0000000), wk =   0.0025641
        k(  660) = (  -0.4737597   0.1802761   0.1631736), wk =   0.0025641
        k(  661) = (  -0.4292578   0.1802761   0.3263472), wk =   0.0025641
        k(  662) = (  -0.3847559   0.1802761   0.4895207), wk =   0.0025641
        k(  663) = (  -0.3402540   0.1802761   0.6526943), wk =   0.0025641
        k(  664) = (  -0.2957521   0.1802761   0.8158679), wk =   0.0025641
        k(  665) = (  -0.2512502   0.1802761   0.9790415), wk =   0.0025641
        k(  666) = (  -0.7852729   0.1802761  -0.9790415), wk =   0.0025641
        k(  667) = (  -0.7407710   0.1802761  -0.8158679), wk =   0.0025641
        k(  668) = (  -0.6962691   0.1802761  -0.6526943), wk =   0.0025641
        k(  669) = (  -0.6517672   0.1802761  -0.4895207), wk =   0.0025641
        k(  670) = (  -0.6072653   0.1802761  -0.3263472), wk =   0.0025641
        k(  671) = (  -0.5627634   0.1802761  -0.1631736), wk =   0.0025641
        k(  672) = (  -0.5182616   0.3605521   0.0000000), wk =   0.0025641
        k(  673) = (  -0.4737597   0.3605521   0.1631736), wk =   0.0025641
        k(  674) = (  -0.4292578   0.3605521   0.3263472), wk =   0.0025641
        k(  675) = (  -0.3847559   0.3605521   0.4895207), wk =   0.0025641
        k(  676) = (  -0.3402540   0.3605521   0.6526943), wk =   0.0025641
        k(  677) = (  -0.2957521   0.3605521   0.8158679), wk =   0.0025641
        k(  678) = (  -0.2512502   0.3605521   0.9790415), wk =   0.0025641
        k(  679) = (  -0.7852729   0.3605521  -0.9790415), wk =   0.0025641
        k(  680) = (  -0.7407710   0.3605521  -0.8158679), wk =   0.0025641
        k(  681) = (  -0.6962691   0.3605521  -0.6526943), wk =   0.0025641
        k(  682) = (  -0.6517672   0.3605521  -0.4895207), wk =   0.0025641
        k(  683) = (  -0.6072653   0.3605521  -0.3263472), wk =   0.0025641
        k(  684) = (  -0.5627634   0.3605521  -0.1631736), wk =   0.0025641
        k(  685) = (  -0.5182616   0.5408282   0.0000000), wk =   0.0025641
        k(  686) = (  -0.4737597   0.5408282   0.1631736), wk =   0.0025641
        k(  687) = (  -0.4292578   0.5408282   0.3263472), wk =   0.0025641
        k(  688) = (  -0.3847559   0.5408282   0.4895207), wk =   0.0025641
        k(  689) = (  -0.3402540   0.5408282   0.6526943), wk =   0.0025641
        k(  690) = (  -0.2957521   0.5408282   0.8158679), wk =   0.0025641
        k(  691) = (  -0.2512502   0.5408282   0.9790415), wk =   0.0025641
        k(  692) = (  -0.7852729   0.5408282  -0.9790415), wk =   0.0025641
        k(  693) = (  -0.7407710   0.5408282  -0.8158679), wk =   0.0025641
        k(  694) = (  -0.6962691   0.5408282  -0.6526943), wk =   0.0025641
        k(  695) = (  -0.6517672   0.5408282  -0.4895207), wk =   0.0025641
        k(  696) = (  -0.6072653   0.5408282  -0.3263472), wk =   0.0025641
        k(  697) = (  -0.5627634   0.5408282  -0.1631736), wk =   0.0025641
        k(  698) = (  -0.5182616   0.7211043   0.0000000), wk =   0.0025641
        k(  699) = (  -0.4737597   0.7211043   0.1631736), wk =   0.0025641
        k(  700) = (  -0.4292578   0.7211043   0.3263472), wk =   0.0025641
        k(  701) = (  -0.3847559   0.7211043   0.4895207), wk =   0.0025641
        k(  702) = (  -0.3402540   0.7211043   0.6526943), wk =   0.0025641
        k(  703) = (  -0.2957521   0.7211043   0.8158679), wk =   0.0025641
        k(  704) = (  -0.2512502   0.7211043   0.9790415), wk =   0.0025641
        k(  705) = (  -0.7852729   0.7211043  -0.9790415), wk =   0.0025641
        k(  706) = (  -0.7407710   0.7211043  -0.8158679), wk =   0.0025641
        k(  707) = (  -0.6962691   0.7211043  -0.6526943), wk =   0.0025641
        k(  708) = (  -0.6517672   0.7211043  -0.4895207), wk =   0.0025641
        k(  709) = (  -0.6072653   0.7211043  -0.3263472), wk =   0.0025641
        k(  710) = (  -0.5627634   0.7211043  -0.1631736), wk =   0.0025641
        k(  711) = (  -0.5182616   0.9013803   0.0000000), wk =   0.0025641
        k(  712) = (  -0.4737597   0.9013803   0.1631736), wk =   0.0025641
        k(  713) = (  -0.4292578   0.9013803   0.3263472), wk =   0.0025641
        k(  714) = (  -0.3847559   0.9013803   0.4895207), wk =   0.0025641
        k(  715) = (  -0.3402540   0.9013803   0.6526943), wk =   0.0025641
        k(  716) = (  -0.2957521   0.9013803   0.8158679), wk =   0.0025641
        k(  717) = (  -0.2512502   0.9013803   0.9790415), wk =   0.0025641
        k(  718) = (  -0.7852729   0.9013803  -0.9790415), wk =   0.0025641
        k(  719) = (  -0.7407710   0.9013803  -0.8158679), wk =   0.0025641
        k(  720) = (  -0.6962691   0.9013803  -0.6526943), wk =   0.0025641
        k(  721) = (  -0.6517672   0.9013803  -0.4895207), wk =   0.0025641
        k(  722) = (  -0.6072653   0.9013803  -0.3263472), wk =   0.0025641
        k(  723) = (  -0.5627634   0.9013803  -0.1631736), wk =   0.0025641
        k(  724) = (  -0.5182616   1.0816564   0.0000000), wk =   0.0025641
        k(  725) = (  -0.4737597   1.0816564   0.1631736), wk =   0.0025641
        k(  726) = (  -0.4292578   1.0816564   0.3263472), wk =   0.0025641
        k(  727) = (  -0.3847559   1.0816564   0.4895207), wk =   0.0025641
        k(  728) = (  -0.3402540   1.0816564   0.6526943), wk =   0.0025641
        k(  729) = (  -0.2957521   1.0816564   0.8158679), wk =   0.0025641
        k(  730) = (  -0.2512502   1.0816564   0.9790415), wk =   0.0025641
        k(  731) = (  -0.7852729   1.0816564  -0.9790415), wk =   0.0025641
        k(  732) = (  -0.7407710   1.0816564  -0.8158679), wk =   0.0025641
        k(  733) = (  -0.6962691   1.0816564  -0.6526943), wk =   0.0025641
        k(  734) = (  -0.6517672   1.0816564  -0.4895207), wk =   0.0025641
        k(  735) = (  -0.6072653   1.0816564  -0.3263472), wk =   0.0025641
        k(  736) = (  -0.5627634   1.0816564  -0.1631736), wk =   0.0025641
        k(  737) = (  -0.5182616   1.2619324   0.0000000), wk =   0.0025641
        k(  738) = (  -0.4737597   1.2619324   0.1631736), wk =   0.0025641
        k(  739) = (  -0.4292578   1.2619324   0.3263472), wk =   0.0025641
        k(  740) = (  -0.3847559   1.2619324   0.4895207), wk =   0.0025641
        k(  741) = (  -0.3402540   1.2619324   0.6526943), wk =   0.0025641
        k(  742) = (  -0.2957521   1.2619324   0.8158679), wk =   0.0025641
        k(  743) = (  -0.2512502   1.2619324   0.9790415), wk =   0.0025641
        k(  744) = (  -0.7852729   1.2619324  -0.9790415), wk =   0.0025641
        k(  745) = (  -0.7407710   1.2619324  -0.8158679), wk =   0.0025641
        k(  746) = (  -0.6962691   1.2619324  -0.6526943), wk =   0.0025641
        k(  747) = (  -0.6517672   1.2619324  -0.4895207), wk =   0.0025641
        k(  748) = (  -0.6072653   1.2619324  -0.3263472), wk =   0.0025641
        k(  749) = (  -0.5627634   1.2619324  -0.1631736), wk =   0.0025641
        k(  750) = (  -0.5182616   1.4422085   0.0000000), wk =   0.0025641
        k(  751) = (  -0.4737597   1.4422085   0.1631736), wk =   0.0025641
        k(  752) = (  -0.4292578   1.4422085   0.3263472), wk =   0.0025641
        k(  753) = (  -0.3847559   1.4422085   0.4895207), wk =   0.0025641
        k(  754) = (  -0.3402540   1.4422085   0.6526943), wk =   0.0025641
        k(  755) = (  -0.2957521   1.4422085   0.8158679), wk =   0.0025641
        k(  756) = (  -0.2512502   1.4422085   0.9790415), wk =   0.0025641
        k(  757) = (  -0.7852729   1.4422085  -0.9790415), wk =   0.0025641
        k(  758) = (  -0.7407710   1.4422085  -0.8158679), wk =   0.0025641
        k(  759) = (  -0.6962691   1.4422085  -0.6526943), wk =   0.0025641
        k(  760) = (  -0.6517672   1.4422085  -0.4895207), wk =   0.0025641
        k(  761) = (  -0.6072653   1.4422085  -0.3263472), wk =   0.0025641
        k(  762) = (  -0.5627634   1.4422085  -0.1631736), wk =   0.0025641
        k(  763) = (  -0.5182616   1.6224846   0.0000000), wk =   0.0025641
        k(  764) = (  -0.4737597   1.6224846   0.1631736), wk =   0.0025641
        k(  765) = (  -0.4292578   1.6224846   0.3263472), wk =   0.0025641
        k(  766) = (  -0.3847559   1.6224846   0.4895207), wk =   0.0025641
        k(  767) = (  -0.3402540   1.6224846   0.6526943), wk =   0.0025641
        k(  768) = (  -0.2957521   1.6224846   0.8158679), wk =   0.0025641
        k(  769) = (  -0.2512502   1.6224846   0.9790415), wk =   0.0025641
        k(  770) = (  -0.7852729   1.6224846  -0.9790415), wk =   0.0025641
        k(  771) = (  -0.7407710   1.6224846  -0.8158679), wk =   0.0025641
        k(  772) = (  -0.6962691   1.6224846  -0.6526943), wk =   0.0025641
        k(  773) = (  -0.6517672   1.6224846  -0.4895207), wk =   0.0025641
        k(  774) = (  -0.6072653   1.6224846  -0.3263472), wk =   0.0025641
        k(  775) = (  -0.5627634   1.6224846  -0.1631736), wk =   0.0025641
        k(  776) = (  -0.5182616  -1.8027606   0.0000000), wk =   0.0012821
        k(  777) = (  -0.4737597  -1.8027606   0.1631736), wk =   0.0025641
        k(  778) = (  -0.4292578  -1.8027606   0.3263472), wk =   0.0025641
        k(  779) = (  -0.3847559  -1.8027606   0.4895207), wk =   0.0025641
        k(  780) = (  -0.3402540  -1.8027606   0.6526943), wk =   0.0025641
        k(  781) = (  -0.2957521  -1.8027606   0.8158679), wk =   0.0025641
        k(  782) = (  -0.2512502  -1.8027606   0.9790415), wk =   0.0025641

                       cryst. coord.
        k(    1) = (   0.0000000   0.0000000   0.0000000), wk =   0.0012821
        k(    2) = (   0.0000000   0.0000000   0.0769231), wk =   0.0025641
        k(    3) = (   0.0000000   0.0000000   0.1538462), wk =   0.0025641
        k(    4) = (   0.0000000   0.0000000   0.2307692), wk =   0.0025641
        k(    5) = (   0.0000000   0.0000000   0.3076923), wk =   0.0025641
        k(    6) = (   0.0000000   0.0000000   0.3846154), wk =   0.0025641
        k(    7) = (   0.0000000   0.0000000   0.4615385), wk =   0.0025641
        k(    8) = (   0.0000000   0.0500000   0.0000000), wk =   0.0025641
        k(    9) = (   0.0000000   0.0500000   0.0769231), wk =   0.0025641
        k(   10) = (   0.0000000   0.0500000   0.1538462), wk =   0.0025641
        k(   11) = (   0.0000000   0.0500000   0.2307692), wk =   0.0025641
        k(   12) = (   0.0000000   0.0500000   0.3076923), wk =   0.0025641
        k(   13) = (   0.0000000   0.0500000   0.3846154), wk =   0.0025641
        k(   14) = (   0.0000000   0.0500000   0.4615385), wk =   0.0025641
        k(   15) = (  -0.0000000   0.0500000  -0.4615385), wk =   0.0025641
        k(   16) = (  -0.0000000   0.0500000  -0.3846154), wk =   0.0025641
        k(   17) = (  -0.0000000   0.0500000  -0.3076923), wk =   0.0025641
        k(   18) = (  -0.0000000   0.0500000  -0.2307692), wk =   0.0025641
        k(   19) = (  -0.0000000   0.0500000  -0.1538462), wk =   0.0025641
        k(   20) = (  -0.0000000   0.0500000  -0.0769231), wk =   0.0025641
        k(   21) = (   0.0000000   0.1000000   0.0000000), wk =   0.0025641
        k(   22) = (   0.0000000   0.1000000   0.0769231), wk =   0.0025641
        k(   23) = (   0.0000000   0.1000000   0.1538462), wk =   0.0025641
        k(   24) = (   0.0000000   0.1000000   0.2307692), wk =   0.0025641
        k(   25) = (   0.0000000   0.1000000   0.3076923), wk =   0.0025641
        k(   26) = (   0.0000000   0.1000000   0.3846154), wk =   0.0025641
        k(   27) = (   0.0000000   0.1000000   0.4615385), wk =   0.0025641
        k(   28) = (  -0.0000000   0.1000000  -0.4615385), wk =   0.0025641
        k(   29) = (  -0.0000000   0.1000000  -0.3846154), wk =   0.0025641
        k(   30) = (  -0.0000000   0.1000000  -0.3076923), wk =   0.0025641
        k(   31) = (  -0.0000000   0.1000000  -0.2307692), wk =   0.0025641
        k(   32) = (  -0.0000000   0.1000000  -0.1538462), wk =   0.0025641
        k(   33) = (  -0.0000000   0.1000000  -0.0769231), wk =   0.0025641
        k(   34) = (   0.0000000   0.1500000   0.0000000), wk =   0.0025641
        k(   35) = (   0.0000000   0.1500000   0.0769231), wk =   0.0025641
        k(   36) = (   0.0000000   0.1500000   0.1538462), wk =   0.0025641
        k(   37) = (   0.0000000   0.1500000   0.2307692), wk =   0.0025641
        k(   38) = (   0.0000000   0.1500000   0.3076923), wk =   0.0025641
        k(   39) = (   0.0000000   0.1500000   0.3846154), wk =   0.0025641
        k(   40) = (   0.0000000   0.1500000   0.4615385), wk =   0.0025641
        k(   41) = (  -0.0000000   0.1500000  -0.4615385), wk =   0.0025641
        k(   42) = (  -0.0000000   0.1500000  -0.3846154), wk =   0.0025641
        k(   43) = (  -0.0000000   0.1500000  -0.3076923), wk =   0.0025641
        k(   44) = (  -0.0000000   0.1500000  -0.2307692), wk =   0.0025641
        k(   45) = (  -0.0000000   0.1500000  -0.1538462), wk =   0.0025641
        k(   46) = (  -0.0000000   0.1500000  -0.0769231), wk =   0.0025641
        k(   47) = (   0.0000000   0.2000000   0.0000000), wk =   0.0025641
        k(   48) = (   0.0000000   0.2000000   0.0769231), wk =   0.0025641
        k(   49) = (   0.0000000   0.2000000   0.1538462), wk =   0.0025641
        k(   50) = (   0.0000000   0.2000000   0.2307692), wk =   0.0025641
        k(   51) = (   0.0000000   0.2000000   0.3076923), wk =   0.0025641
        k(   52) = (   0.0000000   0.2000000   0.3846154), wk =   0.0025641
        k(   53) = (   0.0000000   0.2000000   0.4615385), wk =   0.0025641
        k(   54) = (  -0.0000000   0.2000000  -0.4615385), wk =   0.0025641
        k(   55) = (  -0.0000000   0.2000000  -0.3846154), wk =   0.0025641
        k(   56) = (  -0.0000000   0.2000000  -0.3076923), wk =   0.0025641
        k(   57) = (  -0.0000000   0.2000000  -0.2307692), wk =   0.0025641
        k(   58) = (  -0.0000000   0.2000000  -0.1538462), wk =   0.0025641
        k(   59) = (  -0.0000000   0.2000000  -0.0769231), wk =   0.0025641
        k(   60) = (   0.0000000   0.2500000   0.0000000), wk =   0.0025641
        k(   61) = (   0.0000000   0.2500000   0.0769231), wk =   0.0025641
        k(   62) = (   0.0000000   0.2500000   0.1538462), wk =   0.0025641
        k(   63) = (   0.0000000   0.2500000   0.2307692), wk =   0.0025641
        k(   64) = (   0.0000000   0.2500000   0.3076923), wk =   0.0025641
        k(   65) = (   0.0000000   0.2500000   0.3846154), wk =   0.0025641
        k(   66) = (   0.0000000   0.2500000   0.4615385), wk =   0.0025641
        k(   67) = (  -0.0000000   0.2500000  -0.4615385), wk =   0.0025641
        k(   68) = (  -0.0000000   0.2500000  -0.3846154), wk =   0.0025641
        k(   69) = (  -0.0000000   0.2500000  -0.3076923), wk =   0.0025641
        k(   70) = (  -0.0000000   0.2500000  -0.2307692), wk =   0.0025641
        k(   71) = (  -0.0000000   0.2500000  -0.1538462), wk =   0.0025641
        k(   72) = (  -0.0000000   0.2500000  -0.0769231), wk =   0.0025641
        k(   73) = (   0.0000000   0.3000000   0.0000000), wk =   0.0025641
        k(   74) = (   0.0000000   0.3000000   0.0769231), wk =   0.0025641
        k(   75) = (   0.0000000   0.3000000   0.1538462), wk =   0.0025641
        k(   76) = (   0.0000000   0.3000000   0.2307692), wk =   0.0025641
        k(   77) = (   0.0000000   0.3000000   0.3076923), wk =   0.0025641
        k(   78) = (   0.0000000   0.3000000   0.3846154), wk =   0.0025641
        k(   79) = (   0.0000000   0.3000000   0.4615385), wk =   0.0025641
        k(   80) = (  -0.0000000   0.3000000  -0.4615385), wk =   0.0025641
        k(   81) = (  -0.0000000   0.3000000  -0.3846154), wk =   0.0025641
        k(   82) = (  -0.0000000   0.3000000  -0.3076923), wk =   0.0025641
        k(   83) = (  -0.0000000   0.3000000  -0.2307692), wk =   0.0025641
        k(   84) = (  -0.0000000   0.3000000  -0.1538462), wk =   0.0025641
        k(   85) = (  -0.0000000   0.3000000  -0.0769231), wk =   0.0025641
        k(   86) = (   0.0000000   0.3500000   0.0000000), wk =   0.0025641
        k(   87) = (   0.0000000   0.3500000   0.0769231), wk =   0.0025641
        k(   88) = (   0.0000000   0.3500000   0.1538462), wk =   0.0025641
        k(   89) = (   0.0000000   0.3500000   0.2307692), wk =   0.0025641
        k(   90) = (   0.0000000   0.3500000   0.3076923), wk =   0.0025641
        k(   91) = (   0.0000000   0.3500000   0.3846154), wk =   0.0025641
        k(   92) = (   0.0000000   0.3500000   0.4615385), wk =   0.0025641
        k(   93) = (  -0.0000000   0.3500000  -0.4615385), wk =   0.0025641
        k(   94) = (  -0.0000000   0.3500000  -0.3846154), wk =   0.0025641
        k(   95) = (  -0.0000000   0.3500000  -0.3076923), wk =   0.0025641
        k(   96) = (  -0.0000000   0.3500000  -0.2307692), wk =   0.0025641
        k(   97) = (  -0.0000000   0.3500000  -0.1538462), wk =   0.0025641
        k(   98) = (  -0.0000000   0.3500000  -0.0769231), wk =   0.0025641
        k(   99) = (   0.0000000   0.4000000   0.0000000), wk =   0.0025641
        k(  100) = (   0.0000000   0.4000000   0.0769231), wk =   0.0025641
        k(  101) = (   0.0000000   0.4000000   0.1538462), wk =   0.0025641
        k(  102) = (   0.0000000   0.4000000   0.2307692), wk =   0.0025641
        k(  103) = (   0.0000000   0.4000000   0.3076923), wk =   0.0025641
        k(  104) = (   0.0000000   0.4000000   0.3846154), wk =   0.0025641
        k(  105) = (   0.0000000   0.4000000   0.4615385), wk =   0.0025641
        k(  106) = (  -0.0000000   0.4000000  -0.4615385), wk =   0.0025641
        k(  107) = (  -0.0000000   0.4000000  -0.3846154), wk =   0.0025641
        k(  108) = (  -0.0000000   0.4000000  -0.3076923), wk =   0.0025641
        k(  109) = (  -0.0000000   0.4000000  -0.2307692), wk =   0.0025641
        k(  110) = (  -0.0000000   0.4000000  -0.1538462), wk =   0.0025641
        k(  111) = (  -0.0000000   0.4000000  -0.0769231), wk =   0.0025641
        k(  112) = (   0.0000000   0.4500000   0.0000000), wk =   0.0025641
        k(  113) = (   0.0000000   0.4500000   0.0769231), wk =   0.0025641
        k(  114) = (   0.0000000   0.4500000   0.1538462), wk =   0.0025641
        k(  115) = (   0.0000000   0.4500000   0.2307692), wk =   0.0025641
        k(  116) = (   0.0000000   0.4500000   0.3076923), wk =   0.0025641
        k(  117) = (   0.0000000   0.4500000   0.3846154), wk =   0.0025641
        k(  118) = (   0.0000000   0.4500000   0.4615385), wk =   0.0025641
        k(  119) = (  -0.0000000   0.4500000  -0.4615385), wk =   0.0025641
        k(  120) = (  -0.0000000   0.4500000  -0.3846154), wk =   0.0025641
        k(  121) = (  -0.0000000   0.4500000  -0.3076923), wk =   0.0025641
        k(  122) = (  -0.0000000   0.4500000  -0.2307692), wk =   0.0025641
        k(  123) = (  -0.0000000   0.4500000  -0.1538462), wk =   0.0025641
        k(  124) = (  -0.0000000   0.4500000  -0.0769231), wk =   0.0025641
        k(  125) = (   0.0000000  -0.5000000   0.0000000), wk =   0.0012821
        k(  126) = (   0.0000000  -0.5000000   0.0769231), wk =   0.0025641
        k(  127) = (   0.0000000  -0.5000000   0.1538462), wk =   0.0025641
        k(  128) = (   0.0000000  -0.5000000   0.2307692), wk =   0.0025641
        k(  129) = (   0.0000000  -0.5000000   0.3076923), wk =   0.0025641
        k(  130) = (   0.0000000  -0.5000000   0.3846154), wk =   0.0025641
        k(  131) = (   0.0000000  -0.5000000   0.4615385), wk =   0.0025641
        k(  132) = (   0.1666667   0.0000000   0.0000000), wk =   0.0025641
        k(  133) = (   0.1666667   0.0000000   0.0769231), wk =   0.0025641
        k(  134) = (   0.1666667   0.0000000   0.1538462), wk =   0.0025641
        k(  135) = (   0.1666667   0.0000000   0.2307692), wk =   0.0025641
        k(  136) = (   0.1666667   0.0000000   0.3076923), wk =   0.0025641
        k(  137) = (   0.1666667   0.0000000   0.3846154), wk =   0.0025641
        k(  138) = (   0.1666667   0.0000000   0.4615385), wk =   0.0025641
        k(  139) = (   0.1666667   0.0000000  -0.4615385), wk =   0.0025641
        k(  140) = (   0.1666667   0.0000000  -0.3846154), wk =   0.0025641
        k(  141) = (   0.1666667   0.0000000  -0.3076923), wk =   0.0025641
        k(  142) = (   0.1666667   0.0000000  -0.2307692), wk =   0.0025641
        k(  143) = (   0.1666667   0.0000000  -0.1538462), wk =   0.0025641
        k(  144) = (   0.1666667   0.0000000  -0.0769231), wk =   0.0025641
        k(  145) = (   0.1666667   0.0500000   0.0000000), wk =   0.0025641
        k(  146) = (   0.1666667   0.0500000   0.0769231), wk =   0.0025641
        k(  147) = (   0.1666667   0.0500000   0.1538462), wk =   0.0025641
        k(  148) = (   0.1666667   0.0500000   0.2307692), wk =   0.0025641
        k(  149) = (   0.1666667   0.0500000   0.3076923), wk =   0.0025641
        k(  150) = (   0.1666667   0.0500000   0.3846154), wk =   0.0025641
        k(  151) = (   0.1666667   0.0500000   0.4615385), wk =   0.0025641
        k(  152) = (   0.1666667   0.0500000  -0.4615385), wk =   0.0025641
        k(  153) = (   0.1666667   0.0500000  -0.3846154), wk =   0.0025641
        k(  154) = (   0.1666667   0.0500000  -0.3076923), wk =   0.0025641
[...]
    -0.0178

          k =-0.2513-1.8028 0.9790 ( 11404 PWs)   bands (ev):

    -3.5850  -3.5850  -3.0391  -3.0391  -2.0320  -2.0319  -1.5849  -1.5849
    -0.7315  -0.7315   0.6255   0.6255   0.9443   0.9443   2.1015   2.1016
     2.3837   2.3837   2.5404   2.5404   3.5797   3.5797   3.8612   3.8613
     4.0375   4.0375   4.5663   4.5663   4.8729   4.8730   5.9516   5.9516
     6.0471   6.0471   6.2682   6.2683   6.8050   6.8050   7.6473   7.6473
     7.8564

     occupation numbers 
     1.0000   1.0000   1.0000   1.0000   1.0000   1.0000   1.0000   1.0000
     1.0000   1.0000   1.0000   1.0000   1.0000   1.0000   1.0000   1.0000
     1.0000   1.0000   1.0000   1.0000   1.0000   1.0000   1.0000   1.0000
     1.0000   1.0000   1.0000   1.0000   1.0000   1.0000   1.0268   1.0268
     1.0332   1.0332   1.0241   1.0241   0.5809   0.5809  -0.0345  -0.0345
    -0.0205

     the Fermi energy is     6.8626 ev

!    total energy              =    -473.13282840 Ry
     Harris-Foulkes estimate   =    -473.13282840 Ry
     estimated scf accuracy    <          7.7E-13 Ry

     The total energy is the sum of the following terms:

     one-electron contribution =      37.17750175 Ry
     hartree contribution      =      13.29956961 Ry
     xc contribution           =     -90.36675794 Ry
     ewald contribution        =    -120.34493057 Ry
     one-center paw contrib.   =    -312.89536352 Ry
      -> PAW hartree energy AE =       0.86107579 Ry
      -> PAW hartree energy PS =      -0.85913463 Ry
      -> PAW xc energy AE      =     -32.64655292 Ry
      -> PAW xc energy PS      =       1.34732672 Ry
      -> total E_H with PAW    =      13.30151077 Ry
      -> total E_XC with PAW   =    -121.66598414 Ry
     smearing contrib. (-TS)   =      -0.00284774 Ry

     convergence has been achieved in  17 iterations

     Forces acting on atoms (cartesian axes, Ry/au):

     atom    1 type  1   force =    -0.00000969   -0.00000035   -0.00000254
     atom    2 type  1   force =    -0.00035834    0.00000010   -0.00002609
     atom    3 type  1   force =    -0.00064565    0.00000034   -0.00050292
     atom    4 type  1   force =     0.00064495   -0.00000030    0.00050336
     atom    5 type  1   force =     0.00036070   -0.00000004    0.00002640
     atom    6 type  2   force =    -0.00038071   -0.00000072    0.00050091
     atom    7 type  2   force =    -0.00010913   -0.00000029    0.00118560
     atom    8 type  2   force =    -0.00126498    0.00000056   -0.00033536
     atom    9 type  2   force =     0.00126453   -0.00000062    0.00033629
     atom   10 type  2   force =     0.00010701    0.00000027   -0.00118471
     atom   11 type  2   force =     0.00037948    0.00000052   -0.00050050
     atom   12 type  1   force =     0.00001324    0.00000035    0.00000064
     atom   13 type  1   force =    -0.00040812   -0.00000016   -0.00002693
     atom   14 type  1   force =    -0.00066701   -0.00000004   -0.00050412
     atom   15 type  1   force =     0.00066706   -0.00000000    0.00050371
     atom   16 type  1   force =     0.00041059    0.00000010    0.00002702
     atom   17 type  2   force =    -0.00034281   -0.00000002    0.00048836
     atom   18 type  2   force =    -0.00010339   -0.00000040    0.00118721
     atom   19 type  2   force =    -0.00129760    0.00000003   -0.00031840
     atom   20 type  2   force =     0.00129359    0.00000003    0.00031795
     atom   21 type  2   force =     0.00010199    0.00000041   -0.00118683
     atom   22 type  2   force =     0.00034429    0.00000022   -0.00048904
     The non-local contrib.  to forces
     atom    1 type  1   force =    -0.00000253    0.00000088    0.00000631
     atom    2 type  1   force =     0.01430639    0.00000023    0.01407127
     atom    3 type  1   force =     0.01277214   -0.00000056    0.00319520
     atom    4 type  1   force =    -0.01274767    0.00000044   -0.00319076
     atom    5 type  1   force =    -0.01428208   -0.00000025   -0.01405948
     atom    6 type  2   force =    -0.00382380    0.00000005   -0.06217867
     atom    7 type  2   force =     0.03940053   -0.00000013    0.02020810
     atom    8 type  2   force =    -0.00873685   -0.00000024    0.02199836
     atom    9 type  2   force =     0.00873557    0.00000009   -0.02199669
     atom   10 type  2   force =    -0.03939058    0.00000008   -0.02020835
     atom   11 type  2   force =     0.00381386   -0.00000001    0.06217721
     atom   12 type  1   force =     0.00003899   -0.00000088   -0.00000011
     atom   13 type  1   force =     0.01418541   -0.00000045    0.01406207
     atom   14 type  1   force =     0.01271167   -0.00000114    0.00318525
     atom   15 type  1   force =    -0.01268507    0.00000125   -0.00318521
     atom   16 type  1   force =    -0.01416052    0.00000047   -0.01405111
     atom   17 type  2   force =    -0.00377563   -0.00000047   -0.06219111
     atom   18 type  2   force =     0.03942161   -0.00000023    0.02021450
     atom   19 type  2   force =    -0.00877276   -0.00000021    0.02201273
     atom   20 type  2   force =     0.00876738    0.00000036   -0.02201401
     atom   21 type  2   force =    -0.03941259    0.00000027   -0.02021822
     atom   22 type  2   force =     0.00377108    0.00000042    0.06218975
     The ionic contribution  to forces
     atom    1 type  1   force =     0.00019246   -0.00000000    0.00000337
     atom    2 type  1   force =    -0.40855809    0.00000000   -0.40216896
     atom    3 type  1   force =    -0.27593638    0.00000000    0.28399238
     atom    4 type  1   force =     0.27595476   -0.00000000   -0.28397601
     atom    5 type  1   force =     0.40863288   -0.00000000    0.40215310
     atom    6 type  2   force =    -0.30208115   -0.00000000    1.21463672
     atom    7 type  2   force =    -1.08951951   -0.00000000   -1.43144162
     atom    8 type  2   force =    -0.09403335   -0.00000000    0.79724323
     atom    9 type  2   force =     0.09400119    0.00000000   -0.79728590
     atom   10 type  2   force =     1.08947956    0.00000000    1.43145323
     atom   11 type  2   force =     0.30206036    0.00000000   -1.21462477
     atom   12 type  1   force =    -0.00007615    0.00000000    0.00002726
     atom   13 type  1   force =    -0.40918707   -0.00000000   -0.40205041
     atom   14 type  1   force =    -0.27618039   -0.00000000    0.28387462
     atom   15 type  1   force =     0.27617146    0.00000000   -0.28386266
     atom   16 type  1   force =     0.40926261    0.00000000    0.40203515
     atom   17 type  2   force =    -0.30245655    0.00000000    1.21462265
     atom   18 type  2   force =    -1.08988798    0.00000000   -1.43137372
     atom   19 type  2   force =    -0.09431298    0.00000000    0.79728365
     atom   20 type  2   force =     0.09423989   -0.00000000   -0.79730081
     atom   21 type  2   force =     1.08981383   -0.00000000    1.43137522
     atom   22 type  2   force =     0.30242061   -0.00000000   -1.21461574
     The local contribution  to forces
     atom    1 type  1   force =    -0.00019604   -0.00000114   -0.00001102
     atom    2 type  1   force =     0.39557423   -0.00000011    0.38911128
     atom    3 type  1   force =     0.26370749    0.00000083   -0.28663979
     atom    4 type  1   force =    -0.26374088   -0.00000069    0.28662108
     atom    5 type  1   force =    -0.39566067    0.00000018   -0.38910447
     atom    6 type  2   force =     0.30480399   -0.00000075   -1.15796442
     atom    7 type  2   force =     1.05379287   -0.00000017    1.41403678
     atom    8 type  2   force =     0.10077425    0.00000078   -0.81718694
     atom    9 type  2   force =    -0.10074805   -0.00000071    0.81723065
     atom   10 type  2   force =    -1.05375665    0.00000019   -1.41404701
     atom   11 type  2   force =    -0.30478161    0.00000052    1.15795357
     atom   12 type  1   force =     0.00005840    0.00000114   -0.00002589
     atom   13 type  1   force =     0.39625975    0.00000025    0.38900051
     atom   14 type  1   force =     0.26398393    0.00000099   -0.28651477
     atom   15 type  1   force =    -0.26399124   -0.00000112    0.28650350
     atom   16 type  1   force =    -0.39634735   -0.00000032   -0.38899373
     atom   17 type  2   force =     0.30517466    0.00000041   -1.15795190
     atom   18 type  2   force =     1.05414816   -0.00000018    1.41396483
     atom   19 type  2   force =     0.10105286    0.00000023   -0.81722317
     atom   20 type  2   force =    -0.10098571   -0.00000031    0.81724266
     atom   21 type  2   force =    -1.05407619    0.00000015   -1.41396235
     atom   22 type  2   force =    -0.30513929   -0.00000017    1.15794493
     The core correction contribution to forces
     atom    1 type  1   force =     0.00000010   -0.00000009   -0.00000062
     atom    2 type  1   force =    -0.00167726   -0.00000002   -0.00103920
     atom    3 type  1   force =    -0.00118520    0.00000006   -0.00105006
     atom    4 type  1   force =     0.00118241   -0.00000005    0.00104958
     atom    5 type  1   force =     0.00167433    0.00000002    0.00103792
     atom    6 type  2   force =     0.00072396   -0.00000001    0.00600820
     atom    7 type  2   force =    -0.00377946    0.00000001   -0.00161757
     atom    8 type  2   force =     0.00073470    0.00000003   -0.00238908
     atom    9 type  2   force =    -0.00072051   -0.00000001    0.00238844
     atom   10 type  2   force =     0.00377852   -0.00000001    0.00161847
     atom   11 type  2   force =    -0.00070947    0.00000000   -0.00600627
     atom   12 type  1   force =    -0.00000432    0.00000009   -0.00000004
     atom   13 type  1   force =    -0.00166260    0.00000004   -0.00103862
     atom   14 type  1   force =    -0.00117852    0.00000011   -0.00104860
     atom   15 type  1   force =     0.00117557   -0.00000012    0.00104860
     atom   16 type  1   force =     0.00165959   -0.00000005    0.00103739
     atom   17 type  2   force =     0.00071842    0.00000005    0.00600960
     atom   18 type  2   force =    -0.00378164    0.00000002   -0.00161828
     atom   19 type  2   force =     0.00073899    0.00000002   -0.00239069
     atom   20 type  2   force =    -0.00072433   -0.00000004    0.00239036
     atom   21 type  2   force =     0.00378074   -0.00000003    0.00161955
     atom   22 type  2   force =    -0.00070448   -0.00000005   -0.00600772
     The Hubbard contrib.    to forces
     atom    1 type  1   force =     0.00000000    0.00000000    0.00000000
     atom    2 type  1   force =     0.00000000    0.00000000    0.00000000
     atom    3 type  1   force =     0.00000000    0.00000000    0.00000000
     atom    4 type  1   force =     0.00000000    0.00000000    0.00000000
     atom    5 type  1   force =     0.00000000    0.00000000    0.00000000
     atom    6 type  2   force =     0.00000000    0.00000000    0.00000000
     atom    7 type  2   force =     0.00000000    0.00000000    0.00000000
     atom    8 type  2   force =     0.00000000    0.00000000    0.00000000
     atom    9 type  2   force =     0.00000000    0.00000000    0.00000000
     atom   10 type  2   force =     0.00000000    0.00000000    0.00000000
     atom   11 type  2   force =     0.00000000    0.00000000    0.00000000
     atom   12 type  1   force =     0.00000000    0.00000000    0.00000000
     atom   13 type  1   force =     0.00000000    0.00000000    0.00000000
     atom   14 type  1   force =     0.00000000    0.00000000    0.00000000
     atom   15 type  1   force =     0.00000000    0.00000000    0.00000000
     atom   16 type  1   force =     0.00000000    0.00000000    0.00000000
     atom   17 type  2   force =     0.00000000    0.00000000    0.00000000
     atom   18 type  2   force =     0.00000000    0.00000000    0.00000000
     atom   19 type  2   force =     0.00000000    0.00000000    0.00000000
     atom   20 type  2   force =     0.00000000    0.00000000    0.00000000
     atom   21 type  2   force =     0.00000000    0.00000000    0.00000000
     atom   22 type  2   force =     0.00000000    0.00000000    0.00000000
     The SCF correction term to forces
     atom    1 type  1   force =     0.00000001    0.00000000    0.00000000
     atom    2 type  1   force =     0.00000007    0.00000000    0.00000010
     atom    3 type  1   force =    -0.00000002    0.00000000   -0.00000006
     atom    4 type  1   force =     0.00000000   -0.00000000    0.00000005
     atom    5 type  1   force =    -0.00000009    0.00000000   -0.00000009
     atom    6 type  2   force =    -0.00000003   -0.00000001   -0.00000033
     atom    7 type  2   force =     0.00000012   -0.00000001    0.00000048
     atom    8 type  2   force =    -0.00000004   -0.00000002   -0.00000034
     atom    9 type  2   force =     0.00000001    0.00000001    0.00000036
     atom   10 type  2   force =    -0.00000016    0.00000001   -0.00000048
     atom   11 type  2   force =     0.00000002    0.00000001    0.00000032
     atom   12 type  1   force =    -0.00000000    0.00000000   -0.00000000
     atom   13 type  1   force =     0.00000007   -0.00000000    0.00000009
     atom   14 type  1   force =    -0.00000001    0.00000000   -0.00000005
     atom   15 type  1   force =     0.00000002   -0.00000000    0.00000006
     atom   16 type  1   force =    -0.00000006   -0.00000000   -0.00000010
     atom   17 type  2   force =    -0.00000004   -0.00000001   -0.00000031
     atom   18 type  2   force =     0.00000014   -0.00000001    0.00000046
     atom   19 type  2   force =    -0.00000003   -0.00000001   -0.00000034
     atom   20 type  2   force =     0.00000005    0.00000002    0.00000032
     atom   21 type  2   force =    -0.00000011    0.00000001   -0.00000046
     atom   22 type  2   force =     0.00000006    0.00000001    0.00000032

     Total force =     0.004183     Total SCF correction =     0.000001


     Computing stress (Cartesian axis) and pressure

          total   stress  (Ry/bohr**3)                   (kbar)     P=   10.82
   0.00016513   0.00000000  -0.00018236         24.29      0.00    -26.83
   0.00000000   0.00003569   0.00000000          0.00      5.25      0.00
  -0.00018236   0.00000000   0.00001981        -26.83      0.00      2.91

     kinetic stress (kbar)   1623.21      0.00    -16.49
                                0.00   1635.67      0.00
                              -16.49      0.00   1625.79

     local   stress (kbar)   -267.50     -0.00    267.88
                               -0.00   -396.31      0.00
                              267.88      0.00    330.32

     nonloc. stress (kbar)   1275.34     -0.00    -11.64
                               -0.00   1251.88     -0.00
                              -11.64     -0.00   1257.05

     hartree stress (kbar)    269.62     -0.00   -110.11
                               -0.00    407.74     -0.00
                             -110.11     -0.00     56.96

     exc-cor stress (kbar)   2007.11      0.00     -0.47
                                0.00   2005.99     -0.00
                               -0.47     -0.00   2006.13

     corecor stress (kbar)  -2805.89     -0.00      1.94
                               -0.00  -2802.69      0.00
                                1.94      0.00  -2803.35

     ewald   stress (kbar)  -2077.60      0.00   -157.95
                                0.00  -2097.02     -0.00
                             -157.95     -0.00  -2469.99

     hubbard stress (kbar)      0.00      0.00      0.00
                                0.00      0.00      0.00
                                0.00      0.00      0.00

     london  stress (kbar)      0.00      0.00      0.00
                                0.00      0.00      0.00
                                0.00      0.00      0.00

     DFT-D3  stress (kbar)      0.00      0.00      0.00
                                0.00      0.00      0.00
                                0.00      0.00      0.00

     XDM     stress (kbar)      0.00      0.00      0.00
                                0.00      0.00      0.00
                                0.00      0.00      0.00

     dft-nl  stress (kbar)      0.00      0.00      0.00
                                0.00      0.00      0.00
                                0.00      0.00      0.00

     TS-vdW  stress (kbar)      0.00      0.00      0.00
                                0.00      0.00      0.00
                                0.00      0.00      0.00



     Writing output data file aiida.save/
 
     init_run     :     22.32s CPU     22.72s WALL (       1 calls)
     electrons    :    816.67s CPU    829.37s WALL (       1 calls)
     forces       :      8.85s CPU      8.90s WALL (       1 calls)
     stress       :     65.45s CPU     66.43s WALL (       1 calls)

     Called by init_run:
     wfcinit      :     20.62s CPU     20.97s WALL (       1 calls)
     wfcinit:atom :      0.17s CPU      0.18s WALL (     196 calls)
     wfcinit:wfcr :     19.12s CPU     19.43s WALL (     196 calls)
     potinit      :      0.57s CPU      0.57s WALL (       1 calls)
     hinit0       :      0.98s CPU      0.99s WALL (       1 calls)

     Called by electrons:
     c_bands      :    731.70s CPU    742.12s WALL (      18 calls)
     sum_band     :     81.35s CPU     82.99s WALL (      18 calls)
     v_of_rho     :      1.50s CPU      1.60s WALL (      18 calls)
     v_h          :      0.10s CPU      0.11s WALL (      18 calls)
     v_xc         :      1.54s CPU      1.63s WALL (      20 calls)
     newd         :      0.85s CPU      1.33s WALL (      18 calls)
     PAW_pot      :      0.60s CPU      0.60s WALL (      18 calls)
     mix_rho      :      0.55s CPU      0.60s WALL (      18 calls)

     Called by c_bands:
     init_us_2    :     23.99s CPU     24.32s WALL (    7644 calls)
     cegterg      :    570.42s CPU    577.97s WALL (    3528 calls)

     Called by sum_band:
     sum_band:bec :      0.50s CPU      0.50s WALL (    3528 calls)
     addusdens    :      0.82s CPU      1.30s WALL (      18 calls)

     Called by *egterg:
     h_psi        :    388.76s CPU    394.89s WALL (   16305 calls)
     s_psi        :     55.68s CPU     55.81s WALL (   16305 calls)
     g_psi        :      2.68s CPU      2.71s WALL (   12581 calls)
     cdiaghg      :     67.09s CPU     68.21s WALL (   15913 calls)
     cegterg:over :     28.78s CPU     28.95s WALL (   12581 calls)
     cegterg:upda :     24.14s CPU     24.36s WALL (   12581 calls)
     cegterg:last :      8.79s CPU      8.85s WALL (    3806 calls)
     cdiaghg:chol :      4.39s CPU      4.43s WALL (   15913 calls)
     cdiaghg:inve :      0.87s CPU      0.89s WALL (   15913 calls)
     cdiaghg:para :      8.74s CPU      8.81s WALL (   31826 calls)

     Called by h_psi:
     h_psi:pot    :    386.70s CPU    392.83s WALL (   16305 calls)
     h_psi:calbec :     56.01s CPU     56.66s WALL (   16305 calls)
     vloc_psi     :    274.10s CPU    279.43s WALL (   16305 calls)
     add_vuspsi   :     56.43s CPU     56.61s WALL (   16305 calls)

     General routines
     calbec       :    108.65s CPU    110.37s WALL (   20813 calls)
     fft          :      1.23s CPU      1.30s WALL (     259 calls)
     ffts         :      0.19s CPU      0.21s WALL (     286 calls)
     fftw         :    290.47s CPU    295.96s WALL (  979706 calls)
     interpolate  :      0.13s CPU      0.13s WALL (      18 calls)
 
     Parallel routines
     fft_scatt_xy :     37.17s CPU     37.91s WALL (  980251 calls)
     fft_scatt_yz :    110.27s CPU    112.52s WALL (  980251 calls)

     PAW routines
     PAW_pot      :      0.60s CPU      0.60s WALL (      18 calls)
 
     PWSCF        :  15m36.92s CPU  16m18.54s WALL

 
   This run was terminated on:  14:28:46  22Feb2020            

=------------------------------------------------------------------------------=
   JOB DONE.
=------------------------------------------------------------------------------=
