
     Program PWSCF v.6.3 starts on 28Feb2020 at  6:53:51 

     This program is part of the open-source Quantum ESPRESSO suite
     for quantum simulation of materials; please cite
         "P. Giannozzi et al., J. Phys.:Condens. Matter 21 395502 (2009);
         "P. Giannozzi et al., J. Phys.:Condens. Matter 29 465901 (2017);
          URL http://www.quantum-espresso.org", 
     in publications or presentations arising from this work. More details at
     http://www.quantum-espresso.org/quote

 *** WARNING: using old-style file format, will disappear from next version ***

     Parallel version (MPI & OpenMP), running on     396 processor cores
     Number of MPI processes:               396
     Threads/MPI process:                     1

     MPI processes distributed on    11 nodes
     K-points division:     npool     =      36
     R & G space division:  proc/nbgrp/npool/nimage =      11
     Reading input from aiida.in
Warning: card &IONS ignored
Warning: card   !PRESS_CONV_THR = 0.05                 ! JUST FOR VOLUME RELAXATIONS ignored
Warning: card / ignored

     Current dimensions of program PWSCF are:
     Max number of different atomic species (ntypx) = 10
     Max number of k-points (npk) =  40000
     Max angular momentum in pseudopotentials (lmaxx) =  3
               file Al.pbe-n-kjpaw_psl.1.0.0.UPF: wavefunction(s)  3S 3P renormalized
               file Mg.pbe-n-kjpaw_psl.0.3.0.UPF: wavefunction(s)  3S renormalized

     Subspace diagonalization in iterative solution of the eigenvalue problem:
     one sub-group per band group will be used
     scalapack distributed-memory algorithm (size of sub-group:  2*  2 procs)

 
     Parallelization info
     --------------------
     sticks:   dense  smooth     PW     G-vecs:    dense   smooth      PW
     Min        2552    1021    268               415108   104993   14176
     Max        2553    1021    269               415113   104995   14179
     Sum       28079   11231   2949              4566219  1154937  155951
 


     bravais-lattice index     =            0
     lattice parameter (alat)  =      38.3331  a.u.
     unit-cell volume          =   33796.5840 (a.u.)^3
     number of atoms/cell      =          300
     number of atomic types    =            3
     number of electrons       =       899.00
     number of Kohn-Sham states=          540
     kinetic-energy cutoff     =      40.0000  Ry
     charge density cutoff     =     400.0000  Ry
     convergence threshold     =      1.0E-12
     mixing beta               =       0.4000
     number of iterations used =            8  local-TF  mixing
     Exchange-correlation      = PBE ( 1  4  3  4 0 0)

     celldm(1)=  38.333092  celldm(2)=   0.000000  celldm(3)=   0.000000
     celldm(4)=   0.000000  celldm(5)=   0.000000  celldm(6)=   0.000000

     crystal axes: (cart. coord. in units of alat)
               a(1) = (   1.000000   0.000000   0.000000 )  
               a(2) = (   0.000000   0.600000   0.000000 )  
               a(3) = (   0.000000   0.000000   1.000000 )  

     reciprocal axes: (cart. coord. in units 2 pi/alat)
               b(1) = (  1.000000  0.000000  0.000000 )  
               b(2) = (  0.000000  1.666667  0.000000 )  
               b(3) = (  0.000000  0.000000  1.000000 )  


     PseudoPot. # 1 for Al read from file:
     /users/aglensk/Dropbox/Albert/scripts/dotfiles/scripts/potentials/quantum_espresso/pseudo_SSSPefV1.1_alalloy/Al.pbe-n-kjpaw_psl.1.0.0.UPF
     MD5 check sum: cfc449ca30b5f3223ec38ddd88ac046d
     Pseudo is Projector augmented-wave + core cor, Zval =  3.0
     Generated using "atomic" code by A. Dal Corso v.5.1
     Shape of augmentation charge: PSQ
     Using radial grid of 1135 points,  6 beta functions with: 
                l(1) =   0
                l(2) =   0
                l(3) =   1
                l(4) =   1
                l(5) =   2
                l(6) =   2
     Q(r) pseudized with 0 coefficients 


     PseudoPot. # 2 for Mg read from file:
     /users/aglensk/Dropbox/Albert/scripts/dotfiles/scripts/potentials/quantum_espresso/pseudo_SSSPefV1.1_alalloy/Mg.pbe-n-kjpaw_psl.0.3.0.UPF
     MD5 check sum: 24ecedc7f3e3cbe212e682f4413594e4
     Pseudo is Projector augmented-wave + core cor, Zval =  2.0
     Generated using "atomic" code by A. Dal Corso v.5.0.99 svn rev. 10869
     Shape of augmentation charge: PSQ
     Using radial grid of 1129 points,  4 beta functions with: 
                l(1) =   0
                l(2) =   0
                l(3) =   1
                l(4) =   1
     Q(r) pseudized with 0 coefficients 


     PseudoPot. # 3 for Si read from file:
     /users/aglensk/Dropbox/Albert/scripts/dotfiles/scripts/potentials/quantum_espresso/pseudo_SSSPefV1.1_alalloy/Si.pbe-n-rrkjus_psl.1.0.0.UPF
     MD5 check sum: 0b0bb1205258b0d07b9f9672cf965d36
     Pseudo is Ultrasoft + core correction, Zval =  4.0
     Generated using "atomic" code by A. Dal Corso v.5.1
     Using radial grid of 1141 points,  6 beta functions with: 
                l(1) =   0
                l(2) =   0
                l(3) =   1
                l(4) =   1
                l(5) =   2
                l(6) =   2
     Q(r) pseudized with 0 coefficients 


     atomic species   valence    mass     pseudopotential
        Al             3.00    26.98154     Al( 1.00)
        Mg             2.00    24.30500     Mg( 1.00)
        Si             4.00    28.08500     Si( 1.00)

     No symmetry found


                                    s                        frac. trans.

      isym =  1     identity                                     

 cryst.   s( 1) = (     1          0          0      )
                  (     0          1          0      )
                  (     0          0          1      )

 cart.    s( 1) = (  1.0000000  0.0000000  0.0000000 )
                  (  0.0000000  1.0000000  0.0000000 )
                  (  0.0000000  0.0000000  1.0000000 )


   Cartesian axes

     site n.     atom                  positions (alat units)
         1           Al  tau(   1) = (   0.0987958   0.0996771   0.9982197  )
         2           Al  tau(   2) = (   0.9981666   0.5998751   0.9981315  )
         3           Al  tau(   3) = (   0.0986790   0.5999195   0.0986704  )
         4           Al  tau(   4) = (   0.9981568   0.0996684   0.0987596  )
         5           Al  tau(   5) = (   0.0986606   0.0997841   0.1988944  )
         6           Al  tau(   6) = (   0.9981867   0.5998580   0.1988487  )
         7           Al  tau(   7) = (   0.0984838   0.5998810   0.2986208  )
         8           Al  tau(   8) = (   0.9981879   0.0996754   0.2986783  )
         9           Al  tau(   9) = (   0.0983808   0.0998282   0.3983256  )
        10           Al  tau(  10) = (   0.9982229   0.5998857   0.3983247  )
        11           Al  tau(  11) = (   0.0984811   0.5998758   0.4979857  )
        12           Al  tau(  12) = (   0.9981914   0.0996685   0.4979302  )
        13           Al  tau(  13) = (   0.0986569   0.0997846   0.5975944  )
        14           Al  tau(  14) = (   0.9981643   0.5998561   0.5976161  )
        15           Al  tau(  15) = (   0.0986614   0.5999210   0.6973359  )
        16           Al  tau(  16) = (   0.9981545   0.0996641   0.6972674  )
        17           Al  tau(  17) = (   0.0987956   0.0996756   0.7974201  )
        18           Al  tau(  18) = (   0.9981523   0.5998771   0.7974954  )
        19           Al  tau(  19) = (   0.0987335   0.5998746   0.8980896  )
        20           Al  tau(  20) = (   0.9981507   0.0997477   0.8980876  )
        21           Al  tau(  21) = (   0.2984473   0.0997934   0.9979121  )
        22           Al  tau(  22) = (   0.1988177   0.5999078   0.9980643  )
        23           Al  tau(  23) = (   0.2974344   0.5998611   0.0977105  )
        24           Al  tau(  24) = (   0.1991763   0.0998330   0.0989886  )
        25           Al  tau(  25) = (   0.2999132   0.1002750   0.2001471  )
        26           Al  tau(  26) = (   0.1982379   0.5999186   0.1979967  )
        27           Al  tau(  27) = (   0.2960163   0.0004630   0.2957786  )
        28           Al  tau(  28) = (   0.1987077   0.0996148   0.2987268  )
        29           Al  tau(  29) = (   0.2952703   0.1026467   0.3986135  )
        30           Al  tau(  30) = (   0.1976562   0.5997763   0.3983224  )
        31           Al  tau(  31) = (   0.2962558   0.0006519   0.5008530  )
        32           Al  tau(  32) = (   0.1986277   0.0995932   0.4980216  )
        33           Al  tau(  33) = (   0.3000109   0.1004045   0.5962315  )
        34           Al  tau(  34) = (   0.1983230   0.5999266   0.5983957  )
        35           Al  tau(  35) = (   0.2972584   0.5998686   0.6984783  )
        36           Al  tau(  36) = (   0.1992012   0.0998451   0.6969821  )
        37           Al  tau(  37) = (   0.2984691   0.0998128   0.7977449  )
        38           Al  tau(  38) = (   0.1987689   0.5999099   0.7976335  )
        39           Al  tau(  39) = (   0.2985429   0.5998468   0.8980976  )
        40           Al  tau(  40) = (   0.1989212   0.0996626   0.8980863  )
        41           Al  tau(  41) = (   0.4978766   0.0998223   0.9975377  )
        42           Al  tau(  42) = (   0.3981799   0.5998336   0.9976266  )
        43           Al  tau(  43) = (   0.4983291   0.5992132   0.0968973  )
        44           Al  tau(  44) = (   0.3979662   0.0995756   0.0975479  )
        45           Al  tau(  45) = (   0.3954064   0.0000812   0.1954154  )
        46           Al  tau(  46) = (   0.3954820   0.0001807   0.6009107  )
        47           Al  tau(  47) = (   0.4983463   0.5991227   0.6991341  )
        48           Al  tau(  48) = (   0.3981166   0.0996334   0.6984437  )
        49           Al  tau(  49) = (   0.4979234   0.0998322   0.7981627  )
        50           Al  tau(  50) = (   0.3981524   0.5998479   0.7981105  )
        51           Al  tau(  51) = (   0.4978797   0.5998748   0.8981280  )
        52           Al  tau(  52) = (   0.3982386   0.0996826   0.8981071  )
        53           Al  tau(  53) = (   0.6979331   0.0998936   0.9973730  )
        54           Al  tau(  54) = (   0.5976686   0.5996890   0.9973251  )
        55           Al  tau(  55) = (   0.7001499   0.5996817   0.0961539  )
        56           Al  tau(  56) = (   0.5988871   0.0998924   0.0964170  )
        57           Al  tau(  57) = (   0.6969570   0.1013141   0.1996490  )
        58           Al  tau(  58) = (   0.6016552   0.0002574   0.1947951  )
        59           Al  tau(  59) = (   0.7013707   0.0004744   0.2947326  )
        60           Al  tau(  60) = (   0.7024483   0.1032943   0.3977122  )
        61           Al  tau(  61) = (   0.7012269   0.5998941   0.5006254  )
        62           Al  tau(  62) = (   0.6972869   0.1008373   0.5965472  )
        63           Al  tau(  63) = (   0.6022613   0.5999618   0.6018146  )
        64           Al  tau(  64) = (   0.7001839   0.5996071   0.6996778  )
        65           Al  tau(  65) = (   0.5992756   0.0997618   0.6998401  )
        66           Al  tau(  66) = (   0.6982008   0.0998786   0.7985415  )
        67           Al  tau(  67) = (   0.5977014   0.5995833   0.7984783  )
        68           Al  tau(  68) = (   0.6974442   0.5997910   0.8980957  )
        69           Al  tau(  69) = (   0.5976075   0.0996987   0.8981392  )
        70           Al  tau(  70) = (   0.8980488   0.0996883   0.9982150  )
        71           Al  tau(  71) = (   0.7979670   0.5998888   0.9977304  )
        72           Al  tau(  72) = (   0.8983484   0.5999146   0.0985101  )
        73           Al  tau(  73) = (   0.7974942   0.1000016   0.0989005  )
        74           Al  tau(  74) = (   0.8983229   0.0998419   0.1988269  )
        75           Al  tau(  75) = (   0.7992753   0.5998681   0.1971191  )
        76           Al  tau(  76) = (   0.8985773   0.5998646   0.2986180  )
        77           Al  tau(  77) = (   0.7986745   0.0998728   0.2983456  )
        78           Al  tau(  78) = (   0.8986322   0.0998251   0.3983437  )
        79           Al  tau(  79) = (   0.7991533   0.5996932   0.3981319  )
        80           Al  tau(  80) = (   0.8984963   0.5998676   0.4979806  )
        81           Al  tau(  81) = (   0.7982279   0.0995667   0.4980211  )
        82           Al  tau(  82) = (   0.8982623   0.0997924   0.5976247  )
        83           Al  tau(  83) = (   0.7984969   0.5998748   0.5985594  )
        84           Al  tau(  84) = (   0.8982092   0.5999068   0.6973643  )
        85           Al  tau(  85) = (   0.7975864   0.0999311   0.6971313  )
        86           Al  tau(  86) = (   0.8980609   0.0996819   0.7974324  )
        87           Al  tau(  87) = (   0.7979663   0.5998683   0.7978826  )
        88           Al  tau(  88) = (   0.8981385   0.5998717   0.8980739  )
        89           Al  tau(  89) = (   0.7976696   0.0996791   0.8981331  )
        90           Mg  tau(  90) = (   0.4080671   0.0952358   0.3063012  )
        91           Mg  tau(  91) = (   0.5898097   0.0962624   0.3059719  )
        92           Al  tau(  92) = (   0.4984157   0.1030280   0.1930686  )
        93           Si  tau(  93) = (   0.4988328   0.5952541   0.2709765  )
        94           Si  tau(  94) = (   0.3729031   0.5943945   0.3983650  )
        95           Mg  tau(  95) = (   0.4990506   0.0216394   0.3987506  )
        96           Mg  tau(  96) = (   0.4081925   0.0954498   0.4899769  )
        97           Mg  tau(  97) = (   0.5905474   0.0957429   0.4912410  )
        98           Si  tau(  98) = (   0.6269796   0.5952156   0.3976949  )
        99           Si  tau(  99) = (   0.4998273   0.5956665   0.5266197  )
       100           Al  tau( 100) = (   0.4987162   0.1032417   0.6035189  )
       101           Al  tau( 101) = (   0.0987108   0.2998733   0.9981090  )
       102           Al  tau( 102) = (   0.9981444   0.1996672   0.9982197  )
       103           Al  tau( 103) = (   0.0987173   0.1997042   0.0986997  )
       104           Al  tau( 104) = (   0.9981563   0.2998585   0.0987141  )
       105           Al  tau( 105) = (   0.0987619   0.2998088   0.1989108  )
       106           Al  tau( 106) = (   0.9981537   0.1997923   0.1989253  )
       107           Al  tau( 107) = (   0.0986425   0.1997370   0.2985998  )
       108           Al  tau( 108) = (   0.9981552   0.2998793   0.2987055  )
       109           Al  tau( 109) = (   0.0985328   0.2998788   0.3983233  )
       110           Al  tau( 110) = (   0.9981688   0.1997884   0.3983231  )
       111           Al  tau( 111) = (   0.0986621   0.1997373   0.4980088  )
       112           Al  tau( 112) = (   0.9981497   0.2998798   0.4978956  )
       113           Al  tau( 113) = (   0.0987601   0.2998065   0.5975533  )
       114           Al  tau( 114) = (   0.9981548   0.1997809   0.5975446  )
       115           Al  tau( 115) = (   0.0986976   0.1997126   0.6973319  )
       116           Al  tau( 116) = (   0.9981463   0.2998608   0.6973046  )
       117           Al  tau( 117) = (   0.0987077   0.2998727   0.7975265  )
       118           Al  tau( 118) = (   0.9981414   0.1996699   0.7974191  )
       119           Al  tau( 119) = (   0.0988071   0.1996568   0.8980850  )
       120           Al  tau( 120) = (   0.9981637   0.2998704   0.8980733  )
       121           Al  tau( 121) = (   0.2986751   0.2998023   0.9982150  )
       122           Al  tau( 122) = (   0.1989016   0.1997190   0.9981347  )
       123           Al  tau( 123) = (   0.2987663   0.1995354   0.0988135  )
       124           Al  tau( 124) = (   0.1987783   0.2998848   0.0985669  )
       125           Al  tau( 125) = (   0.2985779   0.2997839   0.1989157  )
       126           Al  tau( 126) = (   0.1989677   0.1995283   0.1990106  )
       127           Al  tau( 127) = (   0.2994223   0.1990356   0.2982500  )
       128           Al  tau( 128) = (   0.1991375   0.2996211   0.2985572  )
       129           Al  tau( 129) = (   0.2972983   0.2999564   0.3983409  )
       130           Al  tau( 130) = (   0.1979267   0.2006573   0.3983503  )
       131           Al  tau( 131) = (   0.2996538   0.1989745   0.4985766  )
       132           Al  tau( 132) = (   0.1992074   0.2995615   0.4980403  )
       133           Al  tau( 133) = (   0.2986449   0.2997173   0.5975520  )
       134           Al  tau( 134) = (   0.1989866   0.1995476   0.5974574  )
       135           Al  tau( 135) = (   0.2988502   0.1995397   0.6971323  )
       136           Al  tau( 136) = (   0.1987768   0.2998947   0.6974503  )
       137           Al  tau( 137) = (   0.2986786   0.2997990   0.7974306  )
       138           Al  tau( 138) = (   0.1989134   0.1997080   0.7974985  )
       139           Al  tau( 139) = (   0.2986134   0.1998157   0.8980947  )
       140           Al  tau( 140) = (   0.1988946   0.2998601   0.8980833  )
       141           Al  tau( 141) = (   0.4978782   0.3001976   0.9974352  )
       142           Al  tau( 142) = (   0.3980449   0.1997918   0.9978115  )
       143           Al  tau( 143) = (   0.4980360   0.2019068   0.0962144  )
       144           Al  tau( 144) = (   0.3979039   0.2997024   0.0989386  )
       145           Al  tau( 145) = (   0.4979043   0.3003271   0.1972784  )
       146           Al  tau( 146) = (   0.3980317   0.1990136   0.1990735  )
       147           Al  tau( 147) = (   0.4977341   0.2066369   0.2980013  )
       148           Al  tau( 148) = (   0.3970074   0.3015992   0.2977232  )
       149           Al  tau( 149) = (   0.4978328   0.3032960   0.3983964  )
       150           Al  tau( 150) = (   0.3982746   0.2050849   0.3985560  )
       151           Al  tau( 151) = (   0.4989657   0.2061591   0.4986998  )
       152           Al  tau( 152) = (   0.3973798   0.3013430   0.4989910  )
       153           Al  tau( 153) = (   0.4979179   0.3002853   0.5990963  )
       154           Al  tau( 154) = (   0.3985594   0.1987268   0.5970713  )
       155           Al  tau( 155) = (   0.4981131   0.2020335   0.6999440  )
       156           Al  tau( 156) = (   0.3978711   0.2996627   0.6970293  )
       157           Al  tau( 157) = (   0.4978591   0.3002793   0.7983499  )
       158           Al  tau( 158) = (   0.3980044   0.1997918   0.7978952  )
       159           Al  tau( 159) = (   0.4978807   0.1997883   0.8981142  )
       160           Al  tau( 160) = (   0.3983075   0.2998928   0.8980944  )
       161           Al  tau( 161) = (   0.6973113   0.2998103   0.9982141  )
       162           Al  tau( 162) = (   0.5977671   0.2000302   0.9975932  )
       163           Al  tau( 163) = (   0.6974882   0.1998127   0.0986454  )
       164           Al  tau( 164) = (   0.5979187   0.2997884   0.0988745  )
       165           Al  tau( 165) = (   0.6976002   0.3000456   0.1988339  )
       166           Al  tau( 166) = (   0.5983340   0.1996471   0.1989975  )
       167           Al  tau( 167) = (   0.6967910   0.1995153   0.2980777  )
       168           Al  tau( 168) = (   0.5986754   0.3016709   0.2977115  )
       169           Al  tau( 169) = (   0.6986387   0.3000255   0.3982795  )
       170           Al  tau( 170) = (   0.5977549   0.2055020   0.3984654  )
       171           Al  tau( 171) = (   0.6972973   0.1996469   0.4983630  )
       172           Al  tau( 172) = (   0.5989141   0.3018854   0.4988928  )
       173           Al  tau( 173) = (   0.6977010   0.3001352   0.5976590  )
       174           Al  tau( 174) = (   0.5988777   0.1998775   0.5979214  )
       175           Al  tau( 175) = (   0.6976694   0.1998180   0.6973923  )
       176           Al  tau( 176) = (   0.5979397   0.2999031   0.6972311  )
       177           Al  tau( 177) = (   0.6973170   0.2998080   0.7974315  )
       178           Al  tau( 178) = (   0.5978089   0.2001083   0.7982005  )
       179           Al  tau( 179) = (   0.6973695   0.1999070   0.8981101  )
       180           Al  tau( 180) = (   0.5975466   0.2999634   0.8981063  )
       181           Al  tau( 181) = (   0.8981377   0.2998719   0.9980829  )
       182           Al  tau( 182) = (   0.7975301   0.1997163   0.9981487  )
       183           Al  tau( 183) = (   0.8981151   0.1997125   0.0987036  )
       184           Al  tau( 184) = (   0.7976979   0.2999148   0.0985476  )
       185           Al  tau( 185) = (   0.8980607   0.2998099   0.1989141  )
       186           Al  tau( 186) = (   0.7976666   0.1996968   0.1990328  )
       187           Al  tau( 187) = (   0.8982596   0.1998073   0.2985831  )
       188           Al  tau( 188) = (   0.7972866   0.2996184   0.2985369  )
       189           Al  tau( 189) = (   0.8984055   0.2999097   0.3983204  )
       190           Al  tau( 190) = (   0.7991964   0.2012106   0.3983154  )
       191           Al  tau( 191) = (   0.8982366   0.1997481   0.4980349  )
       192           Al  tau( 192) = (   0.7974095   0.2997256   0.4980764  )
       193           Al  tau( 193) = (   0.8980732   0.2998145   0.5975572  )
       194           Al  tau( 194) = (   0.7977766   0.1996881   0.5974797  )
       195           Al  tau( 195) = (   0.8981478   0.1997475   0.6973508  )
       196           Al  tau( 196) = (   0.7977052   0.2999250   0.6974805  )
       197           Al  tau( 197) = (   0.8981353   0.2998832   0.7975405  )
       198           Al  tau( 198) = (   0.7975596   0.1997304   0.7974940  )
       199           Al  tau( 199) = (   0.8980113   0.1996438   0.8980775  )
       200           Al  tau( 200) = (   0.7975525   0.2998445   0.8980821  )
       201           Al  tau( 201) = (   0.0987796   0.4999311   0.9981836  )
       202           Al  tau( 202) = (   0.9981550   0.3997428   0.9982426  )
       203           Al  tau( 203) = (   0.0986810   0.3996610   0.0987422  )
       204           Al  tau( 204) = (   0.9981404   0.4999642   0.0987649  )
       205           Al  tau( 205) = (   0.0986346   0.4998083   0.1988675  )
       206           Al  tau( 206) = (   0.9981556   0.3996646   0.1989119  )
       207           Al  tau( 207) = (   0.0986578   0.3996798   0.2985542  )
       208           Al  tau( 208) = (   0.9981745   0.4999033   0.2987126  )
       209           Al  tau( 209) = (   0.0984415   0.4997140   0.3983237  )
       210           Al  tau( 210) = (   0.9981724   0.3996626   0.3983206  )
       211           Al  tau( 211) = (   0.0986741   0.3996872   0.4980529  )
       212           Al  tau( 212) = (   0.9981622   0.4999086   0.4978971  )
       213           Al  tau( 213) = (   0.0986376   0.4998118   0.5976013  )
       214           Al  tau( 214) = (   0.9981480   0.3996757   0.5975602  )
       215           Al  tau( 215) = (   0.0986567   0.3996586   0.6972931  )
       216           Al  tau( 216) = (   0.9981385   0.4999558   0.6972710  )
       217           Al  tau( 217) = (   0.0987742   0.4999313   0.7974589  )
       218           Al  tau( 218) = (   0.9981529   0.3997331   0.7973950  )
       219           Al  tau( 219) = (   0.0988100   0.3997504   0.8980806  )
       220           Al  tau( 220) = (   0.9981434   0.4997805   0.8980835  )
       221           Al  tau( 221) = (   0.2985822   0.4998004   0.9980485  )
       222           Al  tau( 222) = (   0.1989318   0.3996704   0.9980661  )
       223           Al  tau( 223) = (   0.2987452   0.3998390   0.0986944  )
       224           Al  tau( 224) = (   0.1987223   0.4996350   0.0985652  )
       225           Al  tau( 225) = (   0.2989403   0.4993713   0.1993020  )
       226           Al  tau( 226) = (   0.1989017   0.3997780   0.1990769  )
       227           Al  tau( 227) = (   0.2986579   0.4001264   0.2981308  )
       228           Al  tau( 228) = (   0.1989517   0.5002442   0.2985896  )
       229           Al  tau( 229) = (   0.2944060   0.4953768   0.3983287  )
       230           Al  tau( 230) = (   0.1976384   0.3987940   0.3983372  )
       231           Al  tau( 231) = (   0.2987203   0.4000701   0.4984704  )
       232           Al  tau( 232) = (   0.1990296   0.5003346   0.4980102  )
       233           Al  tau( 233) = (   0.2988399   0.4993178   0.5971431  )
       234           Al  tau( 234) = (   0.1988883   0.3997480   0.5973762  )
       235           Al  tau( 235) = (   0.2987168   0.3998365   0.6973297  )
       236           Al  tau( 236) = (   0.1986971   0.4996084   0.6974434  )
       237           Al  tau( 237) = (   0.2985850   0.4997820   0.7976229  )
       238           Al  tau( 238) = (   0.1989391   0.3996812   0.7975819  )
       239           Al  tau( 239) = (   0.2986684   0.3996507   0.8980871  )
       240           Al  tau( 240) = (   0.1989670   0.4999602   0.8980888  )
       241           Al  tau( 241) = (   0.4978343   0.4994667   0.9974354  )
       242           Al  tau( 242) = (   0.3980756   0.3996738   0.9980302  )
       243           Al  tau( 243) = (   0.4978454   0.3982280   0.0968011  )
       244           Al  tau( 244) = (   0.3980236   0.5000798   0.0984202  )
       245           Al  tau( 245) = (   0.4980608   0.4956435   0.1947614  )
       246           Al  tau( 246) = (   0.3974184   0.3996335   0.1988095  )
       247           Al  tau( 247) = (   0.4979143   0.3970393   0.2948885  )
       248           Al  tau( 248) = (   0.4005936   0.5021073   0.3001262  )
       249           Al  tau( 249) = (   0.4975718   0.4843894   0.3982250  )
       250           Al  tau( 250) = (   0.3943258   0.3969111   0.3983476  )
       251           Al  tau( 251) = (   0.4979255   0.3970562   0.5016838  )
       252           Al  tau( 252) = (   0.4007301   0.5022231   0.4965566  )
       253           Al  tau( 253) = (   0.4979629   0.4957629   0.6015332  )
       254           Al  tau( 254) = (   0.3973890   0.3996035   0.5976690  )
       255           Al  tau( 255) = (   0.4978574   0.3981733   0.6992149  )
       256           Al  tau( 256) = (   0.3980027   0.5000191   0.6976297  )
       257           Al  tau( 257) = (   0.4978288   0.4993831   0.7983309  )
       258           Al  tau( 258) = (   0.3980587   0.3996590   0.7976216  )
       259           Al  tau( 259) = (   0.4978942   0.3996863   0.8981135  )
       260           Al  tau( 260) = (   0.3982549   0.4998863   0.8980987  )
       261           Al  tau( 261) = (   0.6973858   0.4996932   0.9979190  )
       262           Al  tau( 262) = (   0.5977449   0.3995885   0.9979370  )
       263           Al  tau( 263) = (   0.6972131   0.3997423   0.0986167  )
       264           Al  tau( 264) = (   0.5978011   0.4996877   0.0980052  )
       265           Al  tau( 265) = (   0.6977571   0.4983591   0.1989955  )
       266           Al  tau( 266) = (   0.5983148   0.3997250   0.1988272  )
       267           Al  tau( 267) = (   0.6973231   0.3998886   0.2981208  )
       268           Al  tau( 268) = (   0.5954285   0.5027821   0.3000110  )
       269           Al  tau( 269) = (   0.7018259   0.4949244   0.3982206  )
       270           Al  tau( 270) = (   0.6012640   0.3972335   0.3983082  )
       271           Al  tau( 271) = (   0.6973481   0.3999004   0.4985284  )
       272           Al  tau( 272) = (   0.5950313   0.5028397   0.4962318  )
       273           Al  tau( 273) = (   0.6978240   0.4985054   0.5971626  )
       274           Al  tau( 274) = (   0.5983787   0.3998266   0.5975628  )
       275           Al  tau( 275) = (   0.6972243   0.3997997   0.6973718  )
       276           Al  tau( 276) = (   0.5978077   0.4996366   0.6980104  )
       277           Al  tau( 277) = (   0.6973905   0.4997003   0.7977208  )
       278           Al  tau( 278) = (   0.5977677   0.3996100   0.7977340  )
       279           Al  tau( 279) = (   0.6973473   0.3996168   0.8980823  )
       280           Al  tau( 280) = (   0.5975801   0.4997941   0.8981208  )
       281           Al  tau( 281) = (   0.8980432   0.4999218   0.9981834  )
       282           Al  tau( 282) = (   0.7974673   0.3996804   0.9980884  )
       283           Al  tau( 283) = (   0.8981654   0.3996496   0.0987410  )
       284           Al  tau( 284) = (   0.7978823   0.4994228   0.0984909  )
       285           Al  tau( 285) = (   0.8982574   0.4997485   0.1988572  )
       286           Al  tau( 286) = (   0.7977169   0.3996730   0.1991019  )
       287           Al  tau( 287) = (   0.8982098   0.3996306   0.2985424  )
       288           Al  tau( 288) = (   0.7979350   0.5000292   0.2986130  )
       289           Al  tau( 289) = (   0.8985039   0.4996989   0.3983414  )
       290           Al  tau( 290) = (   0.7991176   0.3984755   0.3983499  )
       291           Al  tau( 291) = (   0.8982058   0.3996782   0.4980778  )
       292           Al  tau( 292) = (   0.7978344   0.5001351   0.4980301  )
       293           Al  tau( 293) = (   0.8982141   0.4997952   0.5976318  )
       294           Al  tau( 294) = (   0.7977697   0.3996666   0.5974092  )
       295           Al  tau( 295) = (   0.8981764   0.3996402   0.6973086  )
       296           Al  tau( 296) = (   0.7978928   0.4994878   0.6974855  )
       297           Al  tau( 297) = (   0.8980567   0.4999193   0.7974490  )
       298           Al  tau( 298) = (   0.7974655   0.3996914   0.7975359  )
       299           Al  tau( 299) = (   0.8980122   0.3997731   0.8980809  )
       300           Al  tau( 300) = (   0.7974356   0.4999668   0.8980882  )

   Crystallographic axes

     site n.     atom                  positions (cryst. coord.)
         1           Al  tau(   1) = (  0.0987958  0.1661285  0.9982197  )
         2           Al  tau(   2) = (  0.9981666  0.9997919  0.9981315  )
         3           Al  tau(   3) = (  0.0986790  0.9998658  0.0986704  )
         4           Al  tau(   4) = (  0.9981568  0.1661140  0.0987596  )
         5           Al  tau(   5) = (  0.0986606  0.1663069  0.1988944  )
         6           Al  tau(   6) = (  0.9981867  0.9997633  0.1988487  )
         7           Al  tau(   7) = (  0.0984838  0.9998017  0.2986208  )
         8           Al  tau(   8) = (  0.9981879  0.1661257  0.2986783  )
         9           Al  tau(   9) = (  0.0983808  0.1663804  0.3983256  )
        10           Al  tau(  10) = (  0.9982229  0.9998094  0.3983247  )
        11           Al  tau(  11) = (  0.0984811  0.9997930  0.4979857  )
        12           Al  tau(  12) = (  0.9981914  0.1661142  0.4979302  )
        13           Al  tau(  13) = (  0.0986569  0.1663077  0.5975944  )
        14           Al  tau(  14) = (  0.9981643  0.9997602  0.5976161  )
        15           Al  tau(  15) = (  0.0986614  0.9998683  0.6973359  )
        16           Al  tau(  16) = (  0.9981545  0.1661069  0.6972674  )
        17           Al  tau(  17) = (  0.0987956  0.1661260  0.7974201  )
        18           Al  tau(  18) = (  0.9981523  0.9997952  0.7974954  )
        19           Al  tau(  19) = (  0.0987335  0.9997910  0.8980896  )
        20           Al  tau(  20) = (  0.9981507  0.1662462  0.8980876  )
        21           Al  tau(  21) = (  0.2984473  0.1663224  0.9979121  )
        22           Al  tau(  22) = (  0.1988177  0.9998463  0.9980643  )
        23           Al  tau(  23) = (  0.2974344  0.9997685  0.0977105  )
        24           Al  tau(  24) = (  0.1991763  0.1663884  0.0989886  )
        25           Al  tau(  25) = (  0.2999132  0.1671251  0.2001471  )
        26           Al  tau(  26) = (  0.1982379  0.9998643  0.1979967  )
        27           Al  tau(  27) = (  0.2960163  0.0007717  0.2957786  )
        28           Al  tau(  28) = (  0.1987077  0.1660247  0.2987268  )
        29           Al  tau(  29) = (  0.2952703  0.1710779  0.3986135  )
        30           Al  tau(  30) = (  0.1976562  0.9996272  0.3983224  )
        31           Al  tau(  31) = (  0.2962558  0.0010865  0.5008530  )
        32           Al  tau(  32) = (  0.1986277  0.1659887  0.4980216  )
        33           Al  tau(  33) = (  0.3000109  0.1673409  0.5962315  )
        34           Al  tau(  34) = (  0.1983230  0.9998777  0.5983957  )
        35           Al  tau(  35) = (  0.2972584  0.9997810  0.6984783  )
        36           Al  tau(  36) = (  0.1992012  0.1664085  0.6969821  )
        37           Al  tau(  37) = (  0.2984691  0.1663547  0.7977449  )
        38           Al  tau(  38) = (  0.1987689  0.9998499  0.7976335  )
        39           Al  tau(  39) = (  0.2985429  0.9997447  0.8980976  )
        40           Al  tau(  40) = (  0.1989212  0.1661044  0.8980863  )
        41           Al  tau(  41) = (  0.4978766  0.1663705  0.9975377  )
        42           Al  tau(  42) = (  0.3981799  0.9997226  0.9976266  )
        43           Al  tau(  43) = (  0.4983291  0.9986887  0.0968973  )
        44           Al  tau(  44) = (  0.3979662  0.1659594  0.0975479  )
        45           Al  tau(  45) = (  0.3954064  0.0001353  0.1954154  )
        46           Al  tau(  46) = (  0.3954820  0.0003011  0.6009107  )
        47           Al  tau(  47) = (  0.4983463  0.9985379  0.6991341  )
        48           Al  tau(  48) = (  0.3981166  0.1660556  0.6984437  )
        49           Al  tau(  49) = (  0.4979234  0.1663870  0.7981627  )
        50           Al  tau(  50) = (  0.3981524  0.9997465  0.7981105  )
        51           Al  tau(  51) = (  0.4978797  0.9997913  0.8981280  )
        52           Al  tau(  52) = (  0.3982386  0.1661376  0.8981071  )
        53           Al  tau(  53) = (  0.6979331  0.1664894  0.9973730  )
        54           Al  tau(  54) = (  0.5976686  0.9994816  0.9973251  )
        55           Al  tau(  55) = (  0.7001499  0.9994694  0.0961539  )
        56           Al  tau(  56) = (  0.5988871  0.1664873  0.0964170  )
        57           Al  tau(  57) = (  0.6969570  0.1688568  0.1996490  )
        58           Al  tau(  58) = (  0.6016552  0.0004290  0.1947951  )
        59           Al  tau(  59) = (  0.7013707  0.0007907  0.2947326  )
        60           Al  tau(  60) = (  0.7024483  0.1721572  0.3977122  )
        61           Al  tau(  61) = (  0.7012269  0.9998235  0.5006254  )
        62           Al  tau(  62) = (  0.6972869  0.1680621  0.5965472  )
        63           Al  tau(  63) = (  0.6022613  0.9999363  0.6018146  )
        64           Al  tau(  64) = (  0.7001839  0.9993453  0.6996778  )
        65           Al  tau(  65) = (  0.5992756  0.1662697  0.6998401  )
        66           Al  tau(  66) = (  0.6982008  0.1664643  0.7985415  )
        67           Al  tau(  67) = (  0.5977014  0.9993054  0.7984783  )
        68           Al  tau(  68) = (  0.6974442  0.9996517  0.8980957  )
        69           Al  tau(  69) = (  0.5976075  0.1661645  0.8981392  )
        70           Al  tau(  70) = (  0.8980488  0.1661472  0.9982150  )
        71           Al  tau(  71) = (  0.7979670  0.9998147  0.9977304  )
        72           Al  tau(  72) = (  0.8983484  0.9998576  0.0985101  )
        73           Al  tau(  73) = (  0.7974942  0.1666694  0.0989005  )
        74           Al  tau(  74) = (  0.8983229  0.1664031  0.1988269  )
        75           Al  tau(  75) = (  0.7992753  0.9997802  0.1971191  )
        76           Al  tau(  76) = (  0.8985773  0.9997743  0.2986180  )
        77           Al  tau(  77) = (  0.7986745  0.1664547  0.2983456  )
        78           Al  tau(  78) = (  0.8986322  0.1663751  0.3983437  )
        79           Al  tau(  79) = (  0.7991533  0.9994886  0.3981319  )
        80           Al  tau(  80) = (  0.8984963  0.9997793  0.4979806  )
        81           Al  tau(  81) = (  0.7982279  0.1659445  0.4980211  )
        82           Al  tau(  82) = (  0.8982623  0.1663206  0.5976247  )
        83           Al  tau(  83) = (  0.7984969  0.9997913  0.5985594  )
        84           Al  tau(  84) = (  0.8982092  0.9998447  0.6973643  )
        85           Al  tau(  85) = (  0.7975864  0.1665518  0.6971313  )
        86           Al  tau(  86) = (  0.8980609  0.1661364  0.7974324  )
        87           Al  tau(  87) = (  0.7979663  0.9997805  0.7978826  )
        88           Al  tau(  88) = (  0.8981385  0.9997862  0.8980739  )
        89           Al  tau(  89) = (  0.7976696  0.1661319  0.8981331  )
        90           Mg  tau(  90) = (  0.4080671  0.1587263  0.3063012  )
        91           Mg  tau(  91) = (  0.5898097  0.1604374  0.3059719  )
        92           Al  tau(  92) = (  0.4984157  0.1717134  0.1930686  )
        93           Si  tau(  93) = (  0.4988328  0.9920902  0.2709765  )
        94           Si  tau(  94) = (  0.3729031  0.9906575  0.3983650  )
        95           Mg  tau(  95) = (  0.4990506  0.0360656  0.3987506  )
        96           Mg  tau(  96) = (  0.4081925  0.1590830  0.4899769  )
        97           Mg  tau(  97) = (  0.5905474  0.1595715  0.4912410  )
        98           Si  tau(  98) = (  0.6269796  0.9920260  0.3976949  )
        99           Si  tau(  99) = (  0.4998273  0.9927776  0.5266197  )
       100           Al  tau( 100) = (  0.4987162  0.1720694  0.6035189  )
       101           Al  tau( 101) = (  0.0987108  0.4997888  0.9981090  )
       102           Al  tau( 102) = (  0.9981444  0.3327787  0.9982197  )
       103           Al  tau( 103) = (  0.0987173  0.3328404  0.0986997  )
       104           Al  tau( 104) = (  0.9981563  0.4997642  0.0987141  )
       105           Al  tau( 105) = (  0.0987619  0.4996814  0.1989108  )
       106           Al  tau( 106) = (  0.9981537  0.3329872  0.1989253  )
       107           Al  tau( 107) = (  0.0986425  0.3328950  0.2985998  )
       108           Al  tau( 108) = (  0.9981552  0.4997988  0.2987055  )
       109           Al  tau( 109) = (  0.0985328  0.4997980  0.3983233  )
       110           Al  tau( 110) = (  0.9981688  0.3329808  0.3983231  )
       111           Al  tau( 111) = (  0.0986621  0.3328955  0.4980088  )
       112           Al  tau( 112) = (  0.9981497  0.4997997  0.4978956  )
       113           Al  tau( 113) = (  0.0987601  0.4996776  0.5975533  )
       114           Al  tau( 114) = (  0.9981548  0.3329682  0.5975446  )
       115           Al  tau( 115) = (  0.0986976  0.3328543  0.6973319  )
       116           Al  tau( 116) = (  0.9981463  0.4997681  0.6973046  )
       117           Al  tau( 117) = (  0.0987077  0.4997878  0.7975265  )
       118           Al  tau( 118) = (  0.9981414  0.3327831  0.7974191  )
       119           Al  tau( 119) = (  0.0988071  0.3327613  0.8980850  )
       120           Al  tau( 120) = (  0.9981637  0.4997840  0.8980733  )
       121           Al  tau( 121) = (  0.2986751  0.4996706  0.9982150  )
       122           Al  tau( 122) = (  0.1989016  0.3328650  0.9981347  )
       123           Al  tau( 123) = (  0.2987663  0.3325589  0.0988135  )
       124           Al  tau( 124) = (  0.1987783  0.4998079  0.0985669  )
       125           Al  tau( 125) = (  0.2985779  0.4996398  0.1989157  )
       126           Al  tau( 126) = (  0.1989677  0.3325471  0.1990106  )
       127           Al  tau( 127) = (  0.2994223  0.3317260  0.2982500  )
       128           Al  tau( 128) = (  0.1991375  0.4993686  0.2985572  )
       129           Al  tau( 129) = (  0.2972983  0.4999273  0.3983409  )
       130           Al  tau( 130) = (  0.1979267  0.3344288  0.3983503  )
       131           Al  tau( 131) = (  0.2996538  0.3316242  0.4985766  )
       132           Al  tau( 132) = (  0.1992074  0.4992691  0.4980403  )
       133           Al  tau( 133) = (  0.2986449  0.4995288  0.5975520  )
       134           Al  tau( 134) = (  0.1989866  0.3325794  0.5974574  )
       135           Al  tau( 135) = (  0.2988502  0.3325662  0.6971323  )
       136           Al  tau( 136) = (  0.1987768  0.4998245  0.6974503  )
       137           Al  tau( 137) = (  0.2986786  0.4996650  0.7974306  )
       138           Al  tau( 138) = (  0.1989134  0.3328468  0.7974985  )
       139           Al  tau( 139) = (  0.2986134  0.3330262  0.8980947  )
       140           Al  tau( 140) = (  0.1988946  0.4997669  0.8980833  )
       141           Al  tau( 141) = (  0.4978782  0.5003294  0.9974352  )
       142           Al  tau( 142) = (  0.3980449  0.3329863  0.9978115  )
       143           Al  tau( 143) = (  0.4980360  0.3365113  0.0962144  )
       144           Al  tau( 144) = (  0.3979039  0.4995040  0.0989386  )
       145           Al  tau( 145) = (  0.4979043  0.5005452  0.1972784  )
       146           Al  tau( 146) = (  0.3980317  0.3316894  0.1990735  )
       147           Al  tau( 147) = (  0.4977341  0.3443949  0.2980013  )
       148           Al  tau( 148) = (  0.3970074  0.5026653  0.2977232  )
       149           Al  tau( 149) = (  0.4978328  0.5054933  0.3983964  )
       150           Al  tau( 150) = (  0.3982746  0.3418082  0.3985560  )
       151           Al  tau( 151) = (  0.4989657  0.3435984  0.4986998  )
       152           Al  tau( 152) = (  0.3973798  0.5022384  0.4989910  )
       153           Al  tau( 153) = (  0.4979179  0.5004755  0.5990963  )
       154           Al  tau( 154) = (  0.3985594  0.3312113  0.5970713  )
       155           Al  tau( 155) = (  0.4981131  0.3367225  0.6999440  )
       156           Al  tau( 156) = (  0.3978711  0.4994378  0.6970293  )
       157           Al  tau( 157) = (  0.4978591  0.5004655  0.7983499  )
       158           Al  tau( 158) = (  0.3980044  0.3329864  0.7978952  )
       159           Al  tau( 159) = (  0.4978807  0.3329805  0.8981142  )
       160           Al  tau( 160) = (  0.3983075  0.4998214  0.8980944  )
       161           Al  tau( 161) = (  0.6973113  0.4996838  0.9982141  )
       162           Al  tau( 162) = (  0.5977671  0.3333837  0.9975932  )
       163           Al  tau( 163) = (  0.6974882  0.3330212  0.0986454  )
       164           Al  tau( 164) = (  0.5979187  0.4996473  0.0988745  )
       165           Al  tau( 165) = (  0.6976002  0.5000761  0.1988339  )
       166           Al  tau( 166) = (  0.5983340  0.3327452  0.1989975  )
       167           Al  tau( 167) = (  0.6967910  0.3325255  0.2980777  )
       168           Al  tau( 168) = (  0.5986754  0.5027849  0.2977115  )
       169           Al  tau( 169) = (  0.6986387  0.5000425  0.3982795  )
       170           Al  tau( 170) = (  0.5977549  0.3425033  0.3984654  )
       171           Al  tau( 171) = (  0.6972973  0.3327449  0.4983630  )
       172           Al  tau( 172) = (  0.5989141  0.5031423  0.4988928  )
       173           Al  tau( 173) = (  0.6977010  0.5002253  0.5976590  )
       174           Al  tau( 174) = (  0.5988777  0.3331292  0.5979214  )
       175           Al  tau( 175) = (  0.6976694  0.3330300  0.6973923  )
       176           Al  tau( 176) = (  0.5979397  0.4998385  0.6972311  )
       177           Al  tau( 177) = (  0.6973170  0.4996800  0.7974315  )
       178           Al  tau( 178) = (  0.5978089  0.3335138  0.7982005  )
       179           Al  tau( 179) = (  0.6973695  0.3331784  0.8981101  )
       180           Al  tau( 180) = (  0.5975466  0.4999389  0.8981063  )
       181           Al  tau( 181) = (  0.8981377  0.4997866  0.9980829  )
       182           Al  tau( 182) = (  0.7975301  0.3328604  0.9981487  )
       183           Al  tau( 183) = (  0.8981151  0.3328542  0.0987036  )
       184           Al  tau( 184) = (  0.7976979  0.4998580  0.0985476  )
       185           Al  tau( 185) = (  0.8980607  0.4996832  0.1989141  )
       186           Al  tau( 186) = (  0.7976666  0.3328281  0.1990328  )
       187           Al  tau( 187) = (  0.8982596  0.3330122  0.2985831  )
       188           Al  tau( 188) = (  0.7972866  0.4993640  0.2985369  )
       189           Al  tau( 189) = (  0.8984055  0.4998495  0.3983204  )
       190           Al  tau( 190) = (  0.7991964  0.3353511  0.3983154  )
       191           Al  tau( 191) = (  0.8982366  0.3329135  0.4980349  )
       192           Al  tau( 192) = (  0.7974095  0.4995427  0.4980764  )
       193           Al  tau( 193) = (  0.8980732  0.4996908  0.5975572  )
       194           Al  tau( 194) = (  0.7977766  0.3328135  0.5974797  )
       195           Al  tau( 195) = (  0.8981478  0.3329125  0.6973508  )
       196           Al  tau( 196) = (  0.7977052  0.4998749  0.6974805  )
       197           Al  tau( 197) = (  0.8981353  0.4998053  0.7975405  )
       198           Al  tau( 198) = (  0.7975596  0.3328840  0.7974940  )
       199           Al  tau( 199) = (  0.8980113  0.3327397  0.8980775  )
       200           Al  tau( 200) = (  0.7975525  0.4997408  0.8980821  )
       201           Al  tau( 201) = (  0.0987796  0.8332185  0.9981836  )
       202           Al  tau( 202) = (  0.9981550  0.6662379  0.9982426  )
       203           Al  tau( 203) = (  0.0986810  0.6661017  0.0987422  )
       204           Al  tau( 204) = (  0.9981404  0.8332737  0.0987649  )
       205           Al  tau( 205) = (  0.0986346  0.8330139  0.1988675  )
       206           Al  tau( 206) = (  0.9981556  0.6661077  0.1989119  )
       207           Al  tau( 207) = (  0.0986578  0.6661331  0.2985542  )
       208           Al  tau( 208) = (  0.9981745  0.8331722  0.2987126  )
       209           Al  tau( 209) = (  0.0984415  0.8328566  0.3983237  )
       210           Al  tau( 210) = (  0.9981724  0.6661043  0.3983206  )
       211           Al  tau( 211) = (  0.0986741  0.6661454  0.4980529  )
       212           Al  tau( 212) = (  0.9981622  0.8331810  0.4978971  )
       213           Al  tau( 213) = (  0.0986376  0.8330196  0.5976013  )
       214           Al  tau( 214) = (  0.9981480  0.6661262  0.5975602  )
       215           Al  tau( 215) = (  0.0986567  0.6660977  0.6972931  )
       216           Al  tau( 216) = (  0.9981385  0.8332596  0.6972710  )
       217           Al  tau( 217) = (  0.0987742  0.8332188  0.7974589  )
       218           Al  tau( 218) = (  0.9981529  0.6662219  0.7973950  )
       219           Al  tau( 219) = (  0.0988100  0.6662507  0.8980806  )
       220           Al  tau( 220) = (  0.9981434  0.8329675  0.8980835  )
       221           Al  tau( 221) = (  0.2985822  0.8330006  0.9980485  )
       222           Al  tau( 222) = (  0.1989318  0.6661174  0.9980661  )
       223           Al  tau( 223) = (  0.2987452  0.6663983  0.0986944  )
       224           Al  tau( 224) = (  0.1987223  0.8327249  0.0985652  )
       225           Al  tau( 225) = (  0.2989403  0.8322855  0.1993020  )
       226           Al  tau( 226) = (  0.1989017  0.6662966  0.1990769  )
       227           Al  tau( 227) = (  0.2986579  0.6668773  0.2981308  )
       228           Al  tau( 228) = (  0.1989517  0.8337404  0.2985896  )
       229           Al  tau( 229) = (  0.2944060  0.8256280  0.3983287  )
       230           Al  tau( 230) = (  0.1976384  0.6646567  0.3983372  )
       231           Al  tau( 231) = (  0.2987203  0.6667835  0.4984704  )
       232           Al  tau( 232) = (  0.1990296  0.8338910  0.4980102  )
       233           Al  tau( 233) = (  0.2988399  0.8321963  0.5971431  )
       234           Al  tau( 234) = (  0.1988883  0.6662466  0.5973762  )
       235           Al  tau( 235) = (  0.2987168  0.6663942  0.6973297  )
       236           Al  tau( 236) = (  0.1986971  0.8326806  0.6974434  )
       237           Al  tau( 237) = (  0.2985850  0.8329699  0.7976229  )
       238           Al  tau( 238) = (  0.1989391  0.6661354  0.7975819  )
       239           Al  tau( 239) = (  0.2986684  0.6660845  0.8980871  )
       240           Al  tau( 240) = (  0.1989670  0.8332671  0.8980888  )
       241           Al  tau( 241) = (  0.4978343  0.8324446  0.9974354  )
       242           Al  tau( 242) = (  0.3980756  0.6661229  0.9980302  )
       243           Al  tau( 243) = (  0.4978454  0.6637134  0.0968011  )
       244           Al  tau( 244) = (  0.3980236  0.8334664  0.0984202  )
       245           Al  tau( 245) = (  0.4980608  0.8260725  0.1947614  )
       246           Al  tau( 246) = (  0.3974184  0.6660559  0.1988095  )
       247           Al  tau( 247) = (  0.4979143  0.6617322  0.2948885  )
       248           Al  tau( 248) = (  0.4005936  0.8368454  0.3001262  )
       249           Al  tau( 249) = (  0.4975718  0.8073157  0.3982250  )
       250           Al  tau( 250) = (  0.3943258  0.6615186  0.3983476  )
       251           Al  tau( 251) = (  0.4979255  0.6617604  0.5016838  )
       252           Al  tau( 252) = (  0.4007301  0.8370385  0.4965566  )
       253           Al  tau( 253) = (  0.4979629  0.8262715  0.6015332  )
       254           Al  tau( 254) = (  0.3973890  0.6660059  0.5976690  )
       255           Al  tau( 255) = (  0.4978574  0.6636222  0.6992149  )
       256           Al  tau( 256) = (  0.3980027  0.8333651  0.6976297  )
       257           Al  tau( 257) = (  0.4978288  0.8323052  0.7983309  )
       258           Al  tau( 258) = (  0.3980587  0.6660984  0.7976216  )
       259           Al  tau( 259) = (  0.4978942  0.6661439  0.8981135  )
       260           Al  tau( 260) = (  0.3982549  0.8331439  0.8980987  )
       261           Al  tau( 261) = (  0.6973858  0.8328220  0.9979190  )
       262           Al  tau( 262) = (  0.5977449  0.6659808  0.9979370  )
       263           Al  tau( 263) = (  0.6972131  0.6662372  0.0986167  )
       264           Al  tau( 264) = (  0.5978011  0.8328128  0.0980052  )
       265           Al  tau( 265) = (  0.6977571  0.8305986  0.1989955  )
       266           Al  tau( 266) = (  0.5983148  0.6662083  0.1988272  )
       267           Al  tau( 267) = (  0.6973231  0.6664809  0.2981208  )
       268           Al  tau( 268) = (  0.5954285  0.8379702  0.3000110  )
       269           Al  tau( 269) = (  0.7018259  0.8248740  0.3982206  )
       270           Al  tau( 270) = (  0.6012640  0.6620559  0.3983082  )
       271           Al  tau( 271) = (  0.6973481  0.6665007  0.4985284  )
       272           Al  tau( 272) = (  0.5950313  0.8380662  0.4962318  )
       273           Al  tau( 273) = (  0.6978240  0.8308424  0.5971626  )
       274           Al  tau( 274) = (  0.5983787  0.6663776  0.5975628  )
       275           Al  tau( 275) = (  0.6972243  0.6663328  0.6973718  )
       276           Al  tau( 276) = (  0.5978077  0.8327276  0.6980104  )
       277           Al  tau( 277) = (  0.6973905  0.8328338  0.7977208  )
       278           Al  tau( 278) = (  0.5977677  0.6660166  0.7977340  )
       279           Al  tau( 279) = (  0.6973473  0.6660279  0.8980823  )
       280           Al  tau( 280) = (  0.5975801  0.8329901  0.8981208  )
       281           Al  tau( 281) = (  0.8980432  0.8332031  0.9981834  )
       282           Al  tau( 282) = (  0.7974673  0.6661340  0.9980884  )
       283           Al  tau( 283) = (  0.8981654  0.6660827  0.0987410  )
       284           Al  tau( 284) = (  0.7978823  0.8323714  0.0984909  )
       285           Al  tau( 285) = (  0.8982574  0.8329142  0.1988572  )
       286           Al  tau( 286) = (  0.7977169  0.6661216  0.1991019  )
       287           Al  tau( 287) = (  0.8982098  0.6660510  0.2985424  )
       288           Al  tau( 288) = (  0.7979350  0.8333820  0.2986130  )
       289           Al  tau( 289) = (  0.8985039  0.8328314  0.3983414  )
       290           Al  tau( 290) = (  0.7991176  0.6641258  0.3983499  )
       291           Al  tau( 291) = (  0.8982058  0.6661304  0.4980778  )
       292           Al  tau( 292) = (  0.7978344  0.8335586  0.4980301  )
       293           Al  tau( 293) = (  0.8982141  0.8329919  0.5976318  )
       294           Al  tau( 294) = (  0.7977697  0.6661110  0.5974092  )
       295           Al  tau( 295) = (  0.8981764  0.6660671  0.6973086  )
       296           Al  tau( 296) = (  0.7978928  0.8324797  0.6974855  )
       297           Al  tau( 297) = (  0.8980567  0.8331988  0.7974490  )
       298           Al  tau( 298) = (  0.7974655  0.6661524  0.7975359  )
       299           Al  tau( 299) = (  0.8980122  0.6662885  0.8980809  )
       300           Al  tau( 300) = (  0.7974356  0.8332780  0.8980882  )

     number of k points=    58  Methfessel-Paxton smearing, width (Ry)=  0.0441
                       cart. coord. in units 2pi/alat
        k(    1) = (   0.0000000   0.0000000   0.0000000), wk =   0.0178571
        k(    2) = (   0.0000000   0.0000000   0.2500000), wk =   0.0357143
        k(    3) = (   0.0000000   0.0000000  -0.5000000), wk =   0.0178571
        k(    4) = (   0.0000000   0.2380952   0.0000000), wk =   0.0357143
        k(    5) = (   0.0000000   0.2380952   0.2500000), wk =   0.0357143
        k(    6) = (   0.0000000   0.2380952  -0.5000000), wk =   0.0357143
        k(    7) = (   0.0000000   0.2380952  -0.2500000), wk =   0.0357143
        k(    8) = (   0.0000000   0.4761905   0.0000000), wk =   0.0357143
        k(    9) = (   0.0000000   0.4761905   0.2500000), wk =   0.0357143
        k(   10) = (   0.0000000   0.4761905  -0.5000000), wk =   0.0357143
        k(   11) = (   0.0000000   0.4761905  -0.2500000), wk =   0.0357143
        k(   12) = (   0.0000000   0.7142857   0.0000000), wk =   0.0357143
        k(   13) = (   0.0000000   0.7142857   0.2500000), wk =   0.0357143
        k(   14) = (   0.0000000   0.7142857  -0.5000000), wk =   0.0357143
        k(   15) = (   0.0000000   0.7142857  -0.2500000), wk =   0.0357143
        k(   16) = (   0.2500000   0.0000000   0.0000000), wk =   0.0357143
        k(   17) = (   0.2500000   0.0000000   0.2500000), wk =   0.0357143
        k(   18) = (   0.2500000   0.0000000  -0.5000000), wk =   0.0357143
        k(   19) = (   0.2500000   0.0000000  -0.2500000), wk =   0.0357143
        k(   20) = (   0.2500000   0.2380952   0.0000000), wk =   0.0357143
        k(   21) = (   0.2500000   0.2380952   0.2500000), wk =   0.0357143
        k(   22) = (   0.2500000   0.2380952  -0.5000000), wk =   0.0357143
        k(   23) = (   0.2500000   0.2380952  -0.2500000), wk =   0.0357143
        k(   24) = (   0.2500000   0.4761905   0.0000000), wk =   0.0357143
        k(   25) = (   0.2500000   0.4761905   0.2500000), wk =   0.0357143
        k(   26) = (   0.2500000   0.4761905  -0.5000000), wk =   0.0357143
        k(   27) = (   0.2500000   0.4761905  -0.2500000), wk =   0.0357143
        k(   28) = (   0.2500000   0.7142857   0.0000000), wk =   0.0357143
        k(   29) = (   0.2500000   0.7142857   0.2500000), wk =   0.0357143
        k(   30) = (   0.2500000   0.7142857  -0.5000000), wk =   0.0357143
        k(   31) = (   0.2500000   0.7142857  -0.2500000), wk =   0.0357143
        k(   32) = (   0.2500000  -0.7142857   0.0000000), wk =   0.0357143
        k(   33) = (   0.2500000  -0.7142857   0.2500000), wk =   0.0357143
        k(   34) = (   0.2500000  -0.7142857  -0.5000000), wk =   0.0357143
        k(   35) = (   0.2500000  -0.7142857  -0.2500000), wk =   0.0357143
        k(   36) = (   0.2500000  -0.4761905   0.0000000), wk =   0.0357143
        k(   37) = (   0.2500000  -0.4761905   0.2500000), wk =   0.0357143
        k(   38) = (   0.2500000  -0.4761905  -0.5000000), wk =   0.0357143
        k(   39) = (   0.2500000  -0.4761905  -0.2500000), wk =   0.0357143
        k(   40) = (   0.2500000  -0.2380952   0.0000000), wk =   0.0357143
        k(   41) = (   0.2500000  -0.2380952   0.2500000), wk =   0.0357143
        k(   42) = (   0.2500000  -0.2380952  -0.5000000), wk =   0.0357143
        k(   43) = (   0.2500000  -0.2380952  -0.2500000), wk =   0.0357143
        k(   44) = (  -0.5000000   0.0000000   0.0000000), wk =   0.0178571
        k(   45) = (  -0.5000000   0.0000000   0.2500000), wk =   0.0357143
        k(   46) = (  -0.5000000   0.0000000  -0.5000000), wk =   0.0178571
        k(   47) = (  -0.5000000   0.2380952   0.0000000), wk =   0.0357143
        k(   48) = (  -0.5000000   0.2380952   0.2500000), wk =   0.0357143
        k(   49) = (  -0.5000000   0.2380952  -0.5000000), wk =   0.0357143
        k(   50) = (  -0.5000000   0.2380952  -0.2500000), wk =   0.0357143
        k(   51) = (  -0.5000000   0.4761905   0.0000000), wk =   0.0357143
        k(   52) = (  -0.5000000   0.4761905   0.2500000), wk =   0.0357143
        k(   53) = (  -0.5000000   0.4761905  -0.5000000), wk =   0.0357143
        k(   54) = (  -0.5000000   0.4761905  -0.2500000), wk =   0.0357143
        k(   55) = (  -0.5000000   0.7142857   0.0000000), wk =   0.0357143
        k(   56) = (  -0.5000000   0.7142857   0.2500000), wk =   0.0357143
        k(   57) = (  -0.5000000   0.7142857  -0.5000000), wk =   0.0357143
        k(   58) = (  -0.5000000   0.7142857  -0.2500000), wk =   0.0357143

                       cryst. coord.
        k(    1) = (   0.0000000   0.0000000   0.0000000), wk =   0.0178571
        k(    2) = (   0.0000000   0.0000000   0.2500000), wk =   0.0357143
        k(    3) = (   0.0000000   0.0000000  -0.5000000), wk =   0.0178571
        k(    4) = (   0.0000000   0.1428571   0.0000000), wk =   0.0357143
        k(    5) = (   0.0000000   0.1428571   0.2500000), wk =   0.0357143
        k(    6) = (   0.0000000   0.1428571  -0.5000000), wk =   0.0357143
        k(    7) = (   0.0000000   0.1428571  -0.2500000), wk =   0.0357143
        k(    8) = (   0.0000000   0.2857143   0.0000000), wk =   0.0357143
        k(    9) = (   0.0000000   0.2857143   0.2500000), wk =   0.0357143
        k(   10) = (   0.0000000   0.2857143  -0.5000000), wk =   0.0357143
        k(   11) = (   0.0000000   0.2857143  -0.2500000), wk =   0.0357143
        k(   12) = (   0.0000000   0.4285714   0.0000000), wk =   0.0357143
        k(   13) = (   0.0000000   0.4285714   0.2500000), wk =   0.0357143
        k(   14) = (   0.0000000   0.4285714  -0.5000000), wk =   0.0357143
        k(   15) = (   0.0000000   0.4285714  -0.2500000), wk =   0.0357143
        k(   16) = (   0.2500000   0.0000000   0.0000000), wk =   0.0357143
        k(   17) = (   0.2500000   0.0000000   0.2500000), wk =   0.0357143
        k(   18) = (   0.2500000   0.0000000  -0.5000000), wk =   0.0357143
        k(   19) = (   0.2500000   0.0000000  -0.2500000), wk =   0.0357143
        k(   20) = (   0.2500000   0.1428571   0.0000000), wk =   0.0357143
        k(   21) = (   0.2500000   0.1428571   0.2500000), wk =   0.0357143
        k(   22) = (   0.2500000   0.1428571  -0.5000000), wk =   0.0357143
        k(   23) = (   0.2500000   0.1428571  -0.2500000), wk =   0.0357143
        k(   24) = (   0.2500000   0.2857143   0.0000000), wk =   0.0357143
        k(   25) = (   0.2500000   0.2857143   0.2500000), wk =   0.0357143
        k(   26) = (   0.2500000   0.2857143  -0.5000000), wk =   0.0357143
        k(   27) = (   0.2500000   0.2857143  -0.2500000), wk =   0.0357143
        k(   28) = (   0.2500000   0.4285714   0.0000000), wk =   0.0357143
        k(   29) = (   0.2500000   0.4285714   0.2500000), wk =   0.0357143
        k(   30) = (   0.2500000   0.4285714  -0.5000000), wk =   0.0357143
        k(   31) = (   0.2500000   0.4285714  -0.2500000), wk =   0.0357143
        k(   32) = (   0.2500000  -0.4285714   0.0000000), wk =   0.0357143
        k(   33) = (   0.2500000  -0.4285714   0.2500000), wk =   0.0357143
        k(   34) = (   0.2500000  -0.4285714  -0.5000000), wk =   0.0357143
        k(   35) = (   0.2500000  -0.4285714  -0.2500000), wk =   0.0357143
        k(   36) = (   0.2500000  -0.2857143   0.0000000), wk =   0.0357143
        k(   37) = (   0.2500000  -0.2857143   0.2500000), wk =   0.0357143
        k(   38) = (   0.2500000  -0.2857143  -0.5000000), wk =   0.0357143
        k(   39) = (   0.2500000  -0.2857143  -0.2500000), wk =   0.0357143
        k(   40) = (   0.2500000  -0.1428571   0.0000000), wk =   0.0357143
        k(   41) = (   0.2500000  -0.1428571   0.2500000), wk =   0.0357143
        k(   42) = (   0.2500000  -0.1428571  -0.5000000), wk =   0.0357143
        k(   43) = (   0.2500000  -0.1428571  -0.2500000), wk =   0.0357143
        k(   44) = (  -0.5000000   0.0000000   0.0000000), wk =   0.0178571
        k(   45) = (  -0.5000000   0.0000000   0.2500000), wk =   0.0357143
        k(   46) = (  -0.5000000   0.0000000  -0.5000000), wk =   0.0178571
        k(   47) = (  -0.5000000   0.1428571   0.0000000), wk =   0.0357143
        k(   48) = (  -0.5000000   0.1428571   0.2500000), wk =   0.0357143
        k(   49) = (  -0.5000000   0.1428571  -0.5000000), wk =   0.0357143
        k(   50) = (  -0.5000000   0.1428571  -0.2500000), wk =   0.0357143
        k(   51) = (  -0.5000000   0.2857143   0.0000000), wk =   0.0357143
        k(   52) = (  -0.5000000   0.2857143   0.2500000), wk =   0.0357143
        k(   53) = (  -0.5000000   0.2857143  -0.5000000), wk =   0.0357143
        k(   54) = (  -0.5000000   0.2857143  -0.2500000), wk =   0.0357143
        k(   55) = (  -0.5000000   0.4285714   0.0000000), wk =   0.0357143
        k(   56) = (  -0.5000000   0.4285714   0.2500000), wk =   0.0357143
        k(   57) = (  -0.5000000   0.4285714  -0.5000000), wk =   0.0357143
        k(   58) = (  -0.5000000   0.4285714  -0.2500000), wk =   0.0357143

     Dense  grid:  4566219 G-vectors     FFT dimensions: ( 250, 150, 250)

     Smooth grid:  1154937 G-vectors     FFT dimensions: ( 160,  96, 160)

     Dynamical RAM for                 wfc:     108.15 MB

     Dynamical RAM for     wfc (w. buffer):     324.44 MB

     Dynamical RAM for           str. fact:      19.00 MB

     Dynamical RAM for           local pot:       0.00 MB

     Dynamical RAM for          nlocal pot:    1071.45 MB

     Dynamical RAM for                qrad:      29.33 MB

     Dynamical RAM for          rho,v,vnew:      38.74 MB

     Dynamical RAM for               rhoin:      12.91 MB

     Dynamical RAM for            rho*nmix:     101.35 MB

     Dynamical RAM for           G-vectors:      24.55 MB

     Dynamical RAM for          h,s,v(r/c):      53.39 MB

     Dynamical RAM for          <psi|beta>:      44.08 MB

     Dynamical RAM for                 psi:     432.59 MB

     Dynamical RAM for                hpsi:     432.59 MB

     Dynamical RAM for                spsi:     432.59 MB

     Dynamical RAM for      wfcinit/wfcrot:     513.62 MB

     Dynamical RAM for           addusdens:      90.08 MB

     Dynamical RAM for          addusforce:     195.05 MB

     Dynamical RAM for         addusstress:      38.44 MB

     Estimated static dynamical RAM per process >       1.64 GB

     Estimated max dynamical RAM per process >       3.00 GB

     Estimated total dynamical RAM >    1189.26 GB

     Initial potential from superposition of free atoms

     starting charge  898.32669, renormalised to  899.00000
     Starting wfcs are 1200 randomized atomic wfcs
     Checking if some PAW data can be deallocated... 
       PAW data deallocated on   15 nodes for type:  1
       PAW data deallocated on  387 nodes for type:  2

     total cpu time spent up to now is      235.9 secs

     Self-consistent Calculation

     iteration #  1     ecut=    40.00 Ry     beta= 0.40
     Davidson diagonalization with overlap
     ethr =  1.00E-02,  avg # of iterations =  3.0

     Threshold (ethr) on eigenvalues was too large:
     Diagonalizing with lowered threshold

     Davidson diagonalization with overlap
     ethr =  2.84E-04,  avg # of iterations =  5.5

     total cpu time spent up to now is     1004.6 secs

     total energy              =  -11709.15381737 Ry
     Harris-Foulkes estimate   =  -11709.41800429 Ry
     estimated scf accuracy    <       2.65413430 Ry

     iteration #  2     ecut=    40.00 Ry     beta= 0.40
     Davidson diagonalization with overlap
     ethr =  2.95E-04,  avg # of iterations =  1.5

     total cpu time spent up to now is     1264.4 secs

     total energy              =  -11708.80874904 Ry
     Harris-Foulkes estimate   =  -11709.17689129 Ry
     estimated scf accuracy    <       1.39760478 Ry

     iteration #  3     ecut=    40.00 Ry     beta= 0.40
     Davidson diagonalization with overlap
     ethr =  1.55E-04,  avg # of iterations =  2.6

     total cpu time spent up to now is     1537.6 secs

     total energy              =  -11708.89798124 Ry
     Harris-Foulkes estimate   =  -11708.90120268 Ry
     estimated scf accuracy    <       0.02642783 Ry

     iteration #  4     ecut=    40.00 Ry     beta= 0.40
     Davidson diagonalization with overlap
     ethr =  2.94E-06,  avg # of iterations =  9.2

     total cpu time spent up to now is     2180.4 secs

     total energy              =  -11708.90894844 Ry
     Harris-Foulkes estimate   =  -11708.90896724 Ry
     estimated scf accuracy    <       0.04464223 Ry

     iteration #  5     ecut=    40.00 Ry     beta= 0.40
     Davidson diagonalization with overlap
     ethr =  2.94E-06,  avg # of iterations =  1.0

     total cpu time spent up to now is     2433.0 secs

     total energy              =  -11708.90730587 Ry
     Harris-Foulkes estimate   =  -11708.90900015 Ry
     estimated scf accuracy    <       0.04447027 Ry

     iteration #  6     ecut=    40.00 Ry     beta= 0.40
     Davidson diagonalization with overlap
     ethr =  2.94E-06,  avg # of iterations =  1.0

     total cpu time spent up to now is     2685.5 secs

     total energy              =  -11708.89503666 Ry
     Harris-Foulkes estimate   =  -11708.90750983 Ry
     estimated scf accuracy    <       0.02698474 Ry

     iteration #  7     ecut=    40.00 Ry     beta= 0.40
     Davidson diagonalization with overlap
     ethr =  2.94E-06,  avg # of iterations =  7.6

     total cpu time spent up to now is     3202.5 secs

     total energy              =  -11708.92030470 Ry
     Harris-Foulkes estimate   =  -11708.92970435 Ry
     estimated scf accuracy    <       0.33044708 Ry

     iteration #  8     ecut=    40.00 Ry     beta= 0.40
     Davidson diagonalization with overlap
     ethr =  2.94E-06,  avg # of iterations =  1.0

     total cpu time spent up to now is     3455.1 secs

     total energy              =  -11708.90052615 Ry
     Harris-Foulkes estimate   =  -11708.92093148 Ry
     estimated scf accuracy    <       0.24148148 Ry

     iteration #  9     ecut=    40.00 Ry     beta= 0.40
     Davidson diagonalization with overlap
     ethr =  2.94E-06,  avg # of iterations =  3.1

     total cpu time spent up to now is     3769.7 secs

     total energy              =  -11708.90128860 Ry
     Harris-Foulkes estimate   =  -11708.90567779 Ry
     estimated scf accuracy    <       0.04815775 Ry

     iteration # 10     ecut=    40.00 Ry     beta= 0.40
     Davidson diagonalization with overlap
     ethr =  2.94E-06,  avg # of iterations =  1.0

     total cpu time spent up to now is     4022.3 secs

     total energy              =  -11708.90122790 Ry
     Harris-Foulkes estimate   =  -11708.90234446 Ry
     estimated scf accuracy    <       0.01261580 Ry

     iteration # 11     ecut=    40.00 Ry     beta= 0.40
     Davidson diagonalization with overlap
     ethr =  1.40E-06,  avg # of iterations =  3.8

     total cpu time spent up to now is     4299.8 secs

     total energy              =  -11708.90136637 Ry
     Harris-Foulkes estimate   =  -11708.90168154 Ry
     estimated scf accuracy    <       0.00347015 Ry

     iteration # 12     ecut=    40.00 Ry     beta= 0.40
     Davidson diagonalization with overlap
     ethr =  3.86E-07,  avg # of iterations =  6.6

     total cpu time spent up to now is     4684.4 secs

     total energy              =  -11708.90222375 Ry
     Harris-Foulkes estimate   =  -11708.90213678 Ry
     estimated scf accuracy    <       0.00046052 Ry

     iteration # 13     ecut=    40.00 Ry     beta= 0.40
     Davidson diagonalization with overlap
     ethr =  5.12E-08,  avg # of iterations =  4.3

     total cpu time spent up to now is     5007.9 secs

     total energy              =  -11708.90211102 Ry
     Harris-Foulkes estimate   =  -11708.90229830 Ry
     estimated scf accuracy    <       0.00228790 Ry

     iteration # 14     ecut=    40.00 Ry     beta= 0.40
     Davidson diagonalization with overlap
     ethr =  5.12E-08,  avg # of iterations =  2.1

     total cpu time spent up to now is     5268.8 secs

     total energy              =  -11708.90213888 Ry
     Harris-Foulkes estimate   =  -11708.90215051 Ry
     estimated scf accuracy    <       0.00072192 Ry

     iteration # 15     ecut=    40.00 Ry     beta= 0.40
     Davidson diagonalization with overlap
     ethr =  5.12E-08,  avg # of iterations =  1.0

     total cpu time spent up to now is     5521.5 secs

     total energy              =  -11708.90212861 Ry
     Harris-Foulkes estimate   =  -11708.90214415 Ry
     estimated scf accuracy    <       0.00055536 Ry

     iteration # 16     ecut=    40.00 Ry     beta= 0.40
     Davidson diagonalization with overlap
     ethr =  5.12E-08,  avg # of iterations =  1.0

     total cpu time spent up to now is     5773.7 secs

     total energy              =  -11708.90211915 Ry
     Harris-Foulkes estimate   =  -11708.90213313 Ry
     estimated scf accuracy    <       0.00037407 Ry

     iteration # 17     ecut=    40.00 Ry     beta= 0.40
     Davidson diagonalization with overlap
     ethr =  4.16E-08,  avg # of iterations =  1.0

     total cpu time spent up to now is     6025.9 secs

     total energy              =  -11708.90211247 Ry
     Harris-Foulkes estimate   =  -11708.90212319 Ry
     estimated scf accuracy    <       0.00023208 Ry

     iteration # 18     ecut=    40.00 Ry     beta= 0.40
     Davidson diagonalization with overlap
     ethr =  2.58E-08,  avg # of iterations =  1.0

     total cpu time spent up to now is     6278.1 secs

     total energy              =  -11708.90210597 Ry
     Harris-Foulkes estimate   =  -11708.90211581 Ry
     estimated scf accuracy    <       0.00011771 Ry

     iteration # 19     ecut=    40.00 Ry     beta= 0.40
     Davidson diagonalization with overlap
     ethr =  1.31E-08,  avg # of iterations =  3.8

     total cpu time spent up to now is     6559.7 secs

     total energy              =  -11708.90211394 Ry
     Harris-Foulkes estimate   =  -11708.90211393 Ry
     estimated scf accuracy    <       0.00000777 Ry

     iteration # 20     ecut=    40.00 Ry     beta= 0.40
     Davidson diagonalization with overlap
     ethr =  8.64E-10,  avg # of iterations =  5.0

     total cpu time spent up to now is     6963.5 secs

     total energy              =  -11708.90211680 Ry
     Harris-Foulkes estimate   =  -11708.90211686 Ry
     estimated scf accuracy    <       0.00000165 Ry

     iteration # 21     ecut=    40.00 Ry     beta= 0.40
     Davidson diagonalization with overlap
     ethr =  1.84E-10,  avg # of iterations =  1.1

     total cpu time spent up to now is     7216.7 secs

     total energy              =  -11708.90211670 Ry
     Harris-Foulkes estimate   =  -11708.90211677 Ry
     estimated scf accuracy    <       0.00000115 Ry

     iteration # 22     ecut=    40.00 Ry     beta= 0.40
     Davidson diagonalization with overlap
     ethr =  1.28E-10,  avg # of iterations =  1.0

     total cpu time spent up to now is     7469.2 secs

     total energy              =  -11708.90211659 Ry
     Harris-Foulkes estimate   =  -11708.90211671 Ry
     estimated scf accuracy    <       0.00000056 Ry

     iteration # 23     ecut=    40.00 Ry     beta= 0.40
     Davidson diagonalization with overlap
     ethr =  6.19E-11,  avg # of iterations =  3.3

     total cpu time spent up to now is     7773.4 secs

     total energy              =  -11708.90211668 Ry
     Harris-Foulkes estimate   =  -11708.90211666 Ry
     estimated scf accuracy    <       0.00000030 Ry

     iteration # 24     ecut=    40.00 Ry     beta= 0.40
     Davidson diagonalization with overlap
     ethr =  3.35E-11,  avg # of iterations =  1.9

     total cpu time spent up to now is     8029.2 secs

     total energy              =  -11708.90211661 Ry
     Harris-Foulkes estimate   =  -11708.90211668 Ry
     estimated scf accuracy    <       0.00000073 Ry

     iteration # 25     ecut=    40.00 Ry     beta= 0.40
     Davidson diagonalization with overlap
     ethr =  3.35E-11,  avg # of iterations =  1.8

     total cpu time spent up to now is     8284.9 secs

     total energy              =  -11708.90211661 Ry
     Harris-Foulkes estimate   =  -11708.90211662 Ry
     estimated scf accuracy    <       0.00000017 Ry

     iteration # 26     ecut=    40.00 Ry     beta= 0.40
     Davidson diagonalization with overlap
     ethr =  1.86E-11,  avg # of iterations =  1.0

     total cpu time spent up to now is     8537.4 secs

     total energy              =  -11708.90211661 Ry
     Harris-Foulkes estimate   =  -11708.90211661 Ry
     estimated scf accuracy    <       0.00000009 Ry

     iteration # 27     ecut=    40.00 Ry     beta= 0.40
     Davidson diagonalization with overlap
     ethr =  1.03E-11,  avg # of iterations =  3.0

     total cpu time spent up to now is     8800.3 secs

     total energy              =  -11708.90211660 Ry
     Harris-Foulkes estimate   =  -11708.90211661 Ry
     estimated scf accuracy    <       0.00000003 Ry

     iteration # 28     ecut=    40.00 Ry     beta= 0.40
     Davidson diagonalization with overlap
     ethr =  3.82E-12,  avg # of iterations =  4.1

     total cpu time spent up to now is     9133.4 secs

     total energy              =  -11708.90211660 Ry
     Harris-Foulkes estimate   =  -11708.90211660 Ry
     estimated scf accuracy    <          1.8E-09 Ry

     iteration # 29     ecut=    40.00 Ry     beta= 0.40
     Davidson diagonalization with overlap
     ethr =  2.01E-13,  avg # of iterations =  4.2

     total cpu time spent up to now is     9485.8 secs

     total energy              =  -11708.90211659 Ry
     Harris-Foulkes estimate   =  -11708.90211659 Ry
     estimated scf accuracy    <          5.9E-11 Ry

     iteration # 30     ecut=    40.00 Ry     beta= 0.40
     Davidson diagonalization with overlap
     ethr =  1.00E-13,  avg # of iterations =  1.2

     total cpu time spent up to now is     9755.0 secs

     total energy              =  -11708.90211658 Ry
     Harris-Foulkes estimate   =  -11708.90211658 Ry
     estimated scf accuracy    <          3.3E-11 Ry

     iteration # 31     ecut=    40.00 Ry     beta= 0.40
     Davidson diagonalization with overlap
     ethr =  1.00E-13,  avg # of iterations =  1.0

     total cpu time spent up to now is    10007.4 secs

     total energy              =  -11708.90211658 Ry
     Harris-Foulkes estimate   =  -11708.90211658 Ry
     estimated scf accuracy    <          1.3E-10 Ry

     iteration # 32     ecut=    40.00 Ry     beta= 0.40
     Davidson diagonalization with overlap
     ethr =  1.00E-13,  avg # of iterations =  1.0

     total cpu time spent up to now is    10259.4 secs

     total energy              =  -11708.90211658 Ry
     Harris-Foulkes estimate   =  -11708.90211658 Ry
     estimated scf accuracy    <          1.2E-12 Ry

     iteration # 33     ecut=    40.00 Ry     beta= 0.40
     Davidson diagonalization with overlap
     ethr =  1.00E-13,  avg # of iterations =  1.0

     total cpu time spent up to now is    10511.7 secs

     total energy              =  -11708.90211658 Ry
     Harris-Foulkes estimate   =  -11708.90211658 Ry
     estimated scf accuracy    <          1.0E-11 Ry

     iteration # 34     ecut=    40.00 Ry     beta= 0.40
     Davidson diagonalization with overlap
     ethr =  1.00E-13,  avg # of iterations =  1.0

     total cpu time spent up to now is    10763.0 secs

     End of self-consistent calculation

          k = 0.0000 0.0000 0.0000 (144307 PWs)   bands (ev):

    -3.3576  -3.0220  -2.9965  -2.9929  -2.9720  -2.6700  -2.6651  -2.6329
    -2.5781  -2.4491  -2.2601  -2.1661  -2.1585  -2.1240  -2.1043  -1.9696
    -1.9496  -1.9486  -1.9426  -1.8876  -1.8775  -1.8761  -1.7924  -1.7475
    -1.7458  -1.6487  -1.6204  -1.6078  -1.5967  -1.5866  -1.5808  -1.5435
    -1.5379  -1.5319  -1.5217  -1.5048  -1.4997  -1.4578  -1.3504  -1.1985
    -1.0310  -1.0300  -0.9212  -0.8981  -0.8161  -0.8141  -0.8041  -0.7276
    -0.7228  -0.6750  -0.5529  -0.5472  -0.5464  -0.5457  -0.5424  -0.5408
    -0.5387  -0.5359  -0.5281  -0.4908  -0.4870  -0.4839  -0.4680  -0.4094
    -0.4074  -0.3400  -0.3246  -0.3153  -0.0890  -0.0865  -0.0565   0.1024
     0.1789   0.1865   0.2380   0.2670   0.2744   0.2787   0.3248   0.4008
     0.4044   0.5076   0.5225   0.5434   0.5448   0.5535   0.5600   0.6231
     0.6452   0.6967   0.8280   0.8292   0.8808   0.8882   0.9045   0.9077
     0.9121   0.9643   0.9667   0.9708   0.9710   0.9994   1.0179   1.0199
     1.0737   1.1002   1.1059   1.1278   1.1850   1.2053   1.2068   1.2111
     1.2145   1.2224   1.2255   1.2300   1.2338   1.2547   1.2598   1.2647
     1.2670   1.2715   1.2757   1.2847   1.2949   1.3006   1.3050   1.3201
     1.3408   1.3426   1.3502   1.3656   1.4107   1.4550   1.4597   1.4817
     1.6047   1.8859   1.9763   2.0088   2.0140   2.0190   2.0896   2.0911
     2.1027   2.1196   2.1209   2.1500   2.1957   2.2282   2.2342   2.2480
     2.2491   2.2549   2.2684   2.2719   2.2733   2.2748   2.2791   2.3069
     2.3121   2.3290   2.3309   2.3363   2.3445   2.3480   2.3505   2.3690
     2.3726   2.3749   2.3760   2.3786   2.4000   2.4018   2.4110   2.4207
     2.4730   2.5092   2.5134   2.5887   2.6006   2.6572   2.6705   2.6726
     2.6966   2.7141   2.7156   2.7415   2.8115   3.0002   3.0049   3.0116
     3.0542   3.0816   3.2197   3.2224   3.2841   3.3147   3.3315   3.3351
     3.3503   3.3541   3.3773   3.3998   3.4053   3.4072   3.4572   3.4577
     3.4733   3.4902   3.5259   3.5525   3.5539   3.5809   3.5874   3.6052
     3.6070   3.6279   3.6324   3.6375   3.6461   3.6467   3.6517   3.6599
     3.6642   3.6652   3.6667   3.6968   3.6997   3.7156   3.7165   3.7187
     3.7471   3.7607   3.7760   3.7777   3.7856   3.8298   3.8815   3.8859
     3.9045   3.9139   3.9177   3.9351   4.0006   4.0166   4.0212   4.0280
     4.0370   4.0441   4.0610   4.0621   4.0655   4.0725   4.0976   4.1003
     4.1055   4.1220   4.1317   4.1344   4.2057   4.2304   4.2330   4.2653
     4.3560   4.5208   4.5556   4.5811   4.5860   4.6327   4.6400   4.6411
     4.6790   4.6848   4.7362   4.7395   4.7474   4.8121   4.8151   4.8159
     4.8198   4.8542   4.8797   4.8806   5.0628   5.0703   5.0719   5.0770
     5.0895   5.0922   5.0953   5.1077   5.1328   5.1380   5.1394   5.1697
     5.1722   5.1745   5.1759   5.1829   5.2002   5.2043   5.2084   5.2266
     5.2327   5.2338   5.3077   5.3675   5.3687   5.3688   5.3738   5.3902
     5.4269   5.4285   5.4561   5.5074   5.5164   5.5342   5.5942   5.6302
     5.7178   5.7187   5.8223   5.8228   5.8474   5.9106   5.9243   6.0229
     6.0266   6.0751   6.0756   6.0894   6.0958   6.1002   6.1097   6.1123
     6.1143   6.1232   6.1287   6.1309   6.1481   6.1507   6.1526   6.1692
     6.1890   6.1897   6.1960   6.2050   6.2071   6.2129   6.2188   6.2494
     6.2640   6.2860   6.2884   6.3117   6.3296   6.3307   6.3583   6.3627
     6.3633   6.3653   6.3855   6.3910   6.3963   6.3994   6.4050   6.4407
     6.4419   6.4429   6.4474   6.4527   6.4611   6.4636   6.4670   6.4685
     6.4855   6.4878   6.4889   6.4924   6.4982   6.5034   6.5046   6.5086
     6.5135   6.5230   6.5260   6.5370   6.5448   6.5504   6.5852   6.5888
     6.5905   6.6076   6.6150   6.6360   6.6766   6.7164   6.7195   6.7972
     6.8000   6.8071   6.8098   6.8158   6.8256   6.8736   6.8782   6.8826
     6.9123   6.9161   6.9590   6.9625   6.9920   7.0644   7.0672   7.0933
     7.1264   7.1354   7.1666   7.1714   7.1772   7.2026   7.2118   7.2322
     7.3930   7.3939   7.3989   7.4254   7.4277   7.4330   7.4495   7.4508
     7.4561   7.4580   7.4644   7.4736   7.4914   7.4930   7.4941   7.4980
     7.5008   7.5048   7.5058   7.5185   7.5231   7.5370   7.5381   7.5395
     7.5495   7.5709   7.5800   7.6247   7.6314   7.6354   7.6453   7.6457
     7.6547   7.6558   7.7364   7.7933   7.7971   7.8252   7.8337   7.8340
     7.8457   7.8501   7.8885   7.8929   7.8948   7.9112   7.9150   7.9163
[...]
     atom  119 type  1   force =    -0.00000004    0.00000001    0.00000003
     atom  120 type  1   force =    -0.00000001    0.00000001    0.00000003
     atom  121 type  1   force =    -0.00000006    0.00000000    0.00000002
     atom  122 type  1   force =    -0.00000006    0.00000001    0.00000000
     atom  123 type  1   force =    -0.00000002   -0.00000001    0.00000003
     atom  124 type  1   force =    -0.00000003   -0.00000000   -0.00000001
     atom  125 type  1   force =     0.00000002   -0.00000001    0.00000003
     atom  126 type  1   force =     0.00000002   -0.00000001   -0.00000000
     atom  127 type  1   force =     0.00000007   -0.00000004    0.00000002
     atom  128 type  1   force =     0.00000005   -0.00000001   -0.00000001
     atom  129 type  1   force =     0.00000005   -0.00000002   -0.00000001
     atom  130 type  1   force =     0.00000008   -0.00000001   -0.00000002
     atom  131 type  1   force =     0.00000007   -0.00000004   -0.00000004
     atom  132 type  1   force =     0.00000005   -0.00000001   -0.00000001
     atom  133 type  1   force =     0.00000002   -0.00000001   -0.00000003
     atom  134 type  1   force =     0.00000003   -0.00000001    0.00000000
     atom  135 type  1   force =    -0.00000002   -0.00000001   -0.00000003
     atom  136 type  1   force =    -0.00000002   -0.00000001    0.00000002
     atom  137 type  1   force =    -0.00000005   -0.00000000   -0.00000000
     atom  138 type  1   force =    -0.00000004    0.00000000    0.00000002
     atom  139 type  1   force =    -0.00000007    0.00000000    0.00000001
     atom  140 type  1   force =    -0.00000007    0.00000001    0.00000002
     atom  141 type  1   force =     0.00000000   -0.00000000    0.00000005
     atom  142 type  1   force =    -0.00000003   -0.00000000    0.00000005
     atom  143 type  1   force =     0.00000000   -0.00000001    0.00000008
     atom  144 type  1   force =    -0.00000000   -0.00000000    0.00000006
     atom  145 type  1   force =     0.00000000   -0.00000001    0.00000005
     atom  146 type  1   force =     0.00000002   -0.00000003    0.00000008
     atom  147 type  1   force =    -0.00000000   -0.00000005    0.00000003
     atom  148 type  1   force =     0.00000001   -0.00000002    0.00000002
     atom  149 type  1   force =     0.00000000   -0.00000004   -0.00000001
     atom  150 type  1   force =     0.00000003   -0.00000006   -0.00000001
     atom  151 type  1   force =     0.00000000   -0.00000006   -0.00000004
     atom  152 type  1   force =     0.00000002   -0.00000003   -0.00000004
     atom  153 type  1   force =     0.00000001   -0.00000002   -0.00000005
     atom  154 type  1   force =     0.00000002   -0.00000004   -0.00000009
     atom  155 type  1   force =     0.00000001   -0.00000001   -0.00000007
     atom  156 type  1   force =     0.00000000   -0.00000000   -0.00000005
     atom  157 type  1   force =     0.00000001   -0.00000000   -0.00000004
     atom  158 type  1   force =    -0.00000002   -0.00000000   -0.00000003
     atom  159 type  1   force =     0.00000001   -0.00000000    0.00000001
     atom  160 type  1   force =    -0.00000003    0.00000000    0.00000001
     atom  161 type  1   force =     0.00000006   -0.00000000    0.00000001
     atom  162 type  1   force =     0.00000004   -0.00000001    0.00000004
     atom  163 type  1   force =     0.00000003   -0.00000001    0.00000003
     atom  164 type  1   force =     0.00000001    0.00000000    0.00000006
     atom  165 type  1   force =    -0.00000001   -0.00000000    0.00000003
     atom  166 type  1   force =    -0.00000002   -0.00000004    0.00000008
     atom  167 type  1   force =    -0.00000006   -0.00000003    0.00000002
     atom  168 type  1   force =    -0.00000001   -0.00000002    0.00000002
     atom  169 type  1   force =    -0.00000004   -0.00000001   -0.00000002
     atom  170 type  1   force =    -0.00000003   -0.00000005   -0.00000001
     atom  171 type  1   force =    -0.00000008   -0.00000003   -0.00000004
     atom  172 type  1   force =    -0.00000002   -0.00000003   -0.00000003
     atom  173 type  1   force =    -0.00000002   -0.00000001   -0.00000003
     atom  174 type  1   force =    -0.00000002   -0.00000003   -0.00000008
     atom  175 type  1   force =     0.00000002   -0.00000000   -0.00000002
     atom  176 type  1   force =     0.00000000   -0.00000000   -0.00000005
     atom  177 type  1   force =     0.00000005   -0.00000000    0.00000000
     atom  178 type  1   force =     0.00000003   -0.00000000   -0.00000003
     atom  179 type  1   force =     0.00000007    0.00000000    0.00000001
     atom  180 type  1   force =     0.00000004    0.00000000    0.00000001
     atom  181 type  1   force =     0.00000004    0.00000000   -0.00000002
     atom  182 type  1   force =     0.00000005    0.00000000    0.00000000
     atom  183 type  1   force =     0.00000002    0.00000001   -0.00000004
     atom  184 type  1   force =     0.00000003   -0.00000001   -0.00000001
     atom  185 type  1   force =     0.00000000   -0.00000000   -0.00000005
     atom  186 type  1   force =    -0.00000001   -0.00000001   -0.00000001
     atom  187 type  1   force =    -0.00000003   -0.00000000   -0.00000004
     atom  188 type  1   force =    -0.00000004   -0.00000000   -0.00000001
     atom  189 type  1   force =    -0.00000004   -0.00000000   -0.00000002
     atom  190 type  1   force =    -0.00000007   -0.00000000   -0.00000002
     atom  191 type  1   force =    -0.00000003    0.00000000    0.00000000
     atom  192 type  1   force =    -0.00000005   -0.00000000   -0.00000002
     atom  193 type  1   force =    -0.00000001   -0.00000000    0.00000004
     atom  194 type  1   force =    -0.00000003   -0.00000000    0.00000001
     atom  195 type  1   force =     0.00000001    0.00000000    0.00000005
     atom  196 type  1   force =     0.00000002   -0.00000001    0.00000003
     atom  197 type  1   force =     0.00000003    0.00000000    0.00000005
     atom  198 type  1   force =     0.00000005    0.00000000    0.00000002
     atom  199 type  1   force =     0.00000003    0.00000001    0.00000002
     atom  200 type  1   force =     0.00000007    0.00000000    0.00000002
     atom  201 type  1   force =    -0.00000004   -0.00000000   -0.00000002
     atom  202 type  1   force =    -0.00000001   -0.00000002   -0.00000003
     atom  203 type  1   force =    -0.00000003   -0.00000001   -0.00000004
     atom  204 type  1   force =    -0.00000001   -0.00000000   -0.00000004
     atom  205 type  1   force =     0.00000001    0.00000000   -0.00000004
     atom  206 type  1   force =    -0.00000001   -0.00000001   -0.00000006
     atom  207 type  1   force =     0.00000003    0.00000000   -0.00000004
     atom  208 type  1   force =    -0.00000001    0.00000000   -0.00000005
     atom  209 type  1   force =     0.00000005    0.00000002   -0.00000003
     atom  210 type  1   force =    -0.00000001   -0.00000001   -0.00000002
     atom  211 type  1   force =     0.00000003   -0.00000001    0.00000001
     atom  212 type  1   force =    -0.00000001    0.00000001    0.00000002
     atom  213 type  1   force =     0.00000001    0.00000001    0.00000004
     atom  214 type  1   force =    -0.00000001   -0.00000001    0.00000006
     atom  215 type  1   force =    -0.00000002   -0.00000000    0.00000005
     atom  216 type  1   force =    -0.00000001   -0.00000001    0.00000006
     atom  217 type  1   force =    -0.00000004   -0.00000000    0.00000005
     atom  218 type  1   force =    -0.00000001   -0.00000000    0.00000006
     atom  219 type  1   force =    -0.00000005   -0.00000001    0.00000003
     atom  220 type  1   force =    -0.00000001   -0.00000001    0.00000002
     atom  221 type  1   force =    -0.00000006    0.00000000    0.00000003
     atom  222 type  1   force =    -0.00000006   -0.00000001   -0.00000001
     atom  223 type  1   force =    -0.00000002    0.00000000    0.00000003
     atom  224 type  1   force =    -0.00000002    0.00000001   -0.00000000
     atom  225 type  1   force =     0.00000003    0.00000001    0.00000005
     atom  226 type  1   force =     0.00000001    0.00000001   -0.00000001
     atom  227 type  1   force =     0.00000005    0.00000002    0.00000001
     atom  228 type  1   force =     0.00000006    0.00000001   -0.00000001
     atom  229 type  1   force =     0.00000007    0.00000002   -0.00000002
     atom  230 type  1   force =     0.00000007    0.00000001   -0.00000002
     atom  231 type  1   force =     0.00000005    0.00000002   -0.00000004
     atom  232 type  1   force =     0.00000006    0.00000001   -0.00000002
     atom  233 type  1   force =     0.00000004    0.00000002   -0.00000005
     atom  234 type  1   force =     0.00000002   -0.00000000    0.00000000
     atom  235 type  1   force =    -0.00000001   -0.00000000   -0.00000002
     atom  236 type  1   force =    -0.00000002    0.00000001    0.00000001
     atom  237 type  1   force =    -0.00000005    0.00000001   -0.00000001
     atom  238 type  1   force =    -0.00000005   -0.00000001    0.00000003
     atom  239 type  1   force =    -0.00000007   -0.00000001    0.00000002
     atom  240 type  1   force =    -0.00000006   -0.00000001    0.00000002
     atom  241 type  1   force =     0.00000001    0.00000001    0.00000006
     atom  242 type  1   force =    -0.00000003   -0.00000001    0.00000005
     atom  243 type  1   force =     0.00000000    0.00000001    0.00000008
     atom  244 type  1   force =     0.00000000    0.00000001    0.00000008
     atom  245 type  1   force =     0.00000000    0.00000001    0.00000007
     atom  246 type  1   force =     0.00000002    0.00000002    0.00000006
     atom  247 type  1   force =     0.00000000    0.00000004    0.00000001
     atom  248 type  1   force =     0.00000002    0.00000001    0.00000002
     atom  249 type  1   force =    -0.00000000    0.00000003   -0.00000001
     atom  250 type  1   force =     0.00000002    0.00000004   -0.00000002
     atom  251 type  1   force =     0.00000000    0.00000004   -0.00000004
     atom  252 type  1   force =     0.00000002    0.00000002   -0.00000004
     atom  253 type  1   force =     0.00000000    0.00000001   -0.00000007
     atom  254 type  1   force =     0.00000002    0.00000002   -0.00000006
     atom  255 type  1   force =     0.00000001    0.00000000   -0.00000007
     atom  256 type  1   force =     0.00000000    0.00000001   -0.00000006
     atom  257 type  1   force =     0.00000001    0.00000001   -0.00000005
     atom  258 type  1   force =    -0.00000002   -0.00000001   -0.00000003
     atom  259 type  1   force =     0.00000001   -0.00000001    0.00000001
     atom  260 type  1   force =    -0.00000003    0.00000001    0.00000001
     atom  261 type  1   force =     0.00000005    0.00000001    0.00000002
     atom  262 type  1   force =     0.00000004   -0.00000000    0.00000004
     atom  263 type  1   force =     0.00000002    0.00000000    0.00000003
     atom  264 type  1   force =     0.00000000    0.00000001    0.00000007
     atom  265 type  1   force =    -0.00000003    0.00000002    0.00000004
     atom  266 type  1   force =    -0.00000001    0.00000002    0.00000006
     atom  267 type  1   force =    -0.00000004    0.00000002    0.00000001
     atom  268 type  1   force =    -0.00000001    0.00000001    0.00000002
     atom  269 type  1   force =    -0.00000006    0.00000000   -0.00000002
     atom  270 type  1   force =    -0.00000001    0.00000004   -0.00000002
     atom  271 type  1   force =    -0.00000005    0.00000001   -0.00000004
     atom  272 type  1   force =    -0.00000002    0.00000001   -0.00000004
     atom  273 type  1   force =    -0.00000004    0.00000001   -0.00000004
     atom  274 type  1   force =    -0.00000002    0.00000001   -0.00000006
     atom  275 type  1   force =     0.00000001   -0.00000000   -0.00000002
     atom  276 type  1   force =    -0.00000000    0.00000001   -0.00000006
     atom  277 type  1   force =     0.00000005    0.00000001   -0.00000000
     atom  278 type  1   force =     0.00000003   -0.00000001   -0.00000003
     atom  279 type  1   force =     0.00000007   -0.00000001    0.00000002
     atom  280 type  1   force =     0.00000004    0.00000001    0.00000001
     atom  281 type  1   force =     0.00000004   -0.00000000   -0.00000002
     atom  282 type  1   force =     0.00000006   -0.00000001   -0.00000000
     atom  283 type  1   force =     0.00000003   -0.00000001   -0.00000003
     atom  284 type  1   force =     0.00000002    0.00000001   -0.00000000
     atom  285 type  1   force =    -0.00000001    0.00000000   -0.00000005
     atom  286 type  1   force =    -0.00000001    0.00000000   -0.00000001
     atom  287 type  1   force =    -0.00000003   -0.00000000   -0.00000004
     atom  288 type  1   force =    -0.00000006    0.00000001   -0.00000001
     atom  289 type  1   force =    -0.00000005    0.00000001   -0.00000003
     atom  290 type  1   force =    -0.00000006    0.00000000   -0.00000002
     atom  291 type  1   force =    -0.00000003   -0.00000001    0.00000000
     atom  292 type  1   force =    -0.00000006    0.00000001   -0.00000003
     atom  293 type  1   force =    -0.00000001    0.00000000    0.00000004
     atom  294 type  1   force =    -0.00000002   -0.00000000    0.00000001
     atom  295 type  1   force =     0.00000002   -0.00000001    0.00000006
     atom  296 type  1   force =     0.00000002    0.00000001    0.00000002
     atom  297 type  1   force =     0.00000004   -0.00000000    0.00000004
     atom  298 type  1   force =     0.00000005   -0.00000001    0.00000003
     atom  299 type  1   force =     0.00000005   -0.00000001    0.00000002
     atom  300 type  1   force =     0.00000006   -0.00000000    0.00000002

     Total force =     0.044511     Total SCF correction =     0.000001


     Computing stress (Cartesian axis) and pressure

          total   stress  (Ry/bohr**3)                   (kbar)     P=   -5.12
  -0.00003314   0.00000046   0.00000007         -4.87      0.07      0.01
   0.00000046  -0.00003892   0.00000006          0.07     -5.73      0.01
   0.00000007   0.00000006  -0.00003231          0.01      0.01     -4.75

     kinetic stress (kbar)   1441.53      0.04     -0.00
                                0.04   1440.62     -0.00
                               -0.00     -0.00   1441.62

     local   stress (kbar)    589.68      0.33      0.01
                                0.33    621.34     -0.02
                                0.01     -0.02    589.16

     nonloc. stress (kbar)   1046.71      0.03      0.02
                                0.03   1046.16      0.01
                                0.02      0.01   1046.74

     hartree stress (kbar)     16.68     -0.11     -0.02
                               -0.11      3.11     -0.00
                               -0.02     -0.00     16.88

     exc-cor stress (kbar)    541.16      0.00      0.00
                                0.00    541.14      0.00
                                0.00      0.00    541.16

     corecor stress (kbar)  -1312.70     -0.00     -0.00
                               -0.00  -1312.61     -0.00
                               -0.00     -0.00  -1312.71

     ewald   stress (kbar)  -2327.93     -0.22      0.01
                               -0.22  -2345.49      0.03
                                0.01      0.03  -2327.61

     hubbard stress (kbar)      0.00      0.00      0.00
                                0.00      0.00      0.00
                                0.00      0.00      0.00

     london  stress (kbar)      0.00      0.00      0.00
                                0.00      0.00      0.00
                                0.00      0.00      0.00

     DFT-D3  stress (kbar)      0.00      0.00      0.00
                                0.00      0.00      0.00
                                0.00      0.00      0.00

     XDM     stress (kbar)      0.00      0.00      0.00
                                0.00      0.00      0.00
                                0.00      0.00      0.00

     dft-nl  stress (kbar)      0.00      0.00      0.00
                                0.00      0.00      0.00
                                0.00      0.00      0.00

     TS-vdW  stress (kbar)      0.00      0.00      0.00
                                0.00      0.00      0.00
                                0.00      0.00      0.00



     Writing output data file aiida.save/
 
     init_run     :    230.57s CPU    233.29s WALL (       1 calls)
     electrons    :  10457.96s CPU  10527.63s WALL (       1 calls)
     forces       :    112.08s CPU    113.02s WALL (       1 calls)
     stress       :   1479.57s CPU   1481.58s WALL (       1 calls)

     Called by init_run:
     wfcinit      :    204.21s CPU    206.56s WALL (       1 calls)
     wfcinit:atom :      0.32s CPU      0.59s WALL (       2 calls)
     wfcinit:wfcr :    201.56s CPU    202.80s WALL (       2 calls)
     potinit      :      4.46s CPU      4.60s WALL (       1 calls)
     hinit0       :      6.71s CPU      6.78s WALL (       1 calls)

     Called by electrons:
     c_bands      :   8994.46s CPU   9051.89s WALL (      35 calls)
     sum_band     :   1353.61s CPU   1359.68s WALL (      35 calls)
     v_of_rho     :     46.13s CPU     47.46s WALL (      35 calls)
     v_h          :      5.02s CPU      5.02s WALL (      35 calls)
     v_xc         :     43.02s CPU     44.42s WALL (      37 calls)
     newd         :     11.39s CPU     14.06s WALL (      35 calls)
     PAW_pot      :      9.78s CPU     10.21s WALL (      35 calls)
     mix_rho      :     30.57s CPU     32.20s WALL (      35 calls)

     Called by c_bands:
     init_us_2    :    111.42s CPU    112.03s WALL (     146 calls)
     cegterg      :   7922.76s CPU   7977.51s WALL (      70 calls)

     Called by sum_band:
     sum_band:bec :      2.65s CPU      2.65s WALL (      70 calls)
     addusdens    :     10.34s CPU     13.39s WALL (      35 calls)

     Called by *egterg:
     h_psi        :   5011.25s CPU   5029.06s WALL (     268 calls)
     s_psi        :   1609.77s CPU   1610.45s WALL (     268 calls)
     g_psi        :      5.54s CPU      5.55s WALL (     196 calls)
     cdiaghg      :    565.99s CPU    574.05s WALL (     264 calls)
     cegterg:over :    392.52s CPU    394.82s WALL (     196 calls)
     cegterg:upda :    243.32s CPU    252.16s WALL (     196 calls)
     cegterg:last :    146.87s CPU    146.96s WALL (      70 calls)
     cdiaghg:chol :     25.60s CPU     25.86s WALL (     264 calls)
     cdiaghg:inve :     11.50s CPU     11.50s WALL (     264 calls)
     cdiaghg:para :    128.97s CPU    131.06s WALL (     528 calls)

     Called by h_psi:
     h_psi:pot    :   5005.29s CPU   5014.08s WALL (     268 calls)
     h_psi:calbec :   1590.18s CPU   1590.47s WALL (     268 calls)
     vloc_psi     :   1793.94s CPU   1801.56s WALL (     268 calls)
     add_vuspsi   :   1621.16s CPU   1622.04s WALL (     268 calls)

     General routines
     calbec       :   2362.70s CPU   2363.12s WALL (     348 calls)
     fft          :     50.05s CPU     50.59s WALL (     480 calls)
     ffts         :     14.22s CPU     14.27s WALL (     589 calls)
     fftw         :   1905.31s CPU   1913.62s WALL (  213552 calls)
     interpolate  :      4.58s CPU      4.66s WALL (      35 calls)
 
     Parallel routines
     fft_scatt_xy :    418.47s CPU    420.13s WALL (  214621 calls)
     fft_scatt_yz :    594.74s CPU    599.11s WALL (  214621 calls)

     PAW routines
     PAW_pot      :      9.78s CPU     10.21s WALL (      35 calls)
 
     PWSCF        :      3h28m CPU      3h30m WALL

 
   This run was terminated on:  10:24:49  28Feb2020            

=------------------------------------------------------------------------------=
   JOB DONE.
=------------------------------------------------------------------------------=
