begin
comment 300 atoms, species Al291Mg5Si4
lattice     38.3330918399     0.0000000000     0.0000000000
lattice      0.0000000000    22.9998551039     0.0000000000
lattice      0.0000000000     0.0000000000    38.3330918399
atom      3.7871484748     3.8209314286    38.2648474365   Al  0.0 0.0   -3.10374977e-04  1.99404985e-04  5.58824958e-04
atom     38.2628119493    22.9950673008    38.2614664578   Al  0.0 0.0    5.78049957e-04 -1.94094985e-04  3.85614971e-04
atom      3.7826711697    22.9967692900     3.7823415051   Al  0.0 0.0   -4.89129963e-04 -1.59254988e-04 -6.13209954e-04
atom     38.2624362850     3.8205979307     3.7857608169   Al  0.0 0.0    5.67734957e-04  2.00784985e-04 -4.53704966e-04
atom      3.7819658408     3.8250330695     7.6242373016   Al  0.0 0.0   -5.17429961e-04  2.76874979e-04 -6.26684953e-04
atom     38.2635824445    22.9944118049     7.6224854793   Al  0.0 0.0    5.39074959e-04 -2.11389984e-04 -6.10124954e-04
atom      3.7751885501    22.9952934660    11.4470585517   Al  0.0 0.0   -5.51229959e-04 -2.08119984e-04 -1.58439988e-04
atom     38.2636284442     3.8208662624    11.4492627045   Al  0.0 0.0    5.99694955e-04  2.06354984e-04 -2.22439983e-04
atom      3.7712402417     3.8267235588    15.2690518070   Al  0.0 0.0   -5.42624959e-04  1.29099990e-04 -4.01499970e-05
atom     38.2649701024    22.9954736315    15.2690173072   Al  0.0 0.0    5.72274957e-04 -1.72494987e-04 -3.80749971e-05
atom      3.7750850508    22.9950941339    19.0893315731   Al  0.0 0.0   -5.68559957e-04 -2.19099984e-04  4.20149968e-05
atom     38.2637626100     3.8206017640    19.0872040865   Al  0.0 0.0    5.68999957e-04  2.01979985e-04  1.20444991e-04
atom      3.7818240083     3.8250522360    22.9076410182   Al  0.0 0.0   -5.50954959e-04  2.66339980e-04  3.64599973e-04
atom     38.2627237832    22.9943389720    22.9084728463   Al  0.0 0.0    5.26229960e-04 -2.12894984e-04  3.07529977e-04
atom      3.7819965073    22.9968267897    26.7310410980   Al  0.0 0.0   -4.63984965e-04 -1.61164988e-04  6.84369949e-04
atom     38.2623481189     3.8204330984    26.7284152812   Al  0.0 0.0    5.25254961e-04  1.79889986e-04  5.27039960e-04
atom      3.7871408082     3.8208739290    30.5675779283   Al  0.0 0.0   -2.96384978e-04  2.03489985e-04  2.76264979e-04
atom     38.2622637861    22.9951439669    30.5704644101   Al  0.0 0.0    5.40119959e-04 -1.91344986e-04  4.09994969e-04
atom      3.7847603232    22.9950481342    34.4265511172   Al  0.0 0.0   -4.72734964e-04 -1.91139986e-04 -4.63469965e-04
atom     38.2622024531     3.8236377449    34.4264744511   Al  0.0 0.0    5.09129962e-04  2.37619982e-04 -4.70754965e-04
atom     11.4404077603     3.8253895672    38.2530561774   Al  0.0 0.0   -3.80924971e-04  2.86209978e-04  2.71919980e-04
atom      7.6212971535    22.9963207929    38.2588904740   Al  0.0 0.0   -8.09454939e-04 -1.78089987e-04  2.67474980e-04
atom     11.4015801715    22.9945306375     3.7455455702   Al  0.0 0.0   -3.61169973e-04 -1.08994992e-04 -4.75764964e-04
atom      7.6350434002     3.8269075577     3.7945390949   Al  0.0 0.0   -6.49049951e-04  4.03459970e-04 -4.87694963e-04
atom     11.4966002396     3.8438507842     7.6722571658   Al  0.0 0.0   -1.03105992e-03 -1.93839985e-04 -1.69253987e-03
atom      7.5990716268    22.9967347903     7.5898256851   Al  0.0 0.0   -8.35459937e-04 -1.50669989e-04 -1.01640992e-03
atom     11.3472200140     0.0177482215    11.3381082381   Al  0.0 0.0   -6.60709950e-04 -1.16174491e-03  5.50254959e-04
atom      7.6170805134     3.8185432770    11.4511218594   Al  0.0 0.0   -1.19129991e-03  4.84894964e-04 -3.03874977e-04
atom     11.3186235275     3.9347653782    15.2800879041   Al  0.0 0.0   -6.77649949e-04 -1.40573989e-03 -5.15209961e-04
atom      7.5767732673    22.9912799913    15.2689291411   Al  0.0 0.0   -7.44284944e-04 -1.14754991e-04 -3.89999971e-07
atom     11.3564007895     0.0249893426    19.1992440473   Al  0.0 0.0   -9.24809930e-04 -1.45291989e-03 -5.66824957e-04
atom      7.6140138660     3.8177152822    19.0907077310   Al  0.0 0.0   -1.17414991e-03  5.36604960e-04  8.70799935e-05
atom     11.5003453827     3.8488149196    22.8553968473   Al  0.0 0.0   -9.49064929e-04 -4.07024969e-04  1.73289487e-03
atom      7.6023337730    22.9970414550    22.9383573247   Al  0.0 0.0   -8.90799933e-04 -1.40879989e-04  8.34744937e-04
atom     11.3948335474    22.9948181357    26.7748328221   Al  0.0 0.0    6.56849951e-05 -9.54999928e-05  1.68114987e-04
atom      7.6359978942     3.8273713881    26.7174788501   Al  0.0 0.0   -6.67394950e-04  4.28924968e-04  6.29679953e-04
atom     11.4412434217     3.8261332292    30.5800285165   Al  0.0 0.0   -3.99784970e-04  3.05449977e-04  5.59854958e-04
atom      7.6194264986    22.9964012924    30.5757582101   Al  0.0 0.0   -8.16759939e-04 -1.82854986e-04  5.67059957e-04
atom     11.4440724038    22.9939824743    34.4268577820   Al  0.0 0.0   -3.82824971e-04 -2.17309984e-04 -4.73514964e-04
atom      7.6252646285     3.8203755988    34.4264246180   Al  0.0 0.0   -6.24819953e-04  1.88639986e-04 -4.78469964e-04
atom     19.0851494327     3.8264973936    38.2387042679   Al  0.0 0.0    1.16029991e-04  1.18884991e-04  3.68839972e-04
atom     15.2634666755    22.9934764775    38.2421120797   Al  0.0 0.0    6.15099954e-05 -2.92099978e-04  4.56539966e-04
atom     19.1024951568    22.9696946273     3.7143730999   Al  0.0 0.0   -8.33749937e-05  6.04079955e-04 -8.97559933e-04
atom     15.2552748938     3.8170406198     3.7393126095   Al  0.0 0.0    4.06094969e-04  3.46029974e-04 -4.37299967e-04
atom     15.1571498453     0.0031126471     7.4908764751   Al  0.0 0.0    5.12389961e-04 -6.93754948e-04 -1.24348991e-03
atom     15.1600478270     0.0069267897    23.0347650507   Al  0.0 0.0    3.57174973e-04 -7.50729944e-04  1.23739991e-03
atom     19.1031544860    22.9662254825    26.7999716637   Al  0.0 0.0    1.90499986e-05  7.39324944e-04  9.89779926e-04
atom     15.2610401908     3.8192562725    26.7735064971   Al  0.0 0.0    2.30034983e-04  1.90789986e-04  5.72219957e-04
atom     19.0869434214     3.8268768912    30.5960440823   Al  0.0 0.0    1.76659987e-04  9.37499930e-05  4.79594964e-04
atom     15.2624125155    22.9940246407    30.5940430949   Al  0.0 0.0    1.45844989e-04 -3.01369977e-04  2.97544978e-04
atom     19.0852682653    22.9950558008    34.4280231080   Al  0.0 0.0   -2.72049980e-05 -1.61954988e-04 -5.01824962e-04
atom     15.2657168280     3.8211422606    34.4272219464   Al  0.0 0.0   -1.35899990e-04  1.77479987e-04 -4.94014963e-04
atom     26.7539336204     3.8292305430    38.2323908076   Al  0.0 0.0    4.69779965e-04  3.63364973e-04  4.25294968e-04
atom     22.9104853336    22.9879335124    38.2305546525   Al  0.0 0.0    3.06519977e-04 -1.35089990e-04  5.95294955e-04
atom     26.8389104184    22.9876536808     3.6858762795   Al  0.0 0.0   -1.51606989e-03  1.31249990e-05  1.74485487e-03
atom     22.9571942060     3.8291845433     3.6959617159   Al  0.0 0.0   -8.03679940e-04 -1.88624986e-04  9.87609926e-04
atom     26.7165166895     3.8836827000     7.6531634527   Al  0.0 0.0    8.54554936e-04 -1.81642986e-03 -1.78202487e-03
atom     23.0633040375     0.0098669378     7.4670984583   Al  0.0 0.0    4.41509967e-04 -4.82384964e-04 -1.88544486e-03
atom     26.8857074569     0.0181852188    11.2980118240   Al  0.0 0.0    1.37674490e-03 -1.11931492e-03 -6.96419948e-04
atom     26.9270151967     3.9595898884    15.2455382884   Al  0.0 0.0    5.29179960e-04 -1.01601992e-03  6.73109949e-04
atom     26.8801951583    22.9957956295    19.1905194356   Al  0.0 0.0    1.21836491e-03 -6.64784950e-04  1.13906991e-03
atom     26.7291627765     3.8654054818    22.8674986044   Al  0.0 0.0    5.62779958e-04 -1.16708991e-03  1.64572988e-03
atom     23.0865377245    22.9983907798    23.0694143324   Al  0.0 0.0    5.71344957e-04 -2.13269984e-04  1.80960986e-03
atom     26.8402137435    22.9847940321    26.8208133657   Al  0.0 0.0   -1.27521990e-03  8.91499933e-05 -1.13183991e-03
atom     22.9720866122     3.8241782415    26.8270348265   Al  0.0 0.0   -1.12322992e-03 -5.42849959e-05 -1.11604992e-03
atom     26.7641953891     3.8286555466    30.6105646575   Al  0.0 0.0    1.80769986e-04  3.39544974e-04  9.07499932e-05
atom     22.9117426590    22.9838817046    30.6081420061   Al  0.0 0.0    3.15319976e-04 -1.24849991e-05  1.58454988e-04
atom     26.7351925718    22.9918434877    34.4267849491   Al  0.0 0.0    7.63369943e-04 -3.35284975e-04 -4.26854968e-04
atom     22.9081431817     3.8217594234    34.4284524386   Al  0.0 0.0    2.18929984e-04  1.97629985e-04 -5.16959961e-04
atom     34.4249871271     3.8213607593    38.2646672710   Al  0.0 0.0   -3.93449970e-04  2.55049981e-04  5.53454958e-04
atom     30.5885422962    22.9955924641    38.2460910546   Al  0.0 0.0    1.02554492e-03 -2.30059983e-04  4.14299969e-05
atom     34.4364717214    22.9965814579     3.7761967105   Al  0.0 0.0   -8.11549939e-05 -1.81004986e-04 -7.98074940e-04
atom     30.5704184104     3.8333705169     3.7911619495   Al  0.0 0.0    8.38999937e-04  5.52824958e-04 -8.09714939e-04
atom     34.4354942276     3.8272487222     7.6216498179   Al  0.0 0.0    1.10299992e-05  3.31259975e-04 -7.90489941e-04
atom     30.6386934803    22.9947989691     7.5561845637   Al  0.0 0.0   -3.38124975e-04 -1.66274988e-04 -1.62214988e-04
atom     34.4452461661    22.9946648033    11.4469512190   Al  0.0 0.0   -1.38929990e-04 -2.47394981e-04 -2.46189981e-04
atom     30.6156629587     3.8284332147    11.4365092848   Al  0.0 0.0    6.82319949e-04  1.78669987e-04 -2.78669979e-04
atom     34.4473506529     3.8266047262    15.2697456359   Al  0.0 0.0   -1.32839990e-04  1.27534990e-04 -2.86849978e-05
atom     30.6340168430    22.9880945114    15.2616266871   Al  0.0 0.0    1.03533992e-03 -1.31064990e-04 -1.27464990e-04
atom     34.4421411857    22.9947798026    19.0891360743   Al  0.0 0.0   -1.31834990e-04 -2.31824983e-04  3.71799972e-05
atom     30.5985433999     3.8166994553    19.0906885645   Al  0.0 0.0    1.14490491e-03  6.04484955e-04 -9.90649926e-05
atom     34.4331712422     3.8253512341    22.9088025109   Al  0.0 0.0   -1.66624987e-04  2.57029981e-04  3.74789972e-04
atom     30.6088550016    22.9950558008    22.9446324518   Al  0.0 0.0    8.60054935e-04 -2.20574983e-04  8.90944933e-04
atom     34.4311357550    22.9962824598    26.7321297578   Al  0.0 0.0   -2.10349984e-04 -1.78394987e-04  7.37279945e-04
atom     30.5739527214     3.8306680340    26.7231981474   Al  0.0 0.0    7.38099945e-04  4.85569964e-04  7.55859943e-04
atom     34.4254509575     3.8211154275    30.5680494253   Al  0.0 0.0   -3.95429970e-04  2.36124982e-04  3.00919977e-04
atom     30.5885154630    22.9948066357    30.5853069832   Al  0.0 0.0    1.07343492e-03 -2.44409982e-04  8.19664938e-04
atom     34.4284256054    22.9949369682    34.4259492877   Al  0.0 0.0   -1.28454990e-04 -2.11829984e-04 -4.87384963e-04
atom     30.5771420347     3.8210080948    34.4282186067   Al  0.0 0.0    8.06134939e-04  2.59669980e-04 -4.47669966e-04
atom     15.6424736211     3.6506826678    11.7414720303   Mg  0.0 0.0   -1.68959487e-03  7.20674946e-04 -1.88929986e-04
atom     22.6092293982     3.6900354199    11.7288489431   Mg  0.0 0.0    5.31454960e-04 -3.49094974e-04 -4.88189963e-04
atom     19.1058148025     3.9493817861     7.4009163752   Al  0.0 0.0    5.19619961e-04 -1.06543992e-03 -1.20997491e-03
atom     19.1218035351    22.8179300834    10.3873670610   Si  0.0 0.0   -4.33149967e-05  2.22057483e-03  6.54284951e-04
atom     14.2945287797    22.7849789576    15.2705621308   Si  0.0 0.0   -1.39725989e-03  1.04716492e-03 -1.03379992e-04
atom     19.1301524826     0.8295051076    15.2853433710   Mg  0.0 0.0    2.77557479e-03  2.96204978e-03 -3.22299976e-05
atom     15.6472805909     3.6588859495    18.7823295071   Mg  0.0 0.0   -1.27684990e-03  2.41384982e-04  9.33184930e-04
atom     22.6375077200     3.6701213787    18.8307863685   Mg  0.0 0.0    8.89419933e-04  3.04269977e-04 -5.10989962e-04
atom     24.0340665885    22.8164542593    15.2448751260   Si  0.0 0.0   -3.58697473e-03  2.75482479e-03  7.47049944e-05
atom     19.1599257950    22.8337386504    20.1869613248   Si  0.0 0.0   -1.44558489e-03  2.69074480e-03 -2.16561984e-03
atom     19.1173338966     3.9575735678    23.1347454208   Al  0.0 0.0    6.99074947e-04 -1.05136992e-03  1.11685992e-03
atom      3.7838901620    11.4950707492    38.2606039632   Al  0.0 0.0   -4.43269967e-04 -2.89659978e-04  4.30639968e-04
atom     38.2619609547     7.6538611150    38.2648474365   Al  0.0 0.0    4.73529964e-04  2.02044985e-04  5.52979958e-04
atom      3.7841393271     7.6552794394     3.7834646647   Al  0.0 0.0   -3.73849972e-04  2.14229984e-04 -3.86114971e-04
atom     38.2624171185    11.4945034195     3.7840166612   Al  0.0 0.0    4.92094963e-04 -3.37974975e-04 -4.23069968e-04
atom      3.7858489830    11.4925982648     7.6248659643   Al  0.0 0.0   -3.35739975e-04 -3.22229976e-04 -5.07609962e-04
atom     38.2623174524     7.6586565848     7.6254217942   Al  0.0 0.0    5.55319958e-04  3.43484974e-04 -5.29864960e-04
atom      3.7812720118     7.6565367648    11.4462535568   Al  0.0 0.0   -5.18154961e-04  3.24914976e-04 -3.02704977e-04
atom     38.2623749521    11.4953007478    11.4503053646   Al  0.0 0.0    5.56044958e-04 -2.24014983e-04 -2.72609980e-04
atom      3.7770668716    11.4952815812    15.2689636409   Al  0.0 0.0   -8.94064933e-04 -3.75129972e-04 -3.32849975e-05
atom     38.2628962821     7.6585070857    15.2689559742   Al  0.0 0.0    5.77669957e-04  2.18309984e-04 -3.55999973e-05
atom      3.7820233404     7.6565482648    19.0902170675   Al  0.0 0.0   -5.46534959e-04  3.29644975e-04  1.92789986e-04
atom     38.2621641201    11.4953199143    19.0858777615   Al  0.0 0.0    5.40509959e-04 -2.35324982e-04  1.44704989e-04
atom      3.7857799834    11.4925100987    22.9060655281   Al  0.0 0.0   -3.36844975e-04 -3.24304976e-04  2.08829984e-04
atom     38.2623596188     7.6582195876    22.9057320302   Al  0.0 0.0    5.52589958e-04  3.24519976e-04  2.33404982e-04
atom      3.7833841652     7.6556014374    26.7308877656   Al  0.0 0.0   -3.37414975e-04  2.01539985e-04  4.61994965e-04
atom     38.2620337875    11.4945915856    26.7298412722   Al  0.0 0.0    5.12304961e-04 -3.36934975e-04  4.99259962e-04
atom      3.7837713294    11.4950477494    30.5716565692   Al  0.0 0.0   -4.26349968e-04 -2.88554978e-04  4.17214969e-04
atom     38.2618459554     7.6539646144    30.5675395952   Al  0.0 0.0    4.93774963e-04  2.00934985e-04  3.14669976e-04
atom      3.7875816387     7.6534624509    34.4263747850   Al  0.0 0.0   -2.90474978e-04  1.98694985e-04 -4.76764964e-04
atom     38.2627007833    11.4949595833    34.4259262879   Al  0.0 0.0    4.61829965e-04 -2.37844982e-04 -4.63064965e-04
atom     11.4491400386    11.4923490997    38.2646672710   Al  0.0 0.0   -3.47449974e-04 -2.95164978e-04  4.52944966e-04
atom      7.6245132999     7.6558467692    38.2615891237   Al  0.0 0.0   -5.28649960e-04  2.25894983e-04  5.07669962e-04
atom     11.4526360166     7.6488088135     3.7878269705   Al  0.0 0.0   -2.87869978e-04  1.60854988e-04 -5.47359959e-04
atom      7.6197868297    11.4955115798     3.7783740301   Al  0.0 0.0   -5.91924956e-04 -3.79759971e-04 -4.81489964e-04
atom     11.4454140621    11.4916437708     7.6250537965   Al  0.0 0.0   -7.17069946e-04 -4.14969969e-04 -8.72374934e-04
atom      7.6270471173     7.6485366486     7.6286916069   Al  0.0 0.0   -5.11774962e-04  1.75224987e-04 -4.06894969e-04
atom     11.4777825248     7.6296499342    11.4328446412   Al  0.0 0.0   -8.63959935e-04  1.05694992e-03  1.85164986e-04
atom      7.6335560763    11.4854031435    11.4446205671   Al  0.0 0.0   -6.15599954e-04 -2.88244978e-04 -5.66194957e-04
atom     11.3963630377    11.4982562292    15.2696383033   Al  0.0 0.0   -6.71494950e-04 -1.51879489e-03  3.56399973e-05
atom      7.5871423687     7.6918147092    15.2699986343   Al  0.0 0.0   -9.25504930e-04  4.63699965e-05  2.13499984e-06
atom     11.4866566356     7.6273077823    19.1119825970   Al  0.0 0.0   -1.20093491e-03  1.32609990e-03 -4.36709967e-04
atom      7.6362355594    11.4831184912    19.0914245599   Al  0.0 0.0   -6.46779951e-04 -2.31939983e-04  4.74779964e-04
atom     11.4479823792    11.4890907869    22.9060156951   Al  0.0 0.0   -6.31539953e-04 -4.09369969e-04  5.62479958e-04
atom      7.6277716127     7.6492764772    22.9023893846   Al  0.0 0.0   -5.21599961e-04  1.80334986e-04  1.59704988e-04
atom     11.4558521630     7.6489736458    26.7232364805   Al  0.0 0.0   -2.03034985e-04  1.37674990e-04  6.16664954e-04
atom      7.6197293300    11.4958910774    26.7354264037   Al  0.0 0.0   -5.75974957e-04 -4.07269969e-04  5.57574958e-04
atom     11.4492742044    11.4922226005    30.5679804257   Al  0.0 0.0   -3.61484973e-04 -3.07384977e-04  3.84534971e-04
atom      7.6249656304     7.6554251052    30.5705832427   Al  0.0 0.0   -5.08104962e-04  2.35164982e-04  3.04929977e-04
atom     11.4467748868     7.6595535792    34.4267466160   Al  0.0 0.0   -3.64214973e-04  3.52499974e-04 -4.70229965e-04
atom      7.6242449683    11.4945647524    34.4263096188   Al  0.0 0.0   -4.56894966e-04 -3.27874975e-04 -4.88949963e-04
atom     19.0852107657    11.5075021709    38.2347751259   Al  0.0 0.0   -1.29499990e-05 -5.50449959e-04 -4.34999967e-06
atom     15.2582917081     7.6586374183    38.2491998684   Al  0.0 0.0   -1.78024987e-04  4.14874969e-04  2.83249979e-04
atom     19.0912597276     7.7397119075     3.6881954315   Al  0.0 0.0    7.50699944e-05 -1.49284989e-03  4.58929966e-04
atom     15.2528867421    11.4885196238     3.7926224403   Al  0.0 0.0   -4.29664968e-04 -3.58439973e-04 -8.14999939e-04
atom     19.0862112594    11.5124663063     7.5622910252   Al  0.0 0.0   -1.39149990e-05 -1.33779490e-03 -1.13496491e-03
atom     15.2577857113     7.6288066062     7.6311027584   Al  0.0 0.0    3.19289976e-04  1.28768490e-03 -1.33756490e-03
atom     19.0796869671     7.9210312652    11.4233112013   Al  0.0 0.0    5.93949955e-04 -3.62448973e-03  8.30004938e-04
atom     15.2185211253    11.5612298324    11.4126507685   Al  0.0 0.0   -1.29114990e-04 -1.20361491e-03 -3.68024972e-04
atom     19.0834704433    11.6262734227    15.2717657899   Al  0.0 0.0    1.15199991e-04  7.60219943e-04 -5.22249961e-05
atom     15.2670968193     7.8615383067    15.2778837513   Al  0.0 0.0    1.04440492e-03 -2.05579985e-03 -4.03414970e-04
atom     19.1268980031     7.9027157139    19.1167052339   Al  0.0 0.0   -5.48394959e-04 -3.19004976e-03 -9.47599929e-04
atom     15.2327963687    11.5514088943    19.1278678303   Al  0.0 0.0   -2.66229980e-04 -1.07396992e-03  1.86589986e-04
atom     19.0867325894    11.5108639831    22.9652134888   Al  0.0 0.0    2.40799982e-04 -1.33337990e-03  9.13949931e-04
atom     15.2780140839     7.6178126754    22.8875889779   Al  0.0 0.0   -5.21399961e-05  1.68399487e-03  1.48753989e-03
atom     19.0942152090     7.7445687102    26.8310176348   Al  0.0 0.0    1.51474989e-04 -1.55736488e-03 -3.83264971e-04
atom     15.2516294167    11.4869978001    26.7192881720   Al  0.0 0.0   -3.20519976e-04 -4.44759967e-04  9.18324931e-04
atom     19.0844786036    11.5106339845    30.6032200371   Al  0.0 0.0   -2.33599982e-05 -6.24504953e-04  7.70744942e-04
atom     15.2567392179     7.6586374183    30.5857899802   Al  0.0 0.0   -1.02509992e-04  4.30604968e-04  5.08889962e-04
atom     19.0853065984     7.6585032524    34.4274941113   Al  0.0 0.0   -2.63099980e-05  1.24629991e-04 -4.84109964e-04
atom     15.2683579780    11.4958182445    34.4267351161   Al  0.0 0.0   -3.30509975e-04 -1.68554987e-04 -4.57254966e-04
atom     26.7300981039    11.4926557644    38.2646327712   Al  0.0 0.0    6.80659949e-04 -2.18894984e-04  3.51814974e-04
atom     22.9142611432     7.6677760274    38.2408317544   Al  0.0 0.0    4.21779968e-04  2.84604979e-04  3.20874976e-04
atom     26.7368792278     7.6594385799     3.7813831778   Al  0.0 0.0    4.95039963e-04  2.45459982e-04 -7.52564943e-04
atom     22.9200724399    11.4918162697     3.7901652891   Al  0.0 0.0    5.93444955e-04 -2.58774981e-04 -7.96269940e-04
atom     26.7411725341    11.5016755410     7.6219181496   Al  0.0 0.0    8.63574935e-04 -4.28434968e-04 -9.44999929e-04
atom     22.9359921729     7.6530906199     7.6281894434   Al  0.0 0.0   -7.73214942e-04  7.56484943e-04 -1.60285988e-03
atom     26.7101533962     7.6480383184    11.4262398495   Al  0.0 0.0    1.61317988e-03  1.21037491e-03  3.09719977e-04
atom     22.9490790905    11.5639783151    11.4122022713   Al  0.0 0.0    3.57174973e-04 -1.11537492e-03 -4.03024970e-04
atom     26.7809814500    11.5009050458    15.2672846514   Al  0.0 0.0    1.15308491e-03 -1.16472491e-03 -4.65249965e-05
atom     22.9137934794     7.8775270393    15.2744107732   Al  0.0 0.0   -5.49824959e-04 -2.66931480e-03 -9.85499926e-05
atom     26.7295614406     7.6530829532    19.1037946486   Al  0.0 0.0    1.05934492e-03  7.48879944e-04 -3.68704972e-04
atom     22.9582291995    11.5722007633    19.1241035207   Al  0.0 0.0    2.95564978e-04 -1.31823990e-03  4.25864968e-04
atom     26.7450365098    11.5051101860    22.9101173359   Al  0.0 0.0    9.51574928e-04 -4.93134963e-04  6.39554952e-04
atom     22.9568338750     7.6619225642    22.9201759392   Al  0.0 0.0   -9.08484932e-04  2.81639979e-04  8.38714937e-04
atom     26.7438251841     7.6596417453    26.7332030843   Al  0.0 0.0    4.91789963e-04  2.06799984e-05  9.22744931e-04
atom     22.9208774348    11.4962130754    26.7270237899   Al  0.0 0.0    6.02354955e-04 -2.74244979e-04  9.15224931e-04
atom     26.7303166025    11.4925675983    30.5680149255   Al  0.0 0.0    7.08649947e-04 -1.95544985e-04  4.99859962e-04
atom     22.9158634664     7.6707698418    30.5974930731   Al  0.0 0.0    4.74974964e-04  1.43804989e-04  3.93529970e-04
atom     26.7323290898     7.6630533904    34.4273369456   Al  0.0 0.0    7.31824945e-04  5.36579960e-04 -4.33469967e-04
atom     22.9058086964    11.4985245608    34.4271912799   Al  0.0 0.0    3.85454971e-04 -1.00279992e-04 -4.48134966e-04
atom     34.4283949390    11.4950170829    38.2596034695   Al  0.0 0.0   -4.24079968e-04 -2.78629979e-04  4.31869968e-04
atom     30.5717945684     7.6557432698    38.2621257870   Al  0.0 0.0    6.17669954e-04  3.71694972e-04  3.91744971e-04
atom     34.4275286111     7.6555976041     3.7836141637   Al  0.0 0.0   -3.55734973e-04  2.99449977e-04 -4.38759967e-04
atom     30.5782268612    11.4966615725     3.7776342014   Al  0.0 0.0    6.34659952e-04 -3.13399976e-04 -5.45214959e-04
atom     34.4254432909    11.4926404312     7.6249924635   Al  0.0 0.0   -3.57544973e-04 -3.18879976e-04 -5.18694961e-04
atom     30.5770270354     7.6549957745     7.6295426016   Al  0.0 0.0    6.08484954e-04  4.07049969e-04 -5.53509958e-04
atom     34.4330677429     7.6592315812    11.4456133941   Al  0.0 0.0    4.16499969e-06  4.27304968e-04 -3.57179973e-04
atom     30.5624604605    11.4852996441    11.4438424053   Al  0.0 0.0    7.17659946e-04 -1.07689992e-04 -6.46424951e-04
atom     34.4386605410    11.4964660738    15.2688524749   Al  0.0 0.0    2.83899979e-04 -2.81684979e-04 -3.49299974e-05
atom     30.6356689993     7.7130244090    15.2686608094   Al  0.0 0.0    6.23754953e-04 -2.81594979e-04 -8.95949933e-05
atom     34.4321860817     7.6569622621    19.0912175612   Al  0.0 0.0   -8.28899938e-05  3.51254974e-04  2.20854983e-04
atom     30.5671715975    11.4894089516    19.0928083845   Al  0.0 0.0    6.72179949e-04 -1.88309986e-04  5.03024962e-04
atom     34.4259224545    11.4928167634    22.9062150272   Al  0.0 0.0   -3.24749976e-04 -3.18734976e-04  2.34179982e-04
atom     30.5812436755     7.6546622766    22.9032442126   Al  0.0 0.0    5.89419956e-04  3.07829977e-04  1.58804988e-04
atom     34.4287821032     7.6569392623    26.7316122610   Al  0.0 0.0   -3.54224973e-04  2.53129981e-04  4.96724963e-04
atom     30.5785066928    11.4970525701    26.7365840630   Al  0.0 0.0    6.71859950e-04 -2.96104978e-04  6.43314952e-04
atom     34.4283029395    11.4954502468    30.5721932325   Al  0.0 0.0   -4.01779970e-04 -2.74364979e-04  4.57484966e-04
atom     30.5729253946     7.6562837664    30.5704107438   Al  0.0 0.0    6.68704950e-04  3.58909973e-04  4.97694963e-04
atom     34.4235496362     7.6529641207    34.4260872868   Al  0.0 0.0   -5.34629960e-04  2.13309984e-04 -4.60999965e-04
atom     30.5726532296    11.4939667562    34.4262636191   Al  0.0 0.0    4.05889969e-04 -3.02384977e-04 -4.66199965e-04
atom      3.7865274787    19.1639047699    38.2634636119   Al  0.0 0.0   -4.14174969e-04 -2.30099983e-04  4.72429964e-04
atom     38.2623672854    15.3233774647    38.2657252643   Al  0.0 0.0    4.69374965e-04  3.15284976e-04  5.63934958e-04
atom      3.7827478359    15.3202418178     3.7850938211   Al  0.0 0.0   -4.99209962e-04  2.32094983e-04 -4.37534967e-04
atom     38.2618076223    19.1651735953     3.7859639823   Al  0.0 0.0    5.38254960e-04 -1.98594985e-04 -4.31089968e-04
atom      3.7809691804    19.1591974662     7.6232061415   Al  0.0 0.0   -5.06769962e-04 -2.28759983e-04 -6.47894951e-04
atom     38.2623902853    15.3203798170     7.6249081307   Al  0.0 0.0    5.32904960e-04  1.67334987e-04 -5.25809960e-04
atom      3.7818585081    15.3209624799    11.4445055678   Al  0.0 0.0   -5.50764959e-04  1.76109987e-04 -3.94429970e-04
atom     38.2631147807    19.1628391100    11.4505775295   Al  0.0 0.0    5.72399957e-04 -2.52919981e-04 -1.93764985e-04
atom      3.7735670604    19.1555826557    15.2689789741   Al  0.0 0.0   -6.14674954e-04 -1.43109989e-04 -3.49999974e-05
atom     38.2630342812    15.3203031508    15.2688601415   Al  0.0 0.0    5.59984958e-04  2.68209980e-04 -3.86949971e-05
atom      3.7824833375    15.3212461448    19.0919075568   Al  0.0 0.0   -5.24414961e-04  1.87099986e-04  2.65829980e-04
atom     38.2626432837    19.1630422753    19.0859352611   Al  0.0 0.0    5.69534957e-04 -2.41619982e-04  8.66049935e-05
atom      3.7810841797    19.1593316321    22.9079055165   Al  0.0 0.0   -5.00339962e-04 -2.12974984e-04  3.42489974e-04
atom     38.2620989538    15.3208053143    22.9063300265   Al  0.0 0.0    5.30724960e-04  1.85304986e-04  2.31434983e-04
atom      3.7818163417    15.3201498184    26.7294004416   Al  0.0 0.0   -4.67534965e-04  2.32069983e-04  5.01289962e-04
atom     38.2617347894    19.1648515973    26.7285532803   Al  0.0 0.0    5.17549961e-04 -1.61914988e-04  4.95429963e-04
atom      3.7863204800    19.1639124365    30.5690652522   Al  0.0 0.0   -4.10819969e-04 -2.30634983e-04  3.78204972e-04
atom     38.2622867860    15.3230056337    30.5666157677   Al  0.0 0.0    4.82114964e-04  3.11289977e-04  3.08679977e-04
atom      3.7876928047    15.3236687962    34.4262061194   Al  0.0 0.0   -2.87049978e-04  3.10289977e-04 -4.66689965e-04
atom     38.2619226216    19.1581318063    34.4263172854   Al  0.0 0.0    4.95599963e-04 -3.09289977e-04 -4.69099965e-04
atom     11.4455788944    19.1588946348    38.2582848112   Al  0.0 0.0   -4.79949964e-04 -2.55074981e-04  2.20984983e-04
atom      7.6256709593    15.3206021489    38.2589594736   Al  0.0 0.0   -5.37149960e-04  2.28549983e-04  3.90789971e-04
atom     11.4518271883    15.3270651082     3.7832614993   Al  0.0 0.0   -4.37809967e-04  2.26284983e-04 -4.75024964e-04
atom      7.6176401765    19.1525543414     3.7783088638   Al  0.0 0.0   -5.52619958e-04 -3.59609973e-04 -3.81014971e-04
atom     11.4593059745    19.1424459051     7.6398618699   Al  0.0 0.0    1.38434990e-04  1.71224987e-04 -3.59014973e-04
atom      7.6245171332    15.3247267896     7.6312330909   Al  0.0 0.0   -5.95239955e-04  2.73779979e-04 -5.64899958e-04
atom     11.4484807094    15.3380820388    11.4282753367   Al  0.0 0.0   -8.65319935e-04  6.24809953e-04 -6.17479954e-04
atom      7.6264337878    19.1759068610    11.4458625592   Al  0.0 0.0   -1.41146489e-03 -3.31174975e-04 -4.85559964e-04
atom     11.2854922362    18.9893243697    15.2691706396   Al  0.0 0.0   -3.98109970e-04  3.66679972e-04  8.70499935e-06
atom      7.5760909383    15.2870070272    15.2694964708   Al  0.0 0.0   -1.68279987e-03 -3.86584971e-04 -3.39099975e-05
atom     11.4508726943    15.3359238857    19.1079116227   Al  0.0 0.0   -7.35629945e-04  5.81314956e-04  5.20254961e-04
atom      7.6294199357    19.1793721725    19.0902707338   Al  0.0 0.0   -1.45392489e-03 -4.16704969e-04  3.37839975e-04
atom     11.4554573321    19.1403950847    22.8903412939   Al  0.0 0.0    3.57029973e-04  3.37944975e-04  1.60969988e-04
atom      7.6240034698    15.3235767968    22.8992767376   Al  0.0 0.0   -5.73589957e-04  2.61554980e-04  2.47829981e-04
atom     11.4507385285    15.3269692754    26.7308034328   Al  0.0 0.0   -4.65654965e-04  2.02474985e-04  5.96449955e-04
atom      7.6166741826    19.1515346812    26.7351619053   Al  0.0 0.0   -5.78044957e-04 -3.34784975e-04  4.83399964e-04
atom     11.4456862270    19.1581893059    30.5753518793   Al  0.0 0.0   -5.05069962e-04 -2.52144981e-04  6.34734952e-04
atom      7.6259507908    15.3210161463    30.5737802225   Al  0.0 0.0   -5.66699957e-04  2.13049984e-04  4.71699965e-04
atom     11.4488832069    15.3198469870    34.4264552845   Al  0.0 0.0   -2.80424979e-04  1.58959988e-04 -4.73469964e-04
atom      7.6270202841    19.1650202629    34.4265204508   Al  0.0 0.0   -5.29179960e-04 -1.65329988e-04 -4.69624965e-04
atom     19.0835279429    19.1461028821    38.2347827926   Al  0.0 0.0    2.18399984e-05  6.29099953e-05  5.52799958e-04
atom     15.2594685340    15.3207324814    38.2575833156   Al  0.0 0.0   -3.92854970e-04  1.18534991e-04  1.77254987e-04
atom     19.0839534403    15.2653104972     3.7106854565   Al  0.0 0.0    3.80899971e-05  9.95659925e-04 -3.86709971e-04
atom     15.2574752132    19.1696049007     3.7727505655   Al  0.0 0.0    2.12819984e-04 -4.26244968e-04 -9.08889932e-04
atom     19.0922103882    18.9995478053     7.4658066331   Al  0.0 0.0   -1.13039992e-04 -1.96950485e-03 -2.98090978e-03
atom     15.2342760261    15.3191876578     7.6209828221   Al  0.0 0.0    2.66439980e-04  1.39495990e-03 -1.14726991e-03