begin
comment 4 atoms, species Al4
lattice      7.6331373306    -0.3816568665     0.0000000000
lattice     -0.3816568665     7.6331373306     0.0000000000
lattice      0.0000000000     0.0000000000     7.6522680006
atom      0.0000000000     0.0000000000     0.0000000000   Al  0.0 0.0    0.00000000e+00  0.00000000e+00  0.00000000e+00
atom     -0.1908284333     3.8165686653     3.8261340003   Al  0.0 0.0    0.00000000e+00  0.00000000e+00  0.00000000e+00
atom      3.8165686653    -0.1908284333     3.8261340003   Al  0.0 0.0    0.00000000e+00  0.00000000e+00  0.00000000e+00
atom      3.6257402320     3.6257402320     0.0000000000   Al  0.0 0.0    0.00000000e+00  0.00000000e+00  0.00000000e+00
energy -7.869775151056926e+01
charge 0.0000
end
begin
comment 4 atoms, species Al4
lattice      7.6331373306    -0.2968442295     0.0000000000
lattice     -0.2968442295     7.6331373306     0.0000000000
lattice      0.0000000000     0.0000000000     7.6446987577
atom      0.0000000000     0.0000000000     0.0000000000   Al  0.0 0.0    0.00000000e+00  0.00000000e+00  0.00000000e+00
atom     -0.1484221148     3.8165686653     3.8223493789   Al  0.0 0.0    0.00000000e+00  0.00000000e+00  0.00000000e+00
atom      3.8165686653    -0.1484221148     3.8223493789   Al  0.0 0.0    0.00000000e+00  0.00000000e+00  0.00000000e+00
atom      3.6681465505     3.6681465505     0.0000000000   Al  0.0 0.0    0.00000000e+00  0.00000000e+00  0.00000000e+00
energy -7.869775151056926e+01
charge 0.0000
end
begin
comment 4 atoms, species Al4
lattice      7.6331373306    -0.2120315925     0.0000000000
lattice     -0.2120315925     7.6331373306     0.0000000000
lattice      0.0000000000     0.0000000000     7.6390316451
atom      0.0000000000     0.0000000000     0.0000000000   Al  0.0 0.0    0.00000000e+00  0.00000000e+00  0.00000000e+00
atom     -0.1060157963     3.8165686653     3.8195158226   Al  0.0 0.0    0.00000000e+00  0.00000000e+00  0.00000000e+00
atom      3.8165686653    -0.1060157963     3.8195158226   Al  0.0 0.0    0.00000000e+00  0.00000000e+00  0.00000000e+00
atom      3.7105528690     3.7105528690     0.0000000000   Al  0.0 0.0    0.00000000e+00  0.00000000e+00  0.00000000e+00
energy -7.869775151056926e+01
charge 0.0000
end
begin
comment 4 atoms, species Al4
lattice      7.6331373306    -0.1272189555     0.0000000000
lattice     -0.1272189555     7.6331373306     0.0000000000
lattice      0.0000000000     0.0000000000     7.6352582357
atom      0.0000000000     0.0000000000     0.0000000000   Al  0.0 0.0    0.00000000e+00  0.00000000e+00  0.00000000e+00
atom     -0.0636094778     3.8165686653     3.8176291178   Al  0.0 0.0    0.00000000e+00  0.00000000e+00  0.00000000e+00
atom      3.8165686653    -0.0636094778     3.8176291178   Al  0.0 0.0    0.00000000e+00  0.00000000e+00  0.00000000e+00
atom      3.7529591875     3.7529591875     0.0000000000   Al  0.0 0.0    0.00000000e+00  0.00000000e+00  0.00000000e+00
energy -7.869775151056926e+01
charge 0.0000
end
begin
comment 4 atoms, species Al4
lattice      7.6331373306    -0.0424063185     0.0000000000
lattice     -0.0424063185     7.6331373306     0.0000000000
lattice      0.0000000000     0.0000000000     7.6333729285
atom      0.0000000000     0.0000000000     0.0000000000   Al  0.0 0.0    0.00000000e+00  0.00000000e+00  0.00000000e+00
atom     -0.0212031593     3.8165686653     3.8166864643   Al  0.0 0.0    0.00000000e+00  0.00000000e+00  0.00000000e+00
atom      3.8165686653    -0.0212031593     3.8166864643   Al  0.0 0.0    0.00000000e+00  0.00000000e+00  0.00000000e+00
atom      3.7953655060     3.7953655060     0.0000000000   Al  0.0 0.0    0.00000000e+00  0.00000000e+00  0.00000000e+00
energy -7.869775151056926e+01
charge 0.0000
end
begin
comment 4 atoms, species Al4
lattice      7.6331373306     0.0424063185     0.0000000000
lattice      0.0424063185     7.6331373306     0.0000000000
lattice      0.0000000000     0.0000000000     7.6333729285
atom      0.0000000000     0.0000000000     0.0000000000   Al  0.0 0.0    0.00000000e+00  0.00000000e+00  0.00000000e+00
atom      0.0212031593     3.8165686653     3.8166864643   Al  0.0 0.0    0.00000000e+00  0.00000000e+00  0.00000000e+00
atom      3.8165686653     0.0212031593     3.8166864643   Al  0.0 0.0    0.00000000e+00  0.00000000e+00  0.00000000e+00
atom      3.8377718246     3.8377718246     0.0000000000   Al  0.0 0.0    0.00000000e+00  0.00000000e+00  0.00000000e+00
energy -7.869775151056926e+01
charge 0.0000
end
begin
comment 4 atoms, species Al4
lattice      7.6331373306     0.1272189555     0.0000000000
lattice      0.1272189555     7.6331373306     0.0000000000
lattice      0.0000000000     0.0000000000     7.6352582357
atom      0.0000000000     0.0000000000     0.0000000000   Al  0.0 0.0    0.00000000e+00  0.00000000e+00  0.00000000e+00
atom      0.0636094778     3.8165686653     3.8176291178   Al  0.0 0.0    0.00000000e+00  0.00000000e+00  0.00000000e+00
atom      3.8165686653     0.0636094778     3.8176291178   Al  0.0 0.0    0.00000000e+00  0.00000000e+00  0.00000000e+00
atom      3.8801781431     3.8801781431     0.0000000000   Al  0.0 0.0    0.00000000e+00  0.00000000e+00  0.00000000e+00
energy -7.869775151056926e+01
charge 0.0000
end
begin
comment 4 atoms, species Al4
lattice      7.6331373306     0.2120315925     0.0000000000
lattice      0.2120315925     7.6331373306     0.0000000000
lattice      0.0000000000     0.0000000000     7.6390316451
atom      0.0000000000     0.0000000000     0.0000000000   Al  0.0 0.0    0.00000000e+00  0.00000000e+00  0.00000000e+00
atom      0.1060157963     3.8165686653     3.8195158226   Al  0.0 0.0    0.00000000e+00  0.00000000e+00  0.00000000e+00
atom      3.8165686653     0.1060157963     3.8195158226   Al  0.0 0.0    0.00000000e+00  0.00000000e+00  0.00000000e+00
atom      3.9225844616     3.9225844616     0.0000000000   Al  0.0 0.0    0.00000000e+00  0.00000000e+00  0.00000000e+00
energy -7.869775151056926e+01
charge 0.0000
end
begin
comment 4 atoms, species Al4
lattice      7.6331373306     0.2968442295     0.0000000000
lattice      0.2968442295     7.6331373306     0.0000000000
lattice      0.0000000000     0.0000000000     7.6446987577
atom      0.0000000000     0.0000000000     0.0000000000   Al  0.0 0.0    0.00000000e+00  0.00000000e+00  0.00000000e+00
atom      0.1484221148     3.8165686653     3.8223493789   Al  0.0 0.0    0.00000000e+00  0.00000000e+00  0.00000000e+00
atom      3.8165686653     0.1484221148     3.8223493789   Al  0.0 0.0    0.00000000e+00  0.00000000e+00  0.00000000e+00
atom      3.9649907801     3.9649907801     0.0000000000   Al  0.0 0.0    0.00000000e+00  0.00000000e+00  0.00000000e+00
energy -7.869775151056926e+01
charge 0.0000
end
begin
comment 4 atoms, species Al4
lattice      7.6331373306     0.3816568665     0.0000000000
lattice      0.3816568665     7.6331373306     0.0000000000
lattice      0.0000000000     0.0000000000     7.6522680006
atom      0.0000000000     0.0000000000     0.0000000000   Al  0.0 0.0    0.00000000e+00  0.00000000e+00  0.00000000e+00
atom      0.1908284333     3.8165686653     3.8261340003   Al  0.0 0.0    0.00000000e+00  0.00000000e+00  0.00000000e+00
atom      3.8165686653     0.1908284333     3.8261340003   Al  0.0 0.0    0.00000000e+00  0.00000000e+00  0.00000000e+00
atom      4.0073970986     4.0073970986     0.0000000000   Al  0.0 0.0    0.00000000e+00  0.00000000e+00  0.00000000e+00
energy -7.869775151056926e+01
charge 0.0000
end
