data (written by ASE) 

31 	 atoms 
1  atom types
0.0 8.8000000000  xlo xhi
0.0 8.8000000000  ylo yhi
0.0 8.8000000000  zlo zhi


Atoms 

     1   1 0E-10 0E-10 0E-10
     2   1 2.2000000000 0E-10 2.2000000000
     3   1 0E-10 2.2000000000 2.2000000000
     4   1 4.4000000000 0E-10 0E-10
     5   1 6.6000000000 2.2000000000 0E-10
     6   1 6.6000000000 0E-10 2.2000000000
     7   1 4.4000000000 2.2000000000 2.2000000000
     8   1 0E-10 4.4000000000 0E-10
     9   1 2.2000000000 6.6000000000 0E-10
    10   1 2.2000000000 4.4000000000 2.2000000000
    11   1 0E-10 6.6000000000 2.2000000000
    12   1 4.4000000000 4.4000000000 0E-10
    13   1 6.6000000000 6.6000000000 0E-10
    14   1 6.6000000000 4.4000000000 2.2000000000
    15   1 4.4000000000 6.6000000000 2.2000000000
    16   1 0E-10 0E-10 4.4000000000
    17   1 2.2000000000 2.2000000000 4.4000000000
    18   1 2.2000000000 0E-10 6.6000000000
    19   1 0E-10 2.2000000000 6.6000000000
    20   1 4.4000000000 0E-10 4.4000000000
    21   1 6.6000000000 2.2000000000 4.4000000000
    22   1 6.6000000000 0E-10 6.6000000000
    23   1 4.4000000000 2.2000000000 6.6000000000
    24   1 0E-10 4.4000000000 4.4000000000
    25   1 2.2000000000 6.6000000000 4.4000000000
    26   1 2.2000000000 4.4000000000 6.6000000000
    27   1 0E-10 6.6000000000 6.6000000000
    28   1 4.4000000000 4.4000000000 4.4000000000
    29   1 6.6000000000 6.6000000000 4.4000000000
    30   1 6.6000000000 4.4000000000 6.6000000000
    31   1 4.4000000000 6.6000000000 6.6000000000
