
     Program PWSCF v.6.3 starts on 22Feb2020 at 14:12:27 

     This program is part of the open-source Quantum ESPRESSO suite
     for quantum simulation of materials; please cite
         "P. Giannozzi et al., J. Phys.:Condens. Matter 21 395502 (2009);
         "P. Giannozzi et al., J. Phys.:Condens. Matter 29 465901 (2017);
          URL http://www.quantum-espresso.org", 
     in publications or presentations arising from this work. More details at
     http://www.quantum-espresso.org/quote

 *** WARNING: using old-style file format, will disappear from next version ***

     Parallel version (MPI & OpenMP), running on      36 processor cores
     Number of MPI processes:                36
     Threads/MPI process:                     1

     MPI processes distributed on     1 nodes
     K-points division:     npool     =       4
     R & G space division:  proc/nbgrp/npool/nimage =       9
     Reading input from aiida.in
Warning: card &IONS ignored
Warning: card   !PRESS_CONV_THR = 0.05                 ! JUST FOR VOLUME RELAXATIONS ignored
Warning: card / ignored

     Current dimensions of program PWSCF are:
     Max number of different atomic species (ntypx) = 10
     Max number of k-points (npk) =  40000
     Max angular momentum in pseudopotentials (lmaxx) =  3
               file Mg.pbe-n-kjpaw_psl.0.3.0.UPF: wavefunction(s)  3S renormalized
               file Al.pbe-n-kjpaw_psl.1.0.0.UPF: wavefunction(s)  3S 3P renormalized

     Subspace diagonalization in iterative solution of the eigenvalue problem:
     one sub-group per band group will be used
     scalapack distributed-memory algorithm (size of sub-group:  2*  2 procs)

 
     Parallelization info
     --------------------
     sticks:   dense  smooth     PW     G-vecs:    dense   smooth      PW
     Min        3324    1330    347               432816   109512   14645
     Max        3325    1331    348               432821   109515   14652
     Sum       29921   11977   3125              3895379   985619  131827
 


     bravais-lattice index     =            0
     lattice parameter (alat)  =      30.6665  a.u.
     unit-cell volume          =   28839.7502 (a.u.)^3
     number of atoms/cell      =          256
     number of atomic types    =            2
     number of electrons       =       766.00
     number of Kohn-Sham states=          460
     kinetic-energy cutoff     =      40.0000  Ry
     charge density cutoff     =     400.0000  Ry
     convergence threshold     =      1.0E-12
     mixing beta               =       0.4000
     number of iterations used =            8  local-TF  mixing
     Exchange-correlation      = SLA PW PBX PBC ( 1  4  3  4 0 0)

     celldm(1)=  30.666473  celldm(2)=   0.000000  celldm(3)=   0.000000
     celldm(4)=   0.000000  celldm(5)=   0.000000  celldm(6)=   0.000000

     crystal axes: (cart. coord. in units of alat)
               a(1) = (   1.000000   0.000000   0.000000 )  
               a(2) = (   0.000000   1.000000   0.000000 )  
               a(3) = (   0.000000   0.000000   1.000000 )  

     reciprocal axes: (cart. coord. in units 2 pi/alat)
               b(1) = (  1.000000  0.000000  0.000000 )  
               b(2) = (  0.000000  1.000000  0.000000 )  
               b(3) = (  0.000000  0.000000  1.000000 )  


     PseudoPot. # 1 for Mg read from file:
     /users/aglensk/Dropbox/Albert/scripts/dotfiles/scripts/potentials/quantum_espresso/pseudo_SSSPefV1.1_alalloy/Mg.pbe-n-kjpaw_psl.0.3.0.UPF
     MD5 check sum: 24ecedc7f3e3cbe212e682f4413594e4
     Pseudo is Projector augmented-wave + core cor, Zval =  2.0
     Generated using "atomic" code by A. Dal Corso v.5.0.99 svn rev. 10869
     Shape of augmentation charge: PSQ
     Using radial grid of 1129 points,  4 beta functions with: 
                l(1) =   0
                l(2) =   0
                l(3) =   1
                l(4) =   1
     Q(r) pseudized with 0 coefficients 


     PseudoPot. # 2 for Al read from file:
     /users/aglensk/Dropbox/Albert/scripts/dotfiles/scripts/potentials/quantum_espresso/pseudo_SSSPefV1.1_alalloy/Al.pbe-n-kjpaw_psl.1.0.0.UPF
     MD5 check sum: cfc449ca30b5f3223ec38ddd88ac046d
     Pseudo is Projector augmented-wave + core cor, Zval =  3.0
     Generated using "atomic" code by A. Dal Corso v.5.1
     Shape of augmentation charge: PSQ
     Using radial grid of 1135 points,  6 beta functions with: 
                l(1) =   0
                l(2) =   0
                l(3) =   1
                l(4) =   1
                l(5) =   2
                l(6) =   2
     Q(r) pseudized with 0 coefficients 


     atomic species   valence    mass     pseudopotential
        Mg             2.00    24.30500     Mg( 1.00)
        Al             3.00    26.98154     Al( 1.00)

     No symmetry found


                                    s                        frac. trans.

      isym =  1     identity                                     

 cryst.   s( 1) = (     1          0          0      )
                  (     0          1          0      )
                  (     0          0          1      )

 cart.    s( 1) = (  1.0000000  0.0000000  0.0000000 )
                  (  0.0000000  1.0000000  0.0000000 )
                  (  0.0000000  0.0000000  1.0000000 )


   Cartesian axes

     site n.     atom                  positions (alat units)
         1           Mg  tau(   1) = (   0.9997093   0.9994509   0.9997093  )
         2           Al  tau(   2) = (   0.1264958   0.9998338   0.1264958  )
         3           Al  tau(   3) = (   0.1268225   0.1249996   0.9981774  )
         4           Al  tau(   4) = (   0.9981774   0.1249996   0.1268225  )
         5           Al  tau(   5) = (   0.9997581   0.9993755   0.2504660  )
         6           Al  tau(   6) = (   0.1252067   0.1237170   0.2520965  )
         7           Al  tau(   7) = (   0.1250051   0.9995433   0.3756386  )
         8           Al  tau(   8) = (   0.9997438   0.1247627   0.3757921  )
         9           Al  tau(   9) = (   0.9999925   0.9999294   0.5000824  )
        10           Al  tau(  10) = (   0.1250263   0.1250167   0.5001821  )
        11           Al  tau(  11) = (   0.1250099   0.9999447   0.6248165  )
        12           Al  tau(  12) = (   0.9999738   0.1249835   0.6248179  )
        13           Al  tau(  13) = (   0.0000030   0.9999367   0.7497673  )
        14           Al  tau(  14) = (   0.1252564   0.1252375   0.7492079  )
        15           Al  tau(  15) = (   0.1265089   0.9995935   0.8731037  )
        16           Al  tau(  16) = (   0.9997936   0.1262833   0.8729036  )
        17           Al  tau(  17) = (   0.9985039   0.2501663   0.9985039  )
        18           Al  tau(  18) = (   0.1250119   0.3767395   0.9984443  )
        19           Mg  tau(  19) = (   0.1252868   0.2505495   0.1252868  )
        20           Al  tau(  20) = (   0.9984443   0.3767395   0.1250119  )
        21           Al  tau(  21) = (   0.9984913   0.2504067   0.2518964  )
        22           Al  tau(  22) = (   0.1250060   0.3766673   0.2516454  )
        23           Al  tau(  23) = (   0.1249972   0.2500634   0.3752327  )
        24           Al  tau(  24) = (   0.9997361   0.3753320   0.3756857  )
        25           Al  tau(  25) = (   0.9999902   0.2500554   0.5001835  )
        26           Al  tau(  26) = (   0.1250155   0.3750282   0.5001860  )
        27           Al  tau(  27) = (   0.1250076   0.2500708   0.6249176  )
        28           Al  tau(  28) = (   0.9999721   0.3751045   0.6249237  )
        29           Al  tau(  29) = (   0.9999951   0.2504567   0.7493614  )
        30           Al  tau(  30) = (   0.1250094   0.3750970   0.7497387  )
        31           Al  tau(  31) = (   0.1252420   0.2506245   0.8745341  )
        32           Al  tau(  32) = (   0.9997456   0.3754391   0.8743924  )
        33           Al  tau(  33) = (   0.9997461   0.5006044   0.9997461  )
        34           Al  tau(  34) = (   0.1250080   0.6250000   0.9999921  )
        35           Al  tau(  35) = (   0.1250248   0.5001785   0.1250248  )
        36           Al  tau(  36) = (   0.9999921   0.6250000   0.1250080  )
        37           Al  tau(  37) = (   0.9997423   0.5006163   0.2503079  )
        38           Al  tau(  38) = (   0.1250048   0.6251138   0.2500764  )
        39           Al  tau(  39) = (   0.1250141   0.5004617   0.3754816  )
        40           Al  tau(  40) = (   0.9999929   0.6249994   0.3751494  )
        41           Al  tau(  41) = (   0.9999948   0.5000655   0.5000748  )
        42           Al  tau(  42) = (   0.1250142   0.6250598   0.5000762  )
        43           Al  tau(  43) = (   0.1250142   0.5000512   0.6249811  )
        44           Al  tau(  44) = (   0.9999858   0.6249401   0.6249237  )
        45           Al  tau(  45) = (   0.9999931   0.5000703   0.7498649  )
        46           Al  tau(  46) = (   0.1250072   0.6250004   0.7498506  )
        47           Al  tau(  47) = (   0.1250259   0.5004577   0.8745165  )
        48           Al  tau(  48) = (   0.9999953   0.6248861   0.8749236  )
        49           Al  tau(  49) = (   0.9999753   0.7498215   0.9999753  )
        50           Al  tau(  50) = (   0.1265558   0.8732605   0.9999883  )
        51           Al  tau(  51) = (   0.1252540   0.7493955   0.1252540  )
        52           Al  tau(  52) = (   0.9999883   0.8732605   0.1265558  )
        53           Al  tau(  53) = (   0.9999743   0.7495422   0.2504836  )
        54           Al  tau(  54) = (   0.1252546   0.8745609   0.2506077  )
        55           Al  tau(  55) = (   0.1250071   0.7499297   0.3751350  )
        56           Al  tau(  56) = (   0.9999907   0.8749030   0.3752613  )
        57           Al  tau(  57) = (   0.9999858   0.7499487   0.5000189  )
        58           Al  tau(  58) = (   0.1250280   0.8748955   0.5000763  )
        59           Al  tau(  59) = (   0.1250052   0.7499345   0.6249251  )
        60           Al  tau(  60) = (   0.9999846   0.8749718   0.6248140  )
        61           Al  tau(  61) = (   0.9999859   0.7495383   0.7495184  )
        62           Al  tau(  62) = (   0.1252640   0.8746681   0.7493144  )
        63           Al  tau(  63) = (   0.1252578   0.7493836   0.8746922  )
        64           Al  tau(  64) = (   0.9999943   0.8733323   0.8733544  )
        65           Al  tau(  65) = (   0.2504660   0.9993755   0.9997581  )
        66           Al  tau(  66) = (   0.3757921   0.1247627   0.9997438  )
        67           Al  tau(  67) = (   0.3756386   0.9995433   0.1250051  )
        68           Al  tau(  68) = (   0.2520965   0.1237170   0.1252067  )
        69           Al  tau(  69) = (   0.2506994   0.9994047   0.2506994  )
        70           Al  tau(  70) = (   0.3756739   0.1247466   0.2503209  )
        71           Al  tau(  71) = (   0.3751227   0.9999547   0.3751227  )
        72           Al  tau(  72) = (   0.2503209   0.1247466   0.3756739  )
        73           Al  tau(  73) = (   0.2500629   0.9999291   0.5000768  )
        74           Al  tau(  74) = (   0.3750868   0.1250086   0.5000783  )
        75           Al  tau(  75) = (   0.3750939   0.9999813   0.6249225  )
        76           Al  tau(  76) = (   0.2500970   0.1249808   0.6249213  )
        77           Al  tau(  77) = (   0.2504597   0.9999216   0.7494718  )
        78           Al  tau(  78) = (   0.3751574   0.1250001   0.7498426  )
        79           Al  tau(  79) = (   0.3752340   0.9999489   0.8749460  )
        80           Al  tau(  80) = (   0.2509279   0.1250001   0.8740722  )
        81           Al  tau(  81) = (   0.2518964   0.2504067   0.9984913  )
        82           Al  tau(  82) = (   0.3756857   0.3753320   0.9997361  )
        83           Al  tau(  83) = (   0.3752327   0.2500634   0.1249972  )
        84           Al  tau(  84) = (   0.2516454   0.3766673   0.1250060  )
        85           Al  tau(  85) = (   0.2516510   0.2500721   0.2516510  )
        86           Al  tau(  86) = (   0.3756157   0.3752570   0.2502482  )
        87           Al  tau(  87) = (   0.3754565   0.2499869   0.3754565  )
        88           Al  tau(  88) = (   0.2502482   0.3752570   0.3756157  )
        89           Al  tau(  89) = (   0.2500281   0.2500175   0.5001829  )
        90           Al  tau(  90) = (   0.3750802   0.3750144   0.5000750  )
        91           Al  tau(  91) = (   0.3750466   0.2499929   0.6250081  )
        92           Al  tau(  92) = (   0.2500205   0.3750189   0.6250079  )
        93           Al  tau(  93) = (   0.2500541   0.2500512   0.7497660  )
        94           Al  tau(  94) = (   0.3750615   0.3749997   0.7499281  )
        95           Al  tau(  95) = (   0.3755282   0.2500785   0.8745404  )
        96           Al  tau(  96) = (   0.2503231   0.3753193   0.8743996  )
        97           Al  tau(  97) = (   0.2503079   0.5006163   0.9997423  )
        98           Al  tau(  98) = (   0.3751494   0.6249994   0.9999929  )
        99           Al  tau(  99) = (   0.3754816   0.5004617   0.1250141  )
       100           Al  tau( 100) = (   0.2500764   0.6251138   0.1250048  )
       101           Al  tau( 101) = (   0.2502729   0.5006133   0.2502729  )
       102           Al  tau( 102) = (   0.3750619   0.6250867   0.2500000  )
       103           Al  tau( 103) = (   0.3750570   0.5000465   0.3750570  )
       104           Al  tau( 104) = (   0.2500000   0.6250867   0.3750619  )
       105           Al  tau( 105) = (   0.2500343   0.5000711   0.5000795  )
       106           Al  tau( 106) = (   0.3750040   0.6249818   0.4999940  )
       107           Al  tau( 107) = (   0.3750329   0.5000219   0.6249872  )
       108           Al  tau( 108) = (   0.2500041   0.6250269   0.6250090  )
       109           Al  tau( 109) = (   0.2500286   0.5000686   0.7499026  )
       110           Al  tau( 110) = (   0.3749824   0.6249999   0.7500176  )
       111           Al  tau( 111) = (   0.3750684   0.5000518   0.8749313  )
       112           Al  tau( 112) = (   0.2500741   0.6249999   0.8749260  )
       113           Al  tau( 113) = (   0.2504836   0.7495422   0.9999743  )
       114           Al  tau( 114) = (   0.3752613   0.8749030   0.9999907  )
       115           Al  tau( 115) = (   0.3751350   0.7499297   0.1250071  )
       116           Al  tau( 116) = (   0.2506077   0.8745609   0.1252546  )
       117           Al  tau( 117) = (   0.2500728   0.7499533   0.2500728  )
       118           Al  tau( 118) = (   0.3751459   0.8749151   0.2500723  )
       119           Al  tau( 119) = (   0.3750097   0.7500106   0.3750097  )
       120           Al  tau( 120) = (   0.2500723   0.8749151   0.3751459  )
       121           Al  tau( 121) = (   0.2500328   0.7499814   0.5000190  )
       122           Al  tau( 122) = (   0.3750095   0.8749946   0.4999900  )
       123           Al  tau( 123) = (   0.3750226   0.7500054   0.6250056  )
       124           Al  tau( 124) = (   0.2500899   0.8749722   0.6249162  )
       125           Al  tau( 125) = (   0.2500688   0.7499481   0.7499316  )
       126           Al  tau( 126) = (   0.3750720   0.8750004   0.7499386  )
       127           Al  tau( 127) = (   0.3750974   0.7499313   0.8749715  )
       128           Al  tau( 128) = (   0.2506005   0.8746807   0.8746769  )
       129           Al  tau( 129) = (   0.5000824   0.9999294   0.9999925  )
       130           Al  tau( 130) = (   0.6248179   0.1249835   0.9999738  )
       131           Al  tau( 131) = (   0.6248165   0.9999447   0.1250099  )
       132           Al  tau( 132) = (   0.5001821   0.1250167   0.1250263  )
       133           Al  tau( 133) = (   0.5000768   0.9999291   0.2500629  )
       134           Al  tau( 134) = (   0.6249213   0.1249808   0.2500970  )
       135           Al  tau( 135) = (   0.6249225   0.9999813   0.3750939  )
       136           Al  tau( 136) = (   0.5000783   0.1250086   0.3750868  )
       137           Al  tau( 137) = (   0.4999930   0.0000086   0.4999930  )
       138           Al  tau( 138) = (   0.6249809   0.1250001   0.5000190  )
       139           Al  tau( 139) = (   0.6249191   0.9999705   0.6249191  )
       140           Al  tau( 140) = (   0.5000190   0.1250001   0.6249809  )
       141           Al  tau( 141) = (   0.4999919   0.0000072   0.7499534  )
       142           Al  tau( 142) = (   0.6249216   0.1249915   0.7499133  )
       143           Al  tau( 143) = (   0.6248171   0.9999826   0.8749720  )
       144           Al  tau( 144) = (   0.5000787   0.1250194   0.8749031  )
       145           Al  tau( 145) = (   0.5001835   0.2500554   0.9999902  )
       146           Al  tau( 146) = (   0.6249237   0.3751045   0.9999721  )
       147           Al  tau( 147) = (   0.6249176   0.2500708   0.1250076  )
       148           Al  tau( 148) = (   0.5001860   0.3750282   0.1250155  )
       149           Al  tau( 149) = (   0.5001829   0.2500175   0.2500281  )
       150           Al  tau( 150) = (   0.6250079   0.3750189   0.2500205  )
       151           Al  tau( 151) = (   0.6250081   0.2499929   0.3750466  )
       152           Al  tau( 152) = (   0.5000750   0.3750144   0.3750802  )
       153           Al  tau( 153) = (   0.5000808   0.2500295   0.5000808  )
       154           Al  tau( 154) = (   0.6249897   0.3750286   0.5000195  )
       155           Al  tau( 155) = (   0.6250070   0.2499915   0.6250070  )
       156           Al  tau( 156) = (   0.5000195   0.3750286   0.6249897  )
       157           Al  tau( 157) = (   0.5000774   0.2500188   0.7499061  )
       158           Al  tau( 158) = (   0.6250099   0.3750055   0.7499905  )
       159           Al  tau( 159) = (   0.6249231   0.2500710   0.8749372  )
       160           Al  tau( 160) = (   0.5000838   0.3750278   0.8749102  )
       161           Al  tau( 161) = (   0.5000748   0.5000655   0.9999948  )
       162           Al  tau( 162) = (   0.6249237   0.6249401   0.9999858  )
       163           Al  tau( 163) = (   0.6249811   0.5000512   0.1250142  )
       164           Al  tau( 164) = (   0.5000762   0.6250598   0.1250142  )
       165           Al  tau( 165) = (   0.5000795   0.5000711   0.2500343  )
       166           Al  tau( 166) = (   0.6250090   0.6250269   0.2500041  )
       167           Al  tau( 167) = (   0.6249872   0.5000219   0.3750329  )
       168           Al  tau( 168) = (   0.4999940   0.6249818   0.3750040  )
       169           Al  tau( 169) = (   0.4999903   0.4999905   0.4999903  )
       170           Al  tau( 170) = (   0.6249878   0.6250000   0.5000122  )
       171           Al  tau( 171) = (   0.6249898   0.5000261   0.6249898  )
       172           Al  tau( 172) = (   0.5000122   0.6250000   0.6249878  )
       173           Al  tau( 173) = (   0.4999944   0.4999946   0.7499775  )
       174           Al  tau( 174) = (   0.6250059   0.6250182   0.7499961  )
       175           Al  tau( 175) = (   0.6249810   0.5000186   0.8749673  )
       176           Al  tau( 176) = (   0.4999910   0.6249730   0.8749960  )
       177           Al  tau( 177) = (   0.5000189   0.7499487   0.9999858  )
       178           Al  tau( 178) = (   0.6248140   0.8749718   0.9999846  )
       179           Al  tau( 179) = (   0.6249251   0.7499345   0.1250052  )
       180           Al  tau( 180) = (   0.5000763   0.8748955   0.1250280  )
       181           Al  tau( 181) = (   0.5000190   0.7499814   0.2500328  )
       182           Al  tau( 182) = (   0.6249162   0.8749722   0.2500899  )
       183           Al  tau( 183) = (   0.6250056   0.7500054   0.3750226  )
       184           Al  tau( 184) = (   0.4999900   0.8749946   0.3750095  )
       185           Al  tau( 185) = (   0.5000102   0.7499739   0.5000102  )
       186           Al  tau( 186) = (   0.6249805   0.8749715   0.5000102  )
       187           Al  tau( 187) = (   0.6250097   0.7500095   0.6250097  )
       188           Al  tau( 188) = (   0.5000102   0.8749715   0.6249805  )
       189           Al  tau( 189) = (   0.5000128   0.7499781   0.7499672  )
       190           Al  tau( 190) = (   0.6249249   0.8749856   0.7499198  )
       191           Al  tau( 191) = (   0.6249204   0.7499289   0.8749658  )
       192           Al  tau( 192) = (   0.4999921   0.8749811   0.8749796  )
       193           Al  tau( 193) = (   0.7497673   0.9999367   0.0000030  )
       194           Al  tau( 194) = (   0.8729036   0.1262833   0.9997936  )
       195           Al  tau( 195) = (   0.8731037   0.9995935   0.1265089  )
       196           Al  tau( 196) = (   0.7492079   0.1252375   0.1252564  )
       197           Al  tau( 197) = (   0.7494718   0.9999216   0.2504597  )
       198           Al  tau( 198) = (   0.8740722   0.1250001   0.2509279  )
       199           Al  tau( 199) = (   0.8749460   0.9999489   0.3752340  )
       200           Al  tau( 200) = (   0.7498426   0.1250001   0.3751574  )
       201           Al  tau( 201) = (   0.7499534   0.0000072   0.4999919  )
       202           Al  tau( 202) = (   0.8749031   0.1250194   0.5000787  )
       203           Al  tau( 203) = (   0.8749720   0.9999826   0.6248171  )
       204           Al  tau( 204) = (   0.7499133   0.1249915   0.6249216  )
       205           Al  tau( 205) = (   0.7495436   0.0000131   0.7495436  )
       206           Al  tau( 206) = (   0.8746793   0.1252536   0.7493262  )
       207           Al  tau( 207) = (   0.8733486   0.9999279   0.8733486  )
       208           Al  tau( 208) = (   0.7493262   0.1252536   0.8746793  )
       209           Al  tau( 209) = (   0.7493614   0.2504567   0.9999951  )
       210           Al  tau( 210) = (   0.8743924   0.3754391   0.9997456  )
       211           Al  tau( 211) = (   0.8745341   0.2506245   0.1252420  )
       212           Al  tau( 212) = (   0.7497387   0.3750970   0.1250094  )
       213           Al  tau( 213) = (   0.7497660   0.2500512   0.2500541  )
       214           Al  tau( 214) = (   0.8743996   0.3753193   0.2503231  )
       215           Al  tau( 215) = (   0.8745404   0.2500785   0.3755282  )
       216           Al  tau( 216) = (   0.7499281   0.3749997   0.3750615  )
       217           Al  tau( 217) = (   0.7499061   0.2500188   0.5000774  )
       218           Al  tau( 218) = (   0.8749102   0.3750278   0.5000838  )
       219           Al  tau( 219) = (   0.8749372   0.2500710   0.6249231  )
       220           Al  tau( 220) = (   0.7499905   0.3750055   0.6250099  )
       221           Al  tau( 221) = (   0.7498773   0.2500454   0.7498773  )
       222           Al  tau( 222) = (   0.8749278   0.3750849   0.7498540  )
       223           Al  tau( 223) = (   0.8743008   0.2505954   0.8743008  )
       224           Al  tau( 224) = (   0.7498540   0.3750849   0.8749278  )
       225           Al  tau( 225) = (   0.7498649   0.5000703   0.9999931  )
       226           Al  tau( 226) = (   0.8749236   0.6248861   0.9999953  )
       227           Al  tau( 227) = (   0.8745165   0.5004577   0.1250259  )
       228           Al  tau( 228) = (   0.7498506   0.6250004   0.1250072  )
       229           Al  tau( 229) = (   0.7499026   0.5000686   0.2500286  )
       230           Al  tau( 230) = (   0.8749260   0.6249999   0.2500741  )
       231           Al  tau( 231) = (   0.8749313   0.5000518   0.3750684  )
       232           Al  tau( 232) = (   0.7500176   0.6249999   0.3749824  )
       233           Al  tau( 233) = (   0.7499775   0.4999946   0.4999944  )
       234           Al  tau( 234) = (   0.8749960   0.6249730   0.4999910  )
       235           Al  tau( 235) = (   0.8749673   0.5000186   0.6249810  )
       236           Al  tau( 236) = (   0.7499961   0.6250182   0.6250059  )
       237           Al  tau( 237) = (   0.7499903   0.4999894   0.7499903  )
       238           Al  tau( 238) = (   0.8750000   0.6249132   0.7499381  )
       239           Al  tau( 239) = (   0.8749273   0.5000467   0.8749273  )
       240           Al  tau( 240) = (   0.7499381   0.6249132   0.8750000  )
       241           Al  tau( 241) = (   0.7495184   0.7495383   0.9999859  )
       242           Al  tau( 242) = (   0.8733544   0.8733323   0.9999943  )
       243           Al  tau( 243) = (   0.8746922   0.7493836   0.1252578  )
       244           Al  tau( 244) = (   0.7493144   0.8746681   0.1252640  )
       245           Al  tau( 245) = (   0.7499316   0.7499481   0.2500688  )
       246           Al  tau( 246) = (   0.8746769   0.8746807   0.2506005  )
       247           Al  tau( 247) = (   0.8749715   0.7499313   0.3750974  )
       248           Al  tau( 248) = (   0.7499386   0.8750004   0.3750720  )
       249           Al  tau( 249) = (   0.7499672   0.7499781   0.5000128  )
       250           Al  tau( 250) = (   0.8749796   0.8749811   0.4999921  )
       251           Al  tau( 251) = (   0.8749658   0.7499289   0.6249204  )
       252           Al  tau( 252) = (   0.7499198   0.8749856   0.6249249  )
       253           Al  tau( 253) = (   0.7499430   0.7499535   0.7499430  )
       254           Al  tau( 254) = (   0.8747519   0.8747430   0.7493843  )
       255           Al  tau( 255) = (   0.8747272   0.7493866   0.8747272  )
       256           Al  tau( 256) = (   0.7493843   0.8747430   0.8747519  )

   Crystallographic axes

     site n.     atom                  positions (cryst. coord.)
         1           Mg  tau(   1) = (  0.9997093  0.9994509  0.9997093  )
         2           Al  tau(   2) = (  0.1264958  0.9998338  0.1264958  )
         3           Al  tau(   3) = (  0.1268225  0.1249996  0.9981774  )
         4           Al  tau(   4) = (  0.9981774  0.1249996  0.1268225  )
         5           Al  tau(   5) = (  0.9997581  0.9993755  0.2504660  )
         6           Al  tau(   6) = (  0.1252067  0.1237170  0.2520965  )
         7           Al  tau(   7) = (  0.1250051  0.9995433  0.3756386  )
         8           Al  tau(   8) = (  0.9997438  0.1247627  0.3757921  )
         9           Al  tau(   9) = (  0.9999925  0.9999294  0.5000824  )
        10           Al  tau(  10) = (  0.1250263  0.1250167  0.5001821  )
        11           Al  tau(  11) = (  0.1250099  0.9999447  0.6248165  )
        12           Al  tau(  12) = (  0.9999738  0.1249835  0.6248179  )
        13           Al  tau(  13) = (  0.0000030  0.9999367  0.7497673  )
        14           Al  tau(  14) = (  0.1252564  0.1252375  0.7492079  )
        15           Al  tau(  15) = (  0.1265089  0.9995935  0.8731037  )
        16           Al  tau(  16) = (  0.9997936  0.1262833  0.8729036  )
        17           Al  tau(  17) = (  0.9985039  0.2501663  0.9985039  )
        18           Al  tau(  18) = (  0.1250119  0.3767395  0.9984443  )
        19           Mg  tau(  19) = (  0.1252868  0.2505495  0.1252868  )
        20           Al  tau(  20) = (  0.9984443  0.3767395  0.1250119  )
        21           Al  tau(  21) = (  0.9984913  0.2504067  0.2518964  )
        22           Al  tau(  22) = (  0.1250060  0.3766673  0.2516454  )
        23           Al  tau(  23) = (  0.1249972  0.2500634  0.3752327  )
        24           Al  tau(  24) = (  0.9997361  0.3753320  0.3756857  )
        25           Al  tau(  25) = (  0.9999902  0.2500554  0.5001835  )
        26           Al  tau(  26) = (  0.1250155  0.3750282  0.5001860  )
        27           Al  tau(  27) = (  0.1250076  0.2500708  0.6249176  )
        28           Al  tau(  28) = (  0.9999721  0.3751045  0.6249237  )
        29           Al  tau(  29) = (  0.9999951  0.2504567  0.7493614  )
        30           Al  tau(  30) = (  0.1250094  0.3750970  0.7497387  )
        31           Al  tau(  31) = (  0.1252420  0.2506245  0.8745341  )
        32           Al  tau(  32) = (  0.9997456  0.3754391  0.8743924  )
        33           Al  tau(  33) = (  0.9997461  0.5006044  0.9997461  )
        34           Al  tau(  34) = (  0.1250080  0.6250000  0.9999921  )
        35           Al  tau(  35) = (  0.1250248  0.5001785  0.1250248  )
        36           Al  tau(  36) = (  0.9999921  0.6250000  0.1250080  )
        37           Al  tau(  37) = (  0.9997423  0.5006163  0.2503079  )
        38           Al  tau(  38) = (  0.1250048  0.6251138  0.2500764  )
        39           Al  tau(  39) = (  0.1250141  0.5004617  0.3754816  )
        40           Al  tau(  40) = (  0.9999929  0.6249994  0.3751494  )
        41           Al  tau(  41) = (  0.9999948  0.5000655  0.5000748  )
        42           Al  tau(  42) = (  0.1250142  0.6250598  0.5000762  )
        43           Al  tau(  43) = (  0.1250142  0.5000512  0.6249811  )
        44           Al  tau(  44) = (  0.9999858  0.6249401  0.6249237  )
        45           Al  tau(  45) = (  0.9999931  0.5000703  0.7498649  )
        46           Al  tau(  46) = (  0.1250072  0.6250004  0.7498506  )
        47           Al  tau(  47) = (  0.1250259  0.5004577  0.8745165  )
        48           Al  tau(  48) = (  0.9999953  0.6248861  0.8749236  )
        49           Al  tau(  49) = (  0.9999753  0.7498215  0.9999753  )
        50           Al  tau(  50) = (  0.1265558  0.8732605  0.9999883  )
        51           Al  tau(  51) = (  0.1252540  0.7493955  0.1252540  )
        52           Al  tau(  52) = (  0.9999883  0.8732605  0.1265558  )
        53           Al  tau(  53) = (  0.9999743  0.7495422  0.2504836  )
        54           Al  tau(  54) = (  0.1252546  0.8745609  0.2506077  )
        55           Al  tau(  55) = (  0.1250071  0.7499297  0.3751350  )
        56           Al  tau(  56) = (  0.9999907  0.8749030  0.3752613  )
        57           Al  tau(  57) = (  0.9999858  0.7499487  0.5000189  )
        58           Al  tau(  58) = (  0.1250280  0.8748955  0.5000763  )
        59           Al  tau(  59) = (  0.1250052  0.7499345  0.6249251  )
        60           Al  tau(  60) = (  0.9999846  0.8749718  0.6248140  )
        61           Al  tau(  61) = (  0.9999859  0.7495383  0.7495184  )
        62           Al  tau(  62) = (  0.1252640  0.8746681  0.7493144  )
        63           Al  tau(  63) = (  0.1252578  0.7493836  0.8746922  )
        64           Al  tau(  64) = (  0.9999943  0.8733323  0.8733544  )
        65           Al  tau(  65) = (  0.2504660  0.9993755  0.9997581  )
        66           Al  tau(  66) = (  0.3757921  0.1247627  0.9997438  )
        67           Al  tau(  67) = (  0.3756386  0.9995433  0.1250051  )
        68           Al  tau(  68) = (  0.2520965  0.1237170  0.1252067  )
        69           Al  tau(  69) = (  0.2506994  0.9994047  0.2506994  )
        70           Al  tau(  70) = (  0.3756739  0.1247466  0.2503209  )
        71           Al  tau(  71) = (  0.3751227  0.9999547  0.3751227  )
        72           Al  tau(  72) = (  0.2503209  0.1247466  0.3756739  )
        73           Al  tau(  73) = (  0.2500629  0.9999291  0.5000768  )
        74           Al  tau(  74) = (  0.3750868  0.1250086  0.5000783  )
        75           Al  tau(  75) = (  0.3750939  0.9999813  0.6249225  )
        76           Al  tau(  76) = (  0.2500970  0.1249808  0.6249213  )
        77           Al  tau(  77) = (  0.2504597  0.9999216  0.7494718  )
        78           Al  tau(  78) = (  0.3751574  0.1250001  0.7498426  )
        79           Al  tau(  79) = (  0.3752340  0.9999489  0.8749460  )
        80           Al  tau(  80) = (  0.2509279  0.1250001  0.8740722  )
        81           Al  tau(  81) = (  0.2518964  0.2504067  0.9984913  )
        82           Al  tau(  82) = (  0.3756857  0.3753320  0.9997361  )
        83           Al  tau(  83) = (  0.3752327  0.2500634  0.1249972  )
        84           Al  tau(  84) = (  0.2516454  0.3766673  0.1250060  )
        85           Al  tau(  85) = (  0.2516510  0.2500721  0.2516510  )
        86           Al  tau(  86) = (  0.3756157  0.3752570  0.2502482  )
        87           Al  tau(  87) = (  0.3754565  0.2499869  0.3754565  )
        88           Al  tau(  88) = (  0.2502482  0.3752570  0.3756157  )
        89           Al  tau(  89) = (  0.2500281  0.2500175  0.5001829  )
        90           Al  tau(  90) = (  0.3750802  0.3750144  0.5000750  )
        91           Al  tau(  91) = (  0.3750466  0.2499929  0.6250081  )
        92           Al  tau(  92) = (  0.2500205  0.3750189  0.6250079  )
        93           Al  tau(  93) = (  0.2500541  0.2500512  0.7497660  )
        94           Al  tau(  94) = (  0.3750615  0.3749997  0.7499281  )
        95           Al  tau(  95) = (  0.3755282  0.2500785  0.8745404  )
        96           Al  tau(  96) = (  0.2503231  0.3753193  0.8743996  )
        97           Al  tau(  97) = (  0.2503079  0.5006163  0.9997423  )
        98           Al  tau(  98) = (  0.3751494  0.6249994  0.9999929  )
        99           Al  tau(  99) = (  0.3754816  0.5004617  0.1250141  )
       100           Al  tau( 100) = (  0.2500764  0.6251138  0.1250048  )
       101           Al  tau( 101) = (  0.2502729  0.5006133  0.2502729  )
       102           Al  tau( 102) = (  0.3750619  0.6250867  0.2500000  )
       103           Al  tau( 103) = (  0.3750570  0.5000465  0.3750570  )
       104           Al  tau( 104) = (  0.2500000  0.6250867  0.3750619  )
       105           Al  tau( 105) = (  0.2500343  0.5000711  0.5000795  )
       106           Al  tau( 106) = (  0.3750040  0.6249818  0.4999940  )
       107           Al  tau( 107) = (  0.3750329  0.5000219  0.6249872  )
       108           Al  tau( 108) = (  0.2500041  0.6250269  0.6250090  )
       109           Al  tau( 109) = (  0.2500286  0.5000686  0.7499026  )
       110           Al  tau( 110) = (  0.3749824  0.6249999  0.7500176  )
       111           Al  tau( 111) = (  0.3750684  0.5000518  0.8749313  )
       112           Al  tau( 112) = (  0.2500741  0.6249999  0.8749260  )
       113           Al  tau( 113) = (  0.2504836  0.7495422  0.9999743  )
       114           Al  tau( 114) = (  0.3752613  0.8749030  0.9999907  )
       115           Al  tau( 115) = (  0.3751350  0.7499297  0.1250071  )
       116           Al  tau( 116) = (  0.2506077  0.8745609  0.1252546  )
       117           Al  tau( 117) = (  0.2500728  0.7499533  0.2500728  )
       118           Al  tau( 118) = (  0.3751459  0.8749151  0.2500723  )
       119           Al  tau( 119) = (  0.3750097  0.7500106  0.3750097  )
       120           Al  tau( 120) = (  0.2500723  0.8749151  0.3751459  )
       121           Al  tau( 121) = (  0.2500328  0.7499814  0.5000190  )
       122           Al  tau( 122) = (  0.3750095  0.8749946  0.4999900  )
       123           Al  tau( 123) = (  0.3750226  0.7500054  0.6250056  )
       124           Al  tau( 124) = (  0.2500899  0.8749722  0.6249162  )
       125           Al  tau( 125) = (  0.2500688  0.7499481  0.7499316  )
       126           Al  tau( 126) = (  0.3750720  0.8750004  0.7499386  )
       127           Al  tau( 127) = (  0.3750974  0.7499313  0.8749715  )
       128           Al  tau( 128) = (  0.2506005  0.8746807  0.8746769  )
       129           Al  tau( 129) = (  0.5000824  0.9999294  0.9999925  )
       130           Al  tau( 130) = (  0.6248179  0.1249835  0.9999738  )
       131           Al  tau( 131) = (  0.6248165  0.9999447  0.1250099  )
       132           Al  tau( 132) = (  0.5001821  0.1250167  0.1250263  )
       133           Al  tau( 133) = (  0.5000768  0.9999291  0.2500629  )
       134           Al  tau( 134) = (  0.6249213  0.1249808  0.2500970  )
       135           Al  tau( 135) = (  0.6249225  0.9999813  0.3750939  )
       136           Al  tau( 136) = (  0.5000783  0.1250086  0.3750868  )
       137           Al  tau( 137) = (  0.4999930  0.0000086  0.4999930  )
       138           Al  tau( 138) = (  0.6249809  0.1250001  0.5000190  )
       139           Al  tau( 139) = (  0.6249191  0.9999705  0.6249191  )
       140           Al  tau( 140) = (  0.5000190  0.1250001  0.6249809  )
       141           Al  tau( 141) = (  0.4999919  0.0000072  0.7499534  )
       142           Al  tau( 142) = (  0.6249216  0.1249915  0.7499133  )
       143           Al  tau( 143) = (  0.6248171  0.9999826  0.8749720  )
       144           Al  tau( 144) = (  0.5000787  0.1250194  0.8749031  )
       145           Al  tau( 145) = (  0.5001835  0.2500554  0.9999902  )
       146           Al  tau( 146) = (  0.6249237  0.3751045  0.9999721  )
       147           Al  tau( 147) = (  0.6249176  0.2500708  0.1250076  )
       148           Al  tau( 148) = (  0.5001860  0.3750282  0.1250155  )
       149           Al  tau( 149) = (  0.5001829  0.2500175  0.2500281  )
       150           Al  tau( 150) = (  0.6250079  0.3750189  0.2500205  )
       151           Al  tau( 151) = (  0.6250081  0.2499929  0.3750466  )
       152           Al  tau( 152) = (  0.5000750  0.3750144  0.3750802  )
       153           Al  tau( 153) = (  0.5000808  0.2500295  0.5000808  )
       154           Al  tau( 154) = (  0.6249897  0.3750286  0.5000195  )
       155           Al  tau( 155) = (  0.6250070  0.2499915  0.6250070  )
       156           Al  tau( 156) = (  0.5000195  0.3750286  0.6249897  )
       157           Al  tau( 157) = (  0.5000774  0.2500188  0.7499061  )
       158           Al  tau( 158) = (  0.6250099  0.3750055  0.7499905  )
       159           Al  tau( 159) = (  0.6249231  0.2500710  0.8749372  )
       160           Al  tau( 160) = (  0.5000838  0.3750278  0.8749102  )
       161           Al  tau( 161) = (  0.5000748  0.5000655  0.9999948  )
       162           Al  tau( 162) = (  0.6249237  0.6249401  0.9999858  )
       163           Al  tau( 163) = (  0.6249811  0.5000512  0.1250142  )
       164           Al  tau( 164) = (  0.5000762  0.6250598  0.1250142  )
       165           Al  tau( 165) = (  0.5000795  0.5000711  0.2500343  )
       166           Al  tau( 166) = (  0.6250090  0.6250269  0.2500041  )
       167           Al  tau( 167) = (  0.6249872  0.5000219  0.3750329  )
       168           Al  tau( 168) = (  0.4999940  0.6249818  0.3750040  )
       169           Al  tau( 169) = (  0.4999903  0.4999905  0.4999903  )
       170           Al  tau( 170) = (  0.6249878  0.6250000  0.5000122  )
       171           Al  tau( 171) = (  0.6249898  0.5000261  0.6249898  )
       172           Al  tau( 172) = (  0.5000122  0.6250000  0.6249878  )
       173           Al  tau( 173) = (  0.4999944  0.4999946  0.7499775  )
       174           Al  tau( 174) = (  0.6250059  0.6250182  0.7499961  )
       175           Al  tau( 175) = (  0.6249810  0.5000186  0.8749673  )
       176           Al  tau( 176) = (  0.4999910  0.6249730  0.8749960  )
       177           Al  tau( 177) = (  0.5000189  0.7499487  0.9999858  )
       178           Al  tau( 178) = (  0.6248140  0.8749718  0.9999846  )
       179           Al  tau( 179) = (  0.6249251  0.7499345  0.1250052  )
       180           Al  tau( 180) = (  0.5000763  0.8748955  0.1250280  )
       181           Al  tau( 181) = (  0.5000190  0.7499814  0.2500328  )
       182           Al  tau( 182) = (  0.6249162  0.8749722  0.2500899  )
       183           Al  tau( 183) = (  0.6250056  0.7500054  0.3750226  )
       184           Al  tau( 184) = (  0.4999900  0.8749946  0.3750095  )
       185           Al  tau( 185) = (  0.5000102  0.7499739  0.5000102  )
       186           Al  tau( 186) = (  0.6249805  0.8749715  0.5000102  )
       187           Al  tau( 187) = (  0.6250097  0.7500095  0.6250097  )
       188           Al  tau( 188) = (  0.5000102  0.8749715  0.6249805  )
       189           Al  tau( 189) = (  0.5000128  0.7499781  0.7499672  )
       190           Al  tau( 190) = (  0.6249249  0.8749856  0.7499198  )
       191           Al  tau( 191) = (  0.6249204  0.7499289  0.8749658  )
       192           Al  tau( 192) = (  0.4999921  0.8749811  0.8749796  )
       193           Al  tau( 193) = (  0.7497673  0.9999367  0.0000030  )
       194           Al  tau( 194) = (  0.8729036  0.1262833  0.9997936  )
       195           Al  tau( 195) = (  0.8731037  0.9995935  0.1265089  )
       196           Al  tau( 196) = (  0.7492079  0.1252375  0.1252564  )
       197           Al  tau( 197) = (  0.7494718  0.9999216  0.2504597  )
       198           Al  tau( 198) = (  0.8740722  0.1250001  0.2509279  )
       199           Al  tau( 199) = (  0.8749460  0.9999489  0.3752340  )
       200           Al  tau( 200) = (  0.7498426  0.1250001  0.3751574  )
       201           Al  tau( 201) = (  0.7499534  0.0000072  0.4999919  )
       202           Al  tau( 202) = (  0.8749031  0.1250194  0.5000787  )
       203           Al  tau( 203) = (  0.8749720  0.9999826  0.6248171  )
       204           Al  tau( 204) = (  0.7499133  0.1249915  0.6249216  )
       205           Al  tau( 205) = (  0.7495436  0.0000131  0.7495436  )
       206           Al  tau( 206) = (  0.8746793  0.1252536  0.7493262  )
       207           Al  tau( 207) = (  0.8733486  0.9999279  0.8733486  )
       208           Al  tau( 208) = (  0.7493262  0.1252536  0.8746793  )
       209           Al  tau( 209) = (  0.7493614  0.2504567  0.9999951  )
       210           Al  tau( 210) = (  0.8743924  0.3754391  0.9997456  )
       211           Al  tau( 211) = (  0.8745341  0.2506245  0.1252420  )
       212           Al  tau( 212) = (  0.7497387  0.3750970  0.1250094  )
       213           Al  tau( 213) = (  0.7497660  0.2500512  0.2500541  )
       214           Al  tau( 214) = (  0.8743996  0.3753193  0.2503231  )
       215           Al  tau( 215) = (  0.8745404  0.2500785  0.3755282  )
       216           Al  tau( 216) = (  0.7499281  0.3749997  0.3750615  )
       217           Al  tau( 217) = (  0.7499061  0.2500188  0.5000774  )
       218           Al  tau( 218) = (  0.8749102  0.3750278  0.5000838  )
       219           Al  tau( 219) = (  0.8749372  0.2500710  0.6249231  )
       220           Al  tau( 220) = (  0.7499905  0.3750055  0.6250099  )
       221           Al  tau( 221) = (  0.7498773  0.2500454  0.7498773  )
       222           Al  tau( 222) = (  0.8749278  0.3750849  0.7498540  )
       223           Al  tau( 223) = (  0.8743008  0.2505954  0.8743008  )
       224           Al  tau( 224) = (  0.7498540  0.3750849  0.8749278  )
       225           Al  tau( 225) = (  0.7498649  0.5000703  0.9999931  )
       226           Al  tau( 226) = (  0.8749236  0.6248861  0.9999953  )
       227           Al  tau( 227) = (  0.8745165  0.5004577  0.1250259  )
       228           Al  tau( 228) = (  0.7498506  0.6250004  0.1250072  )
       229           Al  tau( 229) = (  0.7499026  0.5000686  0.2500286  )
       230           Al  tau( 230) = (  0.8749260  0.6249999  0.2500741  )
       231           Al  tau( 231) = (  0.8749313  0.5000518  0.3750684  )
       232           Al  tau( 232) = (  0.7500176  0.6249999  0.3749824  )
       233           Al  tau( 233) = (  0.7499775  0.4999946  0.4999944  )
       234           Al  tau( 234) = (  0.8749960  0.6249730  0.4999910  )
       235           Al  tau( 235) = (  0.8749673  0.5000186  0.6249810  )
       236           Al  tau( 236) = (  0.7499961  0.6250182  0.6250059  )
       237           Al  tau( 237) = (  0.7499903  0.4999894  0.7499903  )
       238           Al  tau( 238) = (  0.8750000  0.6249132  0.7499381  )
       239           Al  tau( 239) = (  0.8749273  0.5000467  0.8749273  )
       240           Al  tau( 240) = (  0.7499381  0.6249132  0.8750000  )
       241           Al  tau( 241) = (  0.7495184  0.7495383  0.9999859  )
       242           Al  tau( 242) = (  0.8733544  0.8733323  0.9999943  )
       243           Al  tau( 243) = (  0.8746922  0.7493836  0.1252578  )
       244           Al  tau( 244) = (  0.7493144  0.8746681  0.1252640  )
       245           Al  tau( 245) = (  0.7499316  0.7499481  0.2500688  )
       246           Al  tau( 246) = (  0.8746769  0.8746807  0.2506005  )
       247           Al  tau( 247) = (  0.8749715  0.7499313  0.3750974  )
       248           Al  tau( 248) = (  0.7499386  0.8750004  0.3750720  )
       249           Al  tau( 249) = (  0.7499672  0.7499781  0.5000128  )
       250           Al  tau( 250) = (  0.8749796  0.8749811  0.4999921  )
       251           Al  tau( 251) = (  0.8749658  0.7499289  0.6249204  )
       252           Al  tau( 252) = (  0.7499198  0.8749856  0.6249249  )
       253           Al  tau( 253) = (  0.7499430  0.7499535  0.7499430  )
       254           Al  tau( 254) = (  0.8747519  0.8747430  0.7493843  )
       255           Al  tau( 255) = (  0.8747272  0.7493866  0.8747272  )
       256           Al  tau( 256) = (  0.7493843  0.8747430  0.8747519  )

     number of k points=    63  Methfessel-Paxton smearing, width (Ry)=  0.0441
                       cart. coord. in units 2pi/alat
        k(    1) = (   0.0000000   0.0000000   0.0000000), wk =   0.0160000
        k(    2) = (   0.0000000   0.0000000   0.2000000), wk =   0.0320000
        k(    3) = (   0.0000000   0.0000000   0.4000000), wk =   0.0320000
        k(    4) = (   0.0000000   0.2000000   0.0000000), wk =   0.0320000
        k(    5) = (   0.0000000   0.2000000   0.2000000), wk =   0.0320000
        k(    6) = (   0.0000000   0.2000000   0.4000000), wk =   0.0320000
        k(    7) = (   0.0000000   0.2000000  -0.4000000), wk =   0.0320000
        k(    8) = (   0.0000000   0.2000000  -0.2000000), wk =   0.0320000
        k(    9) = (   0.0000000   0.4000000   0.0000000), wk =   0.0320000
        k(   10) = (   0.0000000   0.4000000   0.2000000), wk =   0.0320000
        k(   11) = (   0.0000000   0.4000000   0.4000000), wk =   0.0320000
        k(   12) = (   0.0000000   0.4000000  -0.4000000), wk =   0.0320000
        k(   13) = (   0.0000000   0.4000000  -0.2000000), wk =   0.0320000
        k(   14) = (   0.2000000   0.0000000   0.0000000), wk =   0.0320000
        k(   15) = (   0.2000000   0.0000000   0.2000000), wk =   0.0320000
        k(   16) = (   0.2000000   0.0000000   0.4000000), wk =   0.0320000
        k(   17) = (   0.2000000   0.0000000  -0.4000000), wk =   0.0320000
        k(   18) = (   0.2000000   0.0000000  -0.2000000), wk =   0.0320000
        k(   19) = (   0.2000000   0.2000000   0.0000000), wk =   0.0320000
        k(   20) = (   0.2000000   0.2000000   0.2000000), wk =   0.0320000
        k(   21) = (   0.2000000   0.2000000   0.4000000), wk =   0.0320000
        k(   22) = (   0.2000000   0.2000000  -0.4000000), wk =   0.0320000
        k(   23) = (   0.2000000   0.2000000  -0.2000000), wk =   0.0320000
        k(   24) = (   0.2000000   0.4000000   0.0000000), wk =   0.0320000
        k(   25) = (   0.2000000   0.4000000   0.2000000), wk =   0.0320000
        k(   26) = (   0.2000000   0.4000000   0.4000000), wk =   0.0320000
        k(   27) = (   0.2000000   0.4000000  -0.4000000), wk =   0.0320000
        k(   28) = (   0.2000000   0.4000000  -0.2000000), wk =   0.0320000
        k(   29) = (   0.2000000  -0.4000000   0.0000000), wk =   0.0320000
        k(   30) = (   0.2000000  -0.4000000   0.2000000), wk =   0.0320000
        k(   31) = (   0.2000000  -0.4000000   0.4000000), wk =   0.0320000
        k(   32) = (   0.2000000  -0.4000000  -0.4000000), wk =   0.0320000
        k(   33) = (   0.2000000  -0.4000000  -0.2000000), wk =   0.0320000
        k(   34) = (   0.2000000  -0.2000000   0.0000000), wk =   0.0320000
        k(   35) = (   0.2000000  -0.2000000   0.2000000), wk =   0.0320000
        k(   36) = (   0.2000000  -0.2000000   0.4000000), wk =   0.0320000
        k(   37) = (   0.2000000  -0.2000000  -0.4000000), wk =   0.0320000
        k(   38) = (   0.2000000  -0.2000000  -0.2000000), wk =   0.0320000
        k(   39) = (   0.4000000   0.0000000   0.0000000), wk =   0.0320000
        k(   40) = (   0.4000000   0.0000000   0.2000000), wk =   0.0320000
        k(   41) = (   0.4000000   0.0000000   0.4000000), wk =   0.0320000
        k(   42) = (   0.4000000   0.0000000  -0.4000000), wk =   0.0320000
        k(   43) = (   0.4000000   0.0000000  -0.2000000), wk =   0.0320000
        k(   44) = (   0.4000000   0.2000000   0.0000000), wk =   0.0320000
        k(   45) = (   0.4000000   0.2000000   0.2000000), wk =   0.0320000
        k(   46) = (   0.4000000   0.2000000   0.4000000), wk =   0.0320000
        k(   47) = (   0.4000000   0.2000000  -0.4000000), wk =   0.0320000
        k(   48) = (   0.4000000   0.2000000  -0.2000000), wk =   0.0320000
        k(   49) = (   0.4000000   0.4000000   0.0000000), wk =   0.0320000
        k(   50) = (   0.4000000   0.4000000   0.2000000), wk =   0.0320000
        k(   51) = (   0.4000000   0.4000000   0.4000000), wk =   0.0320000
        k(   52) = (   0.4000000   0.4000000  -0.4000000), wk =   0.0320000
        k(   53) = (   0.4000000   0.4000000  -0.2000000), wk =   0.0320000
        k(   54) = (   0.4000000  -0.4000000   0.0000000), wk =   0.0320000
        k(   55) = (   0.4000000  -0.4000000   0.2000000), wk =   0.0320000
        k(   56) = (   0.4000000  -0.4000000   0.4000000), wk =   0.0320000
        k(   57) = (   0.4000000  -0.4000000  -0.4000000), wk =   0.0320000
        k(   58) = (   0.4000000  -0.4000000  -0.2000000), wk =   0.0320000
        k(   59) = (   0.4000000  -0.2000000   0.0000000), wk =   0.0320000
        k(   60) = (   0.4000000  -0.2000000   0.2000000), wk =   0.0320000
        k(   61) = (   0.4000000  -0.2000000   0.4000000), wk =   0.0320000
        k(   62) = (   0.4000000  -0.2000000  -0.4000000), wk =   0.0320000
        k(   63) = (   0.4000000  -0.2000000  -0.2000000), wk =   0.0320000

                       cryst. coord.
        k(    1) = (   0.0000000   0.0000000   0.0000000), wk =   0.0160000
        k(    2) = (   0.0000000   0.0000000   0.2000000), wk =   0.0320000
        k(    3) = (   0.0000000   0.0000000   0.4000000), wk =   0.0320000
        k(    4) = (   0.0000000   0.2000000   0.0000000), wk =   0.0320000
        k(    5) = (   0.0000000   0.2000000   0.2000000), wk =   0.0320000
        k(    6) = (   0.0000000   0.2000000   0.4000000), wk =   0.0320000
        k(    7) = (   0.0000000   0.2000000  -0.4000000), wk =   0.0320000
        k(    8) = (   0.0000000   0.2000000  -0.2000000), wk =   0.0320000
        k(    9) = (   0.0000000   0.4000000   0.0000000), wk =   0.0320000
        k(   10) = (   0.0000000   0.4000000   0.2000000), wk =   0.0320000
        k(   11) = (   0.0000000   0.4000000   0.4000000), wk =   0.0320000
        k(   12) = (   0.0000000   0.4000000  -0.4000000), wk =   0.0320000
        k(   13) = (   0.0000000   0.4000000  -0.2000000), wk =   0.0320000
        k(   14) = (   0.2000000   0.0000000   0.0000000), wk =   0.0320000
        k(   15) = (   0.2000000   0.0000000   0.2000000), wk =   0.0320000
        k(   16) = (   0.2000000   0.0000000   0.4000000), wk =   0.0320000
        k(   17) = (   0.2000000   0.0000000  -0.4000000), wk =   0.0320000
        k(   18) = (   0.2000000   0.0000000  -0.2000000), wk =   0.0320000
        k(   19) = (   0.2000000   0.2000000   0.0000000), wk =   0.0320000
        k(   20) = (   0.2000000   0.2000000   0.2000000), wk =   0.0320000
        k(   21) = (   0.2000000   0.2000000   0.4000000), wk =   0.0320000
        k(   22) = (   0.2000000   0.2000000  -0.4000000), wk =   0.0320000
        k(   23) = (   0.2000000   0.2000000  -0.2000000), wk =   0.0320000
        k(   24) = (   0.2000000   0.4000000   0.0000000), wk =   0.0320000
        k(   25) = (   0.2000000   0.4000000   0.2000000), wk =   0.0320000
        k(   26) = (   0.2000000   0.4000000   0.4000000), wk =   0.0320000
        k(   27) = (   0.2000000   0.4000000  -0.4000000), wk =   0.0320000
        k(   28) = (   0.2000000   0.4000000  -0.2000000), wk =   0.0320000
        k(   29) = (   0.2000000  -0.4000000   0.0000000), wk =   0.0320000
        k(   30) = (   0.2000000  -0.4000000   0.2000000), wk =   0.0320000
        k(   31) = (   0.2000000  -0.4000000   0.4000000), wk =   0.0320000
        k(   32) = (   0.2000000  -0.4000000  -0.4000000), wk =   0.0320000
        k(   33) = (   0.2000000  -0.4000000  -0.2000000), wk =   0.0320000
        k(   34) = (   0.2000000  -0.2000000   0.0000000), wk =   0.0320000
        k(   35) = (   0.2000000  -0.2000000   0.2000000), wk =   0.0320000
        k(   36) = (   0.2000000  -0.2000000   0.4000000), wk =   0.0320000
        k(   37) = (   0.2000000  -0.2000000  -0.4000000), wk =   0.0320000
        k(   38) = (   0.2000000  -0.2000000  -0.2000000), wk =   0.0320000
        k(   39) = (   0.4000000   0.0000000   0.0000000), wk =   0.0320000
        k(   40) = (   0.4000000   0.0000000   0.2000000), wk =   0.0320000
        k(   41) = (   0.4000000   0.0000000   0.4000000), wk =   0.0320000
        k(   42) = (   0.4000000   0.0000000  -0.4000000), wk =   0.0320000
        k(   43) = (   0.4000000   0.0000000  -0.2000000), wk =   0.0320000
        k(   44) = (   0.4000000   0.2000000   0.0000000), wk =   0.0320000
        k(   45) = (   0.4000000   0.2000000   0.2000000), wk =   0.0320000
        k(   46) = (   0.4000000   0.2000000   0.4000000), wk =   0.0320000
        k(   47) = (   0.4000000   0.2000000  -0.4000000), wk =   0.0320000
        k(   48) = (   0.4000000   0.2000000  -0.2000000), wk =   0.0320000
        k(   49) = (   0.4000000   0.4000000   0.0000000), wk =   0.0320000
        k(   50) = (   0.4000000   0.4000000   0.2000000), wk =   0.0320000
        k(   51) = (   0.4000000   0.4000000   0.4000000), wk =   0.0320000
        k(   52) = (   0.4000000   0.4000000  -0.4000000), wk =   0.0320000
        k(   53) = (   0.4000000   0.4000000  -0.2000000), wk =   0.0320000
        k(   54) = (   0.4000000  -0.4000000   0.0000000), wk =   0.0320000
        k(   55) = (   0.4000000  -0.4000000   0.2000000), wk =   0.0320000
        k(   56) = (   0.4000000  -0.4000000   0.4000000), wk =   0.0320000
        k(   57) = (   0.4000000  -0.4000000  -0.4000000), wk =   0.0320000
        k(   58) = (   0.4000000  -0.4000000  -0.2000000), wk =   0.0320000
        k(   59) = (   0.4000000  -0.2000000   0.0000000), wk =   0.0320000
        k(   60) = (   0.4000000  -0.2000000   0.2000000), wk =   0.0320000
        k(   61) = (   0.4000000  -0.2000000   0.4000000), wk =   0.0320000
        k(   62) = (   0.4000000  -0.2000000  -0.4000000), wk =   0.0320000
        k(   63) = (   0.4000000  -0.2000000  -0.2000000), wk =   0.0320000

     Dense  grid:  3895379 G-vectors     FFT dimensions: ( 200, 200, 200)

     Smooth grid:   985619 G-vectors     FFT dimensions: ( 125, 125, 125)

     Dynamical RAM for                 wfc:      96.08 MB

     Dynamical RAM for     wfc (w. buffer):    1633.42 MB

     Dynamical RAM for           str. fact:      13.21 MB

     Dynamical RAM for           local pot:       0.00 MB

     Dynamical RAM for          nlocal pot:     958.33 MB

     Dynamical RAM for                qrad:      15.65 MB

     Dynamical RAM for          rho,v,vnew:      40.87 MB

     Dynamical RAM for               rhoin:      13.62 MB

     Dynamical RAM for            rho*nmix:     105.67 MB

     Dynamical RAM for           G-vectors:      25.60 MB

     Dynamical RAM for          h,s,v(r/c):      38.75 MB

     Dynamical RAM for          <psi|beta>:      32.20 MB

     Dynamical RAM for                 psi:     384.33 MB

     Dynamical RAM for                hpsi:     384.33 MB

     Dynamical RAM for                spsi:     384.33 MB

     Dynamical RAM for      wfcinit/wfcrot:     451.79 MB

     Dynamical RAM for           addusdens:     731.43 MB

     Dynamical RAM for          addusforce:    1576.13 MB

     Dynamical RAM for         addusstress:     334.34 MB

     Estimated static dynamical RAM per process >       2.79 GB

     Estimated max dynamical RAM per process >       4.33 GB

     Estimated total dynamical RAM >     156.00 GB

     Initial potential from superposition of free atoms

     starting charge  765.41644, renormalised to  766.00000
     Starting wfcs are 1024 randomized atomic wfcs
