LAMMPS data file generated get_lammps_data.py

999 atoms
3 atom types

0.0 28.68732211273824 xlo xhi
0.0 24.84394971617839 ylo yhi
0.0 23.42310042102312 zlo zhi
14.343661056369118 14.343661056369118 8.281316572059461 xy xz yz

Masses

1 24.305
2 26.9815385
3 28.085

Atoms

    1     1 0.0  0.0  0.0
    2     1 1.4343661056369128  0.8281316572059467  2.3423100421023135
    3     1 2.8687322112738256  1.6562633144118935  4.684620084204627
    4     1 4.303098316910738  2.48439497161784  7.02693012630694
    5     1 5.737464422547651  3.312526628823787  9.369240168409254
    6     1 7.171830528184564  4.140658286029734  11.711550210511566
    7     1 8.606196633821476  4.96878994323568  14.05386025261388
    8     1 10.04056273945839  5.796921600441628  16.396170294716196
    9     1 11.474928845095302  6.625053257647574  18.738480336818508
   10     1 12.909294950732214  7.45318491485352  21.08079037892082
   11     1 1.4343661056369126  2.484394971617841  -4.3261090838483843e-17
   12     1 2.868732211273825  3.3125266288237873  2.342310042102313
   13     3 4.303098316910738  4.140658286029734  4.684620084204627
   14     3 5.73746442254765  4.968789943235681  7.026930126306939
   15     3 7.171830528184564  5.796921600441628  9.369240168409254
   16     3 8.606196633821476  6.625053257647575  11.711550210511568
   17     3 10.04056273945839  7.453184914853522  14.053860252613882
   18     3 11.474928845095302  8.281316572059469  16.396170294716196
   19     3 12.909294950732216  9.109448229265414  18.738480336818508
   20     3 14.343661056369127  9.937579886471362  21.08079037892082
   21     3 2.868732211273825  4.968789943235682  -8.652218167696769e-17
   22     3 4.303098316910738  5.796921600441627  2.3423100421023135
   23     3 5.73746442254765  6.625053257647575  4.684620084204626
   24     3 7.171830528184564  7.453184914853522  7.026930126306938
   25     2 10.04056273945839  9.109448229265416  11.711550210511566
   26     2 11.4749288450953  9.937579886471362  14.053860252613879
   27     2 12.909294950732214  10.765711543677309  16.396170294716196
   28     2 14.343661056369127  11.593843200883256  18.738480336818508
   29     2 15.778027162006039  12.421974858089204  21.080790378920824
   30     2 4.303098316910737  7.453184914853521  1.6096217226180124e-16
   31     2 5.73746442254765  8.281316572059469  2.342310042102314
   32     2 7.171830528184563  9.109448229265416  4.684620084204626
   33     2 8.606196633821476  9.937579886471362  7.02693012630694
   34     2 10.04056273945839  10.765711543677309  9.369240168409254
   35     2 11.4749288450953  11.593843200883255  11.711550210511566
   36     2 12.909294950732214  12.421974858089202  14.053860252613879
   37     2 14.343661056369127  13.25010651529515  16.396170294716196
   38     2 15.77802716200604  14.078238172501097  18.73848033681851
   39     2 17.212393267642952  14.90636982970704  21.080790378920824
   40     2 5.73746442254765  9.937579886471363  -1.7304436335393537e-16
   41     2 7.171830528184564  10.765711543677309  2.342310042102313
   42     2 8.606196633821476  11.593843200883255  4.684620084204627
   43     2 10.04056273945839  12.421974858089204  7.026930126306941
   44     2 11.4749288450953  13.25010651529515  9.369240168409252
   45     2 12.909294950732214  14.078238172501097  11.711550210511565
   46     2 14.343661056369127  14.906369829707044  14.053860252613877
   47     2 15.77802716200604  15.734501486912992  16.396170294716196
   48     2 17.212393267642952  16.562633144118937  18.738480336818508
   49     2 18.646759373279863  17.390764801324885  21.08079037892082
   50     2 7.171830528184563  12.421974858089204  -3.6964921926522906e-16
   51     2 8.606196633821476  13.25010651529515  2.3423100421023126
   52     2 10.040562739458387  14.078238172501097  4.684620084204629
   53     2 11.4749288450953  14.906369829707044  7.026930126306941
   54     2 12.909294950732214  15.73450148691299  9.369240168409252
   55     2 14.343661056369125  16.562633144118937  11.711550210511565
   56     2 15.778027162006039  17.390764801324885  14.05386025261388
   57     2 17.212393267642952  18.21889645853083  16.396170294716196
   58     2 18.646759373279867  19.047028115736776  18.738480336818508
   59     2 20.08112547891678  19.875159772942723  21.08079037892082
   60     2 8.606196633821474  14.906369829707042  3.219243445236025e-16
   61     2 10.040562739458387  15.73450148691299  2.3423100421023144
   62     2 11.4749288450953  16.562633144118937  4.684620084204628
   63     2 12.909294950732212  17.390764801324885  7.02693012630694
   64     2 14.343661056369125  18.218896458530832  9.369240168409252
   65     2 15.778027162006039  19.04702811573678  11.711550210511568
   66     2 17.212393267642952  19.875159772942723  14.05386025261388
   67     2 18.646759373279863  20.70329143014867  16.396170294716196
   68     2 20.08112547891678  21.531423087354618  18.738480336818508
   69     2 21.515491584553686  22.359554744560562  21.08079037892082
   70     2 10.040562739458387  17.390764801324885  8.760962286079911e-16
   71     2 11.4749288450953  18.218896458530832  2.342310042102313
   72     2 12.909294950732214  19.047028115736776  4.684620084204627
   73     2 14.343661056369125  19.875159772942727  7.026930126306939
   74     2 15.778027162006039  20.703291430148674  9.369240168409254
   75     2 17.212393267642952  21.531423087354618  11.711550210511566
   76     2 18.646759373279863  22.359554744560565  14.053860252613879
   77     2 20.08112547891678  23.187686401766513  16.396170294716196
   78     2 21.51549158455369  24.015818058972457  18.738480336818508
   79     2 22.9498576901906  24.843949716178404  21.08079037892082
   80     2 11.4749288450953  19.875159772942727  -3.4608872670787075e-16
   81     2 12.909294950732214  20.70329143014867  2.3423100421023118
   82     2 14.343661056369127  21.531423087354618  4.684620084204626
   83     2 15.778027162006039  22.35955474456057  7.026930126306938
   84     2 17.212393267642952  23.18768640176651  9.369240168409254
   85     2 18.646759373279863  24.01581805897246  11.711550210511566
   86     2 20.08112547891678  24.843949716178408  14.053860252613882
   87     2 21.51549158455369  25.67208137338435  16.396170294716192
   88     2 22.9498576901906  26.5002130305903  18.738480336818505
   89     2 24.384223795827513  27.328344687796243  21.080790378920817
   90     2 12.909294950732212  22.359554744560565  4.828865167854037e-16
   91     2 14.343661056369124  23.187686401766513  2.3423100421023126
   92     2 15.778027162006037  24.01581805897246  4.684620084204629
   93     2 17.21239326764295  24.843949716178404  7.026930126306939
   94     2 18.646759373279863  25.67208137338435  9.369240168409254
   95     2 20.081125478916775  26.500213030590302  11.71155021051157
   96     2 21.515491584553686  27.328344687796246  14.053860252613879
   97     2 22.9498576901906  28.156476345002194  16.396170294716196
   98     2 24.384223795827513  28.984608002208137  18.738480336818508
   99     2 25.818589901464424  29.812739659414085  21.08079037892082
  100     2 2.8687322112738256  4.981604528015504e-17  -4.3261090838483843e-17
  101     2 4.303098316910739  0.8281316572059467  2.342310042102313
  102     2 5.737464422547651  1.6562633144118935  4.684620084204627
  103     2 7.171830528184564  2.48439497161784  7.026930126306939
  104     2 8.606196633821476  3.3125266288237873  9.369240168409254
  105     2 10.04056273945839  4.140658286029734  11.711550210511568
  106     2 11.474928845095302  4.968789943235681  14.053860252613882
  107     2 12.909294950732216  5.796921600441628  16.396170294716196
  108     2 14.343661056369127  6.625053257647575  18.738480336818508
  109     2 15.77802716200604  7.453184914853521  21.08079037892082
  110     2 4.303098316910738  2.484394971617841  -8.652218167696769e-17
  111     2 5.737464422547651  3.3125266288237873  2.3423100421023135
  112     2 7.171830528184564  4.140658286029734  4.684620084204626
  113     2 8.606196633821476  4.968789943235681  7.02693012630694
  114     2 10.04056273945839  5.796921600441628  9.369240168409252
  115     2 11.4749288450953  6.625053257647574  11.711550210511566
  116     2 12.909294950732214  7.453184914853522  14.053860252613882
  117     2 14.343661056369127  8.281316572059469  16.396170294716196
  118     2 15.778027162006039  9.109448229265414  18.738480336818508
  119     2 17.212393267642952  9.937579886471363  21.08079037892082
  120     2 5.73746442254765  4.968789943235681  1.6096217226180124e-16
  121     2 7.171830528184564  5.796921600441627  2.342310042102314
  122     2 8.606196633821476  6.625053257647574  4.684620084204626
  123     2 10.04056273945839  7.453184914853521  7.02693012630694
  124     2 11.4749288450953  8.281316572059469  9.369240168409254
  125     2 12.909294950732214  9.109448229265416  11.711550210511568
  126     2 14.343661056369127  9.937579886471362  14.053860252613882
  127     2 15.77802716200604  10.765711543677307  16.396170294716196
  128     2 17.212393267642952  11.593843200883255  18.738480336818508
  129     2 18.646759373279863  12.421974858089204  21.080790378920824
  130     2 7.171830528184564  7.453184914853521  -1.7304436335393537e-16
  131     2 8.606196633821476  8.281316572059469  2.342310042102313
  132     2 10.04056273945839  9.109448229265416  4.684620084204625
  133     2 11.474928845095302  9.937579886471362  7.026930126306941
  134     2 12.909294950732214  10.76571154367731  9.369240168409252
  135     2 14.343661056369127  11.593843200883255  11.711550210511565
  136     2 15.77802716200604  12.421974858089202  14.05386025261388
  137     2 17.212393267642952  13.25010651529515  16.396170294716192
  138     2 18.646759373279863  14.078238172501097  18.738480336818508
  139     2 20.08112547891678  14.906369829707042  21.08079037892082
  140     2 8.606196633821476  9.937579886471363  5.185292004348962e-16
  141     2 10.04056273945839  10.765711543677309  2.3423100421023126
  142     2 11.4749288450953  11.593843200883256  4.684620084204627
  143     2 12.909294950732214  12.421974858089204  7.026930126306941
  144     2 14.343661056369125  13.25010651529515  9.369240168409252
  145     2 15.778027162006039  14.078238172501097  11.711550210511565
  146     2 17.212393267642952  14.906369829707044  14.05386025261388
  147     2 18.646759373279867  15.734501486912992  16.396170294716196
  148     2 20.08112547891678  16.562633144118934  18.738480336818508
  149     2 21.51549158455369  17.390764801324885  21.08079037892082
  150     2 10.040562739458387  12.421974858089202  3.219243445236025e-16
  151     2 11.4749288450953  13.250106515295148  2.3423100421023144
  152     2 12.909294950732214  14.078238172501097  4.684620084204628
  153     2 14.343661056369125  14.906369829707042  7.02693012630694
  154     2 15.778027162006039  15.73450148691299  9.369240168409252
  155     2 17.212393267642952  16.562633144118937  11.711550210511565
  156     2 18.646759373279863  17.390764801324885  14.053860252613884
  157     2 20.08112547891678  18.21889645853083  16.396170294716196
  158     2 21.51549158455369  19.047028115736776  18.738480336818508
  159     2 22.9498576901906  19.875159772942727  21.08079037892082
  160     2 11.4749288450953  14.906369829707042  -9.002606107922594e-16
  161     2 12.909294950732214  15.73450148691299  2.342310042102315
  162     2 14.343661056369125  16.562633144118937  4.684620084204627
  163     2 15.778027162006039  17.390764801324885  7.026930126306939
  164     2 17.212393267642952  18.218896458530832  9.36924016840925
  165     2 18.646759373279863  19.04702811573678  11.711550210511566
  166     2 20.08112547891678  19.875159772942723  14.053860252613882
  167     2 21.51549158455369  20.70329143014867  16.396170294716196
  168     2 22.9498576901906  21.531423087354618  18.738480336818508
  169     2 24.384223795827513  22.359554744560562  21.08079037892082
  170     2 12.909294950732214  17.390764801324885  -3.4608872670787075e-16
  171     2 14.343661056369127  18.218896458530832  2.3423100421023135
  172     2 15.778027162006039  19.04702811573678  4.684620084204626
  173     2 17.212393267642952  19.875159772942727  7.026930126306938
  174     2 18.646759373279863  20.703291430148674  9.369240168409254
  175     2 20.08112547891678  21.531423087354618  11.711550210511566
  176     2 21.51549158455369  22.359554744560565  14.053860252613882
  177     2 22.949857690190605  23.187686401766513  16.396170294716192
  178     2 24.384223795827513  24.015818058972457  18.738480336818505
  179     2 25.818589901464428  24.843949716178404  21.080790378920817
  180     2 14.343661056369125  19.875159772942723  4.828865167854037e-16
  181     2 15.778027162006037  20.70329143014867  2.3423100421023144
  182     2 17.212393267642952  21.531423087354618  4.684620084204627
  183     2 18.646759373279863  22.359554744560565  7.026930126306943
  184     2 20.081125478916775  23.187686401766513  9.369240168409254
  185     2 21.51549158455369  24.01581805897246  11.711550210511566
  186     2 22.9498576901906  24.843949716178408  14.053860252613882
  187     2 24.384223795827513  25.67208137338435  16.396170294716196
  188     2 25.818589901464424  26.5002130305903  18.738480336818508
  189     2 27.25295600710134  27.328344687796246  21.08079037892082
  190     2 15.778027162006039  22.359554744560565  -7.392984385304581e-16
  191     2 17.212393267642952  23.187686401766513  2.342310042102313
  192     2 18.646759373279863  24.01581805897246  4.684620084204625
  193     2 20.081125478916775  24.843949716178404  7.026930126306941
  194     2 21.51549158455369  25.672081373384355  9.369240168409254
  195     2 22.9498576901906  26.500213030590302  11.71155021051157
  196     2 24.384223795827513  27.328344687796246  14.053860252613882
  197     2 25.818589901464428  28.156476345002194  16.396170294716192
  198     2 27.25295600710134  28.984608002208137  18.738480336818505
  199     2 28.68732211273825  29.81273965941409  21.080790378920817
  200     2 5.737464422547651  9.963209056031007e-17  -8.652218167696769e-17
  201     2 7.1718305281845645  0.8281316572059468  2.3423100421023135
  202     2 8.606196633821478  1.6562633144118935  4.684620084204626
  203     2 10.04056273945839  2.4843949716178404  7.026930126306938
  204     2 11.474928845095302  3.312526628823787  9.369240168409254
  205     2 12.909294950732214  4.140658286029734  11.711550210511566
  206     2 14.343661056369127  4.96878994323568  14.053860252613879
  207     2 15.778027162006039  5.796921600441628  16.396170294716196
  208     2 17.212393267642952  6.625053257647575  18.738480336818508
  209     2 18.646759373279867  7.45318491485352  21.080790378920824
  210     2 7.171830528184564  2.4843949716178404  1.6096217226180124e-16
  211     2 8.606196633821476  3.3125266288237873  2.342310042102314
  212     2 10.04056273945839  4.140658286029733  4.684620084204626
  213     2 11.4749288450953  4.968789943235681  7.02693012630694
  214     2 12.909294950732214  5.796921600441627  9.369240168409254
  215     2 14.343661056369127  6.625053257647574  11.711550210511568
  216     2 15.77802716200604  7.453184914853521  14.053860252613882
  217     2 17.212393267642952  8.281316572059469  16.396170294716196
  218     2 18.646759373279863  9.109448229265414  18.738480336818508
  219     2 20.08112547891678  9.937579886471362  21.080790378920824
  220     2 8.606196633821476  4.968789943235682  -1.7304436335393537e-16
  221     2 10.04056273945839  5.796921600441628  2.342310042102313
  222     2 11.474928845095302  6.625053257647575  4.684620084204627
  223     2 12.909294950732214  7.453184914853522  7.026930126306939
  224     2 14.343661056369127  8.281316572059469  9.369240168409252
  225     2 15.77802716200604  9.109448229265416  11.711550210511568
  226     2 17.212393267642952  9.937579886471362  14.05386025261388
  227     2 18.646759373279863  10.765711543677309  16.396170294716192
  228     2 20.08112547891678  11.593843200883256  18.738480336818505
  229     2 21.51549158455369  12.421974858089204  21.08079037892082
  230     2 10.04056273945839  7.453184914853521  5.185292004348962e-16
  231     2 11.4749288450953  8.281316572059469  2.3423100421023126
  232     2 12.909294950732214  9.109448229265416  4.684620084204627
  233     2 14.343661056369127  9.937579886471362  7.026930126306941
  234     2 15.778027162006039  10.765711543677309  9.369240168409254
  235     2 17.212393267642952  11.593843200883256  11.711550210511568
  236     2 18.646759373279867  12.421974858089202  14.05386025261388
  237     2 20.08112547891678  13.25010651529515  16.396170294716192
  238     2 21.51549158455369  14.078238172501099  18.738480336818508
  239     2 22.949857690190605  14.906369829707042  21.08079037892082
  240     2 11.4749288450953  9.937579886471362  3.219243445236025e-16
  241     2 12.909294950732214  10.765711543677309  2.3423100421023126
  242     2 14.343661056369127  11.593843200883255  4.684620084204628
  243     2 15.778027162006039  12.421974858089204  7.02693012630694
  244     2 17.212393267642952  13.250106515295148  9.369240168409252
  245     2 18.646759373279863  14.078238172501095  11.711550210511568
  246     2 20.08112547891678  14.906369829707042  14.05386025261388
  247     2 21.51549158455369  15.73450148691299  16.396170294716196
  248     2 22.9498576901906  16.562633144118937  18.738480336818508
  249     2 24.384223795827516  17.390764801324885  21.08079037892082
  250     2 12.909294950732214  12.421974858089204  -9.002606107922594e-16
  251     2 14.343661056369127  13.25010651529515  2.342310042102313
  252     2 15.77802716200604  14.078238172501097  4.684620084204627
  253     2 17.212393267642952  14.906369829707042  7.026930126306939
  254     2 18.646759373279863  15.73450148691299  9.36924016840925
  255     2 20.08112547891678  16.562633144118937  11.711550210511566
  256     2 21.51549158455369  17.390764801324885  14.053860252613882
  257     2 22.9498576901906  18.21889645853083  16.396170294716196
  258     2 24.384223795827516  19.04702811573678  18.738480336818508
  259     2 25.818589901464428  19.875159772942727  21.080790378920824
  260     2 14.343661056369127  14.906369829707042  -3.4608872670787075e-16
  261     2 15.77802716200604  15.734501486912992  2.3423100421023135
  262     2 17.212393267642952  16.562633144118937  4.684620084204626
  263     2 18.646759373279863  17.390764801324885  7.026930126306938
  264     2 20.08112547891678  18.218896458530832  9.36924016840925
  265     2 21.51549158455369  19.04702811573678  11.71155021051157
  266     2 22.949857690190605  19.875159772942723  14.053860252613882
  267     2 24.384223795827516  20.70329143014867  16.396170294716192
  268     2 25.818589901464428  21.53142308735462  18.738480336818505
  269     2 27.25295600710134  22.359554744560565  21.080790378920817
  270     2 15.778027162006039  17.390764801324885  2.259243356185654e-15
  271     2 17.212393267642952  18.218896458530832  2.3423100421023144
  272     2 18.646759373279863  19.047028115736776  4.684620084204627
  273     2 20.081125478916775  19.875159772942727  7.026930126306939
  274     2 21.51549158455369  20.703291430148674  9.369240168409254
  275     2 22.9498576901906  21.531423087354618  11.71155021051157
  276     2 24.384223795827516  22.359554744560565  14.053860252613882
  277     2 25.818589901464428  23.187686401766513  16.396170294716196
  278     2 27.25295600710134  24.015818058972457  18.738480336818508
  279     2 28.68732211273825  24.843949716178408  21.080790378920824
  280     2 17.212393267642952  19.875159772942727  1.0370584008697923e-15
  281     2 18.646759373279863  20.70329143014867  2.342310042102313
  282     2 20.08112547891678  21.531423087354618  4.684620084204625
  283     2 21.51549158455369  22.35955474456057  7.026930126306941
  284     2 22.9498576901906  23.187686401766513  9.369240168409254
  285     2 24.384223795827516  24.01581805897246  11.71155021051157
  286     2 25.818589901464428  24.843949716178408  14.053860252613882
  287     2 27.25295600710134  25.67208137338435  16.396170294716192
  288     2 28.68732211273825  26.5002130305903  18.738480336818505
  289     2 30.121688218375166  27.328344687796243  21.080790378920817
  290     2 18.646759373279863  22.359554744560565  -1.851265544460695e-16
  291     2 20.08112547891678  23.187686401766513  2.342310042102312
  292     2 21.51549158455369  24.01581805897246  4.684620084204628
  293     2 22.9498576901906  24.843949716178408  7.02693012630694
  294     2 24.384223795827516  25.672081373384355  9.369240168409252
  295     2 25.818589901464428  26.500213030590302  11.711550210511568
  296     2 27.25295600710134  27.328344687796246  14.05386025261388
  297     2 28.68732211273825  28.156476345002194  16.396170294716192
  298     2 30.121688218375166  28.98460800220814  18.738480336818505
  299     2 31.556054324012077  29.812739659414085  21.080790378920824
  300     2 8.606196633821476  -2.131491856290068e-16  1.6096217226180124e-16
  301     2 10.04056273945839  0.8281316572059465  2.342310042102314
  302     2 11.474928845095302  1.6562633144118937  4.684620084204626
  303     2 12.909294950732216  2.48439497161784  7.02693012630694
  304     2 14.343661056369129  3.3125266288237873  9.369240168409254
  305     2 15.77802716200604  4.140658286029733  11.711550210511566
  306     2 17.212393267642952  4.96878994323568  14.053860252613879
  307     2 18.646759373279863  5.796921600441628  16.396170294716196
  308     2 20.08112547891678  6.625053257647574  18.73848033681851
  309     2 21.515491584553693  7.453184914853519  21.080790378920824
  310     2 10.04056273945839  2.484394971617841  -1.7304436335393537e-16
  311     2 11.474928845095302  3.3125266288237873  2.342310042102313
  312     2 12.909294950732214  4.140658286029734  4.684620084204625
  313     2 14.343661056369129  4.968789943235681  7.026930126306941
  314     2 15.77802716200604  5.796921600441628  9.369240168409252
  315     2 17.212393267642952  6.625053257647574  11.711550210511565
  316     2 18.646759373279863  7.453184914853522  14.05386025261388
  317     2 20.08112547891678  8.281316572059469  16.396170294716192
  318     2 21.51549158455369  9.109448229265414  18.738480336818508
  319     2 22.9498576901906  9.937579886471362  21.08079037892082
  320     2 11.474928845095302  4.968789943235681  5.185292004348962e-16
  321     2 12.909294950732214  5.796921600441627  2.3423100421023126
  322     2 14.343661056369127  6.625053257647575  4.684620084204627
  323     2 15.778027162006039  7.453184914853521  7.026930126306941
  324     2 17.212393267642952  8.281316572059469  9.369240168409254
  325     2 18.646759373279867  9.109448229265416  11.711550210511568
  326     2 20.08112547891678  9.937579886471362  14.05386025261388
  327     2 21.51549158455369  10.765711543677309  16.396170294716192
  328     2 22.949857690190605  11.593843200883256  18.738480336818508
  329     2 24.384223795827516  12.421974858089204  21.08079037892082
  330     2 12.909294950732214  7.453184914853521  3.219243445236025e-16
  331     2 14.343661056369127  8.281316572059469  2.3423100421023144
  332     2 15.778027162006039  9.109448229265416  4.684620084204626
  333     2 17.212393267642952  9.937579886471362  7.02693012630694
  334     2 18.646759373279863  10.765711543677309  9.369240168409256
  335     2 20.08112547891678  11.593843200883255  11.711550210511568
  336     2 21.51549158455369  12.421974858089202  14.05386025261388
  337     2 22.9498576901906  13.25010651529515  16.396170294716192
  338     2 24.384223795827516  14.078238172501097  18.738480336818508
  339     2 25.818589901464428  14.90636982970704  21.08079037892082
  340     2 14.343661056369127  9.937579886471362  -9.002606107922594e-16
  341     2 15.77802716200604  10.765711543677309  2.342310042102313
  342     2 17.212393267642952  11.593843200883256  4.684620084204627
  343     2 18.646759373279863  12.421974858089204  7.026930126306941
  344     2 20.08112547891678  13.25010651529515  9.369240168409254
  345     2 21.51549158455369  14.078238172501095  11.711550210511566
  346     2 22.9498576901906  14.906369829707042  14.053860252613879
  347     2 24.384223795827516  15.734501486912992  16.396170294716196
  348     2 25.818589901464428  16.562633144118937  18.738480336818508
  349     2 27.25295600710134  17.390764801324885  21.08079037892082
  350     2 15.77802716200604  12.421974858089204  -2.1224455661081212e-15
  351     2 17.212393267642952  13.25010651529515  2.3423100421023135
  352     2 18.646759373279867  14.078238172501099  4.684620084204626
  353     2 20.08112547891678  14.906369829707042  7.026930126306938
  354     2 21.51549158455369  15.73450148691299  9.369240168409254
  355     2 22.949857690190605  16.562633144118937  11.711550210511566
  356     2 24.384223795827516  17.390764801324885  14.053860252613882
  357     2 25.818589901464428  18.218896458530832  16.396170294716192
  358     2 27.252956007101343  19.04702811573678  18.738480336818505
  359     2 28.687322112738254  19.875159772942727  21.08079037892082
  360     2 17.212393267642952  14.906369829707042  4.828865167854037e-16
  361     2 18.646759373279863  15.73450148691299  2.3423100421023144
  362     2 20.081125478916775  16.562633144118937  4.684620084204627
  363     2 21.51549158455369  17.390764801324885  7.026930126306939
  364     2 22.9498576901906  18.218896458530832  9.369240168409254
  365     2 24.384223795827516  19.04702811573678  11.71155021051157
  366     2 25.818589901464428  19.875159772942723  14.053860252613882
  367     2 27.25295600710134  20.70329143014867  16.396170294716196
  368     2 28.687322112738254  21.531423087354618  18.73848033681851
  369     2 30.121688218375166  22.359554744560562  21.08079037892082
  370     2 18.646759373279863  17.390764801324885  1.0370584008697923e-15
  371     2 20.08112547891678  18.218896458530832  2.342310042102313
  372     2 21.51549158455369  19.04702811573678  4.684620084204625
  373     2 22.9498576901906  19.875159772942727  7.0269301263069375
  374     2 24.384223795827516  20.703291430148674  9.369240168409258
  375     2 25.818589901464428  21.531423087354618  11.71155021051157
  376     2 27.25295600710134  22.359554744560565  14.053860252613882
  377     2 28.687322112738254  23.187686401766513  16.396170294716192
  378     2 30.121688218375166  24.015818058972457  18.738480336818505
  379     2 31.556054324012077  24.843949716178404  21.080790378920817
  380     2 20.08112547891678  19.875159772942727  -1.851265544460695e-16
  381     2 21.51549158455369  20.70329143014867  2.342310042102312
  382     2 22.9498576901906  21.53142308735462  4.684620084204624
  383     2 24.384223795827516  22.35955474456057  7.02693012630694
  384     2 25.818589901464428  23.187686401766513  9.369240168409256
  385     2 27.252956007101343  24.01581805897246  11.711550210511568
  386     2 28.687322112738254  24.843949716178408  14.05386025261388
  387     2 30.121688218375166  25.67208137338435  16.396170294716192
  388     2 31.556054324012077  26.500213030590302  18.738480336818508
  389     2 32.99042042964899  27.328344687796246  21.080790378920817
  390     2 21.515491584553686  22.359554744560565  6.43848689047205e-16
  391     2 22.9498576901906  23.187686401766513  2.3423100421023126
  392     2 24.384223795827513  24.01581805897246  4.684620084204629
  393     2 25.818589901464428  24.843949716178404  7.026930126306941
  394     2 27.25295600710134  25.67208137338435  9.369240168409256
  395     2 28.687322112738254  26.5002130305903  11.711550210511568
  396     2 30.121688218375162  27.328344687796243  14.05386025261388
  397     2 31.556054324012077  28.15647634500219  16.396170294716192
  398     2 32.99042042964899  28.984608002208134  18.738480336818505
  399     2 34.424786535285904  29.812739659414085  21.080790378920817
  400     2 11.474928845095302  1.9926418112062015e-16  -1.7304436335393537e-16
  401     2 12.909294950732216  0.8281316572059476  2.342310042102313
  402     2 14.343661056369129  1.6562633144118937  4.684620084204627
  403     2 15.778027162006042  2.4843949716178404  7.026930126306941
  404     2 17.212393267642955  3.312526628823787  9.369240168409252
  405     2 18.646759373279863  4.140658286029734  11.711550210511565
  406     2 20.08112547891678  4.968789943235681  14.053860252613877
  407     2 21.51549158455369  5.796921600441628  16.396170294716196
  408     2 22.949857690190605  6.625053257647574  18.738480336818508
  409     2 24.384223795827516  7.453184914853519  21.08079037892082
  410     2 12.909294950732216  2.4843949716178404  5.185292004348962e-16
  411     2 14.343661056369127  3.312526628823788  2.3423100421023126
  412     2 15.77802716200604  4.140658286029733  4.684620084204627
  413     2 17.212393267642955  4.968789943235681  7.026930126306941
  414     2 18.646759373279867  5.796921600441627  9.369240168409252
  415     2 20.08112547891678  6.625053257647574  11.711550210511565
  416     2 21.51549158455369  7.453184914853522  14.05386025261388
  417     2 22.949857690190605  8.281316572059469  16.396170294716196
  418     2 24.38422379582752  9.109448229265414  18.738480336818508
  419     2 25.818589901464428  9.937579886471362  21.08079037892082
  420     2 14.343661056369127  4.968789943235681  3.219243445236025e-16
  421     2 15.778027162006039  5.796921600441628  2.3423100421023126
  422     2 17.212393267642952  6.625053257647575  4.684620084204628
  423     2 18.646759373279863  7.453184914853522  7.02693012630694
  424     2 20.08112547891678  8.281316572059467  9.369240168409252
  425     2 21.51549158455369  9.109448229265416  11.711550210511568