LAMMPS data file generated get_lammps_data.py

999 atoms
3 atom types

0.0 28.68732211273824 xlo xhi
0.0 24.84394971617839 ylo yhi
0.0 23.42310042102312 zlo zhi
14.343661056369118 14.343661056369118 8.281316572059461 xy xz yz

Masses

1 24.305
2 26.9815385
3 28.085

Atoms

    1     3 0.0  0.0  0.0
    2     3 1.4343661056369128  0.8281316572059467  2.3423100421023135
    3     3 2.8687322112738256  1.6562633144118935  4.684620084204627
    4     3 4.303098316910738  2.48439497161784  7.02693012630694
    5     3 5.737464422547651  3.312526628823787  9.369240168409254
    6     3 7.171830528184564  4.140658286029734  11.711550210511566
    7     3 8.606196633821476  4.96878994323568  14.05386025261388
    8     3 10.04056273945839  5.796921600441628  16.396170294716196
    9     3 11.474928845095302  6.625053257647574  18.738480336818508
   10     3 12.909294950732214  7.45318491485352  21.08079037892082
   11     3 1.4343661056369126  2.484394971617841  -4.3261090838483843e-17
   12     3 2.868732211273825  3.3125266288237873  2.342310042102313
   13     1 4.303098316910738  4.140658286029734  4.684620084204627
   14     1 5.73746442254765  4.968789943235681  7.026930126306939
   15     1 7.171830528184564  5.796921600441628  9.369240168409254
   16     1 8.606196633821476  6.625053257647575  11.711550210511568
   17     1 10.04056273945839  7.453184914853522  14.053860252613882
   18     1 11.474928845095302  8.281316572059469  16.396170294716196
   19     1 12.909294950732216  9.109448229265414  18.738480336818508
   20     1 14.343661056369127  9.937579886471362  21.08079037892082
   21     1 2.868732211273825  4.968789943235682  -8.652218167696769e-17
   22     1 4.303098316910738  5.796921600441627  2.3423100421023135
   23     1 5.73746442254765  6.625053257647575  4.684620084204626
   24     1 7.171830528184564  7.453184914853522  7.026930126306938
   25     2 8.606196633821476  8.281316572059469  9.369240168409254
   26     2 10.04056273945839  9.109448229265416  11.711550210511566
   27     2 11.4749288450953  9.937579886471362  14.053860252613879
   28     2 12.909294950732214  10.765711543677309  16.396170294716196
   29     2 14.343661056369127  11.593843200883256  18.738480336818508
   30     2 15.778027162006039  12.421974858089204  21.080790378920824
   31     2 4.303098316910737  7.453184914853521  1.6096217226180124e-16
   32     2 5.73746442254765  8.281316572059469  2.342310042102314
   33     2 7.171830528184563  9.109448229265416  4.684620084204626
   34     2 8.606196633821476  9.937579886471362  7.02693012630694
   35     2 10.04056273945839  10.765711543677309  9.369240168409254
   36     2 11.4749288450953  11.593843200883255  11.711550210511566
   37     2 12.909294950732214  12.421974858089202  14.053860252613879
   38     2 14.343661056369127  13.25010651529515  16.396170294716196
   39     2 15.77802716200604  14.078238172501097  18.73848033681851
   40     2 17.212393267642952  14.90636982970704  21.080790378920824
   41     2 5.73746442254765  9.937579886471363  -1.7304436335393537e-16
   42     2 7.171830528184564  10.765711543677309  2.342310042102313
   43     2 8.606196633821476  11.593843200883255  4.684620084204627
   44     2 10.04056273945839  12.421974858089204  7.026930126306941
   45     2 11.4749288450953  13.25010651529515  9.369240168409252
   46     2 12.909294950732214  14.078238172501097  11.711550210511565
   47     2 14.343661056369127  14.906369829707044  14.053860252613877
   48     2 15.77802716200604  15.734501486912992  16.396170294716196
   49     2 17.212393267642952  16.562633144118937  18.738480336818508
   50     2 18.646759373279863  17.390764801324885  21.08079037892082
   51     2 7.171830528184563  12.421974858089204  -3.6964921926522906e-16
   52     2 8.606196633821476  13.25010651529515  2.3423100421023126
   53     2 10.040562739458387  14.078238172501097  4.684620084204629
   54     2 11.4749288450953  14.906369829707044  7.026930126306941
   55     2 12.909294950732214  15.73450148691299  9.369240168409252
   56     2 14.343661056369125  16.562633144118937  11.711550210511565
   57     2 15.778027162006039  17.390764801324885  14.05386025261388
   58     2 17.212393267642952  18.21889645853083  16.396170294716196
   59     2 18.646759373279867  19.047028115736776  18.738480336818508
   60     2 20.08112547891678  19.875159772942723  21.08079037892082
   61     2 8.606196633821474  14.906369829707042  3.219243445236025e-16
   62     2 10.040562739458387  15.73450148691299  2.3423100421023144
   63     2 11.4749288450953  16.562633144118937  4.684620084204628
   64     2 12.909294950732212  17.390764801324885  7.02693012630694
   65     2 14.343661056369125  18.218896458530832  9.369240168409252
   66     2 15.778027162006039  19.04702811573678  11.711550210511568
   67     2 17.212393267642952  19.875159772942723  14.05386025261388
   68     2 18.646759373279863  20.70329143014867  16.396170294716196
   69     2 20.08112547891678  21.531423087354618  18.738480336818508
   70     2 21.515491584553686  22.359554744560562  21.08079037892082
   71     2 10.040562739458387  17.390764801324885  8.760962286079911e-16
   72     2 11.4749288450953  18.218896458530832  2.342310042102313
   73     2 12.909294950732214  19.047028115736776  4.684620084204627
   74     2 14.343661056369125  19.875159772942727  7.026930126306939
   75     2 15.778027162006039  20.703291430148674  9.369240168409254
   76     2 17.212393267642952  21.531423087354618  11.711550210511566
   77     2 18.646759373279863  22.359554744560565  14.053860252613879
   78     2 20.08112547891678  23.187686401766513  16.396170294716196
   79     2 21.51549158455369  24.015818058972457  18.738480336818508
   80     2 22.9498576901906  24.843949716178404  21.08079037892082
   81     2 11.4749288450953  19.875159772942727  -3.4608872670787075e-16
   82     2 12.909294950732214  20.70329143014867  2.3423100421023118
   83     2 14.343661056369127  21.531423087354618  4.684620084204626
   84     2 15.778027162006039  22.35955474456057  7.026930126306938
   85     2 17.212393267642952  23.18768640176651  9.369240168409254
   86     2 18.646759373279863  24.01581805897246  11.711550210511566
   87     2 20.08112547891678  24.843949716178408  14.053860252613882
   88     2 21.51549158455369  25.67208137338435  16.396170294716192
   89     2 22.9498576901906  26.5002130305903  18.738480336818505
   90     2 24.384223795827513  27.328344687796243  21.080790378920817
   91     2 12.909294950732212  22.359554744560565  4.828865167854037e-16
   92     2 14.343661056369124  23.187686401766513  2.3423100421023126
   93     2 15.778027162006037  24.01581805897246  4.684620084204629
   94     2 17.21239326764295  24.843949716178404  7.026930126306939
   95     2 18.646759373279863  25.67208137338435  9.369240168409254
   96     2 20.081125478916775  26.500213030590302  11.71155021051157
   97     2 21.515491584553686  27.328344687796246  14.053860252613879
   98     2 22.9498576901906  28.156476345002194  16.396170294716196
   99     2 24.384223795827513  28.984608002208137  18.738480336818508
  100     2 25.818589901464424  29.812739659414085  21.08079037892082
  101     2 2.8687322112738256  4.981604528015504e-17  -4.3261090838483843e-17
  102     2 4.303098316910739  0.8281316572059467  2.342310042102313
  103     2 5.737464422547651  1.6562633144118935  4.684620084204627
  104     2 7.171830528184564  2.48439497161784  7.026930126306939
  105     2 8.606196633821476  3.3125266288237873  9.369240168409254
  106     2 10.04056273945839  4.140658286029734  11.711550210511568
  107     2 11.474928845095302  4.968789943235681  14.053860252613882
  108     2 12.909294950732216  5.796921600441628  16.396170294716196
  109     2 14.343661056369127  6.625053257647575  18.738480336818508
  110     2 15.77802716200604  7.453184914853521  21.08079037892082
  111     2 4.303098316910738  2.484394971617841  -8.652218167696769e-17
  112     2 5.737464422547651  3.3125266288237873  2.3423100421023135
  113     2 7.171830528184564  4.140658286029734  4.684620084204626
  114     2 8.606196633821476  4.968789943235681  7.02693012630694
  115     2 10.04056273945839  5.796921600441628  9.369240168409252
  116     2 11.4749288450953  6.625053257647574  11.711550210511566
  117     2 12.909294950732214  7.453184914853522  14.053860252613882
  118     2 14.343661056369127  8.281316572059469  16.396170294716196
  119     2 15.778027162006039  9.109448229265414  18.738480336818508
  120     2 17.212393267642952  9.937579886471363  21.08079037892082
  121     2 5.73746442254765  4.968789943235681  1.6096217226180124e-16
  122     2 7.171830528184564  5.796921600441627  2.342310042102314
  123     2 8.606196633821476  6.625053257647574  4.684620084204626
  124     2 10.04056273945839  7.453184914853521  7.02693012630694
  125     2 11.4749288450953  8.281316572059469  9.369240168409254
  126     2 12.909294950732214  9.109448229265416  11.711550210511568
  127     2 14.343661056369127  9.937579886471362  14.053860252613882
  128     2 15.77802716200604  10.765711543677307  16.396170294716196
  129     2 17.212393267642952  11.593843200883255  18.738480336818508
  130     2 18.646759373279863  12.421974858089204  21.080790378920824
  131     2 7.171830528184564  7.453184914853521  -1.7304436335393537e-16
  132     2 8.606196633821476  8.281316572059469  2.342310042102313
  133     2 10.04056273945839  9.109448229265416  4.684620084204625
  134     2 11.474928845095302  9.937579886471362  7.026930126306941
  135     2 12.909294950732214  10.76571154367731  9.369240168409252
  136     2 14.343661056369127  11.593843200883255  11.711550210511565
  137     2 15.77802716200604  12.421974858089202  14.05386025261388
  138     2 17.212393267642952  13.25010651529515  16.396170294716192
  139     2 18.646759373279863  14.078238172501097  18.738480336818508
  140     2 20.08112547891678  14.906369829707042  21.08079037892082
  141     2 8.606196633821476  9.937579886471363  5.185292004348962e-16
  142     2 10.04056273945839  10.765711543677309  2.3423100421023126
  143     2 11.4749288450953  11.593843200883256  4.684620084204627
  144     2 12.909294950732214  12.421974858089204  7.026930126306941
  145     2 14.343661056369125  13.25010651529515  9.369240168409252
  146     2 15.778027162006039  14.078238172501097  11.711550210511565
  147     2 17.212393267642952  14.906369829707044  14.05386025261388
  148     2 18.646759373279867  15.734501486912992  16.396170294716196
  149     2 20.08112547891678  16.562633144118934  18.738480336818508
  150     2 21.51549158455369  17.390764801324885  21.08079037892082
  151     2 10.040562739458387  12.421974858089202  3.219243445236025e-16
  152     2 11.4749288450953  13.250106515295148  2.3423100421023144
  153     2 12.909294950732214  14.078238172501097  4.684620084204628
  154     2 14.343661056369125  14.906369829707042  7.02693012630694
  155     2 15.778027162006039  15.73450148691299  9.369240168409252
  156     2 17.212393267642952  16.562633144118937  11.711550210511565
  157     2 18.646759373279863  17.390764801324885  14.053860252613884
  158     2 20.08112547891678  18.21889645853083  16.396170294716196
  159     2 21.51549158455369  19.047028115736776  18.738480336818508
  160     2 22.9498576901906  19.875159772942727  21.08079037892082
  161     2 11.4749288450953  14.906369829707042  -9.002606107922594e-16
  162     2 12.909294950732214  15.73450148691299  2.342310042102315
  163     2 14.343661056369125  16.562633144118937  4.684620084204627
  164     2 15.778027162006039  17.390764801324885  7.026930126306939
  165     2 17.212393267642952  18.218896458530832  9.36924016840925
  166     2 18.646759373279863  19.04702811573678  11.711550210511566
  167     2 20.08112547891678  19.875159772942723  14.053860252613882
  168     2 21.51549158455369  20.70329143014867  16.396170294716196
  169     2 22.9498576901906  21.531423087354618  18.738480336818508
  170     2 24.384223795827513  22.359554744560562  21.08079037892082
  171     2 12.909294950732214  17.390764801324885  -3.4608872670787075e-16
  172     2 14.343661056369127  18.218896458530832  2.3423100421023135
  173     2 15.778027162006039  19.04702811573678  4.684620084204626
  174     2 17.212393267642952  19.875159772942727  7.026930126306938
  175     2 18.646759373279863  20.703291430148674  9.369240168409254
  176     2 20.08112547891678  21.531423087354618  11.711550210511566
  177     2 21.51549158455369  22.359554744560565  14.053860252613882
  178     2 22.949857690190605  23.187686401766513  16.396170294716192
  179     2 24.384223795827513  24.015818058972457  18.738480336818505
  180     2 25.818589901464428  24.843949716178404  21.080790378920817
  181     2 14.343661056369125  19.875159772942723  4.828865167854037e-16
  182     2 15.778027162006037  20.70329143014867  2.3423100421023144
  183     2 17.212393267642952  21.531423087354618  4.684620084204627
  184     2 18.646759373279863  22.359554744560565  7.026930126306943
  185     2 20.081125478916775  23.187686401766513  9.369240168409254
  186     2 21.51549158455369  24.01581805897246  11.711550210511566
  187     2 22.9498576901906  24.843949716178408  14.053860252613882
  188     2 24.384223795827513  25.67208137338435  16.396170294716196
  189     2 25.818589901464424  26.5002130305903  18.738480336818508
  190     2 27.25295600710134  27.328344687796246  21.08079037892082
  191     2 15.778027162006039  22.359554744560565  -7.392984385304581e-16
  192     2 17.212393267642952  23.187686401766513  2.342310042102313
  193     2 18.646759373279863  24.01581805897246  4.684620084204625
  194     2 20.081125478916775  24.843949716178404  7.026930126306941
  195     2 21.51549158455369  25.672081373384355  9.369240168409254
  196     2 22.9498576901906  26.500213030590302  11.71155021051157
  197     2 24.384223795827513  27.328344687796246  14.053860252613882
  198     2 25.818589901464428  28.156476345002194  16.396170294716192
  199     2 27.25295600710134  28.984608002208137  18.738480336818505
  200     2 28.68732211273825  29.81273965941409  21.080790378920817
  201     2 5.737464422547651  9.963209056031007e-17  -8.652218167696769e-17
  202     2 7.1718305281845645  0.8281316572059468  2.3423100421023135
  203     2 8.606196633821478  1.6562633144118935  4.684620084204626
  204     2 10.04056273945839  2.4843949716178404  7.026930126306938
  205     2 11.474928845095302  3.312526628823787  9.369240168409254
  206     2 12.909294950732214  4.140658286029734  11.711550210511566
  207     2 14.343661056369127  4.96878994323568  14.053860252613879
  208     2 15.778027162006039  5.796921600441628  16.396170294716196
  209     2 17.212393267642952  6.625053257647575  18.738480336818508
  210     2 18.646759373279867  7.45318491485352  21.080790378920824
  211     2 7.171830528184564  2.4843949716178404  1.6096217226180124e-16
  212     2 8.606196633821476  3.3125266288237873  2.342310042102314
  213     2 10.04056273945839  4.140658286029733  4.684620084204626
  214     2 11.4749288450953  4.968789943235681  7.02693012630694
  215     2 12.909294950732214  5.796921600441627  9.369240168409254
  216     2 14.343661056369127  6.625053257647574  11.711550210511568
  217     2 15.77802716200604  7.453184914853521  14.053860252613882
  218     2 17.212393267642952  8.281316572059469  16.396170294716196
  219     2 18.646759373279863  9.109448229265414  18.738480336818508
  220     2 20.08112547891678  9.937579886471362  21.080790378920824
  221     2 8.606196633821476  4.968789943235682  -1.7304436335393537e-16
  222     2 10.04056273945839  5.796921600441628  2.342310042102313
  223     2 11.474928845095302  6.625053257647575  4.684620084204627
  224     2 12.909294950732214  7.453184914853522  7.026930126306939
  225     2 14.343661056369127  8.281316572059469  9.369240168409252
  226     2 15.77802716200604  9.109448229265416  11.711550210511568
  227     2 17.212393267642952  9.937579886471362  14.05386025261388
  228     2 18.646759373279863  10.765711543677309  16.396170294716192
  229     2 20.08112547891678  11.593843200883256  18.738480336818505
  230     2 21.51549158455369  12.421974858089204  21.08079037892082
  231     2 10.04056273945839  7.453184914853521  5.185292004348962e-16
  232     2 11.4749288450953  8.281316572059469  2.3423100421023126
  233     2 12.909294950732214  9.109448229265416  4.684620084204627
  234     2 14.343661056369127  9.937579886471362  7.026930126306941
  235     2 15.778027162006039  10.765711543677309  9.369240168409254
  236     2 17.212393267642952  11.593843200883256  11.711550210511568
  237     2 18.646759373279867  12.421974858089202  14.05386025261388
  238     2 20.08112547891678  13.25010651529515  16.396170294716192
  239     2 21.51549158455369  14.078238172501099  18.738480336818508
  240     2 22.949857690190605  14.906369829707042  21.08079037892082
  241     2 11.4749288450953  9.937579886471362  3.219243445236025e-16
  242     2 12.909294950732214  10.765711543677309  2.3423100421023126
  243     2 14.343661056369127  11.593843200883255  4.684620084204628
  244     2 15.778027162006039  12.421974858089204  7.02693012630694
  245     2 17.212393267642952  13.250106515295148  9.369240168409252
  246     2 18.646759373279863  14.078238172501095  11.711550210511568
  247     2 20.08112547891678  14.906369829707042  14.05386025261388
  248     2 21.51549158455369  15.73450148691299  16.396170294716196
  249     2 22.9498576901906  16.562633144118937  18.738480336818508
  250     2 24.384223795827516  17.390764801324885  21.08079037892082
  251     2 12.909294950732214  12.421974858089204  -9.002606107922594e-16
  252     2 14.343661056369127  13.25010651529515  2.342310042102313
  253     2 15.77802716200604  14.078238172501097  4.684620084204627
  254     2 17.212393267642952  14.906369829707042  7.026930126306939
  255     2 18.646759373279863  15.73450148691299  9.36924016840925
  256     2 20.08112547891678  16.562633144118937  11.711550210511566
  257     2 21.51549158455369  17.390764801324885  14.053860252613882
  258     2 22.9498576901906  18.21889645853083  16.396170294716196
  259     2 24.384223795827516  19.04702811573678  18.738480336818508
  260     2 25.818589901464428  19.875159772942727  21.080790378920824
  261     2 14.343661056369127  14.906369829707042  -3.4608872670787075e-16
  262     2 15.77802716200604  15.734501486912992  2.3423100421023135
  263     2 17.212393267642952  16.562633144118937  4.684620084204626
  264     2 18.646759373279863  17.390764801324885  7.026930126306938
  265     2 20.08112547891678  18.218896458530832  9.36924016840925
  266     2 21.51549158455369  19.04702811573678  11.71155021051157
  267     2 22.949857690190605  19.875159772942723  14.053860252613882
  268     2 24.384223795827516  20.70329143014867  16.396170294716192
  269     2 25.818589901464428  21.53142308735462  18.738480336818505
  270     2 27.25295600710134  22.359554744560565  21.080790378920817
  271     2 15.778027162006039  17.390764801324885  2.259243356185654e-15
  272     2 17.212393267642952  18.218896458530832  2.3423100421023144
  273     2 18.646759373279863  19.047028115736776  4.684620084204627
  274     2 20.081125478916775  19.875159772942727  7.026930126306939
  275     2 21.51549158455369  20.703291430148674  9.369240168409254
  276     2 22.9498576901906  21.531423087354618  11.71155021051157
  277     2 24.384223795827516  22.359554744560565  14.053860252613882
  278     2 25.818589901464428  23.187686401766513  16.396170294716196
  279     2 27.25295600710134  24.015818058972457  18.738480336818508
  280     2 28.68732211273825  24.843949716178408  21.080790378920824
  281     2 17.212393267642952  19.875159772942727  1.0370584008697923e-15
  282     2 18.646759373279863  20.70329143014867  2.342310042102313
  283     2 20.08112547891678  21.531423087354618  4.684620084204625
  284     2 21.51549158455369  22.35955474456057  7.026930126306941
  285     2 22.9498576901906  23.187686401766513  9.369240168409254
  286     2 24.384223795827516  24.01581805897246  11.71155021051157
  287     2 25.818589901464428  24.843949716178408  14.053860252613882
  288     2 27.25295600710134  25.67208137338435  16.396170294716192
  289     2 28.68732211273825  26.5002130305903  18.738480336818505
  290     2 30.121688218375166  27.328344687796243  21.080790378920817
  291     2 18.646759373279863  22.359554744560565  -1.851265544460695e-16
  292     2 20.08112547891678  23.187686401766513  2.342310042102312
  293     2 21.51549158455369  24.01581805897246  4.684620084204628
  294     2 22.9498576901906  24.843949716178408  7.02693012630694
  295     2 24.384223795827516  25.672081373384355  9.369240168409252
  296     2 25.818589901464428  26.500213030590302  11.711550210511568
  297     2 27.25295600710134  27.328344687796246  14.05386025261388
  298     2 28.68732211273825  28.156476345002194  16.396170294716192
  299     2 30.121688218375166  28.98460800220814  18.738480336818505
  300     2 31.556054324012077  29.812739659414085  21.080790378920824
  301     2 8.606196633821476  -2.131491856290068e-16  1.6096217226180124e-16
  302     2 10.04056273945839  0.8281316572059465  2.342310042102314
  303     2 11.474928845095302  1.6562633144118937  4.684620084204626
  304     2 12.909294950732216  2.48439497161784  7.02693012630694
  305     2 14.343661056369129  3.3125266288237873  9.369240168409254
  306     2 15.77802716200604  4.140658286029733  11.711550210511566
  307     2 17.212393267642952  4.96878994323568  14.053860252613879
  308     2 18.646759373279863  5.796921600441628  16.396170294716196
  309     2 20.08112547891678  6.625053257647574  18.73848033681851
  310     2 21.515491584553693  7.453184914853519  21.080790378920824
  311     2 10.04056273945839  2.484394971617841  -1.7304436335393537e-16
  312     2 11.474928845095302  3.3125266288237873  2.342310042102313
  313     2 12.909294950732214  4.140658286029734  4.684620084204625
  314     2 14.343661056369129  4.968789943235681  7.026930126306941
  315     2 15.77802716200604  5.796921600441628  9.369240168409252
  316     2 17.212393267642952  6.625053257647574  11.711550210511565
  317     2 18.646759373279863  7.453184914853522  14.05386025261388
  318     2 20.08112547891678  8.281316572059469  16.396170294716192
  319     2 21.51549158455369  9.109448229265414  18.738480336818508
  320     2 22.9498576901906  9.937579886471362  21.08079037892082
  321     2 11.474928845095302  4.968789943235681  5.185292004348962e-16
  322     2 12.909294950732214  5.796921600441627  2.3423100421023126
  323     2 14.343661056369127  6.625053257647575  4.684620084204627
  324     2 15.778027162006039  7.453184914853521  7.026930126306941
  325     2 17.212393267642952  8.281316572059469  9.369240168409254
  326     2 18.646759373279867  9.109448229265416  11.711550210511568
  327     2 20.08112547891678  9.937579886471362  14.05386025261388
  328     2 21.51549158455369  10.765711543677309  16.396170294716192
  329     2 22.949857690190605  11.593843200883256  18.738480336818508
  330     2 24.384223795827516  12.421974858089204  21.08079037892082
  331     2 12.909294950732214  7.453184914853521  3.219243445236025e-16
  332     2 14.343661056369127  8.281316572059469  2.3423100421023144
  333     2 15.778027162006039  9.109448229265416  4.684620084204626
  334     2 17.212393267642952  9.937579886471362  7.02693012630694
  335     2 18.646759373279863  10.765711543677309  9.369240168409256
  336     2 20.08112547891678  11.593843200883255  11.711550210511568
  337     2 21.51549158455369  12.421974858089202  14.05386025261388
  338     2 22.9498576901906  13.25010651529515  16.396170294716192
  339     2 24.384223795827516  14.078238172501097  18.738480336818508
  340     2 25.818589901464428  14.90636982970704  21.08079037892082
  341     2 14.343661056369127  9.937579886471362  -9.002606107922594e-16
  342     2 15.77802716200604  10.765711543677309  2.342310042102313
  343     2 17.212393267642952  11.593843200883256  4.684620084204627
  344     2 18.646759373279863  12.421974858089204  7.026930126306941
  345     2 20.08112547891678  13.25010651529515  9.369240168409254
  346     2 21.51549158455369  14.078238172501095  11.711550210511566
  347     2 22.9498576901906  14.906369829707042  14.053860252613879
  348     2 24.384223795827516  15.734501486912992  16.396170294716196
  349     2 25.818589901464428  16.562633144118937  18.738480336818508
  350     2 27.25295600710134  17.390764801324885  21.08079037892082
  351     2 15.77802716200604  12.421974858089204  -2.1224455661081212e-15
  352     2 17.212393267642952  13.25010651529515  2.3423100421023135
  353     2 18.646759373279867  14.078238172501099  4.684620084204626
  354     2 20.08112547891678  14.906369829707042  7.026930126306938
  355     2 21.51549158455369  15.73450148691299  9.369240168409254
  356     2 22.949857690190605  16.562633144118937  11.711550210511566
  357     2 24.384223795827516  17.390764801324885  14.053860252613882
  358     2 25.818589901464428  18.218896458530832  16.396170294716192
  359     2 27.252956007101343  19.04702811573678  18.738480336818505
  360     2 28.687322112738254  19.875159772942727  21.08079037892082
  361     2 17.212393267642952  14.906369829707042  4.828865167854037e-16
  362     2 18.646759373279863  15.73450148691299  2.3423100421023144
  363     2 20.081125478916775  16.562633144118937  4.684620084204627
  364     2 21.51549158455369  17.390764801324885  7.026930126306939
  365     2 22.9498576901906  18.218896458530832  9.369240168409254
  366     2 24.384223795827516  19.04702811573678  11.71155021051157
  367     2 25.818589901464428  19.875159772942723  14.053860252613882
  368     2 27.25295600710134  20.70329143014867  16.396170294716196
  369     2 28.687322112738254  21.531423087354618  18.73848033681851
  370     2 30.121688218375166  22.359554744560562  21.08079037892082
  371     2 18.646759373279863  17.390764801324885  1.0370584008697923e-15
  372     2 20.08112547891678  18.218896458530832  2.342310042102313
  373     2 21.51549158455369  19.04702811573678  4.684620084204625
  374     2 22.9498576901906  19.875159772942727  7.0269301263069375
  375     2 24.384223795827516  20.703291430148674  9.369240168409258
  376     2 25.818589901464428  21.531423087354618  11.71155021051157
  377     2 27.25295600710134  22.359554744560565  14.053860252613882
  378     2 28.687322112738254  23.187686401766513  16.396170294716192
  379     2 30.121688218375166  24.015818058972457  18.738480336818505
  380     2 31.556054324012077  24.843949716178404  21.080790378920817
  381     2 20.08112547891678  19.875159772942727  -1.851265544460695e-16
  382     2 21.51549158455369  20.70329143014867  2.342310042102312
  383     2 22.9498576901906  21.53142308735462  4.684620084204624
  384     2 24.384223795827516  22.35955474456057  7.02693012630694
  385     2 25.818589901464428  23.187686401766513  9.369240168409256
  386     2 27.252956007101343  24.01581805897246  11.711550210511568
  387     2 28.687322112738254  24.843949716178408  14.05386025261388
  388     2 30.121688218375166  25.67208137338435  16.396170294716192
  389     2 31.556054324012077  26.500213030590302  18.738480336818508
  390     2 32.99042042964899  27.328344687796246  21.080790378920817
  391     2 21.515491584553686  22.359554744560565  6.43848689047205e-16
  392     2 22.9498576901906  23.187686401766513  2.3423100421023126
  393     2 24.384223795827513  24.01581805897246  4.684620084204629
  394     2 25.818589901464428  24.843949716178404  7.026930126306941
  395     2 27.25295600710134  25.67208137338435  9.369240168409256
  396     2 28.687322112738254  26.5002130305903  11.711550210511568
  397     2 30.121688218375162  27.328344687796243  14.05386025261388
  398     2 31.556054324012077  28.15647634500219  16.396170294716192
  399     2 32.99042042964899  28.984608002208134  18.738480336818505
  400     2 34.424786535285904  29.812739659414085  21.080790378920817
  401     2 11.474928845095302  1.9926418112062015e-16  -1.7304436335393537e-16
  402     2 12.909294950732216  0.8281316572059476  2.342310042102313
  403     2 14.343661056369129  1.6562633144118937  4.684620084204627
  404     2 15.778027162006042  2.4843949716178404  7.026930126306941
  405     2 17.212393267642955  3.312526628823787  9.369240168409252
  406     2 18.646759373279863  4.140658286029734  11.711550210511565
  407     2 20.08112547891678  4.968789943235681  14.053860252613877
  408     2 21.51549158455369  5.796921600441628  16.396170294716196
  409     2 22.949857690190605  6.625053257647574  18.738480336818508
  410     2 24.384223795827516  7.453184914853519  21.08079037892082
  411     2 12.909294950732216  2.4843949716178404  5.185292004348962e-16
  412     2 14.343661056369127  3.312526628823788  2.3423100421023126
  413     2 15.77802716200604  4.140658286029733  4.684620084204627
  414     2 17.212393267642955  4.968789943235681  7.026930126306941
  415     2 18.646759373279867  5.796921600441627  9.369240168409252
  416     2 20.08112547891678  6.625053257647574  11.711550210511565
  417     2 21.51549158455369  7.453184914853522  14.05386025261388
  418     2 22.949857690190605  8.281316572059469  16.396170294716196
  419     2 24.38422379582752  9.109448229265414  18.738480336818508
  420     2 25.818589901464428  9.937579886471362  21.08079037892082
  421     2 14.343661056369127  4.968789943235681  3.219243445236025e-16
  422     2 15.778027162006039  5.796921600441628  2.3423100421023126
  423     2 17.212393267642952  6.625053257647575  4.684620084204628
  424     2 18.646759373279863  7.453184914853522  7.02693012630694
  425     2 20.08112547891678  8.281316572059467  9.369240168409252