999
# CELL(abcABC):   28.68732211273824  28.68732211273824  28.68732211273824  60.0  60.0  60.0  Step:           4  Bead:       0 positions{angstrom}  cell{angstrom}
Si       0.00000000       0.00000000       0.00000000 
Si       2.02850000       2.02850000       0.00000000 
Si       4.05700000       4.05700000       0.00000000 
Si       6.08550000       6.08550000       0.00000000 
Si       8.11400000       8.11400000       0.00000000 
Si      10.14250000      10.14250000       0.00000000 
Si      12.17100000      12.17100000       0.00000000 
Si      14.19950000      14.19950000       0.00000000 
Si      16.22800000      16.22800000       0.00000000 
Si      18.25650000      18.25650000       0.00000000 
Si       2.02850000       0.00000000       2.02850000 
Si       4.05700000       2.02850000       2.02850000 
Mg       6.08550000       4.05700000       2.02850000 
Mg       8.11400000       6.08550000       2.02850000 
Mg      10.14250000       8.11400000       2.02850000 
Mg      12.17100000      10.14250000       2.02850000 
Mg      14.19950000      12.17100000       2.02850000 
Mg      16.22800000      14.19950000       2.02850000 
Mg      18.25650000      16.22800000       2.02850000 
Mg      20.28500000      18.25650000       2.02850000 
Mg       4.05700000       0.00000000       4.05700000 
Mg       6.08550000       2.02850000       4.05700000 
Mg       8.11400000       4.05700000       4.05700000 
Mg      10.14250000       6.08550000       4.05700000 
Al      12.17100000       8.11400000       4.05700000 
Al      14.19950000      10.14250000       4.05700000 
Al      16.22800000      12.17100000       4.05700000 
Al      18.25650000      14.19950000       4.05700000 
Al      20.28500000      16.22800000       4.05700000 
Al      22.31350000      18.25650000       4.05700000 
Al       6.08550000       0.00000000       6.08550000 
Al       8.11400000       2.02850000       6.08550000 
Al      10.14250000       4.05700000       6.08550000 
Al      12.17100000       6.08550000       6.08550000 
Al      14.19950000       8.11400000       6.08550000 
Al      16.22800000      10.14250000       6.08550000 
Al      18.25650000      12.17100000       6.08550000 
Al      20.28500000      14.19950000       6.08550000 
Al      22.31350000      16.22800000       6.08550000 
Al      24.34200000      18.25650000       6.08550000 
Al       8.11400000       0.00000000       8.11400000 
Al      10.14250000       2.02850000       8.11400000 
Al      12.17100000       4.05700000       8.11400000 
Al      14.19950000       6.08550000       8.11400000 
Al      16.22800000       8.11400000       8.11400000 
Al      18.25650000      10.14250000       8.11400000 
Al      20.28500000      12.17100000       8.11400000 
Al      22.31350000      14.19950000       8.11400000 
Al      24.34200000      16.22800000       8.11400000 
Al      26.37050000      18.25650000       8.11400000 
Al      10.14250000       0.00000000      10.14250000 
Al      12.17100000       2.02850000      10.14250000 
Al      14.19950000       4.05700000      10.14250000 
Al      16.22800000       6.08550000      10.14250000 
Al      18.25650000       8.11400000      10.14250000 
Al      20.28500000      10.14250000      10.14250000 
Al      22.31350000      12.17100000      10.14250000 
Al      24.34200000      14.19950000      10.14250000 
Al      26.37050000      16.22800000      10.14250000 
Al      28.39900000      18.25650000      10.14250000 
Al      12.17100000       0.00000000      12.17100000 
Al      14.19950000       2.02850000      12.17100000 
Al      16.22800000       4.05700000      12.17100000 
Al      18.25650000       6.08550000      12.17100000 
Al      20.28500000       8.11400000      12.17100000 
Al      22.31350000      10.14250000      12.17100000 
Al      24.34200000      12.17100000      12.17100000 
Al      26.37050000      14.19950000      12.17100000 
Al      28.39900000      16.22800000      12.17100000 
Al      30.42750000      18.25650000      12.17100000 
Al      14.19950000       0.00000000      14.19950000 
Al      16.22800000       2.02850000      14.19950000 
Al      18.25650000       4.05700000      14.19950000 
Al      20.28500000       6.08550000      14.19950000 
Al      22.31350000       8.11400000      14.19950000 
Al      24.34200000      10.14250000      14.19950000 
Al      26.37050000      12.17100000      14.19950000 
Al      28.39900000      14.19950000      14.19950000 
Al      30.42750000      16.22800000      14.19950000 
Al      32.45600000      18.25650000      14.19950000 
Al      16.22800000       0.00000000      16.22800000 
Al      18.25650000       2.02850000      16.22800000 
Al      20.28500000       4.05700000      16.22800000 
Al      22.31350000       6.08550000      16.22800000 
Al      24.34200000       8.11400000      16.22800000 
Al      26.37050000      10.14250000      16.22800000 
Al      28.39900000      12.17100000      16.22800000 
Al      30.42750000      14.19950000      16.22800000 
Al      32.45600000      16.22800000      16.22800000 
Al      34.48450000      18.25650000      16.22800000 
Al      18.25650000       0.00000000      18.25650000 
Al      20.28500000       2.02850000      18.25650000 
Al      22.31350000       4.05700000      18.25650000 
Al      24.34200000       6.08550000      18.25650000 
Al      26.37050000       8.11400000      18.25650000 
Al      28.39900000      10.14250000      18.25650000 
Al      30.42750000      12.17100000      18.25650000 
Al      32.45600000      14.19950000      18.25650000 
Al      34.48450000      16.22800000      18.25650000 
Al      36.51300000      18.25650000      18.25650000 
Al       0.00000000       2.02850000       2.02850000 
Al       2.02850000       4.05700000       2.02850000 
Al       4.05700000       6.08550000       2.02850000 
Al       6.08550000       8.11400000       2.02850000 
Al       8.11400000      10.14250000       2.02850000 
Al      10.14250000      12.17100000       2.02850000 
Al      12.17100000      14.19950000       2.02850000 
Al      14.19950000      16.22800000       2.02850000 
Al      16.22800000      18.25650000       2.02850000 
Al      18.25650000      20.28500000       2.02850000 
Al       2.02850000       2.02850000       4.05700000 
Al       4.05700000       4.05700000       4.05700000 
Al       6.08550000       6.08550000       4.05700000 
Al       8.11400000       8.11400000       4.05700000 
Al      10.14250000      10.14250000       4.05700000 
Al      12.17100000      12.17100000       4.05700000 
Al      14.19950000      14.19950000       4.05700000 
Al      16.22800000      16.22800000       4.05700000 
Al      18.25650000      18.25650000       4.05700000 
Al      20.28500000      20.28500000       4.05700000 
Al       4.05700000       2.02850000       6.08550000 
Al       6.08550000       4.05700000       6.08550000 
Al       8.11400000       6.08550000       6.08550000 
Al      10.14250000       8.11400000       6.08550000 
Al      12.17100000      10.14250000       6.08550000 
Al      14.19950000      12.17100000       6.08550000 
Al      16.22800000      14.19950000       6.08550000 
Al      18.25650000      16.22800000       6.08550000 
Al      20.28500000      18.25650000       6.08550000 
Al      22.31350000      20.28500000       6.08550000 
Al       6.08550000       2.02850000       8.11400000 
Al       8.11400000       4.05700000       8.11400000 
Al      10.14250000       6.08550000       8.11400000 
Al      12.17100000       8.11400000       8.11400000 
Al      14.19950000      10.14250000       8.11400000 
Al      16.22800000      12.17100000       8.11400000 
Al      18.25650000      14.19950000       8.11400000 
Al      20.28500000      16.22800000       8.11400000 
Al      22.31350000      18.25650000       8.11400000 
Al      24.34200000      20.28500000       8.11400000 
Al       8.11400000       2.02850000      10.14250000 
Al      10.14250000       4.05700000      10.14250000 
Al      12.17100000       6.08550000      10.14250000 
Al      14.19950000       8.11400000      10.14250000 
Al      16.22800000      10.14250000      10.14250000 
Al      18.25650000      12.17100000      10.14250000 
Al      20.28500000      14.19950000      10.14250000 
Al      22.31350000      16.22800000      10.14250000 
Al      24.34200000      18.25650000      10.14250000 
Al      26.37050000      20.28500000      10.14250000 
Al      10.14250000       2.02850000      12.17100000 
Al      12.17100000       4.05700000      12.17100000 
Al      14.19950000       6.08550000      12.17100000 
Al      16.22800000       8.11400000      12.17100000 
Al      18.25650000      10.14250000      12.17100000 
Al      20.28500000      12.17100000      12.17100000 
Al      22.31350000      14.19950000      12.17100000 
Al      24.34200000      16.22800000      12.17100000 
Al      26.37050000      18.25650000      12.17100000 
Al      28.39900000      20.28500000      12.17100000 
Al      12.17100000       2.02850000      14.19950000 
Al      14.19950000       4.05700000      14.19950000 
Al      16.22800000       6.08550000      14.19950000 
Al      18.25650000       8.11400000      14.19950000 
Al      20.28500000      10.14250000      14.19950000 
Al      22.31350000      12.17100000      14.19950000 
Al      24.34200000      14.19950000      14.19950000 
Al      26.37050000      16.22800000      14.19950000 
Al      28.39900000      18.25650000      14.19950000 
Al      30.42750000      20.28500000      14.19950000 
Al      14.19950000       2.02850000      16.22800000 
Al      16.22800000       4.05700000      16.22800000 
Al      18.25650000       6.08550000      16.22800000 
Al      20.28500000       8.11400000      16.22800000 
Al      22.31350000      10.14250000      16.22800000 
Al      24.34200000      12.17100000      16.22800000 
Al      26.37050000      14.19950000      16.22800000 
Al      28.39900000      16.22800000      16.22800000 
Al      30.42750000      18.25650000      16.22800000 
Al      32.45600000      20.28500000      16.22800000 
Al      16.22800000       2.02850000      18.25650000 
Al      18.25650000       4.05700000      18.25650000 
Al      20.28500000       6.08550000      18.25650000 
Al      22.31350000       8.11400000      18.25650000 
Al      24.34200000      10.14250000      18.25650000 
Al      26.37050000      12.17100000      18.25650000 
Al      28.39900000      14.19950000      18.25650000 
Al      30.42750000      16.22800000      18.25650000 
Al      32.45600000      18.25650000      18.25650000 
Al      34.48450000      20.28500000      18.25650000 
Al      18.25650000       2.02850000      20.28500000 
Al      20.28500000       4.05700000      20.28500000 
Al      22.31350000       6.08550000      20.28500000 
Al      24.34200000       8.11400000      20.28500000 
Al      26.37050000      10.14250000      20.28500000 
Al      28.39900000      12.17100000      20.28500000 
Al      30.42750000      14.19950000      20.28500000 
Al      32.45600000      16.22800000      20.28500000 
Al      34.48450000      18.25650000      20.28500000 
Al      36.51300000      20.28500000      20.28500000 
Al       0.00000000       4.05700000       4.05700000 
Al       2.02850000       6.08550000       4.05700000 
Al       4.05700000       8.11400000       4.05700000 
Al       6.08550000      10.14250000       4.05700000 
Al       8.11400000      12.17100000       4.05700000 
Al      10.14250000      14.19950000       4.05700000 
Al      12.17100000      16.22800000       4.05700000 
Al      14.19950000      18.25650000       4.05700000 
Al      16.22800000      20.28500000       4.05700000 
Al      18.25650000      22.31350000       4.05700000 
Al       2.02850000       4.05700000       6.08550000 
Al       4.05700000       6.08550000       6.08550000 
Al       6.08550000       8.11400000       6.08550000 
Al       8.11400000      10.14250000       6.08550000 
Al      10.14250000      12.17100000       6.08550000 
Al      12.17100000      14.19950000       6.08550000 
Al      14.19950000      16.22800000       6.08550000 
Al      16.22800000      18.25650000       6.08550000 
Al      18.25650000      20.28500000       6.08550000 
Al      20.28500000      22.31350000       6.08550000 
Al       4.05700000       4.05700000       8.11400000 
Al       6.08550000       6.08550000       8.11400000 
Al       8.11400000       8.11400000       8.11400000 
Al      10.14250000      10.14250000       8.11400000 
Al      12.17100000      12.17100000       8.11400000 
Al      14.19950000      14.19950000       8.11400000 
Al      16.22800000      16.22800000       8.11400000 
Al      18.25650000      18.25650000       8.11400000 
Al      20.28500000      20.28500000       8.11400000 
Al      22.31350000      22.31350000       8.11400000 
Al       6.08550000       4.05700000      10.14250000 
Al       8.11400000       6.08550000      10.14250000 
Al      10.14250000       8.11400000      10.14250000 
Al      12.17100000      10.14250000      10.14250000 
Al      14.19950000      12.17100000      10.14250000 
Al      16.22800000      14.19950000      10.14250000 
Al      18.25650000      16.22800000      10.14250000 
Al      20.28500000      18.25650000      10.14250000 
Al      22.31350000      20.28500000      10.14250000 
Al      24.34200000      22.31350000      10.14250000 
Al       8.11400000       4.05700000      12.17100000 
Al      10.14250000       6.08550000      12.17100000 
Al      12.17100000       8.11400000      12.17100000 
Al      14.19950000      10.14250000      12.17100000 
Al      16.22800000      12.17100000      12.17100000 
Al      18.25650000      14.19950000      12.17100000 
Al      20.28500000      16.22800000      12.17100000 
Al      22.31350000      18.25650000      12.17100000 
Al      24.34200000      20.28500000      12.17100000 
Al      26.37050000      22.31350000      12.17100000 
Al      10.14250000       4.05700000      14.19950000 
Al      12.17100000       6.08550000      14.19950000 
Al      14.19950000       8.11400000      14.19950000 
Al      16.22800000      10.14250000      14.19950000 
Al      18.25650000      12.17100000      14.19950000 
Al      20.28500000      14.19950000      14.19950000 
Al      22.31350000      16.22800000      14.19950000 
Al      24.34200000      18.25650000      14.19950000 
Al      26.37050000      20.28500000      14.19950000 
Al      28.39900000      22.31350000      14.19950000 
Al      12.17100000       4.05700000      16.22800000 
Al      14.19950000       6.08550000      16.22800000 
Al      16.22800000       8.11400000      16.22800000 
Al      18.25650000      10.14250000      16.22800000 
Al      20.28500000      12.17100000      16.22800000 
Al      22.31350000      14.19950000      16.22800000 
Al      24.34200000      16.22800000      16.22800000 
Al      26.37050000      18.25650000      16.22800000 
Al      28.39900000      20.28500000      16.22800000 
Al      30.42750000      22.31350000      16.22800000 
Al      14.19950000       4.05700000      18.25650000 
Al      16.22800000       6.08550000      18.25650000 
Al      18.25650000       8.11400000      18.25650000 
Al      20.28500000      10.14250000      18.25650000 
Al      22.31350000      12.17100000      18.25650000 
Al      24.34200000      14.19950000      18.25650000 
Al      26.37050000      16.22800000      18.25650000 
Al      28.39900000      18.25650000      18.25650000 
Al      30.42750000      20.28500000      18.25650000 
Al      32.45600000      22.31350000      18.25650000 
Al      16.22800000       4.05700000      20.28500000 
Al      18.25650000       6.08550000      20.28500000 
Al      20.28500000       8.11400000      20.28500000 
Al      22.31350000      10.14250000      20.28500000 
Al      24.34200000      12.17100000      20.28500000 
Al      26.37050000      14.19950000      20.28500000 
Al      28.39900000      16.22800000      20.28500000 
Al      30.42750000      18.25650000      20.28500000 
Al      32.45600000      20.28500000      20.28500000 
Al      34.48450000      22.31350000      20.28500000 
Al      18.25650000       4.05700000      22.31350000 
Al      20.28500000       6.08550000      22.31350000 
Al      22.31350000       8.11400000      22.31350000 
Al      24.34200000      10.14250000      22.31350000 
Al      26.37050000      12.17100000      22.31350000 
Al      28.39900000      14.19950000      22.31350000 
Al      30.42750000      16.22800000      22.31350000 
Al      32.45600000      18.25650000      22.31350000 
Al      34.48450000      20.28500000      22.31350000 
Al      36.51300000      22.31350000      22.31350000 
Al       0.00000000       6.08550000       6.08550000 
Al       2.02850000       8.11400000       6.08550000 
Al       4.05700000      10.14250000       6.08550000 
Al       6.08550000      12.17100000       6.08550000 
Al       8.11400000      14.19950000       6.08550000 
Al      10.14250000      16.22800000       6.08550000 
Al      12.17100000      18.25650000       6.08550000 
Al      14.19950000      20.28500000       6.08550000 
Al      16.22800000      22.31350000       6.08550000 
Al      18.25650000      24.34200000       6.08550000 
Al       2.02850000       6.08550000       8.11400000 
Al       4.05700000       8.11400000       8.11400000 
Al       6.08550000      10.14250000       8.11400000 
Al       8.11400000      12.17100000       8.11400000 
Al      10.14250000      14.19950000       8.11400000 
Al      12.17100000      16.22800000       8.11400000 
Al      14.19950000      18.25650000       8.11400000 
Al      16.22800000      20.28500000       8.11400000 
Al      18.25650000      22.31350000       8.11400000 
Al      20.28500000      24.34200000       8.11400000 
Al       4.05700000       6.08550000      10.14250000 
Al       6.08550000       8.11400000      10.14250000 
Al       8.11400000      10.14250000      10.14250000 
Al      10.14250000      12.17100000      10.14250000 
Al      12.17100000      14.19950000      10.14250000 
Al      14.19950000      16.22800000      10.14250000 
Al      16.22800000      18.25650000      10.14250000 
Al      18.25650000      20.28500000      10.14250000 
Al      20.28500000      22.31350000      10.14250000 
Al      22.31350000      24.34200000      10.14250000 
Al       6.08550000       6.08550000      12.17100000 
Al       8.11400000       8.11400000      12.17100000 
Al      10.14250000      10.14250000      12.17100000 
Al      12.17100000      12.17100000      12.17100000 
Al      14.19950000      14.19950000      12.17100000 
Al      16.22800000      16.22800000      12.17100000 
Al      18.25650000      18.25650000      12.17100000 
Al      20.28500000      20.28500000      12.17100000 
Al      22.31350000      22.31350000      12.17100000 
Al      24.34200000      24.34200000      12.17100000 
Al       8.11400000       6.08550000      14.19950000 
Al      10.14250000       8.11400000      14.19950000 
Al      12.17100000      10.14250000      14.19950000 
Al      14.19950000      12.17100000      14.19950000 
Al      16.22800000      14.19950000      14.19950000 
Al      18.25650000      16.22800000      14.19950000 
Al      20.28500000      18.25650000      14.19950000 
Al      22.31350000      20.28500000      14.19950000 
Al      24.34200000      22.31350000      14.19950000 
Al      26.37050000      24.34200000      14.19950000 
Al      10.14250000       6.08550000      16.22800000 
Al      12.17100000       8.11400000      16.22800000 
Al      14.19950000      10.14250000      16.22800000 
Al      16.22800000      12.17100000      16.22800000 
Al      18.25650000      14.19950000      16.22800000 
Al      20.28500000      16.22800000      16.22800000 
Al      22.31350000      18.25650000      16.22800000 
Al      24.34200000      20.28500000      16.22800000 
Al      26.37050000      22.31350000      16.22800000 
Al      28.39900000      24.34200000      16.22800000 
Al      12.17100000       6.08550000      18.25650000 
Al      14.19950000       8.11400000      18.25650000 
Al      16.22800000      10.14250000      18.25650000 
Al      18.25650000      12.17100000      18.25650000 
Al      20.28500000      14.19950000      18.25650000 
Al      22.31350000      16.22800000      18.25650000 
Al      24.34200000      18.25650000      18.25650000 
Al      26.37050000      20.28500000      18.25650000 
Al      28.39900000      22.31350000      18.25650000 
Al      30.42750000      24.34200000      18.25650000 
Al      14.19950000       6.08550000      20.28500000 
Al      16.22800000       8.11400000      20.28500000 
Al      18.25650000      10.14250000      20.28500000 
Al      20.28500000      12.17100000      20.28500000 
Al      22.31350000      14.19950000      20.28500000 
Al      24.34200000      16.22800000      20.28500000 
Al      26.37050000      18.25650000      20.28500000 
Al      28.39900000      20.28500000      20.28500000 
Al      30.42750000      22.31350000      20.28500000 
Al      32.45600000      24.34200000      20.28500000 
Al      16.22800000       6.08550000      22.31350000 
Al      18.25650000       8.11400000      22.31350000 
Al      20.28500000      10.14250000      22.31350000 
Al      22.31350000      12.17100000      22.31350000 
Al      24.34200000      14.19950000      22.31350000 
Al      26.37050000      16.22800000      22.31350000 
Al      28.39900000      18.25650000      22.31350000 
Al      30.42750000      20.28500000      22.31350000 
Al      32.45600000      22.31350000      22.31350000 
Al      34.48450000      24.34200000      22.31350000 
Al      18.25650000       6.08550000      24.34200000 
Al      20.28500000       8.11400000      24.34200000 
Al      22.31350000      10.14250000      24.34200000 
Al      24.34200000      12.17100000      24.34200000 
Al      26.37050000      14.19950000      24.34200000 
Al      28.39900000      16.22800000      24.34200000 
Al      30.42750000      18.25650000      24.34200000 
Al      32.45600000      20.28500000      24.34200000 
Al      34.48450000      22.31350000      24.34200000 
Al      36.51300000      24.34200000      24.34200000 
Al       0.00000000       8.11400000       8.11400000 
Al       2.02850000      10.14250000       8.11400000 
Al       4.05700000      12.17100000       8.11400000 
Al       6.08550000      14.19950000       8.11400000 
Al       8.11400000      16.22800000       8.11400000 
Al      10.14250000      18.25650000       8.11400000 
Al      12.17100000      20.28500000       8.11400000 
Al      14.19950000      22.31350000       8.11400000 
Al      16.22800000      24.34200000       8.11400000 
Al      18.25650000      26.37050000       8.11400000 
Al       2.02850000       8.11400000      10.14250000 
Al       4.05700000      10.14250000      10.14250000 
Al       6.08550000      12.17100000      10.14250000 
Al       8.11400000      14.19950000      10.14250000 
Al      10.14250000      16.22800000      10.14250000 
Al      12.17100000      18.25650000      10.14250000 
Al      14.19950000      20.28500000      10.14250000 
Al      16.22800000      22.31350000      10.14250000 
Al      18.25650000      24.34200000      10.14250000 
Al      20.28500000      26.37050000      10.14250000 
Al       4.05700000       8.11400000      12.17100000 
Al       6.08550000      10.14250000      12.17100000 
Al       8.11400000      12.17100000      12.17100000 
Al      10.14250000      14.19950000      12.17100000 
Al      12.17100000      16.22800000      12.17100000 
Al      14.19950000      18.25650000      12.17100000 
Al      16.22800000      20.28500000      12.17100000 
Al      18.25650000      22.31350000      12.17100000 
Al      20.28500000      24.34200000      12.17100000 
Al      22.31350000      26.37050000      12.17100000 
Al       6.08550000       8.11400000      14.19950000 
Al       8.11400000      10.14250000      14.19950000 
Al      10.14250000      12.17100000      14.19950000 
Al      12.17100000      14.19950000      14.19950000 
Al      14.19950000      16.22800000      14.19950000 
Al      16.22800000      18.25650000      14.19950000 
Al      18.25650000      20.28500000      14.19950000 
Al      20.28500000      22.31350000      14.19950000 
Al      22.31350000      24.34200000      14.19950000 
Al      24.34200000      26.37050000      14.19950000 
Al       8.11400000       8.11400000      16.22800000 
Al      10.14250000      10.14250000      16.22800000 
Al      12.17100000      12.17100000      16.22800000 
Al      14.19950000      14.19950000      16.22800000 
Al      16.22800000      16.22800000      16.22800000 
Al      18.25650000      18.25650000      16.22800000 
Al      20.28500000      20.28500000      16.22800000 
Al      22.31350000      22.31350000      16.22800000 
Al      24.34200000      24.34200000      16.22800000 
Al      26.37050000      26.37050000      16.22800000 
Al      10.14250000       8.11400000      18.25650000 
Al      12.17100000      10.14250000      18.25650000 
Al      14.19950000      12.17100000      18.25650000 
Al      16.22800000      14.19950000      18.25650000 
Al      18.25650000      16.22800000      18.25650000 
Al      20.28500000      18.25650000      18.25650000 
Al      22.31350000      20.28500000      18.25650000 
Al      24.34200000      22.31350000      18.25650000 
Al      26.37050000      24.34200000      18.25650000 
Al      28.39900000      26.37050000      18.25650000 
Al      12.17100000       8.11400000      20.28500000 
Al      14.19950000      10.14250000      20.28500000 
Al      16.22800000      12.17100000      20.28500000 
Al      18.25650000      14.19950000      20.28500000 
Al      20.28500000      16.22800000      20.28500000 
Al      22.31350000      18.25650000      20.28500000 
Al      24.34200000      20.28500000      20.28500000 
Al      26.37050000      22.31350000      20.28500000 
Al      28.39900000      24.34200000      20.28500000 
Al      30.42750000      26.37050000      20.28500000 
Al      14.19950000       8.11400000      22.31350000 
Al      16.22800000      10.14250000      22.31350000 
Al      18.25650000      12.17100000      22.31350000 
Al      20.28500000      14.19950000      22.31350000 
Al      22.31350000      16.22800000      22.31350000 
Al      24.34200000      18.25650000      22.31350000 
Al      26.37050000      20.28500000      22.31350000 
Al      28.39900000      22.31350000      22.31350000 
Al      30.42750000      24.34200000      22.31350000 
Al      32.45600000      26.37050000      22.31350000 
Al      16.22800000       8.11400000      24.34200000 
Al      18.25650000      10.14250000      24.34200000 
Al      20.28500000      12.17100000      24.34200000 
Al      22.31350000      14.19950000      24.34200000 
Al      24.34200000      16.22800000      24.34200000 
Al      26.37050000      18.25650000      24.34200000 
Al      28.39900000      20.28500000      24.34200000 
Al      30.42750000      22.31350000      24.34200000 
Al      32.45600000      24.34200000      24.34200000 
Al      34.48450000      26.37050000      24.34200000 
Al      18.25650000       8.11400000      26.37050000 
Al      20.28500000      10.14250000      26.37050000 
Al      22.31350000      12.17100000      26.37050000 
Al      24.34200000      14.19950000      26.37050000 
Al      26.37050000      16.22800000      26.37050000 
Al      28.39900000      18.25650000      26.37050000 
Al      30.42750000      20.28500000      26.37050000 
Al      32.45600000      22.31350000      26.37050000 
Al      34.48450000      24.34200000      26.37050000 
Al      36.51300000      26.37050000      26.37050000 
Al       0.00000000      10.14250000      10.14250000 
Al       2.02850000      12.17100000      10.14250000 
Al       4.05700000      14.19950000      10.14250000 
Al       6.08550000      16.22800000      10.14250000 
Al       8.11400000      18.25650000      10.14250000 
Al      10.14250000      20.28500000      10.14250000 
Al      12.17100000      22.31350000      10.14250000 
Al      14.19950000      24.34200000      10.14250000 
Al      16.22800000      26.37050000      10.14250000 
Al      18.25650000      28.39900000      10.14250000 
Al       2.02850000      10.14250000      12.17100000 
Al       4.05700000      12.17100000      12.17100000 
Al       6.08550000      14.19950000      12.17100000 
Al       8.11400000      16.22800000      12.17100000 
Al      10.14250000      18.25650000      12.17100000 
Al      12.17100000      20.28500000      12.17100000 
Al      14.19950000      22.31350000      12.17100000 
Al      16.22800000      24.34200000      12.17100000 
Al      18.25650000      26.37050000      12.17100000 
Al      20.28500000      28.39900000      12.17100000 
Al       4.05700000      10.14250000      14.19950000 
Al       6.08550000      12.17100000      14.19950000 
Al       8.11400000      14.19950000      14.19950000 
Al      10.14250000      16.22800000      14.19950000 
Al      12.17100000      18.25650000      14.19950000 
Al      14.19950000      20.28500000      14.19950000 
Al      16.22800000      22.31350000      14.19950000 
Al      18.25650000      24.34200000      14.19950000 
Al      20.28500000      26.37050000      14.19950000 
Al      22.31350000      28.39900000      14.19950000 
Al       6.08550000      10.14250000      16.22800000 
Al       8.11400000      12.17100000      16.22800000 
Al      10.14250000      14.19950000      16.22800000 
Al      12.17100000      16.22800000      16.22800000 
Al      14.19950000      18.25650000      16.22800000 
Al      16.22800000      20.28500000      16.22800000 
Al      18.25650000      22.31350000      16.22800000 
Al      20.28500000      24.34200000      16.22800000 
Al      22.31350000      26.37050000      16.22800000 
Al      24.34200000      28.39900000      16.22800000 
Al       8.11400000      10.14250000      18.25650000 
Al      10.14250000      12.17100000      18.25650000 