LAMMPS data file generated get_lammps_data.py

214 atoms
3 atom types

0.0 17.21239326764294 xlo xhi
0.0 14.906369829707032 ylo yhi
0.0 14.053860252613871 zlo zhi
8.60619663382147 8.60619663382147 4.968789943235677 xy xz yz

Masses

1 24.305
2 26.9815385
3 28.085

Atoms

    1     1 0.0  0.0  0.0
    2     1 1.4343661056369121  0.8281316572059464  2.342310042102312
    3     1 2.8687322112738243  1.6562633144118928  4.684620084204624
    4     1 4.303098316910735  2.484394971617839  7.026930126306936
    5     1 5.7374644225476485  3.3125266288237856  9.369240168409249
    6     1 7.17183052818456  4.140658286029732  11.711550210511561
    7     3 1.434366105636912  2.484394971617839  -3.376868397793869e-17
    8     3 2.868732211273824  3.3125266288237856  2.342310042102312
    9     3 4.303098316910736  4.140658286029732  4.684620084204624
   10     3 5.737464422547647  4.968789943235678  7.026930126306937
   11     3 7.17183052818456  5.796921600441624  9.369240168409249
   12     3 8.606196633821472  6.625053257647571  11.711550210511561
   13     2 4.303098316910736  5.796921600441625  2.342310042102312
   14     2 7.171830528184559  7.453184914853518  7.026930126306937
   15     2 8.606196633821472  8.281316572059463  9.369240168409249
   16     2 10.040562739458384  9.10944822926541  11.711550210511561
   17     2 4.303098316910735  7.453184914853517  -3.2605212081594906e-17
   18     2 5.737464422547647  8.281316572059463  2.3423100421023126
   19     2 7.171830528184559  9.109448229265409  4.684620084204624
   20     2 8.60619663382147  9.937579886471356  7.026930126306935
   21     2 10.040562739458384  10.765711543677302  9.369240168409249
   22     2 11.474928845095295  11.59384320088325  11.711550210511561
   23     2 5.737464422547648  9.937579886471356  -1.3507473591175476e-16
   24     2 7.17183052818456  10.765711543677302  2.342310042102312
   25     2 8.606196633821472  11.59384320088325  4.684620084204624
   26     2 10.040562739458382  12.421974858089197  7.026930126306937
   27     2 11.474928845095295  13.250106515295142  9.369240168409249
   28     2 12.909294950732207  14.078238172501088  11.711550210511561
   29     2 7.171830528184559  12.421974858089195  3.4394662981259033e-16
   30     2 8.60619663382147  13.250106515295142  2.3423100421023126
   31     2 10.040562739458384  14.078238172501088  4.684620084204624
   32     2 11.474928845095294  14.906369829707035  7.026930126306937
   33     2 12.909294950732207  15.73450148691298  9.369240168409247
   34     2 14.343661056369118  16.562633144118927  11.711550210511561
   35     2 2.868732211273824  4.1905706229700744e-17  -3.376868397793869e-17
   36     2 4.303098316910736  0.8281316572059464  2.342310042102312
   37     2 5.737464422547647  1.656263314411893  4.684620084204624
   38     2 7.17183052818456  2.484394971617839  7.026930126306937
   39     2 8.606196633821472  3.312526628823786  9.369240168409249
   40     2 10.040562739458382  4.140658286029732  11.711550210511561
   41     2 4.303098316910736  2.484394971617839  -6.753736795587738e-17
   42     2 5.737464422547648  3.3125266288237856  2.342310042102312
   43     2 7.171830528184559  4.140658286029732  4.6846200842046235
   44     2 8.606196633821472  4.968789943235678  7.026930126306937
   45     2 10.040562739458384  5.796921600441625  9.369240168409249
   46     2 11.474928845095294  6.625053257647571  11.71155021051156
   47     2 5.737464422547647  4.968789943235678  4.114839977684677e-16
   48     2 7.171830528184559  5.796921600441624  2.3423100421023126
   49     2 8.60619663382147  6.62505325764757  4.684620084204624
   50     2 10.040562739458384  7.453184914853516  7.026930126306937
   51     2 11.474928845095295  8.281316572059463  9.369240168409249
   52     2 12.909294950732205  9.10944822926541  11.711550210511561
   53     2 7.17183052818456  7.453184914853518  -1.3507473591175476e-16
   54     2 8.606196633821472  8.281316572059463  2.342310042102312
   55     2 10.040562739458382  9.10944822926541  4.684620084204624
   56     2 11.474928845095295  9.937579886471356  7.026930126306937
   57     2 12.909294950732207  10.765711543677304  9.369240168409249
   58     2 14.343661056369118  11.59384320088325  11.711550210511561
   59     2 8.60619663382147  9.937579886471356  3.4394662981259033e-16
   60     2 10.040562739458384  10.765711543677302  2.3423100421023126
   61     2 11.474928845095294  11.59384320088325  4.684620084204623
   62     2 12.909294950732207  12.421974858089195  7.026930126306937
   63     2 14.343661056369118  13.250106515295142  9.369240168409249
   64     2 15.77802716200603  14.078238172501086  11.711550210511557
   65     2 10.040562739458382  12.421974858089195  8.229679955369354e-16
   66     2 11.474928845095294  13.25010651529514  2.342310042102313
   67     2 12.909294950732205  14.078238172501088  4.684620084204625
   68     2 14.343661056369118  14.906369829707034  7.0269301263069375
   69     2 15.77802716200603  15.73450148691298  9.369240168409249
   70     2 17.21239326764294  16.562633144118927  11.711550210511561
   71     2 5.737464422547648  8.381141245940149e-17  -6.753736795587738e-17
   72     2 7.171830528184559  0.8281316572059466  2.342310042102312
   73     2 8.606196633821472  1.6562633144118928  4.684620084204624
   74     2 10.040562739458384  2.4843949716178395  7.026930126306937
   75     2 11.474928845095294  3.312526628823786  9.369240168409249
   76     2 12.909294950732207  4.140658286029732  11.711550210511561
   77     2 7.171830528184559  2.484394971617839  4.114839977684677e-16
   78     2 8.60619663382147  3.3125266288237856  2.3423100421023126
   79     2 10.040562739458384  4.140658286029732  4.684620084204624
   80     2 11.474928845095295  4.968789943235678  7.026930126306937
   81     2 12.909294950732205  5.796921600441624  9.369240168409249
   82     2 14.343661056369118  6.62505325764757  11.711550210511561
   83     2 8.606196633821472  4.968789943235678  -1.3507473591175476e-16
   84     2 10.040562739458382  5.796921600441625  2.3423100421023113
   85     2 11.474928845095295  6.625053257647571  4.684620084204624
   86     2 12.909294950732207  7.453184914853518  7.026930126306937
   87     2 14.343661056369118  8.281316572059463  9.369240168409247
   88     2 15.778027162006032  9.10944822926541  11.711550210511561
   89     2 10.040562739458384  7.453184914853517  3.4394662981259033e-16
   90     2 11.474928845095294  8.281316572059463  2.3423100421023126
   91     2 12.909294950732207  9.109448229265409  4.684620084204624
   92     2 14.343661056369118  9.937579886471356  7.026930126306937
   93     2 15.77802716200603  10.765711543677304  9.369240168409249
   94     2 17.21239326764294  11.59384320088325  11.711550210511561
   95     2 11.474928845095294  9.937579886471356  8.229679955369354e-16
   96     2 12.909294950732205  10.765711543677302  2.342310042102313
   97     2 14.343661056369118  11.593843200883247  4.684620084204625
   98     2 15.77802716200603  12.421974858089195  7.0269301263069375
   99     2 17.21239326764294  13.25010651529514  9.369240168409249
  100     2 18.646759373279853  14.078238172501086  11.711550210511561
  101     2 12.909294950732207  12.421974858089195  2.7640926185671295e-16
  102     2 14.343661056369118  13.250106515295142  2.342310042102311
  103     2 15.778027162006032  14.078238172501088  4.684620084204624
  104     2 17.21239326764294  14.906369829707035  7.026930126306937
  105     2 18.646759373279853  15.73450148691298  9.369240168409245
  106     2 20.081125478916768  16.562633144118927  11.711550210511561
  107     2 8.60619663382147  -1.2585790031785377e-16  -3.2605212081594906e-17
  108     2 10.040562739458384  0.8281316572059462  2.3423100421023126
  109     2 11.474928845095295  1.6562633144118928  4.684620084204624
  110     2 12.909294950732205  2.484394971617839  7.026930126306935
  111     2 14.343661056369118  3.3125266288237856  9.369240168409249
  112     2 15.778027162006032  4.140658286029731  11.711550210511561
  113     2 10.040562739458382  2.4843949716178395  -1.3507473591175476e-16
  114     2 11.474928845095295  3.3125266288237856  2.342310042102312
  115     2 12.909294950732207  4.1406582860297325  4.684620084204624
  116     2 14.343661056369118  4.968789943235679  7.026930126306937
  117     2 15.778027162006032  5.796921600441625  9.369240168409249
  118     2 17.212393267642945  6.625053257647571  11.711550210511561
  119     2 11.474928845095294  4.968789943235678  3.4394662981259033e-16
  120     2 12.909294950732207  5.796921600441625  2.3423100421023126
  121     2 14.343661056369118  6.625053257647571  4.684620084204624
  122     2 15.77802716200603  7.453184914853517  7.026930126306937
  123     2 17.21239326764294  8.281316572059463  9.369240168409249
  124     2 18.646759373279856  9.10944822926541  11.711550210511561
  125     2 12.909294950732205  7.453184914853517  -6.521042416318981e-17
  126     2 14.343661056369118  8.281316572059463  2.342310042102313
  127     2 15.77802716200603  9.109448229265409  4.684620084204625
  128     2 17.21239326764294  9.937579886471356  7.026930126306936
  129     2 18.646759373279853  10.765711543677302  9.369240168409249
  130     2 20.081125478916768  11.59384320088325  11.711550210511561
  131     2 14.343661056369118  9.937579886471356  2.7640926185671295e-16
  132     2 15.778027162006032  10.765711543677302  2.3423100421023126
  133     2 17.21239326764294  11.59384320088325  4.684620084204624
  134     2 18.646759373279853  12.421974858089197  7.026930126306937
  135     2 20.081125478916768  13.250106515295142  9.369240168409249
  136     2 21.51549158455368  14.078238172501088  11.711550210511561
  137     2 15.77802716200603  12.421974858089197  -2.7014947182350953e-16
  138     2 17.212393267642945  13.250106515295142  2.3423100421023118
  139     2 18.646759373279856  14.07823817250109  4.684620084204624
  140     2 20.081125478916764  14.906369829707035  7.026930126306937
  141     2 21.51549158455368  15.734501486912981  9.369240168409249
  142     2 22.94985769019059  16.562633144118927  11.711550210511561
  143     2 11.474928845095295  1.6762282491880298e-16  -1.3507473591175476e-16
  144     2 12.909294950732207  0.8281316572059472  2.342310042102312
  145     2 14.343661056369118  1.6562633144118932  4.684620084204624
  146     2 15.778027162006032  2.484394971617839  7.026930126306937
  147     2 17.212393267642945  3.3125266288237856  9.369240168409249
  148     2 18.646759373279853  4.1406582860297325  11.711550210511561
  149     2 12.909294950732207  2.484394971617839  3.4394662981259033e-16
  150     2 14.343661056369118  3.3125266288237856  2.3423100421023126
  151     2 15.77802716200603  4.140658286029732  4.684620084204623
  152     2 17.21239326764294  4.968789943235678  7.026930126306937
  153     2 18.646759373279856  5.796921600441624  9.369240168409249
  154     2 20.081125478916764  6.625053257647571  11.711550210511557
  155     2 14.343661056369118  4.968789943235678  8.229679955369354e-16
  156     2 15.77802716200603  5.796921600441625  2.342310042102313
  157     2 17.21239326764294  6.625053257647571  4.684620084204625
  158     2 18.646759373279853  7.453184914853517  7.0269301263069375
  159     2 20.081125478916768  8.281316572059463  9.369240168409249
  160     2 21.515491584553676  9.10944822926541  11.711550210511561
  161     2 15.778027162006032  7.453184914853518  2.7640926185671295e-16
  162     2 17.21239326764294  8.281316572059465  2.3423100421023126
  163     2 18.646759373279853  9.10944822926541  4.684620084204624
  164     2 20.081125478916768  9.937579886471356  7.026930126306937
  165     2 21.51549158455368  10.765711543677304  9.369240168409249
  166     2 22.94985769019059  11.593843200883251  11.711550210511561
  167     2 17.212393267642945  9.937579886471356  -2.7014947182350953e-16
  168     2 18.646759373279856  10.765711543677304  2.3423100421023118
  169     2 20.081125478916764  11.59384320088325  4.684620084204623
  170     2 21.51549158455368  12.421974858089197  7.026930126306937
  171     2 22.94985769019059  13.250106515295142  9.369240168409249
  172     2 24.384223795827502  14.078238172501088  11.711550210511557
  173     2 18.646759373279853  12.421974858089195  1.2344519933054031e-15
  174     2 20.081125478916764  13.250106515295142  2.3423100421023135
  175     2 21.515491584553676  14.078238172501088  4.684620084204625
  176     2 22.94985769019059  14.906369829707035  7.0269301263069375
  177     2 24.384223795827502  15.734501486912981  9.36924016840925
  178     2 25.818589901464414  16.562633144118927  11.711550210511563
  179     2 14.343661056369118  1.7999811706657902e-16  3.4394662981259033e-16
  180     2 15.77802716200603  0.8281316572059467  2.3423100421023126
  181     2 17.21239326764294  1.6562633144118928  4.684620084204624
  182     2 18.646759373279856  2.4843949716178386  7.026930126306937
  183     2 20.081125478916764  3.312526628823786  9.369240168409247
  184     2 21.51549158455368  4.140658286029732  11.711550210511561
  185     2 15.77802716200603  2.484394971617839  8.229679955369354e-16
  186     2 17.21239326764294  3.312526628823785  2.342310042102313
  187     2 18.646759373279853  4.140658286029732  4.684620084204625
  188     2 20.081125478916768  4.968789943235678  7.0269301263069375
  189     2 21.515491584553676  5.796921600441625  9.369240168409249
  190     2 22.94985769019059  6.625053257647571  11.711550210511561
  191     2 17.21239326764294  4.968789943235679  2.7640926185671295e-16
  192     2 18.646759373279853  5.796921600441625  2.342310042102311
  193     2 20.081125478916768  6.625053257647571  4.684620084204624
  194     2 21.51549158455368  7.453184914853517  7.026930126306937
  195     2 22.94985769019059  8.281316572059465  9.369240168409245
  196     2 24.384223795827502  9.10944822926541  11.711550210511561
  197     2 18.646759373279856  7.453184914853518  -2.7014947182350953e-16
  198     2 20.081125478916764  8.281316572059465  2.3423100421023118
  199     2 21.51549158455368  9.10944822926541  4.684620084204624
  200     2 22.94985769019059  9.937579886471356  7.026930126306937
  201     2 24.384223795827502  10.765711543677304  9.369240168409249
  202     2 25.818589901464414  11.593843200883251  11.711550210511561
  203     2 20.081125478916764  9.937579886471356  1.2344519933054031e-15
  204     2 21.515491584553676  10.765711543677302  2.3423100421023135
  205     2 22.94985769019059  11.59384320088325  4.684620084204625
  206     2 24.384223795827502  12.421974858089195  7.0269301263069375
  207     2 25.818589901464414  13.250106515295142  9.36924016840925
  208     2 27.252956007101325  14.078238172501088  11.711550210511563
  209     2 21.51549158455368  12.421974858089195  6.878932596251807e-16
  210     2 22.949857690190587  13.250106515295142  2.3423100421023113
  211     2 24.384223795827502  14.078238172501088  4.684620084204625
  212     2 25.818589901464414  14.906369829707035  7.0269301263069375
  213     2 27.252956007101325  15.734501486912981  9.369240168409245
  214     2 28.687322112738237  16.562633144118927  11.711550210511561

