LAMMPS data file generated get_lammps_data.py

214 atoms
3 atom types

0.0 17.21239326764294 xlo xhi
0.0 14.906369829707032 ylo yhi
0.0 14.053860252613871 zlo zhi
8.60619663382147 8.60619663382147 4.968789943235677 xy xz yz

Masses

1 24.305
2 26.9815385
3 28.085

Atoms

    1     3 0.0  0.0  0.0
    2     3 1.4343661056369121  0.8281316572059464  2.342310042102312
    3     3 2.8687322112738243  1.6562633144118928  4.684620084204624
    4     3 4.303098316910735  2.484394971617839  7.026930126306936
    5     3 5.7374644225476485  3.3125266288237856  9.369240168409249
    6     3 7.17183052818456  4.140658286029732  11.711550210511561
    7     1 1.434366105636912  2.484394971617839  -3.376868397793869e-17
    8     1 2.868732211273824  3.3125266288237856  2.342310042102312
    9     1 4.303098316910736  4.140658286029732  4.684620084204624
   10     1 5.737464422547647  4.968789943235678  7.026930126306937
   11     1 7.17183052818456  5.796921600441624  9.369240168409249
   12     1 8.606196633821472  6.625053257647571  11.711550210511561
   13     2 2.868732211273824  4.968789943235678  -6.753736795587738e-17
   14     2 4.303098316910736  5.796921600441625  2.342310042102312
   15     2 5.737464422547648  6.625053257647571  4.684620084204624
   16     2 7.171830528184559  7.453184914853518  7.026930126306937
   17     2 8.606196633821472  8.281316572059463  9.369240168409249
   18     2 10.040562739458384  9.10944822926541  11.711550210511561
   19     2 4.303098316910735  7.453184914853517  -3.2605212081594906e-17
   20     2 5.737464422547647  8.281316572059463  2.3423100421023126
   21     2 7.171830528184559  9.109448229265409  4.684620084204624
   22     2 8.60619663382147  9.937579886471356  7.026930126306935
   23     2 10.040562739458384  10.765711543677302  9.369240168409249
   24     2 11.474928845095295  11.59384320088325  11.711550210511561
   25     2 5.737464422547648  9.937579886471356  -1.3507473591175476e-16
   26     2 7.17183052818456  10.765711543677302  2.342310042102312
   27     2 8.606196633821472  11.59384320088325  4.684620084204624
   28     2 10.040562739458382  12.421974858089197  7.026930126306937
   29     2 11.474928845095295  13.250106515295142  9.369240168409249
   30     2 12.909294950732207  14.078238172501088  11.711550210511561
   31     2 7.171830528184559  12.421974858089195  3.4394662981259033e-16
   32     2 8.60619663382147  13.250106515295142  2.3423100421023126
   33     2 10.040562739458384  14.078238172501088  4.684620084204624
   34     2 11.474928845095294  14.906369829707035  7.026930126306937
   35     2 12.909294950732207  15.73450148691298  9.369240168409247
   36     2 14.343661056369118  16.562633144118927  11.711550210511561
   37     2 2.868732211273824  4.1905706229700744e-17  -3.376868397793869e-17
   38     2 4.303098316910736  0.8281316572059464  2.342310042102312
   39     2 5.737464422547647  1.656263314411893  4.684620084204624
   40     2 7.17183052818456  2.484394971617839  7.026930126306937
   41     2 8.606196633821472  3.312526628823786  9.369240168409249
   42     2 10.040562739458382  4.140658286029732  11.711550210511561
   43     2 4.303098316910736  2.484394971617839  -6.753736795587738e-17
   44     2 5.737464422547648  3.3125266288237856  2.342310042102312
   45     2 7.171830528184559  4.140658286029732  4.6846200842046235
   46     2 8.606196633821472  4.968789943235678  7.026930126306937
   47     2 10.040562739458384  5.796921600441625  9.369240168409249
   48     2 11.474928845095294  6.625053257647571  11.71155021051156
   49     2 5.737464422547647  4.968789943235678  4.114839977684677e-16
   50     2 7.171830528184559  5.796921600441624  2.3423100421023126
   51     2 8.60619663382147  6.62505325764757  4.684620084204624
   52     2 10.040562739458384  7.453184914853516  7.026930126306937
   53     2 11.474928845095295  8.281316572059463  9.369240168409249
   54     2 12.909294950732205  9.10944822926541  11.711550210511561
   55     2 7.17183052818456  7.453184914853518  -1.3507473591175476e-16
   56     2 8.606196633821472  8.281316572059463  2.342310042102312
   57     2 10.040562739458382  9.10944822926541  4.684620084204624
   58     2 11.474928845095295  9.937579886471356  7.026930126306937
   59     2 12.909294950732207  10.765711543677304  9.369240168409249
   60     2 14.343661056369118  11.59384320088325  11.711550210511561
   61     2 8.60619663382147  9.937579886471356  3.4394662981259033e-16
   62     2 10.040562739458384  10.765711543677302  2.3423100421023126
   63     2 11.474928845095294  11.59384320088325  4.684620084204623
   64     2 12.909294950732207  12.421974858089195  7.026930126306937
   65     2 14.343661056369118  13.250106515295142  9.369240168409249
   66     2 15.77802716200603  14.078238172501086  11.711550210511557
   67     2 10.040562739458382  12.421974858089195  8.229679955369354e-16
   68     2 11.474928845095294  13.25010651529514  2.342310042102313
   69     2 12.909294950732205  14.078238172501088  4.684620084204625
   70     2 14.343661056369118  14.906369829707034  7.0269301263069375
   71     2 15.77802716200603  15.73450148691298  9.369240168409249
   72     2 17.21239326764294  16.562633144118927  11.711550210511561
   73     2 5.737464422547648  8.381141245940149e-17  -6.753736795587738e-17
   74     2 7.171830528184559  0.8281316572059466  2.342310042102312
   75     2 8.606196633821472  1.6562633144118928  4.684620084204624
   76     2 10.040562739458384  2.4843949716178395  7.026930126306937
   77     2 11.474928845095294  3.312526628823786  9.369240168409249
   78     2 12.909294950732207  4.140658286029732  11.711550210511561
   79     2 7.171830528184559  2.484394971617839  4.114839977684677e-16
   80     2 8.60619663382147  3.3125266288237856  2.3423100421023126
   81     2 10.040562739458384  4.140658286029732  4.684620084204624
   82     2 11.474928845095295  4.968789943235678  7.026930126306937
   83     2 12.909294950732205  5.796921600441624  9.369240168409249
   84     2 14.343661056369118  6.62505325764757  11.711550210511561
   85     2 8.606196633821472  4.968789943235678  -1.3507473591175476e-16
   86     2 10.040562739458382  5.796921600441625  2.3423100421023113
   87     2 11.474928845095295  6.625053257647571  4.684620084204624
   88     2 12.909294950732207  7.453184914853518  7.026930126306937
   89     2 14.343661056369118  8.281316572059463  9.369240168409247
   90     2 15.778027162006032  9.10944822926541  11.711550210511561
   91     2 10.040562739458384  7.453184914853517  3.4394662981259033e-16
   92     2 11.474928845095294  8.281316572059463  2.3423100421023126
   93     2 12.909294950732207  9.109448229265409  4.684620084204624
   94     2 14.343661056369118  9.937579886471356  7.026930126306937
   95     2 15.77802716200603  10.765711543677304  9.369240168409249
   96     2 17.21239326764294  11.59384320088325  11.711550210511561
   97     2 11.474928845095294  9.937579886471356  8.229679955369354e-16
   98     2 12.909294950732205  10.765711543677302  2.342310042102313
   99     2 14.343661056369118  11.593843200883247  4.684620084204625
  100     2 15.77802716200603  12.421974858089195  7.0269301263069375
  101     2 17.21239326764294  13.25010651529514  9.369240168409249
  102     2 18.646759373279853  14.078238172501086  11.711550210511561
  103     2 12.909294950732207  12.421974858089195  2.7640926185671295e-16
  104     2 14.343661056369118  13.250106515295142  2.342310042102311
  105     2 15.778027162006032  14.078238172501088  4.684620084204624
  106     2 17.21239326764294  14.906369829707035  7.026930126306937
  107     2 18.646759373279853  15.73450148691298  9.369240168409245
  108     2 20.081125478916768  16.562633144118927  11.711550210511561
  109     2 8.60619663382147  -1.2585790031785377e-16  -3.2605212081594906e-17
  110     2 10.040562739458384  0.8281316572059462  2.3423100421023126
  111     2 11.474928845095295  1.6562633144118928  4.684620084204624
  112     2 12.909294950732205  2.484394971617839  7.026930126306935
  113     2 14.343661056369118  3.3125266288237856  9.369240168409249
  114     2 15.778027162006032  4.140658286029731  11.711550210511561
  115     2 10.040562739458382  2.4843949716178395  -1.3507473591175476e-16
  116     2 11.474928845095295  3.3125266288237856  2.342310042102312
  117     2 12.909294950732207  4.1406582860297325  4.684620084204624
  118     2 14.343661056369118  4.968789943235679  7.026930126306937
  119     2 15.778027162006032  5.796921600441625  9.369240168409249
  120     2 17.212393267642945  6.625053257647571  11.711550210511561
  121     2 11.474928845095294  4.968789943235678  3.4394662981259033e-16
  122     2 12.909294950732207  5.796921600441625  2.3423100421023126
  123     2 14.343661056369118  6.625053257647571  4.684620084204624
  124     2 15.77802716200603  7.453184914853517  7.026930126306937
  125     2 17.21239326764294  8.281316572059463  9.369240168409249
  126     2 18.646759373279856  9.10944822926541  11.711550210511561
  127     2 12.909294950732205  7.453184914853517  -6.521042416318981e-17
  128     2 14.343661056369118  8.281316572059463  2.342310042102313
  129     2 15.77802716200603  9.109448229265409  4.684620084204625
  130     2 17.21239326764294  9.937579886471356  7.026930126306936
  131     2 18.646759373279853  10.765711543677302  9.369240168409249
  132     2 20.081125478916768  11.59384320088325  11.711550210511561
  133     2 14.343661056369118  9.937579886471356  2.7640926185671295e-16
  134     2 15.778027162006032  10.765711543677302  2.3423100421023126
  135     2 17.21239326764294  11.59384320088325  4.684620084204624
  136     2 18.646759373279853  12.421974858089197  7.026930126306937
  137     2 20.081125478916768  13.250106515295142  9.369240168409249
  138     2 21.51549158455368  14.078238172501088  11.711550210511561
  139     2 15.77802716200603  12.421974858089197  -2.7014947182350953e-16
  140     2 17.212393267642945  13.250106515295142  2.3423100421023118
  141     2 18.646759373279856  14.07823817250109  4.684620084204624
  142     2 20.081125478916764  14.906369829707035  7.026930126306937
  143     2 21.51549158455368  15.734501486912981  9.369240168409249
  144     2 22.94985769019059  16.562633144118927  11.711550210511561
  145     2 11.474928845095295  1.6762282491880298e-16  -1.3507473591175476e-16
  146     2 12.909294950732207  0.8281316572059472  2.342310042102312
  147     2 14.343661056369118  1.6562633144118932  4.684620084204624
  148     2 15.778027162006032  2.484394971617839  7.026930126306937
  149     2 17.212393267642945  3.3125266288237856  9.369240168409249
  150     2 18.646759373279853  4.1406582860297325  11.711550210511561
  151     2 12.909294950732207  2.484394971617839  3.4394662981259033e-16
  152     2 14.343661056369118  3.3125266288237856  2.3423100421023126
  153     2 15.77802716200603  4.140658286029732  4.684620084204623
  154     2 17.21239326764294  4.968789943235678  7.026930126306937
  155     2 18.646759373279856  5.796921600441624  9.369240168409249
  156     2 20.081125478916764  6.625053257647571  11.711550210511557
  157     2 14.343661056369118  4.968789943235678  8.229679955369354e-16
  158     2 15.77802716200603  5.796921600441625  2.342310042102313
  159     2 17.21239326764294  6.625053257647571  4.684620084204625
  160     2 18.646759373279853  7.453184914853517  7.0269301263069375
  161     2 20.081125478916768  8.281316572059463  9.369240168409249
  162     2 21.515491584553676  9.10944822926541  11.711550210511561
  163     2 15.778027162006032  7.453184914853518  2.7640926185671295e-16
  164     2 17.21239326764294  8.281316572059465  2.3423100421023126
  165     2 18.646759373279853  9.10944822926541  4.684620084204624
  166     2 20.081125478916768  9.937579886471356  7.026930126306937
  167     2 21.51549158455368  10.765711543677304  9.369240168409249
  168     2 22.94985769019059  11.593843200883251  11.711550210511561
  169     2 17.212393267642945  9.937579886471356  -2.7014947182350953e-16
  170     2 18.646759373279856  10.765711543677304  2.3423100421023118
  171     2 20.081125478916764  11.59384320088325  4.684620084204623
  172     2 21.51549158455368  12.421974858089197  7.026930126306937
  173     2 22.94985769019059  13.250106515295142  9.369240168409249
  174     2 24.384223795827502  14.078238172501088  11.711550210511557
  175     2 18.646759373279853  12.421974858089195  1.2344519933054031e-15
  176     2 20.081125478916764  13.250106515295142  2.3423100421023135
  177     2 21.515491584553676  14.078238172501088  4.684620084204625
  178     2 22.94985769019059  14.906369829707035  7.0269301263069375
  179     2 24.384223795827502  15.734501486912981  9.36924016840925
  180     2 25.818589901464414  16.562633144118927  11.711550210511563
  181     2 14.343661056369118  1.7999811706657902e-16  3.4394662981259033e-16
  182     2 15.77802716200603  0.8281316572059467  2.3423100421023126
  183     2 17.21239326764294  1.6562633144118928  4.684620084204624
  184     2 18.646759373279856  2.4843949716178386  7.026930126306937
  185     2 20.081125478916764  3.312526628823786  9.369240168409247
  186     2 21.51549158455368  4.140658286029732  11.711550210511561
  187     2 15.77802716200603  2.484394971617839  8.229679955369354e-16
  188     2 17.21239326764294  3.312526628823785  2.342310042102313
  189     2 18.646759373279853  4.140658286029732  4.684620084204625
  190     2 20.081125478916768  4.968789943235678  7.0269301263069375
  191     2 21.515491584553676  5.796921600441625  9.369240168409249
  192     2 22.94985769019059  6.625053257647571  11.711550210511561
  193     2 17.21239326764294  4.968789943235679  2.7640926185671295e-16
  194     2 18.646759373279853  5.796921600441625  2.342310042102311
  195     2 20.081125478916768  6.625053257647571  4.684620084204624
  196     2 21.51549158455368  7.453184914853517  7.026930126306937
  197     2 22.94985769019059  8.281316572059465  9.369240168409245
  198     2 24.384223795827502  9.10944822926541  11.711550210511561
  199     2 18.646759373279856  7.453184914853518  -2.7014947182350953e-16
  200     2 20.081125478916764  8.281316572059465  2.3423100421023118
  201     2 21.51549158455368  9.10944822926541  4.684620084204624
  202     2 22.94985769019059  9.937579886471356  7.026930126306937
  203     2 24.384223795827502  10.765711543677304  9.369240168409249
  204     2 25.818589901464414  11.593843200883251  11.711550210511561
  205     2 20.081125478916764  9.937579886471356  1.2344519933054031e-15
  206     2 21.515491584553676  10.765711543677302  2.3423100421023135
  207     2 22.94985769019059  11.59384320088325  4.684620084204625
  208     2 24.384223795827502  12.421974858089195  7.0269301263069375
  209     2 25.818589901464414  13.250106515295142  9.36924016840925
  210     2 27.252956007101325  14.078238172501088  11.711550210511563
  211     2 21.51549158455368  12.421974858089195  6.878932596251807e-16
  212     2 22.949857690190587  13.250106515295142  2.3423100421023113
  213     2 24.384223795827502  14.078238172501088  4.684620084204625
  214     2 25.818589901464414  14.906369829707035  7.0269301263069375

