LAMMPS data file generated get_lammps_data.py

510 atoms
3 atom types

0.0 22.949857690190587 xlo xhi
0.0 19.875159772942713 ylo yhi
0.0 18.738480336818494 zlo zhi
11.474928845095295 11.474928845095295 6.625053257647569 xy xz yz

Masses

1 24.305
2 26.9815385
3 28.085

Atoms

    1     3 0.0  0.0  0.0
    2     3 1.4343661056369115  0.828131657205946  2.342310042102311
    3     3 2.868732211273823  1.656263314411892  4.684620084204622
    4     3 4.3030983169107335  2.4843949716178373  7.026930126306932
    5     3 5.737464422547646  3.312526628823784  9.369240168409243
    6     3 7.1718305281845565  4.140658286029729  11.711550210511554
    7     1 8.606196633821467  4.968789943235675  14.053860252613864
    8     1 10.04056273945838  5.796921600441621  16.396170294716175
    9     1 1.4343661056369115  2.484394971617838  -2.427627711739354e-17
   10     1 2.868732211273823  3.3125266288237842  2.342310042102311
   11     1 4.303098316910734  4.14065828602973  4.684620084204622
   12     1 5.737464422547645  4.968789943235676  7.026930126306932
   13     2 7.171830528184557  5.796921600441622  9.369240168409242
   14     2 8.606196633821469  6.625053257647567  11.711550210511554
   15     2 10.040562739458379  7.453184914853514  14.053860252613863
   16     2 11.474928845095292  8.28131657205946  16.396170294716175
   17     2 2.868732211273823  4.968789943235676  -4.855255423478708e-17
   18     2 4.303098316910734  5.796921600441621  2.342310042102311
   19     2 5.737464422547646  6.6250532576475685  4.684620084204622
   20     2 7.171830528184556  7.453184914853513  7.026930126306932
   21     2 8.606196633821469  8.28131657205946  9.369240168409243
   22     2 10.04056273945838  9.109448229265405  11.711550210511554
   23     2 11.47492884509529  9.937579886471353  14.053860252613864
   24     2 12.909294950732203  10.765711543677298  16.39617029471617
   25     2 4.3030983169107335  7.453184914853514  2.1791661342507156e-16
   26     2 5.737464422547645  8.28131657205946  2.342310042102311
   27     2 7.1718305281845565  9.109448229265405  4.684620084204622
   28     2 8.606196633821467  9.937579886471351  7.026930126306932
   29     2 10.04056273945838  10.765711543677298  9.369240168409243
   30     2 11.47492884509529  11.593843200883246  11.711550210511554
   31     2 12.9092949507322  12.42197485808919  14.053860252613864
   32     2 14.343661056369113  13.250106515295135  16.396170294716175
   33     2 5.737464422547646  9.937579886471353  -9.710510846957415e-17
   34     2 7.171830528184557  10.765711543677298  2.3423100421023104
   35     2 8.606196633821469  11.593843200883242  4.684620084204622
   36     2 10.040562739458379  12.42197485808919  7.026930126306932
   37     2 11.474928845095292  13.250106515295137  9.369240168409243
   38     2 12.909294950732203  14.078238172501083  11.711550210511552
   39     2 14.343661056369111  14.906369829707026  14.053860252613864
   40     2 15.778027162006026  15.734501486912976  16.396170294716175
   41     2 7.1718305281845565  12.42197485808919  1.6936405919028449e-16
   42     2 8.606196633821469  13.250106515295135  2.3423100421023104
   43     2 10.04056273945838  14.07823817250108  4.684620084204621
   44     2 11.47492884509529  14.906369829707028  7.026930126306933
   45     2 12.909294950732203  15.734501486912974  9.369240168409242
   46     2 14.343661056369113  16.56263314411892  11.711550210511554
   47     2 15.778027162006024  17.390764801324867  14.053860252613866
   48     2 17.212393267642938  18.21889645853081  16.396170294716175
   49     2 8.606196633821467  14.906369829707028  4.3583322685014313e-16
   50     2 10.040562739458379  15.734501486912976  2.3423100421023118
   51     2 11.47492884509529  16.56263314411892  4.684620084204622
   52     2 12.909294950732201  17.390764801324867  7.026930126306932
   53     2 14.343661056369113  18.21889645853081  9.369240168409243
   54     2 15.778027162006024  19.04702811573676  11.711550210511556
   55     2 17.212393267642934  19.875159772942702  14.053860252613864
   56     2 18.64675937327985  20.70329143014865  16.396170294716175
   57     2 10.04056273945838  17.390764801324867  -3.232777048945652e-16
   58     2 11.474928845095292  18.218896458530814  2.3423100421023118
   59     2 12.909294950732203  19.047028115736758  4.684620084204621
   60     2 14.343661056369113  19.875159772942705  7.026930126306933
   61     2 15.778027162006026  20.703291430148653  9.369240168409243
   62     2 17.212393267642938  21.531423087354597  11.711550210511552
   63     2 18.646759373279846  22.359554744560544  14.053860252613864
   64     2 20.08112547891676  23.187686401766488  16.396170294716175
   65     2 2.8687322112738225  3.8741570609519026e-17  -2.427627711739354e-17
   66     2 4.303098316910734  0.828131657205946  2.342310042102311
   67     2 5.737464422547645  1.6562633144118923  4.684620084204622
   68     2 7.171830528184557  2.484394971617837  7.026930126306932
   69     2 8.606196633821467  3.312526628823784  9.369240168409242
   70     2 10.040562739458379  4.14065828602973  11.711550210511554
   71     2 11.474928845095292  4.968789943235675  14.053860252613863
   72     2 12.909294950732203  5.796921600441621  16.396170294716175
   73     2 4.3030983169107335  2.484394971617838  -4.855255423478708e-17
   74     2 5.737464422547645  3.3125266288237842  2.342310042102311
   75     2 7.171830528184556  4.14065828602973  4.684620084204621
   76     2 8.606196633821469  4.968789943235676  7.026930126306932
   77     2 10.040562739458379  5.796921600441621  9.369240168409243
   78     2 11.47492884509529  6.625053257647567  11.711550210511554
   79     2 12.909294950732203  7.453184914853513  14.053860252613864
   80     2 14.343661056369115  8.28131657205946  16.396170294716175
   81     2 5.737464422547645  4.968789943235676  6.620058232751342e-16
   82     2 7.1718305281845565  5.796921600441622  2.342310042102311
   83     2 8.606196633821467  6.6250532576475685  4.684620084204622
   84     2 10.040562739458379  7.453184914853514  7.026930126306932
   85     2 11.47492884509529  8.281316572059458  9.369240168409243
   86     2 12.9092949507322  9.109448229265405  11.711550210511552
   87     2 14.343661056369113  9.937579886471353  14.053860252613864
   88     2 15.778027162006024  10.765711543677298  16.396170294716175
   89     2 7.1718305281845565  7.453184914853514  -9.710510846957415e-17
   90     2 8.606196633821469  8.281316572059461  2.3423100421023113
   91     2 10.040562739458379  9.109448229265405  4.684620084204622
   92     2 11.474928845095292  9.937579886471351  7.026930126306932
   93     2 12.909294950732201  10.765711543677298  9.369240168409242
   94     2 14.343661056369111  11.593843200883244  11.711550210511552
   95     2 15.778027162006024  12.42197485808919  14.05386025261386
   96     2 17.212393267642938  13.250106515295135  16.396170294716175
   97     2 8.606196633821467  9.937579886471353  1.6936405919028449e-16
   98     2 10.040562739458379  10.765711543677298  2.3423100421023104
   99     2 11.47492884509529  11.593843200883242  4.684620084204621
  100     2 12.909294950732201  12.42197485808919  7.026930126306933
  101     2 14.343661056369113  13.250106515295137  9.369240168409243
  102     2 15.778027162006023  14.07823817250108  11.711550210511554
  103     2 17.212393267642934  14.906369829707026  14.053860252613863
  104     2 18.64675937327985  15.734501486912976  16.396170294716175
  105     2 10.040562739458379  12.42197485808919  4.3583322685014313e-16
  106     2 11.47492884509529  13.250106515295135  2.3423100421023118
  107     2 12.9092949507322  14.078238172501083  4.684620084204622
  108     2 14.343661056369113  14.90636982970703  7.026930126306934
  109     2 15.778027162006024  15.734501486912976  9.369240168409243
  110     2 17.212393267642934  16.56263314411892  11.711550210511556
  111     2 18.64675937327985  17.390764801324867  14.053860252613864
  112     2 20.08112547891676  18.21889645853081  16.396170294716175
  113     2 11.47492884509529  14.906369829707028  -3.232777048945652e-16
  114     2 12.909294950732201  15.734501486912974  2.34231004210231
  115     2 14.343661056369113  16.562633144118923  4.684620084204623
  116     2 15.778027162006026  17.390764801324867  7.026930126306931
  117     2 17.212393267642938  18.218896458530814  9.369240168409243
  118     2 18.646759373279846  19.04702811573676  11.711550210511556
  119     2 20.08112547891676  19.875159772942702  14.053860252613864
  120     2 21.515491584553672  20.703291430148653  16.396170294716175
  121     2 12.909294950732203  17.390764801324867  -1.942102169391483e-16
  122     2 14.343661056369115  18.218896458530814  2.3423100421023104
  123     2 15.778027162006024  19.047028115736758  4.684620084204621
  124     2 17.212393267642938  19.875159772942705  7.026930126306931
  125     2 18.64675937327985  20.703291430148653  9.369240168409243
  126     2 20.081125478916757  21.531423087354593  11.711550210511552
  127     2 21.515491584553672  22.359554744560544  14.053860252613864
  128     2 22.949857690190584  23.187686401766488  16.396170294716175
  129     2 5.737464422547645  7.748314121903805e-17  -4.855255423478708e-17
  130     2 7.171830528184555  0.8281316572059464  2.342310042102311
  131     2 8.606196633821469  1.656263314411892  4.684620084204622
  132     2 10.040562739458379  2.4843949716178373  7.026930126306932
  133     2 11.47492884509529  3.3125266288237847  9.369240168409243
  134     2 12.909294950732203  4.140658286029729  11.711550210511554
  135     2 14.343661056369115  4.968789943235674  14.053860252613864
  136     2 15.778027162006024  5.796921600441621  16.39617029471617
  137     2 7.171830528184556  2.484394971617838  6.620058232751342e-16
  138     2 8.606196633821467  3.3125266288237842  2.342310042102311
  139     2 10.040562739458379  4.140658286029729  4.684620084204622
  140     2 11.47492884509529  4.968789943235676  7.026930126306932
  141     2 12.9092949507322  5.796921600441622  9.369240168409243
  142     2 14.343661056369113  6.625053257647567  11.711550210511552
  143     2 15.778027162006024  7.453184914853513  14.053860252613864
  144     2 17.212393267642934  8.28131657205946  16.396170294716175
  145     2 8.606196633821467  4.968789943235676  -9.710510846957415e-17
  146     2 10.040562739458379  5.796921600441622  2.3423100421023104
  147     2 11.47492884509529  6.6250532576475685  4.684620084204622
  148     2 12.909294950732201  7.453184914853514  7.026930126306932
  149     2 14.343661056369111  8.28131657205946  9.369240168409242
  150     2 15.778027162006024  9.109448229265405  11.711550210511552
  151     2 17.212393267642938  9.937579886471353  14.053860252613864
  152     2 18.646759373279846  10.765711543677298  16.396170294716175
  153     2 10.040562739458379  7.453184914853514  1.6936405919028449e-16
  154     2 11.474928845095288  8.28131657205946  2.3423100421023104
  155     2 12.909294950732201  9.109448229265405  4.684620084204621
  156     2 14.343661056369113  9.937579886471351  7.026930126306933
  157     2 15.778027162006023  10.765711543677298  9.369240168409242
  158     2 17.212393267642934  11.593843200883244  11.711550210511554
  159     2 18.646759373279846  12.42197485808919  14.053860252613863
  160     2 20.081125478916757  13.250106515295133  16.396170294716175
  161     2 11.47492884509529  9.937579886471353  1.3240116465502684e-15
  162     2 12.9092949507322  10.765711543677298  2.3423100421023118
  163     2 14.343661056369113  11.593843200883244  4.684620084204622
  164     2 15.778027162006023  12.42197485808919  7.026930126306932
  165     2 17.212393267642934  13.250106515295137  9.369240168409243
  166     2 18.646759373279846  14.078238172501083  11.711550210511552
  167     2 20.081125478916757  14.906369829707028  14.053860252613864
  168     2 21.51549158455367  15.734501486912976  16.396170294716175
  169     2 12.909294950732201  12.421974858089191  -3.232777048945652e-16
  170     2 14.343661056369113  13.250106515295135  2.34231004210231
  171     2 15.778027162006024  14.078238172501083  4.684620084204623
  172     2 17.212393267642934  14.90636982970703  7.026930126306933
  173     2 18.646759373279846  15.734501486912974  9.369240168409243
  174     2 20.081125478916757  16.56263314411892  11.711550210511552
  175     2 21.515491584553672  17.39076480132487  14.053860252613864
  176     2 22.94985769019058  18.21889645853081  16.396170294716175
  177     2 14.343661056369113  14.906369829707028  -1.942102169391483e-16
  178     2 15.778027162006024  15.734501486912976  2.3423100421023104
  179     2 17.212393267642938  16.562633144118923  4.684620084204623
  180     2 18.64675937327985  17.390764801324867  7.026930126306931
  181     2 20.081125478916757  18.21889645853081  9.369240168409243
  182     2 21.515491584553672  19.04702811573676  11.711550210511552
  183     2 22.949857690190584  19.875159772942702  14.053860252613864
  184     2 24.38422379582749  20.70329143014865  16.39617029471617
  185     2 15.778027162006023  17.390764801324867  2.0966063042515207e-16
  186     2 17.212393267642934  18.218896458530814  2.342310042102312
  187     2 18.646759373279846  19.047028115736758  4.684620084204621
  188     2 20.081125478916757  19.875159772942705  7.026930126306933
  189     2 21.51549158455367  20.703291430148653  9.369240168409245
  190     2 22.94985769019058  21.531423087354593  11.711550210511554
  191     2 24.38422379582749  22.359554744560544  14.053860252613866
  192     2 25.818589901464403  23.187686401766488  16.396170294716175
  193     2 8.606196633821465  8.669429774663248e-17  2.1791661342507156e-16
  194     2 10.040562739458379  0.8281316572059457  2.342310042102311
  195     2 11.47492884509529  1.6562633144118917  4.684620084204622
  196     2 12.909294950732198  2.4843949716178373  7.026930126306932
  197     2 14.343661056369113  3.312526628823784  9.369240168409243
  198     2 15.778027162006024  4.140658286029729  11.711550210511554
  199     2 17.212393267642934  4.968789943235675  14.053860252613864
  200     2 18.646759373279846  5.796921600441621  16.396170294716175
  201     2 10.040562739458377  2.4843949716178386  -9.710510846957415e-17
  202     2 11.47492884509529  3.3125266288237842  2.3423100421023113
  203     2 12.909294950732201  4.14065828602973  4.684620084204622
  204     2 14.343661056369111  4.968789943235677  7.026930126306932
  205     2 15.778027162006024  5.796921600441622  9.369240168409242
  206     2 17.212393267642938  6.625053257647567  11.711550210511552
  207     2 18.646759373279846  7.453184914853514  14.05386025261386
  208     2 20.081125478916757  8.28131657205946  16.396170294716175
  209     2 11.474928845095288  4.968789943235676  1.6936405919028449e-16
  210     2 12.909294950732201  5.796921600441621  2.3423100421023104
  211     2 14.343661056369111  6.6250532576475685  4.684620084204621
  212     2 15.778027162006023  7.453184914853514  7.026930126306933
  213     2 17.212393267642934  8.281316572059458  9.369240168409242
  214     2 18.646759373279846  9.109448229265405  11.711550210511554
  215     2 20.081125478916757  9.937579886471353  14.053860252613863
  216     2 21.51549158455367  10.765711543677297  16.396170294716175
  217     2 12.9092949507322  7.453184914853514  4.3583322685014313e-16
  218     2 14.343661056369111  8.28131657205946  2.3423100421023118
  219     2 15.778027162006023  9.109448229265405  4.684620084204622
  220     2 17.212393267642934  9.937579886471351  7.026930126306932
  221     2 18.646759373279846  10.765711543677298  9.369240168409243
  222     2 20.081125478916757  11.593843200883244  11.711550210511556
  223     2 21.51549158455367  12.42197485808919  14.053860252613864
  224     2 22.94985769019058  13.250106515295135  16.396170294716175
  225     2 14.343661056369111  9.937579886471353  -3.232777048945652e-16
  226     2 15.778027162006024  10.765711543677298  2.34231004210231
  227     2 17.212393267642934  11.593843200883244  4.684620084204623
  228     2 18.646759373279846  12.421974858089191  7.026930126306931
  229     2 20.081125478916757  13.250106515295137  9.369240168409243
  230     2 21.51549158455367  14.078238172501083  11.711550210511552
  231     2 22.94985769019058  14.906369829707026  14.053860252613864
  232     2 24.38422379582749  15.734501486912976  16.396170294716175
  233     2 15.778027162006023  12.421974858089191  -1.942102169391483e-16
  234     2 17.212393267642938  13.250106515295137  2.3423100421023104
  235     2 18.646759373279846  14.078238172501083  4.684620084204621
  236     2 20.081125478916757  14.90636982970703  7.026930126306931
  237     2 21.51549158455367  15.734501486912976  9.36924016840924
  238     2 22.94985769019058  16.56263314411892  11.711550210511552
  239     2 24.38422379582749  17.390764801324867  14.053860252613864
  240     2 25.818589901464403  18.21889645853081  16.396170294716175
  241     2 17.212393267642934  14.906369829707026  2.0966063042515207e-16
  242     2 18.646759373279846  15.734501486912974  2.342310042102312
  243     2 20.081125478916757  16.562633144118923  4.684620084204623
  244     2 21.515491584553665  17.390764801324867  7.026930126306933
  245     2 22.94985769019058  18.21889645853081  9.369240168409242
  246     2 24.38422379582749  19.04702811573676  11.711550210511554
  247     2 25.818589901464403  19.875159772942702  14.053860252613866
  248     2 27.252956007101314  20.70329143014865  16.396170294716175
  249     2 18.646759373279846  17.390764801324867  3.3872811838056897e-16
  250     2 20.081125478916757  18.218896458530814  2.3423100421023126
  251     2 21.51549158455367  19.047028115736758  4.684620084204621
  252     2 22.949857690190576  19.875159772942702  7.026930126306933
  253     2 24.38422379582749  20.703291430148653  9.369240168409242
  254     2 25.818589901464403  21.531423087354593  11.711550210511554
  255     2 27.252956007101314  22.35955474456054  14.053860252613863
  256     2 28.687322112738226  23.187686401766488  16.396170294716175
  257     2 11.47492884509529  1.549662824380761e-16  -9.710510846957415e-17
  258     2 12.9092949507322  0.8281316572059462  2.3423100421023104
  259     2 14.34366105636911  1.6562633144118928  4.684620084204622
  260     2 15.778027162006023  2.4843949716178373  7.026930126306932
  261     2 17.212393267642938  3.312526628823784  9.369240168409243
  262     2 18.646759373279846  4.14065828602973  11.711550210511552
  263     2 20.081125478916757  4.968789943235675  14.053860252613864
  264     2 21.51549158455367  5.796921600441622  16.396170294716175
  265     2 12.9092949507322  2.484394971617838  1.6936405919028449e-16
  266     2 14.343661056369111  3.3125266288237842  2.3423100421023104
  267     2 15.77802716200602  4.14065828602973  4.684620084204621
  268     2 17.212393267642934  4.968789943235676  7.026930126306933
  269     2 18.646759373279846  5.796921600441621  9.369240168409243
  270     2 20.081125478916757  6.625053257647567  11.711550210511554
  271     2 21.51549158455367  7.453184914853513  14.053860252613863
  272     2 22.94985769019058  8.28131657205946  16.396170294716175
  273     2 14.343661056369111  4.968789943235676  1.3240116465502684e-15
  274     2 15.778027162006023  5.796921600441621  2.3423100421023118
  275     2 17.212393267642934  6.6250532576475685  4.684620084204622
  276     2 18.646759373279846  7.453184914853513  7.026930126306932
  277     2 20.081125478916757  8.281316572059458  9.369240168409243
  278     2 21.51549158455367  9.109448229265405  11.711550210511552
  279     2 22.94985769019058  9.937579886471353  14.053860252613864
  280     2 24.38422379582749  10.765711543677298  16.396170294716175
  281     2 15.778027162006024  7.453184914853514  -3.232777048945652e-16
  282     2 17.212393267642934  8.281316572059461  2.34231004210231
  283     2 18.646759373279846  9.109448229265407  4.684620084204623
  284     2 20.081125478916757  9.937579886471351  7.026930126306931
  285     2 21.51549158455367  10.765711543677298  9.369240168409243
  286     2 22.94985769019058  11.593843200883246  11.711550210511552
  287     2 24.38422379582749  12.42197485808919  14.053860252613864
  288     2 25.818589901464403  13.250106515295135  16.396170294716175
  289     2 17.212393267642934  9.937579886471353  -1.942102169391483e-16
  290     2 18.646759373279846  10.765711543677298  2.3423100421023104
  291     2 20.081125478916757  11.593843200883244  4.684620084204621
  292     2 21.51549158455367  12.421974858089191  7.026930126306931
  293     2 22.94985769019058  13.250106515295137  9.369240168409243
  294     2 24.38422379582749  14.078238172501083  11.711550210511552
  295     2 25.818589901464403  14.906369829707028  14.053860252613864
  296     2 27.252956007101314  15.734501486912977  16.396170294716175
  297     2 18.646759373279846  12.42197485808919  2.0966063042515207e-16
  298     2 20.081125478916757  13.250106515295135  2.342310042102312
  299     2 21.515491584553665  14.078238172501083  4.684620084204621
  300     2 22.94985769019058  14.906369829707028  7.026930126306933
  301     2 24.38422379582749  15.734501486912974  9.369240168409242
  302     2 25.8185899014644  16.56263314411892  11.711550210511554
  303     2 27.252956007101314  17.390764801324867  14.053860252613866
  304     2 28.687322112738226  18.21889645853081  16.39617029471618
  305     2 20.081125478916757  14.906369829707028  3.3872811838056897e-16
  306     2 21.51549158455367  15.734501486912974  2.342310042102311
  307     2 22.949857690190576  16.56263314411892  4.684620084204621
  308     2 24.38422379582749  17.390764801324867  7.0269301263069295
  309     2 25.818589901464403  18.21889645853081  9.369240168409242
  310     2 27.252956007101314  19.047028115736758  11.711550210511554
  311     2 28.687322112738226  19.875159772942702  14.053860252613866
  312     2 30.121688218375137  20.70329143014865  16.396170294716175
  313     2 21.51549158455367  17.390764801324867  4.677956063359859e-16
  314     2 22.94985769019058  18.218896458530814  2.342310042102311
  315     2 24.38422379582749  19.047028115736758  4.684620084204622
  316     2 25.818589901464403  19.875159772942705  7.02693012630693
  317     2 27.252956007101318  20.703291430148653  9.369240168409242
  318     2 28.687322112738226  21.531423087354593  11.711550210511554
  319     2 30.121688218375137  22.359554744560544  14.053860252613863
  320     2 31.55605432401205  23.187686401766488  16.396170294716175
  321     2 14.343661056369111  -5.786716595936077e-17  1.6936405919028449e-16
  322     2 15.77802716200602  0.8281316572059464  2.3423100421023104
  323     2 17.212393267642934  1.6562633144118921  4.684620084204621
  324     2 18.646759373279846  2.484394971617837  7.026930126306933
  325     2 20.081125478916757  3.3125266288237842  9.369240168409242
  326     2 21.51549158455367  4.140658286029729  11.711550210511554
  327     2 22.94985769019058  4.968789943235675  14.053860252613866
  328     2 24.384223795827488  5.796921600441622  16.396170294716175
  329     2 15.77802716200602  2.4843949716178377  4.3583322685014313e-16
  330     2 17.21239326764293  3.3125266288237842  2.3423100421023118
  331     2 18.646759373279846  4.140658286029729  4.684620084204622
  332     2 20.081125478916757  4.9687899432356755  7.026930126306934
  333     2 21.51549158455367  5.796921600441621  9.369240168409243
  334     2 22.94985769019058  6.625053257647566  11.711550210511556
  335     2 24.38422379582749  7.453184914853513  14.053860252613864
  336     2 25.8185899014644  8.281316572059461  16.396170294716175
  337     2 17.212393267642934  4.968789943235676  -3.232777048945652e-16
  338     2 18.646759373279842  5.796921600441622  2.34231004210231
  339     2 20.081125478916757  6.6250532576475685  4.684620084204623
  340     2 21.51549158455367  7.453184914853513  7.026930126306933
  341     2 22.94985769019058  8.28131657205946  9.369240168409243
  342     2 24.38422379582749  9.109448229265405  11.711550210511552
  343     2 25.818589901464403  9.937579886471353  14.053860252613864
  344     2 27.25295600710131  10.765711543677298  16.396170294716175
  345     2 18.646759373279846  7.453184914853514  -1.942102169391483e-16
  346     2 20.081125478916757  8.281316572059461  2.3423100421023104
  347     2 21.51549158455367  9.109448229265407  4.684620084204621
  348     2 22.94985769019058  9.937579886471351  7.026930126306931
  349     2 24.38422379582749  10.765711543677298  9.36924016840924
  350     2 25.818589901464403  11.593843200883246  11.711550210511552
  351     2 27.252956007101314  12.421974858089191  14.053860252613864
  352     2 28.687322112738222  13.250106515295137  16.396170294716175
  353     2 20.081125478916757  9.937579886471353  2.0966063042515207e-16
  354     2 21.515491584553665  10.765711543677298  2.342310042102312
  355     2 22.94985769019058  11.593843200883242  4.684620084204621
  356     2 24.38422379582749  12.42197485808919  7.026930126306933
  357     2 25.8185899014644  13.250106515295137  9.369240168409242
  358     2 27.25295600710131  14.07823817250108  11.711550210511554
  359     2 28.687322112738222  14.906369829707026  14.053860252613866
  360     2 30.121688218375134  15.734501486912976  16.39617029471618
  361     2 21.51549158455367  12.42197485808919  3.3872811838056897e-16
  362     2 22.949857690190576  13.250106515295135  2.342310042102311
  363     2 24.38422379582749  14.078238172501083  4.684620084204621
  364     2 25.818589901464403  14.906369829707028  7.026930126306933
  365     2 27.25295600710131  15.734501486912974  9.369240168409242
  366     2 28.687322112738222  16.56263314411892  11.711550210511554
  367     2 30.121688218375137  17.390764801324867  14.053860252613866
  368     2 31.556054324012045  18.21889645853081  16.396170294716175
  369     2 22.94985769019058  14.906369829707028  4.677956063359859e-16
  370     2 24.38422379582749  15.734501486912976  2.342310042102309
  371     2 25.818589901464403  16.562633144118923  4.684620084204622
  372     2 27.252956007101314  17.390764801324867  7.02693012630693
  373     2 28.687322112738226  18.21889645853081  9.369240168409242
  374     2 30.121688218375137  19.04702811573676  11.711550210511554
  375     2 31.55605432401205  19.875159772942702  14.053860252613866
  376     2 32.99042042964896  20.703291430148653  16.39617029471617
  377     2 24.384223795827488  17.390764801324867  8.716664537002863e-16
  378     2 25.8185899014644  18.218896458530814  2.3423100421023113
  379     2 27.25295600710131  19.047028115736758  4.68462008420462
  380     2 28.687322112738222  19.875159772942705  7.026930126306932
  381     2 30.121688218375134  20.703291430148653  9.369240168409243
  382     2 31.556054324012045  21.531423087354593  11.711550210511556
  383     2 32.99042042964896  22.359554744560544  14.053860252613864
  384     2 34.42478653528587  23.187686401766488  16.396170294716175
  385     2 17.21239326764293  1.7338859549326496e-16  4.3583322685014313e-16
  386     2 18.646759373279846  0.8281316572059458  2.3423100421023118
  387     2 20.081125478916757  1.6562633144118915  4.684620084204622
  388     2 21.515491584553665  2.484394971617837  7.026930126306932
  389     2 22.94985769019058  3.3125266288237833  9.369240168409243
  390     2 24.38422379582749  4.140658286029729  11.711550210511556
  391     2 25.818589901464396  4.968789943235675  14.053860252613864
  392     2 27.252956007101314  5.79692160044162  16.396170294716175
  393     2 18.646759373279842  2.484394971617839  -3.232777048945652e-16
  394     2 20.081125478916757  3.3125266288237847  2.34231004210231
  395     2 21.51549158455367  4.140658286029729  4.684620084204623
  396     2 22.94985769019058  4.968789943235676  7.026930126306931
  397     2 24.38422379582749  5.796921600441621  9.369240168409243
  398     2 25.818589901464403  6.625053257647567  11.711550210511556
  399     2 27.25295600710131  7.453184914853514  14.053860252613864
  400     2 28.687322112738226  8.28131657205946  16.396170294716175
  401     2 20.081125478916753  4.968789943235677  -1.942102169391483e-16
  402     2 21.51549158455367  5.796921600441622  2.3423100421023104
  403     2 22.94985769019058  6.6250532576475685  4.684620084204623
  404     2 24.38422379582749  7.453184914853514  7.026930126306931
  405     2 25.818589901464403  8.28131657205946  9.369240168409243
  406     2 27.252956007101314  9.109448229265407  11.711550210511552
  407     2 28.687322112738222  9.937579886471354  14.053860252613864
  408     2 30.121688218375137  10.765711543677298  16.39617029471617
  409     2 21.515491584553665  7.453184914853514  2.0966063042515207e-16
  410     2 22.94985769019058  8.28131657205946  2.342310042102312
  411     2 24.38422379582749  9.109448229265405  4.684620084204623
  412     2 25.8185899014644  9.937579886471351  7.026930126306933
  413     2 27.25295600710131  10.765711543677297  9.369240168409242
  414     2 28.687322112738222  11.593843200883244  11.711550210511554
  415     2 30.121688218375134  12.42197485808919  14.053860252613866
  416     2 31.55605432401205  13.250106515295133  16.396170294716175
  417     2 22.949857690190576  9.937579886471353  3.3872811838056897e-16
  418     2 24.38422379582749  10.765711543677298  2.342310042102311
  419     2 25.818589901464403  11.593843200883242  4.684620084204621
  420     2 27.25295600710131  12.42197485808919  7.0269301263069295
  421     2 28.687322112738222  13.250106515295137  9.369240168409242
  422     2 30.121688218375134  14.078238172501083  11.711550210511554
  423     2 31.556054324012045  14.906369829707028  14.053860252613866
  424     2 32.99042042964896  15.734501486912976  16.396170294716175