begin
comment uuid: 214987d9-9043-440d-af0a-812ec59364b7 parent_uuid: 00284ee1-6af0-439a-857f-64d2dfa5a7e3 trajectory_step: final_scf
lattice     27.5265605907     0.0000000001    -7.6629362969
lattice     -0.0000000000     7.7412424486    -0.0000000000
lattice     -0.0688547900     0.0000000000    12.5275548645
atom     -0.0292413304     0.0000000237    12.3733562683   Al  0.0 0.0   -8.98723065e-14  2.62572736e-13 -3.42730552e-12
atom      2.0065851376     3.8706212480     3.6019144137   Mg  0.0 0.0    1.30149058e-06  1.98975089e-13 -9.76327735e-08
atom      4.1734368660     3.8706212480    10.1033443120   Mg  0.0 0.0    5.16435261e-07  1.61927827e-13  1.24855186e-06
atom      9.6002155584     0.0000000238    -1.7156547886   Mg  0.0 0.0   -5.16437551e-07 -1.79388394e-13 -1.24855352e-06
atom     11.7670672869     0.0000000238     4.7857751100   Mg  0.0 0.0   -1.30149128e-06 -2.01594266e-13  9.76236154e-08
atom      1.5583459938     0.0000000237     7.7244740919   Si  0.0 0.0    9.15781582e-07  2.23212557e-13  3.26072140e-07
atom      5.0792697686     0.0000000238     1.1629029637   Si  0.0 0.0    1.70491093e-07  9.13521354e-14 -7.14366836e-07
atom      5.9456478406     0.0000000238     5.9239788006   Al  0.0 0.0   -2.01223726e-07 -3.41624878e-14 -8.23908994e-07
atom      7.8280045838     3.8706212481     2.4637107229   Al  0.0 0.0    2.01224951e-07  1.62890096e-14  8.23907250e-07
atom      8.6943826558     3.8706212481     7.2247865598   Si  0.0 0.0   -1.70490186e-07 -1.08744681e-13  7.14365165e-07
atom     12.2153064305     3.8706212481     0.6632154313   Si  0.0 0.0   -9.15780292e-07 -2.36927875e-13 -3.26076206e-07
atom     13.7340389649     3.8706212482     8.5418881194   Al  0.0 0.0   -1.17765569e-13 -2.61338366e-13 -7.33084868e-13
atom     15.7698654328     0.0000000239    -0.2295537357   Mg  0.0 0.0    1.30149176e-06 -2.09593501e-13 -9.76270197e-08
atom     17.9367171615     0.0000000239     6.2718761626   Mg  0.0 0.0    5.16434306e-07 -1.24812804e-13  1.24855837e-06
atom     23.3634958541     3.8706212481    -5.5471229376   Mg  0.0 0.0   -5.16440358e-07  1.42796556e-13 -1.24854926e-06
atom     25.5303475821     3.8706212481     0.9543069617   Mg  0.0 0.0   -1.30149057e-06  2.12183627e-13  9.76234574e-08
atom     15.3216262892     3.8706212481     3.8930059429   Si  0.0 0.0    9.15781243e-07 -1.64005215e-13  3.26075895e-07
atom     18.8425500639     3.8706212481    -2.6685651858   Si  0.0 0.0    1.70491163e-07 -7.01733762e-14 -7.14360436e-07
atom     19.7089281358     3.8706212481     2.0925106511   Al  0.0 0.0   -2.01223193e-07  1.78502715e-14 -8.23902457e-07
atom     21.5912848790     0.0000000238    -1.3677574262   Al  0.0 0.0    2.01225803e-07  5.31660643e-16  8.23912244e-07
atom     22.4576629510     0.0000000238     3.3933184108   Si  0.0 0.0   -1.70489321e-07  8.70647273e-14  7.14369385e-07
atom     25.9785867259     0.0000000238    -3.1682527168   Si  0.0 0.0   -9.15781061e-07  1.76029573e-13 -3.26077720e-07
energy -2.986845931542474e+02
charge 0.0000
end
