begin
comment uuid: 2de31ede-4cd9-4681-ab6d-28c194209012 parent_uuid: 46939af9-eee4-4d42-a067-25e919f9bf55 trajectory_step: final_scf
lattice     13.8082882481    -0.0000000004    -0.0000000000
lattice     -6.9041441242    11.9583282865    -0.0000000001
lattice     -0.0000000000     0.0000000001    21.7928707613
atom      3.6211938664     8.1502099261     1.7737242140   Mg  0.0 0.0    2.79792920e-07 -6.12070954e-08 -2.91632654e-07
atom     -1.9647417679    11.0192693837     1.7737242233   Mg  0.0 0.0   -8.68707959e-08  2.72903327e-07 -2.91612421e-07
atom     -1.6564523569     4.7471775164     1.7737241991   Mg  0.0 0.0   -1.92891788e-07 -2.11728760e-07 -2.91652120e-07
atom      2.8870407252     3.3581348815     5.4482177819   Mg  0.0 0.0   -3.06323217e-07  9.12100818e-07 -1.49790978e-16
atom      9.4565376960     0.8211833539     5.4482177819   Mg  0.0 0.0   -6.36722405e-07 -7.21346498e-07 -2.58337881e-15
atom      8.3688537155     7.7790103047     5.4482177818   Mg  0.0 0.0    9.43085884e-07 -1.90793991e-07  3.04389380e-15
atom      3.6211938663     8.1502099261     9.1227113497   Mg  0.0 0.0    2.79792930e-07 -6.12070827e-08  2.91632667e-07
atom     -1.9647417679    11.0192693837     9.1227113403   Mg  0.0 0.0   -8.68708332e-08  2.72903331e-07  2.91612438e-07
atom     -1.6564523569     4.7471775164     9.1227113646   Mg  0.0 0.0   -1.92891798e-07 -2.11728731e-07  2.91652123e-07
atom      3.2829500863     3.8081185751    12.6701596278   Mg  0.0 0.0   -2.79756082e-07  6.14424433e-08 -2.91400851e-07
atom      8.8688856836     0.9390590717    12.6701596372   Mg  0.0 0.0    8.66485871e-08 -2.72989093e-07 -2.91380624e-07
atom      8.5605963307     7.2111509300    12.6701596129   Mg  0.0 0.0    1.93077197e-07  2.11579131e-07 -2.91420309e-07
atom      4.0171033037     8.6001936865    16.3446531626   Mg  0.0 0.0    3.06893301e-07 -9.11398646e-07  1.88468858e-15
atom     -2.5523938762    11.1371451342    16.3446531626   Mg  0.0 0.0    6.35829261e-07  7.21489113e-07  7.09043696e-15
atom     -1.4647097220     4.1793180422    16.3446531626   Mg  0.0 0.0   -9.42762823e-07  1.89949190e-07 -2.54427479e-15
atom      3.2829500863     3.8081185751    20.0191466973   Mg  0.0 0.0   -2.79756075e-07  6.14424436e-08  2.91400860e-07
atom      8.8688856836     0.9390590717    20.0191466879   Mg  0.0 0.0    8.66485523e-08 -2.72989087e-07  2.91380627e-07
atom      8.5605963307     7.2111509300    20.0191467122   Mg  0.0 0.0    1.93077181e-07  2.11579180e-07  2.91420326e-07
atom     -0.0000000702     0.0000000711     2.2455947965   Si  0.0 0.0    1.93966598e-11 -2.19326753e-11 -1.78425203e-06
atom      6.9041440375     3.9861095170     1.9977968160   Si  0.0 0.0    6.02488439e-12 -7.88236849e-12 -2.72691442e-07
atom     -0.0000000785     7.9722189325     5.4482177818   Si  0.0 0.0    8.77002933e-12 -2.65544719e-11  5.75173480e-15
atom     -0.0000000702     0.0000000711     8.6508407673   Si  0.0 0.0    1.95045266e-11 -2.20533538e-11  1.78425200e-06
atom     -0.0000001062     0.0000001108    13.1420298560   Si  0.0 0.0   -1.95417652e-11  2.20917399e-11 -1.78650317e-06
atom      6.9041440375     3.9861095171     8.8986387477   Si  0.0 0.0    6.01982684e-12 -7.88029972e-12  2.72691446e-07
atom     -0.0000000901     7.9722189506    12.8942322333   Si  0.0 0.0   -6.01752962e-12  7.88399600e-12 -2.72435789e-07
atom     -0.0000001062     0.0000001108    19.5472764691   Si  0.0 0.0   -1.93600231e-11  2.18929036e-11  1.78650310e-06
atom      6.9041440259     3.9861095351    16.3446531626   Si  0.0 0.0   -8.76846403e-12  2.65549314e-11  9.58866066e-15
atom     -0.0000000901     7.9722189506    19.7950740918   Si  0.0 0.0   -6.02487899e-12  7.88580743e-12  2.72435797e-07
energy -3.597997201643171e+02
charge 0.0000
end
