begin
comment uuid: 214987d9-9043-440d-af0a-812ec59364b7 parent_uuid: 00284ee1-6af0-439a-857f-64d2dfa5a7e3 trajectory_step: final_scf
lattice     27.5573265688     0.0000000001    -7.8066460909
lattice     -0.0000000000     7.6738247159    -0.0000000000
lattice     -0.1138120834     0.0000000000    12.5995385560
atom     -0.0736406487     0.0000000235    12.4443133371   Al  0.0 0.0   -3.72887620e-14  2.14677671e-13 -3.20475565e-12
atom      2.0108348414     3.8369123815     3.6056908907   Mg  0.0 0.0    2.83538817e-07  1.62553098e-13  6.12573938e-07
atom      4.1689647055     3.8369123815    10.1383186493   Mg  0.0 0.0   -6.09389447e-07  1.41602950e-13  4.97388296e-07
atom      9.5762293644     0.0000000236    -1.7525535765   Mg  0.0 0.0    6.09391253e-07 -1.58227519e-13 -4.97394254e-07
atom     11.7343592292     0.0000000236     4.7800741818   Mg  0.0 0.0   -2.83539850e-07 -1.65391510e-13 -6.12579300e-07
atom      1.5068311421     0.0000000235     7.7725290899   Si  0.0 0.0    1.42414795e-06  1.98270754e-13  4.37845816e-07
atom      5.0415439665     0.0000000236     1.1280329640   Si  0.0 0.0    1.55907454e-06  7.54974266e-14  4.87769055e-07
atom      5.8536334989     0.0000000236     5.9121412581   Al  0.0 0.0   -1.01134692e-07 -1.16534495e-14 -8.57380606e-07
atom      7.8915605716     3.8369123815     2.4736238148   Al  0.0 0.0    1.01134306e-07 -5.78179416e-15  8.57374909e-07
atom      8.7036501039     3.8369123816     7.2577321088   Si  0.0 0.0   -1.55907406e-06 -9.21024328e-14 -4.87774734e-07
atom     12.2383629281     3.8369123816     0.6132359822   Si  0.0 0.0   -1.42414558e-06 -2.09586618e-13 -4.37847957e-07
atom     13.7050226357     3.8369123816     8.5409902907   Al  0.0 0.0    5.40645691e-15 -2.14510868e-13  1.98949414e-12
atom     15.7894981256     0.0000000236    -0.2976321563   Mg  0.0 0.0    2.83540354e-07 -1.77705242e-13  6.12583002e-07
atom     17.9476279903     0.0000000237     6.2349956023   Mg  0.0 0.0   -6.09391549e-07 -1.02009738e-13  4.97397846e-07
atom     23.3548926496     3.8369123816    -5.6558766226   Mg  0.0 0.0    6.09386684e-07  1.18361530e-13 -4.97389623e-07
atom     25.5130225135     3.8369123816     0.8767511367   Mg  0.0 0.0   -2.83539220e-07  1.80563706e-13 -6.12580945e-07
atom     15.2854944266     3.8369123816     3.8692060433   Si  0.0 0.0    1.42414643e-06 -1.49172566e-13  4.37851301e-07
atom     18.8202072510     3.8369123816    -2.7752900830   Si  0.0 0.0    1.55907416e-06 -5.05424738e-14  4.87778046e-07
atom     19.6322967833     3.8369123816     2.0088182111   Al  0.0 0.0   -1.01134224e-07  4.78736383e-16 -8.57371762e-07
atom     21.6702238558     0.0000000236    -1.4296992315   Al  0.0 0.0    1.01135782e-07  1.70100279e-14  8.57380393e-07
atom     22.4823133883     0.0000000237     3.3544090627   Si  0.0 0.0   -1.55907365e-06  6.74844612e-14 -4.87770030e-07
atom     26.0170262128     0.0000000236    -3.2900870626   Si  0.0 0.0   -1.42414797e-06  1.60302618e-13 -4.37852176e-07
energy -2.986864421963667e+02
charge 0.0000
end
