begin
comment uuid: d0dc4e30-e6d6-4620-8877-255d426671bb parent_uuid: a92eb12b-a1c1-421e-9fbe-b522f1045a85 trajectory_step: final_scf
lattice     27.1666811006    -0.0000000002    -9.2466198557
lattice      0.0000000001     7.6808516743     0.0000000000
lattice     -0.3466906905     0.0000000000    13.0644681860
atom     -0.3044045752    -0.0000001749    12.9018905238   Mg  0.0 0.0   -1.87183989e-11 -1.39354593e-12  1.54952730e-11
atom      2.0270319144     3.8404256622     3.9877031584   Mg  0.0 0.0    1.65560380e-06 -1.04048860e-12  7.59366420e-09
atom      4.0015470851     3.8404256622    10.6031597516   Mg  0.0 0.0    4.01088667e-07 -9.07563103e-13 -2.39156400e-07
atom      9.3196750033    -0.0000001753    -2.4871568098   Mg  0.0 0.0   -4.01105524e-07  9.25581785e-13  2.39164478e-07
atom     11.2941901725    -0.0000001753     4.1282997859   Mg  0.0 0.0   -1.65559808e-06  1.05210457e-12 -7.63707913e-09
atom      1.3937989898    -0.0000001749     8.0419203252   Si  0.0 0.0    6.50011349e-07 -1.39112710e-12 -8.37570184e-08
atom      5.1923907388    -0.0000001751     1.4427664452   Si  0.0 0.0    1.85886302e-07 -5.43518849e-13  5.33369985e-07
atom      5.4927774233    -0.0000001751     6.1424036288   Si  0.0 0.0   -1.07388213e-07 -3.13900926e-13 -3.80929622e-07
atom      7.8284446633     3.8404256620     1.9735993157   Si  0.0 0.0    1.07405998e-07  3.45687545e-13  3.80911710e-07
atom      8.1288313488     3.8404256620     6.6732364989   Si  0.0 0.0   -1.85891333e-07  5.74653731e-13 -5.33395876e-07
atom     11.9274230957     3.8404256618     0.0740826167   Si  0.0 0.0   -6.49988476e-07  1.39895004e-12  8.37438054e-08
atom     13.2789359747     3.8404256618     8.2785806035   Mg  0.0 0.0   -1.66070862e-11  1.39502672e-12 -1.94167367e-11
atom     15.6103724647    -0.0000001754    -0.6356067628   Mg  0.0 0.0    1.65560472e-06  1.05026287e-12  7.56567344e-09
atom     17.5848876371    -0.0000001754     5.9798498250   Mg  0.0 0.0    4.01077638e-07  9.11665899e-13 -2.39153964e-07
atom     22.9030155551     3.8404256621    -7.1104667472   Mg  0.0 0.0   -4.01115257e-07 -9.30416089e-13  2.39216617e-07
atom     24.8775307217     3.8404256621    -0.4950101511   Mg  0.0 0.0   -1.65559132e-06 -1.06204938e-12 -7.59238946e-09
atom     14.9771395418     3.8404256618     3.4186104039   Si  0.0 0.0    6.50002805e-07  1.39377288e-12 -8.37860018e-08
atom     18.7757312879     3.8404256619    -3.1805434824   Si  0.0 0.0    1.85892528e-07  5.01994543e-13  5.33376802e-07
atom     19.0761179733     3.8404256619     1.5190937008   Si  0.0 0.0   -1.07385885e-07  2.80377548e-13 -3.80921187e-07
atom     21.4117852133    -0.0000001752    -2.6497106203   Si  0.0 0.0    1.07408546e-07 -3.12313529e-13  3.80957116e-07
atom     21.7121719000    -0.0000001752     2.0499265629   Si  0.0 0.0   -1.85895413e-07 -5.33740798e-13 -5.33350748e-07
atom     25.5107636456    -0.0000001751    -4.5492273195   Si  0.0 0.0   -6.49987523e-07 -1.40154182e-12  8.37843539e-08
energy -2.365805095463648e+02
charge 0.0000
end
