begin
comment uuid: d7dac1cb-ee87-4461-ab4a-7b9936f14816 parent_uuid: 4c3843d7-8355-4b7b-b4e8-830f92b1b176 trajectory_step: final_scf
lattice     28.0732651496    -0.0000000001    -7.7840130120
lattice      0.0000000000     7.6696097700     0.0000000001
lattice     -0.0448663894    -0.0000000001    12.8094407000
atom     -0.0047562999    -0.0000000395    12.6518448817   Mg  0.0 0.0   -7.76448153e-12 -1.31188887e-12  1.18288049e-11
atom      2.0947135255     3.8348048455     3.8643576799   Mg  0.0 0.0    2.33037906e-07 -1.04591328e-12  1.02905322e-06
atom      4.3334167112     3.8348048454    10.3263709961   Mg  0.0 0.0   -1.03812228e-06 -7.01156187e-13  5.04347837e-07
atom      9.7385696506    -0.0000000398    -1.7241284266   Mg  0.0 0.0    1.03812572e-06  9.97972865e-13 -5.04383531e-07
atom     11.9772728390    -0.0000000399     4.7378848876   Mg  0.0 0.0   -2.33044091e-07  1.19759856e-12 -1.02909217e-06
atom      1.6383511921    -0.0000000395     7.8157154401   Si  0.0 0.0    7.84087436e-07 -1.26730503e-12  9.86395730e-07
atom      5.2393633973    -0.0000000397     1.2453205112   Si  0.0 0.0    7.03282381e-07 -7.00196831e-14  3.20282892e-07
atom      6.1022252743    -0.0000000398     6.0718696678   Al  0.0 0.0   -1.00980531e-06  2.19133643e-13  5.73708437e-07
atom      7.9697610894     3.8348048453     2.5303729026   Al  0.0 0.0    1.00981015e-06  2.17448882e-13 -5.73744972e-07
atom      8.8326229664     3.8348048452     7.3569220587   Si  0.0 0.0   -7.03282813e-07  4.91090978e-13 -3.20309129e-07
atom     12.4336351702     3.8348048451     0.7865271250   Si  0.0 0.0   -7.84070699e-07  1.36367675e-12 -9.86408073e-07
atom     14.0318762750     3.8348048450     8.7598383821   Mg  0.0 0.0   -8.10492890e-12  1.31194715e-12 -2.05402380e-11
atom     16.1313460996    -0.0000000399    -0.0276488225   Mg  0.0 0.0    2.33041917e-07  1.06950920e-12  1.02903682e-06
atom     18.3700492898    -0.0000000399     6.4343644856   Mg  0.0 0.0   -1.03814222e-06  6.26487469e-13  5.04374344e-07
atom     23.7752022265     3.8348048455    -5.6161349423   Mg  0.0 0.0    1.03811881e-06 -9.23224585e-13 -5.04330855e-07
atom     26.0139054126     3.8348048454     0.8458783719   Mg  0.0 0.0   -2.33037583e-07 -1.22124313e-12 -1.02904139e-06
atom     15.6749837679     3.8348048450     3.9237089383   Si  0.0 0.0    7.84082190e-07  1.17419326e-12  9.86375478e-07
atom     19.2759959718     3.8348048453    -2.6466860001   Si  0.0 0.0    7.03283949e-07  7.75546175e-14  3.20313564e-07
atom     20.1388578478     3.8348048453     2.1798631555   Al  0.0 0.0   -1.00979811e-06 -1.82723219e-13  5.73744920e-07
atom     22.0063936646    -0.0000000397    -1.3616336130   Al  0.0 0.0    1.00980862e-06 -2.53935210e-13 -5.73691898e-07
atom     22.8692555414    -0.0000000397     3.4649155427   Si  0.0 0.0   -7.03283992e-07 -4.98742715e-13 -3.20254652e-07
atom     26.4702677460    -0.0000000395    -3.1054793887   Si  0.0 0.0   -7.84076095e-07 -1.27049138e-12 -9.86367854e-07
energy -2.928225310030457e+02
charge 0.0000
end
