begin
comment uuid: d0dc4e30-e6d6-4620-8877-255d426671bb parent_uuid: a92eb12b-a1c1-421e-9fbe-b522f1045a85 trajectory_step: final_scf
lattice     28.2570566016    -0.0000000002    -9.3643981263
lattice      0.0000000001     7.5098263535     0.0000000000
lattice     -0.4832347691     0.0000000000    12.8668285122
atom     -0.4378478239    -0.0000001712    12.7063468835   Mg  0.0 0.0   -7.43580630e-10  4.55454897e-12  2.94021946e-09
atom      2.0943035481     3.7549130057     3.9635447575   Mg  0.0 0.0    1.10008417e-06 -1.03493019e-11 -1.06773789e-06
atom      4.0795237048     3.7549130056    10.3809437060   Mg  0.0 0.0    6.45150203e-07 -7.67202462e-12 -3.49420107e-07
atom      9.6565437041    -0.0000001713    -2.5172774606   Mg  0.0 0.0   -6.44794572e-07  7.67220660e-12  3.48959647e-07
atom     11.6417638722    -0.0000001714     3.9001214786   Mg  0.0 0.0   -1.10128510e-06  1.03498980e-11  1.06848274e-06
atom      1.3111055111    -0.0000001712     7.9541564188   Si  0.0 0.0   -1.51321157e-07  6.46363540e-12 -1.50260920e-06
atom      5.3950439978    -0.0000001714     1.4433588888   Si  0.0 0.0   -7.31609684e-07  1.79512341e-11  1.60718619e-06
atom      5.5157155773    -0.0000001714     6.1673894439   Si  0.0 0.0    3.67817056e-07  1.52968419e-11  3.66770274e-07
atom      8.2203518754     3.7549130057     1.6962767880   Si  0.0 0.0   -3.73574167e-07 -1.52970368e-11 -3.65290969e-07
atom      8.3410234081     3.7549130057     6.4203073521   Si  0.0 0.0    7.32417231e-07 -1.79511526e-11 -1.60707357e-06
atom     12.4249618546     3.7549130055    -0.0904901423   Si  0.0 0.0    1.57827802e-07 -6.46414491e-12  1.49766209e-06
atom     13.6906804775     3.7549130055     8.0241478271   Mg  0.0 0.0   -7.78278089e-10 -4.55479081e-12  3.10900539e-09
atom     16.2228318487    -0.0000001714    -0.7186542968   Mg  0.0 0.0    1.10005769e-06  1.03487455e-11 -1.06774244e-06
atom     18.2080520050    -0.0000001714     5.6987446473   Mg  0.0 0.0    6.45143008e-07  7.67226640e-12 -3.49463856e-07
atom     23.7850720062     3.7549130055    -7.1994765294   Mg  0.0 0.0   -6.44803198e-07 -7.67202421e-12  3.48996562e-07
atom     25.7702921728     3.7549130055    -0.7820775940   Mg  0.0 0.0   -1.10123497e-06 -1.03483108e-11  1.06848844e-06
atom     15.4396338084     3.7549130055     3.2719573635   Si  0.0 0.0   -1.51038152e-07 -6.46312198e-12 -1.50273729e-06
atom     19.5235723003     3.7549130056    -3.2388401693   Si  0.0 0.0   -7.31666596e-07 -1.79475410e-11  1.60714748e-06
atom     19.6442438771     3.7549130056     1.4851903850   Si  0.0 0.0    3.67600684e-07 -1.52959703e-11  3.66838319e-07
atom     22.3488801776    -0.0000001715    -2.9859222809   Si  0.0 0.0   -3.73419618e-07  1.52960235e-11 -3.65328899e-07
atom     22.4695517072    -0.0000001715     1.7381082828   Si  0.0 0.0    7.32481963e-07  1.79473916e-11 -1.60703540e-06
atom     26.5534901583    -0.0000001714    -4.7726892140   Si  0.0 0.0    1.57689276e-07  6.46270265e-12  1.49785867e-06
energy -2.365816084412794e+02
charge 0.0000
end
