begin
comment uuid: 2de31ede-4cd9-4681-ab6d-28c194209012 parent_uuid: 46939af9-eee4-4d42-a067-25e919f9bf55 trajectory_step: final_scf
lattice     13.6293977130     0.0000000034    -0.0000000000
lattice     -6.8146988534    11.8034046555    -0.0000000001
lattice     -0.0000000000     0.0000000001    23.1623753622
atom      3.4723418325     8.0225857465     1.8467795096   Mg  0.0 0.0   -3.85642915e-07 -4.28825753e-07  3.65884550e-07
atom     -1.8692351665    10.7992482273     1.8467795129   Mg  0.0 0.0    5.64187632e-07 -1.19557268e-07  3.65875169e-07
atom     -1.6031069154     4.7849756040     1.8467795067   Mg  0.0 0.0   -1.78560357e-07  5.48400745e-07  3.65892032e-07
atom      2.8293982824     3.2389465144     5.7905939379   Mg  0.0 0.0   -4.64696472e-07  1.88292909e-07 -3.32737662e-15
atom      9.4096885594     0.8308577385     5.7905939379   Mg  0.0 0.0    6.92762259e-08 -4.96571660e-07  3.02969005e-15
atom      8.2050094774     7.7336006656     5.7905939379   Mg  0.0 0.0    3.95400536e-07  3.08306167e-07  3.54976137e-15
atom      3.4723418325     8.0225857465     9.7344083661   Mg  0.0 0.0   -3.85642905e-07 -4.28825751e-07 -3.65884530e-07
atom     -1.8692351665    10.7992482274     9.7344083628   Mg  0.0 0.0    5.64187623e-07 -1.19557266e-07 -3.65875128e-07
atom     -1.6031069154     4.7849756040     9.7344083690   Mg  0.0 0.0   -1.78560354e-07  5.48400750e-07 -3.65892046e-07
atom      3.3423568529     3.7808190912    13.4279671908   Mg  0.0 0.0    3.85643066e-07  4.28825355e-07  3.65884280e-07
atom      8.6839338519     1.0041566103    13.4279671941   Mg  0.0 0.0   -5.64187329e-07  1.19557381e-07  3.65874902e-07
atom      8.4178056009     7.0184292337    13.4279671878   Mg  0.0 0.0    1.78560034e-07 -5.48400578e-07  3.65891762e-07
atom      3.9853004032     8.5644583235    17.3717816190   Mg  0.0 0.0    4.64695628e-07 -1.88293744e-07  2.85619310e-15
atom     -2.5949898742    10.9725470993    17.3717816190   Mg  0.0 0.0   -6.92750120e-08  4.96571293e-07 -3.30021018e-15
atom     -1.3903107919     4.0698041719    17.3717816190   Mg  0.0 0.0   -3.95400736e-07 -3.08304958e-07 -4.01514660e-15
atom      3.3423568529     3.7808190913    21.3155960472   Mg  0.0 0.0    3.85643072e-07  4.28825353e-07 -3.65884270e-07
atom      8.6839338519     1.0041566103    21.3155960439   Mg  0.0 0.0   -5.64187334e-07  1.19557381e-07 -3.65874912e-07
atom      8.4178056009     7.0184292337    21.3155960501   Mg  0.0 0.0    1.78560036e-07 -5.48400569e-07 -3.65891717e-07
atom     -0.0000000836     0.0000000866     2.3314792707   Si  0.0 0.0   -9.14172319e-12  1.08751858e-11  1.07984144e-06
atom      6.8146987720     3.9344683075     2.1231326552   Si  0.0 0.0   -3.98703261e-12  5.17763146e-12  6.56230356e-07
atom     -0.0000000832     7.8689365234     5.7905939379   Si  0.0 0.0   -4.83297230e-12  1.29493738e-11  7.06015183e-15
atom     -0.0000000836     0.0000000866     9.2497086050   Si  0.0 0.0   -9.14184464e-12  1.08811106e-11 -1.07984151e-06
atom     -0.0000000906     0.0000000956    13.9126669515   Si  0.0 0.0    9.14164897e-12 -1.09243165e-11  1.07984326e-06
atom      6.8146987720     3.9344683075     9.4580552205   Si  0.0 0.0   -3.98570075e-12  5.18446402e-12 -6.56230345e-07
atom     -0.0000000865     7.8689365302    13.7043203364   Si  0.0 0.0    3.84370446e-12 -4.99537097e-12  6.56229897e-07
atom     -0.0000000906     0.0000000956    20.8308962865   Si  0.0 0.0    9.14169323e-12 -1.09197445e-11 -1.07984332e-06
atom      6.8146987687     3.9344683143    17.3717816190   Si  0.0 0.0    4.68029335e-12 -1.30270809e-11  4.76789920e-15
atom     -0.0000000865     7.8689365303    21.0392429015   Si  0.0 0.0    3.84533670e-12 -4.98816841e-12 -6.56229880e-07
energy -3.597496346436577e+02
charge 0.0000
end
