begin
comment uuid: d0dc4e30-e6d6-4620-8877-255d426671bb parent_uuid: a92eb12b-a1c1-421e-9fbe-b522f1045a85 trajectory_step: final_scf
lattice     27.1667702582    -0.0000000002    -9.2465286874
lattice      0.0000000001     7.6808299395     0.0000000000
lattice     -0.3466636328     0.0000000000    13.0644210677
atom     -0.3043777028    -0.0000001750    12.9018440750   Mg  0.0 0.0   -4.87830965e-13 -4.48732726e-13  7.98144157e-12
atom      2.0271065382     3.8404147947     3.9877050990   Mg  0.0 0.0    1.57294398e-07 -3.62488902e-13 -1.88224208e-07
atom      4.0015441109     3.8404147947    10.6031152985   Mg  0.0 0.0    1.91841332e-06 -3.10326432e-13  1.48641156e-07
atom      9.3197492447    -0.0000001752    -2.4871125550   Mg  0.0 0.0   -1.91840943e-06  3.15236243e-13 -1.48650126e-07
atom     11.2941868181    -0.0000001752     4.1282976435   Mg  0.0 0.0   -1.57295066e-07  3.65947802e-13  1.88222072e-07
atom      1.3938217118    -0.0000001750     8.0418830695   Si  0.0 0.0   -5.03844775e-08 -4.15806590e-13  3.26371856e-07
atom      5.1924069145    -0.0000001751     1.4427691734   Si  0.0 0.0    3.40617554e-07 -7.39107866e-14 -3.20798076e-09
atom      5.4928278346    -0.0000001751     6.1424058569   Si  0.0 0.0   -7.18901433e-07 -1.67473175e-14 -1.60780060e-07
atom      7.8284655217     3.8404147946     1.9735968865   Si  0.0 0.0    7.18900360e-07  2.62287830e-14  1.60771917e-07
atom      8.1288864416     3.8404147946     6.6732335699   Si  0.0 0.0   -3.40618178e-07  8.29473623e-14  3.19983827e-09
atom     11.9274716441     3.8404147945     0.0741196728   Si  0.0 0.0    5.03852189e-08  4.17823302e-13 -3.26373726e-07
atom     13.2790074261     3.8404147945     8.2785797348   Mg  0.0 0.0    5.00539851e-13  4.49157247e-13 -7.93447829e-12
atom     15.6104916673    -0.0000001753    -0.6355592415   Mg  0.0 0.0    1.57294324e-07  3.60921230e-13 -1.88238209e-07
atom     17.5849292404    -0.0000001753     5.9798509560   Mg  0.0 0.0    1.91840984e-06  3.08726789e-13  1.48638296e-07
atom     22.9031343742     3.8404147945    -7.1103769024   Mg  0.0 0.0   -1.91841242e-06 -3.14133532e-13 -1.48630405e-07
atom     24.8775719467     3.8404147945    -0.4949667042   Mg  0.0 0.0   -1.57292776e-07 -3.64120914e-13  1.88241242e-07
atom     14.9772068416     3.8404147945     3.4186187290   Si  0.0 0.0   -5.03879027e-08  4.17176900e-13  3.26357899e-07
atom     18.7757920431     3.8404147945    -3.1804951696   Si  0.0 0.0    3.40620188e-07  7.13196739e-14 -3.20867544e-09
atom     19.0762129635     3.8404147945     1.5191415137   Si  0.0 0.0   -7.18900706e-07  1.60212430e-14 -1.60780063e-07
atom     21.4118506506    -0.0000001752    -2.6496674602   Si  0.0 0.0    7.18901082e-07 -2.52797466e-14  1.60788661e-07
atom     21.7122715711    -0.0000001752     2.0499692231   Si  0.0 0.0   -3.40620161e-07 -8.06998932e-14  3.21665032e-09
atom     25.5108567728    -0.0000001752    -4.5491446745   Si  0.0 0.0    5.03862502e-08 -4.19437081e-13 -3.26356183e-07
energy -2.365805095512455e+02
charge 0.0000
end
