begin
comment uuid: d7dac1cb-ee87-4461-ab4a-7b9936f14816 parent_uuid: 4c3843d7-8355-4b7b-b4e8-830f92b1b176 trajectory_step: final_scf
lattice     27.9332716458    -0.0000000001    -7.8030011026
lattice      0.0000000000     7.6398075769     0.0000000001
lattice     -0.0386533119    -0.0000000001    12.8617725114
atom      0.0011882073    -0.0000000395    12.7035509230   Mg  0.0 0.0   -3.09201174e-11 -6.10789192e-13 -7.43401595e-12
atom      2.1197836030     3.8199037490     3.8906325740   Mg  0.0 0.0   -9.85920186e-07 -4.92310177e-13 -1.67195827e-07
atom      4.3171193832     3.8199037489    10.3834181598   Mg  0.0 0.0   -1.79118613e-06 -1.98139481e-13  3.88333656e-10
atom      9.6905461657    -0.0000000396    -1.7395893727   Mg  0.0 0.0    1.79113207e-06  5.66289440e-13 -3.57980874e-10
atom     11.8878819417    -0.0000000397     4.7531962203   Mg  0.0 0.0    9.85945625e-07  6.22513686e-13  1.67085224e-07
atom      1.6041027748    -0.0000000395     7.8687440682   Si  0.0 0.0    1.86505197e-08 -4.60478724e-13 -5.01742989e-07
atom      5.2373151936    -0.0000000395     1.2511702354   Si  0.0 0.0   -4.93733817e-07  7.64501154e-14  5.80353694e-07
atom      6.0169541655    -0.0000000396     6.0863870653   Al  0.0 0.0    1.26155730e-06  2.05672451e-13  3.21202947e-07
atom      7.9907113789     3.8199037489     2.5574417233   Al  0.0 0.0   -1.26152958e-06  2.46368936e-13 -3.21191339e-07
atom      8.7703503524     3.8199037488     7.3926585529   Si  0.0 0.0    4.93736660e-07  3.66869381e-13 -5.80341823e-07
atom     12.4035627691     3.8199037488     0.7750847212   Si  0.0 0.0   -1.86233521e-08  6.54047292e-13  5.01704426e-07
atom     13.9678240306     3.8199037488     8.8020503780   Mg  0.0 0.0   -3.30919492e-11  6.10479472e-13 -4.54716555e-11
atom     16.0864194249    -0.0000000396    -0.0108679724   Mg  0.0 0.0   -9.85913196e-07  4.98431284e-13 -1.67223507e-07
atom     18.2837552079    -0.0000000396     6.4819176070   Mg  0.0 0.0   -1.79119755e-06  2.33931556e-13  4.01080191e-10
atom     23.6571819882     3.8199037490    -5.6410899318   Mg  0.0 0.0    1.79113389e-06 -6.02123288e-13 -3.06941060e-10
atom     25.8545177643     3.8199037490     0.8516956600   Mg  0.0 0.0    9.85948516e-07 -6.28312575e-13  1.67141395e-07
atom     15.5707385984     3.8199037488     3.9672435217   Si  0.0 0.0    1.86458527e-08  4.78952893e-13 -5.01770391e-07
atom     19.2039510157     3.8199037489    -2.6503303179   Si  0.0 0.0   -4.93728685e-07 -6.13991945e-14  5.80370116e-07
atom     19.9835899876     3.8199037489     2.1848865108   Al  0.0 0.0    1.26156316e-06 -2.04088658e-13  3.21226640e-07
atom     21.9573472018    -0.0000000395    -1.3440588351   Al  0.0 0.0   -1.26152950e-06 -2.48015949e-13 -3.21144448e-07
atom     22.7369861752    -0.0000000395     3.4911579942   Si  0.0 0.0    4.93738206e-07 -3.81916500e-13 -5.80293461e-07
atom     26.3701985924    -0.0000000395    -3.1264158372   Si  0.0 0.0   -1.86257965e-08 -6.72543394e-13  5.01747758e-07
energy -2.928224385258382e+02
charge 0.0000
end
