begin
comment uuid: d7dac1cb-ee87-4461-ab4a-7b9936f14816 parent_uuid: 4c3843d7-8355-4b7b-b4e8-830f92b1b176 trajectory_step: final_scf
lattice     27.8899475893    -0.0000000001    -7.7961548854
lattice      0.0000000000     7.6400810727     0.0000000001
lattice     -0.0299337128    -0.0000000001    12.8813469692
atom      0.0097468954    -0.0000000395    12.7229109884   Mg  0.0 0.0   -4.23462776e-11 -7.35624348e-13 -1.33739924e-11
atom      2.1029855655     3.8200404970     3.8831618529   Mg  0.0 0.0   -1.80011119e-06 -6.26822999e-13 -6.89061568e-07
atom      4.3037753013     3.8200404968    10.4091762730   Mg  0.0 0.0   -1.18731517e-06 -3.11589421e-13 -1.33042285e-06
atom      9.6906259954    -0.0000000396    -1.7427787070   Mg  0.0 0.0    1.18725198e-06  6.93526546e-13  1.33048300e-06
atom     11.8914157257    -0.0000000397     4.7832357251   Mg  0.0 0.0    1.80015091e-06  7.42799682e-13  6.88911987e-07
atom      1.6111052197    -0.0000000394     7.8751163209   Si  0.0 0.0   -1.00282014e-06 -6.21233800e-13 -9.13789870e-07
atom      5.2203654035    -0.0000000395     1.2465475619   Si  0.0 0.0   -3.13903849e-07  1.38241234e-14  7.45281824e-07
atom      6.0183074055    -0.0000000396     6.0875837987   Al  0.0 0.0    3.85420304e-07  2.49781149e-13  5.77244638e-07
atom      7.9760938859     3.8200404968     2.5788137695   Al  0.0 0.0   -3.85387448e-07  2.20597842e-13 -5.77215989e-07
atom      8.7740358900     3.8200404967     7.4198500062   Si  0.0 0.0    3.13902574e-07  4.42928895e-13 -7.45253672e-07
atom     12.3832960710     3.8200404967     0.7912812496   Si  0.0 0.0    1.00285674e-06  8.13214533e-13  9.13751327e-07
atom     13.9547206906     3.8200404966     8.8248335527   Mg  0.0 0.0   -4.55770191e-11  7.36000739e-13 -5.36214386e-11
atom     16.0479593592    -0.0000000397    -0.0149155836   Mg  0.0 0.0   -1.80010502e-06  6.40475757e-13 -6.89096059e-07
atom     18.2487490980    -0.0000000397     6.5110988297   Mg  0.0 0.0   -1.18732814e-06  3.06020326e-13 -1.33041451e-06
atom     23.6355997898     3.8200404969    -5.6408561570   Mg  0.0 0.0    1.18725223e-06 -6.87817805e-13  1.33053129e-06
atom     25.8363895197     3.8200404969     0.8851582731   Mg  0.0 0.0    1.80015522e-06 -7.56437798e-13  6.88968341e-07
atom     15.5560790149     3.8200404967     3.9770388837   Si  0.0 0.0   -1.00282395e-06  6.00136632e-13 -9.13820417e-07
atom     19.1653391976     3.8200404968    -2.6515298817   Si  0.0 0.0   -3.13900628e-07 -9.60634436e-15  7.45292224e-07
atom     19.9632811991     3.8200404968     2.1895063539   Al  0.0 0.0    3.85426649e-07 -2.15099509e-13  5.77262698e-07
atom     21.9210676809    -0.0000000395    -1.3192636798   Al  0.0 0.0   -3.85389313e-07 -2.55302153e-13 -5.77172383e-07
atom     22.7190096846    -0.0000000395     3.5217725565   Si  0.0 0.0    3.13903090e-07 -4.47777950e-13 -7.45208451e-07
atom     26.3282698661    -0.0000000394    -3.1067962004   Si  0.0 0.0    1.00285308e-06 -7.91945356e-13  9.13795446e-07
energy -2.928223520471836e+02
charge 0.0000
end
