begin
comment uuid: d0dc4e30-e6d6-4620-8877-255d426671bb parent_uuid: a92eb12b-a1c1-421e-9fbe-b522f1045a85 trajectory_step: final_scf
lattice     27.1667702582    -0.0000000002    -9.2465286874
lattice      0.0000000001     7.6808299395     0.0000000000
lattice     -0.3466636328     0.0000000000    13.0644210677
atom     -0.3043777029    -0.0000001750    12.9018440750   Mg  0.0 0.0   -5.45881284e-13 -4.48581593e-13  7.97778858e-12
atom      2.0271065381     3.8404147947     3.9877050990   Mg  0.0 0.0    1.57294389e-07 -3.62437085e-13 -1.88224135e-07
atom      4.0015441108     3.8404147947    10.6031152985   Mg  0.0 0.0    1.91841327e-06 -3.10129417e-13  1.48641107e-07
atom      9.3197492447    -0.0000001752    -2.4871125550   Mg  0.0 0.0   -1.91840944e-06  3.15230630e-13 -1.48650093e-07
atom     11.2941868181    -0.0000001752     4.1282976435   Mg  0.0 0.0   -1.57295040e-07  3.65794451e-13  1.88222066e-07
atom      1.3938217118    -0.0000001750     8.0418830696   Si  0.0 0.0   -5.03845163e-08 -4.15866098e-13  3.26371872e-07
atom      5.1924069145    -0.0000001751     1.4427691734   Si  0.0 0.0    3.40617607e-07 -7.35552192e-14 -3.20795151e-09
atom      5.4928278345    -0.0000001751     6.1424058569   Si  0.0 0.0   -7.18901439e-07 -1.67867212e-14 -1.60779987e-07
atom      7.8284655216     3.8404147946     1.9735968865   Si  0.0 0.0    7.18900422e-07  2.61058454e-14  1.60771961e-07
atom      8.1288864416     3.8404147946     6.6732335699   Si  0.0 0.0   -3.40618162e-07  8.29482336e-14  3.19988407e-09
atom     11.9274716441     3.8404147945     0.0741196729   Si  0.0 0.0    5.03852595e-08  4.18122059e-13 -3.26373754e-07
atom     13.2790074261     3.8404147945     8.2785797348   Mg  0.0 0.0    4.67826963e-13  4.48875627e-13 -7.96112227e-12
atom     15.6104916673    -0.0000001753    -0.6355592415   Mg  0.0 0.0    1.57294273e-07  3.60836432e-13 -1.88238208e-07
atom     17.5849292405    -0.0000001753     5.9798509560   Mg  0.0 0.0    1.91840983e-06  3.08812240e-13  1.48638230e-07
atom     22.9031343743     3.8404147946    -7.1103769025   Mg  0.0 0.0   -1.91841236e-06 -3.14123010e-13 -1.48630403e-07
atom     24.8775719468     3.8404147945    -0.4949667042   Mg  0.0 0.0   -1.57292732e-07 -3.64535450e-13  1.88241218e-07
atom     14.9772068416     3.8404147945     3.4186187290   Si  0.0 0.0   -5.03878932e-08  4.17337812e-13  3.26357908e-07
atom     18.7757920431     3.8404147945    -3.1804951696   Si  0.0 0.0    3.40620196e-07  7.16292267e-14 -3.20869559e-09
atom     19.0762129636     3.8404147945     1.5191415137   Si  0.0 0.0   -7.18900719e-07  1.61200179e-14 -1.60780074e-07
atom     21.4118506506    -0.0000001752    -2.6496674603   Si  0.0 0.0    7.18901078e-07 -2.57293654e-14  1.60788630e-07
atom     21.7122715712    -0.0000001752     2.0499692231   Si  0.0 0.0   -3.40620197e-07 -8.04232668e-14  3.21661315e-09
atom     25.5108567729    -0.0000001752    -4.5491446745   Si  0.0 0.0    5.03862546e-08 -4.19610614e-13 -3.26356206e-07
energy -2.365805095512455e+02
charge 0.0000
end
