begin
comment uuid: 2de31ede-4cd9-4681-ab6d-28c194209012 parent_uuid: 46939af9-eee4-4d42-a067-25e919f9bf55 trajectory_step: final_scf
lattice     13.8083230453    -0.0000000005    -0.0000000000
lattice     -6.9041615230    11.9583584228    -0.0000000001
lattice     -0.0000000000     0.0000000001    21.7927464170
atom      3.6212156913     8.1502272658     1.7737014347   Mg  0.0 0.0    2.15848874e-07  8.23199509e-08  3.96356134e-07
atom     -1.9647502982    11.0193097515     1.7737014437   Mg  0.0 0.0   -1.79200259e-07  1.45758296e-07  3.96379856e-07
atom     -1.6564656521     4.7471800818     1.7737014201   Mg  0.0 0.0   -3.66213101e-08 -2.28114564e-07  3.96337318e-07
atom      2.8870296793     3.3581739885     5.4481866958   Mg  0.0 0.0    3.46526594e-07  1.76751538e-07  2.18610633e-14
atom      9.4565441482     0.8211542347     5.4481866958   Mg  0.0 0.0   -3.26309257e-07  2.11711587e-07  2.65853609e-14
atom      8.3689105040     7.7790304536     5.4481866958   Mg  0.0 0.0   -2.01694087e-08 -3.88500533e-07  1.77633877e-14
atom      3.6212156913     8.1502272658     9.1226719568   Mg  0.0 0.0    2.15848717e-07  8.23197660e-08 -3.96356058e-07
atom     -1.9647502982    11.0193097515     9.1226719478   Mg  0.0 0.0   -1.79200007e-07  1.45758241e-07 -3.96379763e-07
atom     -1.6564656521     4.7471800818     9.1226719714   Mg  0.0 0.0   -3.66213818e-08 -2.28114333e-07 -3.96337275e-07
atom      3.2829456577     3.8081313581    12.6700746631   Mg  0.0 0.0   -2.15826694e-07 -8.21811019e-08  3.96493586e-07
atom      8.8689116251     0.9390488449    12.6700746721   Mg  0.0 0.0    1.79068982e-07 -1.45808735e-07  3.96517297e-07
atom      8.5606270139     7.2111785093    12.6700746485   Mg  0.0 0.0    3.67305158e-08  2.28026153e-07  3.96474838e-07
atom      4.0171317154     8.6001846753    16.3445599043   Mg  0.0 0.0   -3.46187237e-07 -1.76330849e-07 -1.84616827e-14
atom     -2.5523828786    11.1372043815    16.3445599043   Mg  0.0 0.0    3.25775295e-07 -2.11628007e-07 -2.01689025e-14
atom     -1.4647491307     4.1793280781    16.3445599043   Mg  0.0 0.0    2.03640019e-08  3.87996464e-07 -1.77209005e-14
atom      3.2829456576     3.8081313582    20.0190451454   Mg  0.0 0.0   -2.15826857e-07 -8.21812924e-08 -3.96493640e-07
atom      8.8689116251     0.9390488449    20.0190451365   Mg  0.0 0.0    1.79069223e-07 -1.45808785e-07 -3.96517367e-07
atom      8.5606270139     7.2111785093    20.0190451601   Mg  0.0 0.0    3.67304345e-08  2.28026415e-07 -3.96474862e-07
atom     -0.0000000706     0.0000000716     2.2455762170   Si  0.0 0.0    2.03085239e-11 -2.51011621e-11  9.39037338e-07
atom      6.9041614360     3.9861195625     1.9977776027   Si  0.0 0.0    5.04531604e-12 -7.32337075e-12  1.05392571e-06
atom     -0.0000000788     7.9722390238     5.4481866958   Si  0.0 0.0    7.33318818e-12 -2.83271604e-11  1.03500007e-13
atom     -0.0000000706     0.0000000716     8.6507971746   Si  0.0 0.0    2.03145585e-11 -2.50966254e-11 -9.39039023e-07
atom     -0.0000001059     0.0000001104    13.1419492337   Si  0.0 0.0   -2.03092105e-11  2.50123425e-11  9.37692435e-07
atom      6.9041614360     3.9861195626     8.8985957888   Si  0.0 0.0    5.04805695e-12 -7.33340219e-12 -1.05392559e-06
atom     -0.0000000901     7.9722390413    12.8941508333   Si  0.0 0.0   -5.09359866e-12  7.32857431e-12  1.05407315e-06
atom     -0.0000001059     0.0000001104    19.5471705749   Si  0.0 0.0   -2.02938927e-11  2.50081350e-11 -9.37690854e-07
atom      6.9041614247     3.9861195800    16.3445599043   Si  0.0 0.0   -7.48163729e-12  2.82973277e-11 -9.18155248e-14
atom     -0.0000000901     7.9722390413    19.7949689753   Si  0.0 0.0   -5.09739857e-12  7.32521484e-12 -1.05407325e-06
energy -3.597997207218910e+02
charge 0.0000
end
