begin
comment uuid: 2de31ede-4cd9-4681-ab6d-28c194209012 parent_uuid: 46939af9-eee4-4d42-a067-25e919f9bf55 trajectory_step: final_scf
lattice     13.6531418507    -0.0000000004    -0.0000000000
lattice     -6.8265709256    11.8239675806    -0.0000000001
lattice     -0.0000000000     0.0000000001    22.7315946502
atom      3.5142412067     8.0544716881     1.8117025678   Mg  0.0 0.0    1.04738846e-06  6.36865389e-07  1.26556298e-06
atom     -1.9059268848    10.8401540778     1.8117025782   Mg  0.0 0.0   -1.07522878e-06  5.88626951e-07  1.26557188e-06
atom     -1.6083145831     4.7533096440     1.8117025561   Mg  0.0 0.0    2.78539766e-08 -1.22550872e-06  1.26555459e-06
atom      2.7849109041     3.1972744963     5.6828987580   Mg  0.0 0.0    7.30959938e-08  1.26913711e-06 -2.72291954e-15
atom      9.4917653965     0.8131665207     5.6828987580   Mg  0.0 0.0   -1.13564958e-06 -5.71275887e-07 -1.01206854e-15
atom      8.2030362490     7.8135268063     5.6828987580   Mg  0.0 0.0    1.06256780e-06 -6.97884848e-07 -2.91976063e-15
atom      3.5142412067     8.0544716881     9.5540949482   Mg  0.0 0.0    1.04738846e-06  6.36865398e-07 -1.26556296e-06
atom     -1.9059268848    10.8401540779     9.5540949378   Mg  0.0 0.0   -1.07522879e-06  5.88626951e-07 -1.26557186e-06
atom     -1.6083145831     4.7533096440     9.5540949600   Mg  0.0 0.0    2.78539739e-08 -1.22550872e-06 -1.26555458e-06
atom      3.3123295443     3.7694960827    13.1774999034   Mg  0.0 0.0   -1.04738802e-06 -6.36858091e-07  1.26556981e-06
atom      8.7324976257     0.9838136769    13.1774999138   Mg  0.0 0.0    1.07522224e-06 -5.88630227e-07  1.26557870e-06
atom      8.4348853430     7.0706581099    13.1774998917   Mg  0.0 0.0   -2.78478667e-08  1.22550470e-06  1.26556143e-06
atom      4.0416598706     8.6266932861    17.0486960831   Mg  0.0 0.0   -7.30800261e-08 -1.26912214e-06 -2.33487840e-15
atom     -2.6651946776    11.0108012487    17.0486960831   Mg  0.0 0.0    1.13562863e-06  5.71282228e-07 -3.93787602e-15
atom     -1.3764654910     4.0104409214    17.0486960831   Mg  0.0 0.0   -1.06256281e-06  6.97863535e-07 -2.74145349e-15
atom      3.3123295443     3.7694960827    20.9198922628   Mg  0.0 0.0   -1.04738803e-06 -6.36858092e-07 -1.26556980e-06
atom      8.7324976257     0.9838136769    20.9198922524   Mg  0.0 0.0    1.07522225e-06 -5.88630229e-07 -1.26557870e-06
atom      8.4348853430     7.0706581100    20.9198922746   Mg  0.0 0.0   -2.78478731e-08  1.22550471e-06 -1.26556142e-06
atom     -0.0000000687     0.0000000709     2.2780100468   Si  0.0 0.0    9.46211070e-12 -1.09597402e-11  1.33311972e-06
atom      6.8265708417     3.9413226101     2.0946886879   Si  0.0 0.0    3.38111070e-12 -4.66985790e-12  1.93992609e-06
atom     -0.0000000775     7.8826451297     5.6828987580   Si  0.0 0.0    4.50491588e-12 -1.28307324e-11  6.80389790e-15
atom     -0.0000000687     0.0000000710     9.0877874692   Si  0.0 0.0    9.46590521e-12 -1.09562155e-11 -1.33311977e-06
atom     -0.0000001058     0.0000001082    13.6438073134   Si  0.0 0.0   -9.46312059e-12  1.09461657e-11  1.33308077e-06
atom      6.8265708417     3.9413226102     9.2711088282   Si  0.0 0.0    3.37579298e-12 -4.66941098e-12 -1.93992608e-06
atom     -0.0000000911     7.8826451497    13.4604860246   Si  0.0 0.0   -3.37500277e-12  4.66745813e-12  1.93993355e-06
atom     -0.0000001058     0.0000001083    20.4535848528   Si  0.0 0.0   -9.46406733e-12  1.09520966e-11 -1.33308081e-06
atom      6.8265708281     3.9413226302    17.0486960831   Si  0.0 0.0   -4.51776864e-12  1.28292319e-11  5.88641884e-15
atom     -0.0000000911     7.8826451497    20.6369061416   Si  0.0 0.0   -3.37972891e-12  4.66896568e-12 -1.93993354e-06
energy -3.597677413855835e+02
charge 0.0000
end
