begin
comment uuid: 2de31ede-4cd9-4681-ab6d-28c194209012 parent_uuid: 46939af9-eee4-4d42-a067-25e919f9bf55 trajectory_step: final_scf
lattice     13.8684084255     0.0000000044    -0.0000000000
lattice     -6.9342042088    12.0103953699    -0.0000000001
lattice      0.0000000000     0.0000000001    20.5219558519
atom      3.7251048661     8.2843125146     1.6017061120   Mg  0.0 0.0   -6.43205414e-07 -9.09080450e-07 -6.42462553e-07
atom     -2.1027727300    11.0942751353     1.6017059177   Mg  0.0 0.0    1.10834557e-06 -1.02404633e-07 -6.43066378e-07
atom     -1.6223325382     4.6422034837     1.6017062343   Mg  0.0 0.0   -4.65718342e-07  1.01182074e-06 -6.42303301e-07
atom      2.8891014913     3.4058934480     5.1304890492   Mg  0.0 0.0   -1.34073059e-06 -4.12272382e-07  5.85470065e-15
atom      9.4742673456     0.7990890881     5.1304890492   Mg  0.0 0.0    1.02694361e-06 -9.54865341e-07  5.81973476e-15
atom      8.4392429830     7.8054132156     5.1304890492   Mg  0.0 0.0    3.13141570e-07  1.36747503e-06  5.97012561e-15
atom      3.7251048661     8.2843125146     8.6592719863   Mg  0.0 0.0   -6.43205425e-07 -9.09080466e-07  6.42462537e-07
atom     -2.1027727300    11.0942751353     8.6592721806   Mg  0.0 0.0    1.10834559e-06 -1.02404635e-07  6.43066362e-07
atom     -1.6223325382     4.6422034837     8.6592718640   Mg  0.0 0.0   -4.65718351e-07  1.01182075e-06  6.42303286e-07
atom      3.2090995352     3.7260843253    11.8626849240   Mg  0.0 0.0    6.49456716e-07  9.31264379e-07 -6.27140886e-07
atom      9.0369754770     0.9161200930    11.8626847296   Mg  0.0 0.0   -1.13068305e-06  9.67264230e-08 -6.27744716e-07
atom      8.5565375081     7.3681911178    11.8626850462   Mg  0.0 0.0    4.81804532e-07 -1.02832644e-06 -6.26981643e-07
atom      4.0451044138     8.6045043853    15.3914669751   Mg  0.0 0.0    1.37298631e-06  4.51628784e-07 -1.03895658e-14
atom     -2.5400662108    11.2113069458    15.3914669751   Mg  0.0 0.0   -1.07715511e-06  9.63121372e-07 -1.01319094e-14
atom     -1.5050379047     4.2049795869    15.3914669751   Mg  0.0 0.0   -2.95185825e-07 -1.41508745e-06 -1.02007255e-14
atom      3.2090995352     3.7260843253    18.9202490262   Mg  0.0 0.0    6.49456728e-07  9.31264385e-07  6.27140869e-07
atom      9.0369754770     0.9161200930    18.9202492205   Mg  0.0 0.0   -1.13068306e-06  9.67264300e-08  6.27744698e-07
atom      8.5565375081     7.3681911178    18.9202489039   Mg  0.0 0.0    4.81804532e-07 -1.02832646e-06  6.26981626e-07
atom     -0.0000004013     0.0000002601     2.2786928514   Si  0.0 0.0   -4.25616228e-10  2.55927074e-10  1.70473117e-06
atom      6.9342040935     4.0034652840     1.9575498540   Si  0.0 0.0   -1.26621231e-10  1.03127741e-10  1.70628726e-06
atom     -0.0000002444     8.0069304827     5.1304890492   Si  0.0 0.0   -2.74492669e-10  4.65827957e-10 -2.09011375e-14
atom     -0.0000004013     0.0000002601     7.9822852469   Si  0.0 0.0   -4.25616396e-10  2.55927174e-10 -1.70473119e-06
atom      0.0000002240    -0.0000000777    12.5396611623   Si  0.0 0.0    4.25623497e-10 -2.55949065e-10  1.53851446e-06
atom      6.9342040935     4.0034652840     8.3034282443   Si  0.0 0.0   -1.26621004e-10  1.03127608e-10 -1.70628727e-06
atom     -0.0000000541     8.0069302726    12.2185291357   Si  0.0 0.0    1.26622142e-10 -1.03123189e-10  1.72973720e-06
atom      0.0000002241    -0.0000000777    18.2432727880   Si  0.0 0.0    4.25623494e-10 -2.55949197e-10 -1.53851430e-06
atom      6.9342042838     4.0034650739    15.3914669751   Si  0.0 0.0    2.74504729e-10 -4.65830400e-10 -6.20021171e-15
atom     -0.0000000541     8.0069302726    18.5644048144   Si  0.0 0.0    1.26622199e-10 -1.03123367e-10 -1.72973719e-06
energy -3.598121360933791e+02
charge 0.0000
end
