begin
comment uuid: 214987d9-9043-440d-af0a-812ec59364b7 parent_uuid: 00284ee1-6af0-439a-857f-64d2dfa5a7e3 trajectory_step: final_scf
lattice     27.5073012513     0.0000000001    -7.6914085860
lattice     -0.0000000000     7.7189851217    -0.0000000000
lattice     -0.0720199681     0.0000000000    12.5615262238
atom     -0.0323974446     0.0000000236    12.4068986324   Al  0.0 0.0   -6.88740717e-13  3.75499032e-13 -2.73233547e-12
atom      2.0010230536     3.8594925845     3.6194661980   Mg  0.0 0.0    6.24733153e-07  2.80239110e-13 -4.25087063e-07
atom      4.1589353604     3.8594925845    10.1313403464   Mg  0.0 0.0    1.70604035e-07  2.20915782e-13  1.51134520e-06
atom      9.6019403436     0.0000000238    -1.7247735979   Mg  0.0 0.0   -1.70603415e-07 -2.39659954e-13 -1.51135053e-06
atom     11.7598526510     0.0000000238     4.7871005503   Mg  0.0 0.0   -6.24734200e-07 -2.83307673e-13  4.25078095e-07
atom      1.5563234138     0.0000000237     7.7426085738   Si  0.0 0.0   -1.64556145e-06  3.00586025e-13 -5.36346244e-07
atom      5.0680552020     0.0000000237     1.1630783179   Si  0.0 0.0    1.21621045e-06  1.13054031e-13 -1.50057070e-06
atom      5.9421132768     0.0000000237     5.9278501368   Al  0.0 0.0   -1.67041959e-07 -3.59252798e-14 -8.88668661e-07
atom      7.8187624277     3.8594925845     2.4787166116   Al  0.0 0.0    1.67042155e-07  1.64361649e-14  8.88662850e-07
atom      8.6928205025     3.8594925846     7.2434884305   Si  0.0 0.0   -1.21621035e-06 -1.32004869e-13  1.50056530e-06
atom     12.2045522904     3.8594925846     0.6639581739   Si  0.0 0.0    1.64556294e-06 -3.13434784e-13  5.36342691e-07
atom     13.7212531810     3.8594925847     8.5611943389   Al  0.0 0.0   -6.64013096e-13 -3.76247045e-13 -2.05746103e-13
atom     15.7546736790     0.0000000238    -0.2262380961   Mg  0.0 0.0    6.24734898e-07 -2.91188755e-13 -4.25080217e-07
atom     17.9125859865     0.0000000238     6.2856360519   Mg  0.0 0.0    1.70601321e-07 -1.92110678e-13  1.51135451e-06
atom     23.3555909699     3.8594925846    -5.5704778921   Mg  0.0 0.0   -1.70607637e-07  2.10860324e-13 -1.51134336e-06
atom     25.5135032765     3.8594925846     0.9413962571   Mg  0.0 0.0   -6.24732895e-07  2.94067062e-13  4.25079459e-07
atom     15.3099740395     3.8594925846     3.8969042801   Si  0.0 0.0   -1.64556215e-06 -2.57191347e-13 -5.36342218e-07
atom     18.8217058275     3.8594925846    -2.6826259766   Si  0.0 0.0    1.21621101e-06 -1.02681030e-13 -1.50056174e-06
atom     19.6957639023     3.8594925846     2.0821458423   Al  0.0 0.0   -1.67040929e-07  2.37059560e-14 -8.88659256e-07
atom     21.5724130531     0.0000000238    -1.3669876826   Al  0.0 0.0    1.67043606e-07 -4.04179017e-15  8.88670716e-07
atom     22.4464711280     0.0000000238     3.3977841365   Si  0.0 0.0   -1.21620926e-06  1.21610144e-13  1.50057222e-06
atom     25.9582029162     0.0000000238    -3.1817461189   Si  0.0 0.0    1.64556203e-06  2.70878143e-13  5.36341889e-07
energy -2.986847347784627e+02
charge 0.0000
end
