begin
comment uuid: 2de31ede-4cd9-4681-ab6d-28c194209012 parent_uuid: 46939af9-eee4-4d42-a067-25e919f9bf55 trajectory_step: final_scf
lattice     13.5451590720     0.0000000051    -0.0000000000
lattice     -6.7725795315    11.7304535056    -0.0000000001
lattice     -0.0000000000     0.0000000001    23.0169170953
atom      3.4890322067     7.9789658490     1.8871689374   Mg  0.0 0.0   -9.02381016e-07 -1.19862812e-07 -3.93225921e-08
atom     -1.8819228360    10.7625617064     1.8871688855   Mg  0.0 0.0    5.53741963e-07 -7.21069206e-07 -4.04294789e-08
atom     -1.6071095982     4.7193797117     1.8871690179   Mg  0.0 0.0    3.46903320e-07  8.41708630e-07 -3.91928888e-08
atom      2.8584617419     3.1966260343     5.7542293705   Mg  0.0 0.0    6.77574437e-07 -1.23345021e-06  9.13254806e-15
atom      9.3475691062     0.8771879507     5.7542293705   Mg  0.0 0.0    7.28085558e-07  1.20422130e-06  1.36508181e-14
atom      8.1117073697     7.6566397442     5.7542293705   Mg  0.0 0.0   -1.40765383e-06  3.00591994e-08 -2.84894216e-15
atom      3.4890322066     7.9789658490     9.6212898036   Mg  0.0 0.0   -9.02380989e-07 -1.19862777e-07  3.93226269e-08
atom     -1.8819228359    10.7625617065     9.6212898555   Mg  0.0 0.0    5.53741922e-07 -7.21069204e-07  4.04295081e-08
atom     -1.6071095982     4.7193797117     9.6212897231   Mg  0.0 0.0    3.46903311e-07  8.41708671e-07  3.91928846e-08
atom      3.2835471659     3.7514878572    13.3956275008   Mg  0.0 0.0    9.02385004e-07  1.19876484e-07 -3.93108642e-08
atom      8.6545021851     0.9678919769    13.3956274489   Mg  0.0 0.0   -5.53755844e-07  7.21065789e-07 -4.04176375e-08
atom      8.3796889789     7.0110739629    13.3956275812   Mg  0.0 0.0   -3.46893390e-07 -8.41719129e-07 -3.91805863e-08
atom      3.9141176578     8.5338276914    17.2626879182   Mg  0.0 0.0   -6.77550326e-07  1.23347893e-06 -1.19231975e-14
atom     -2.5749897874    10.8532657464    17.2626879182   Mg  0.0 0.0   -7.28122655e-07 -1.20421442e-06 -1.61827640e-14
atom     -1.3391279858     4.0738138972    17.2626879182   Mg  0.0 0.0    1.40766674e-06 -3.00949522e-08 -2.28538124e-16
atom      3.2835471659     3.7514878572    21.1297483356   Mg  0.0 0.0    9.02385017e-07  1.19876501e-07  3.93108610e-08
atom      8.6545021851     0.9678919769    21.1297483875   Mg  0.0 0.0   -5.53755861e-07  7.21065788e-07  4.04176396e-08
atom      8.3796889789     7.0110739628    21.1297482551   Mg  0.0 0.0   -3.46893409e-07 -8.41719066e-07  3.91806222e-08
atom     -0.0000002904     0.0000001475     2.3443737851   Si  0.0 0.0   -8.32516941e-10  4.17179905e-10 -1.87740872e-06
atom      6.7725794051     3.9101512736     2.0436282419   Si  0.0 0.0   -3.63470625e-10  1.61906776e-10 -1.69517724e-06
atom     -0.0000001567     7.8203024390     5.7542293705   Si  0.0 0.0   -6.10031151e-10  7.81901601e-10  1.02622421e-14
atom     -0.0000002904     0.0000001475     9.1640849559   Si  0.0 0.0   -8.32533880e-10  4.17237587e-10  1.87740867e-06
atom      0.0000001173     0.0000000350    13.8528322250   Si  0.0 0.0    8.32533837e-10 -4.16911187e-10 -1.87749160e-06
atom      6.7725794051     3.9101512736     9.4648304991   Si  0.0 0.0   -3.63479520e-10  1.61915441e-10  1.69517725e-06
atom     -0.0000000377     7.8203024144    13.5520868036   Si  0.0 0.0    3.63532320e-10 -1.61915357e-10 -1.69516661e-06
atom      0.0000001173     0.0000000350    20.6725436114   Si  0.0 0.0    8.32514989e-10 -4.16856144e-10  1.87749154e-06
atom      6.7725795242     3.9101512491    17.2626879182   Si  0.0 0.0    6.09982005e-10 -7.82071917e-10  5.63930949e-15
atom     -0.0000000377     7.8203024144    20.9732890328   Si  0.0 0.0    3.63523163e-10 -1.61904831e-10  1.69516662e-06
energy -3.597758421468266e+02
charge 0.0000
end
