begin
comment uuid: 4d3c3f33-bd19-4e3f-90bd-2b3c20dc9728 
lattice 27.0372728256 -0.0000000004 -9.2050815968
lattice 0.0000000000 23.1024381087 0.0000000000
lattice -0.6373419832 0.0000000000 26.1665111992
atom   -0.276888    -0.000000   12.920522 Al  0.0   0.0  0.0000003850  0.0000000000  0.0000000550
atom   2.034331    3.837012   4.092406 Mg  0.0   0.0  -0.0002728850  0.0002911550  -0.0008911500
atom   3.915022    3.811867   10.719799 Mg  0.0   0.0  -0.0004610650  0.0033931950  -0.0008206350
atom   9.308445    -0.000000   -2.474329 Mg  0.0   0.0  0.0007429650  0.0000000000  0.0004217200
atom   11.216602    -0.000000   4.121243 Mg  0.0   0.0  0.0010210950  -0.0000000000  0.0004382750
atom   1.399150    -0.000000   8.240729 Si  0.0   0.0  0.0031920200  0.0000000000  -0.0030122050
atom   5.146580    -0.000000   1.500429 Si  0.0   0.0  -0.0005522050  0.0000000000  -0.0030144900
atom   5.454452    -0.000000   6.229502 Si  0.0   0.0  0.0007995550  -0.0000000000  0.0004057400
atom   7.779925    3.847232   1.984929 Si  0.0   0.0  -0.0004077800  -0.0006674850  -0.0005204800
atom   8.092299    3.837520   6.702195 Si  0.0   0.0  0.0004376500  0.0004209350  0.0011488850
atom   11.884305    3.863609   0.103888 Si  0.0   0.0  0.0004057850  -0.0002980850  -0.0009011950
atom   13.241748    3.807841   8.317981 Mg  0.0   0.0  0.0000003100  -0.0002585500  -0.0000000050
atom   15.550845    -0.000000   -0.627064 Mg  0.0   0.0  -0.0013602000  0.0000000000  0.0001658650
atom   17.594455    -0.000000   5.977588 Mg  0.0   0.0  -0.0016125900  0.0000000000  0.0001744550
atom   22.787098    3.774205   -7.001492 Mg  0.0   0.0  0.0010078850  0.0006591750  -0.0005617200
atom   24.873918    3.714921   -0.186328 Mg  0.0   0.0  0.0002575150  0.0064175250  -0.0021601000
atom   14.933993    3.822351   3.458941 Si  0.0   0.0  -0.0006745300  0.0006024250  0.0006849600
atom   18.696160    3.804033   -3.144213 Si  0.0   0.0  -0.0005485050  -0.0003782400  -0.0003126200
atom   19.042887    3.763183   1.565370 Si  0.0   0.0  -0.0008551800  0.0019031450  0.0007217900
atom   21.387801    -0.000000   -2.538092 Si  0.0   0.0  -0.0006615350  0.0000000000  -0.0013983650
atom   21.804564    -0.000000   2.148857 Si  0.0   0.0  -0.0030496250  0.0000000000  0.0016937900
atom   25.480268    -0.000000   -4.410329 Si  0.0   0.0  -0.0005166350  0.0000000000  -0.0006572650
atom   -0.595559    -0.000000   26.003777 Mg  0.0   0.0  0.0000003700  0.0000000000  0.0000000250
atom   1.609579    3.714921   16.822289 Mg  0.0   0.0  -0.0002568300  0.0064174800  0.0021601450
atom   3.696399    3.774205   23.637453 Mg  0.0   0.0  -0.0010071950  0.0006591800  0.0005617550
atom   8.889042    -0.000000   10.658373 Mg  0.0   0.0  0.0016132550  -0.0000000000  -0.0001744100
atom   10.932652    -0.000000   17.263026 Mg  0.0   0.0  0.0013608550  0.0000000000  -0.0001658100
atom   1.003229    -0.000000   21.046290 Si  0.0   0.0  0.0005220200  0.0000000000  0.0006577650
atom   4.678932    -0.000000   14.487104 Si  0.0   0.0  0.0030502450  0.0000000000  -0.0016933300
atom   5.095696    -0.000000   19.174054 Si  0.0   0.0  0.0006652000  -0.0000000000  0.0013992650
atom   7.440610    3.763183   15.070592 Si  0.0   0.0  0.0008578400  0.0019031600  -0.0007217000
atom   7.787336    3.804033   19.780174 Si  0.0   0.0  0.0005467650  -0.0003781450  0.0003130700
atom   11.549503    3.822351   13.177020 Si  0.0   0.0  0.0006762400  0.0006023250  -0.0006856250
atom   12.923077    3.895795   21.401236 Mg  0.0   0.0  0.0000003200  -0.0002360150  -0.0000000000
atom   15.266894    -0.000000   12.514719 Mg  0.0   0.0  -0.0010204450  0.0000000000  -0.0004382300
atom   17.175051    -0.000000   19.110291 Mg  0.0   0.0  -0.0007423000  0.0000000000  -0.0004216800
atom   22.568475    3.811867   5.916163 Mg  0.0   0.0  0.0004617600  0.0033931800  0.0008206600
atom   24.449165    3.837012   12.543555 Mg  0.0   0.0  0.0002735700  0.0002911650  0.0008911800
atom   14.599192    3.863609   16.532073 Si  0.0   0.0  -0.0004072700  -0.0002981150  0.0008999500
atom   18.391198    3.837520   9.933766 Si  0.0   0.0  -0.0004375700  0.0004209300  -0.0011488150
atom   18.703571    3.847232   14.651032 Si  0.0   0.0  0.0004071400  -0.0006674350  0.0005203600
atom   21.029045    -0.000000   10.406460 Si  0.0   0.0  -0.0008016300  0.0000000000  -0.0004058950
atom   21.336917    -0.000000   15.135533 Si  0.0   0.0  0.0005511550  0.0000000000  0.0030152600
atom   25.084347    -0.000000   8.395233 Si  0.0   0.0  -0.0031934800  -0.0000000000  0.0030132750
atom   -0.276888    7.931498   12.920521 Mg  0.0   0.0  0.0000003050  -0.0001626550  0.0000000000
atom   2.009427    11.551219   3.951088 Mg  0.0   0.0  -0.0009746350  0.0000000000  0.0000342350
atom   4.061526    11.551219   10.558038 Mg  0.0   0.0  -0.0012067000  0.0000000000  0.0001612750
atom   9.274061    7.719588   -2.464988 Mg  0.0   0.0  0.0009030500  0.0001238500  0.0000223050
atom   11.254342    7.695098   4.163245 Mg  0.0   0.0  0.0008615650  -0.0001558500  -0.0002400700
atom   1.378073    7.683181   8.062322 Si  0.0   0.0  -0.0000034800  -0.0012247500  0.0020692300
atom   5.175343    7.687919   1.455739 Si  0.0   0.0  -0.0011414850  0.0002173850  -0.0006401650
atom   5.481433    7.705111   6.181442 Si  0.0   0.0  0.0002279700  -0.0001549950  0.0002335100
atom   7.798109    11.551219   1.998795 Si  0.0   0.0  -0.0001550350  0.0000000000  -0.0013682600
atom   8.127143    11.551219   6.686812 Si  0.0   0.0  0.0006227650  0.0000000000  0.0017252850
atom   11.900400    11.551219   0.104465 Si  0.0   0.0  -0.0000475600  -0.0000000000  -0.0010973400
atom   13.241748    11.551219   8.317981 Mg  0.0   0.0  0.0000003550  0.0000000000  0.0000000150
atom   15.585724    7.690770   -0.588261 Mg  0.0   0.0  -0.0004810800  0.0001729900  0.0001858400
atom   17.523642    7.661360   6.015721 Mg  0.0   0.0  -0.0010982100  0.0002870000  -0.0001954000
atom   22.833423    11.551219   -7.090607 Mg  0.0   0.0  0.0016911150  -0.0000000000  0.0005499600
atom   24.718405    11.551219   -0.561049 Mg  0.0   0.0  0.0002956750  -0.0000000000  0.0003426750
atom   14.935198    11.551219   3.462290 Si  0.0   0.0  -0.0002948250  0.0000000000  0.0012012400
atom   18.753548    11.551219   -3.149524 Si  0.0   0.0  -0.0011974750  -0.0000000000  -0.0010422000
atom   19.020053    11.551219   1.553641 Si  0.0   0.0  0.0000788600  0.0000000000  0.0009865650
atom   21.318628    7.627090   -2.577614 Si  0.0   0.0  0.0000044750  0.0005039500  -0.0012995950
atom   21.606393    7.682111   2.093013 Si  0.0   0.0  0.0017590950  -0.0004546450  0.0014168600
atom   25.394759    7.660081   -4.500074 Si  0.0   0.0  -0.0000837600  0.0007939150  -0.0017681250
atom   -0.595559    7.608110   26.003777 Mg  0.0   0.0  0.0000003300  -0.0002400450  -0.0000000050
atom   1.765091    11.551219   17.197011 Mg  0.0   0.0  -0.0002950000  -0.0000000000  -0.0003426300
atom   3.650074    11.551219   23.726568 Mg  0.0   0.0  -0.0016904350  0.0000000000  -0.0005499100
atom   8.959854    7.661360   10.620240 Mg  0.0   0.0  0.0010989050  0.0002870050  0.0001954250
atom   10.897773    7.690770   17.224222 Mg  0.0   0.0  0.0004817550  0.0001730000  -0.0001857950
atom   1.088738    7.660081   21.136035 Si  0.0   0.0  0.0000836050  0.0007940200  0.0017672250
atom   4.877103    7.682111   14.542948 Si  0.0   0.0  -0.0017585750  -0.0004546300  -0.0014165100
atom   5.164868    7.627090   19.213576 Si  0.0   0.0  -0.0000078400  0.0005039100  0.0013006050
atom   7.463444    11.551219   15.082321 Si  0.0   0.0  -0.0000799150  0.0000000000  -0.0009862000
atom   7.729949    11.551219   19.785486 Si  0.0   0.0  0.0012013300  0.0000000000  0.0010421150
atom   11.548298    11.551219   13.173671 Si  0.0   0.0  0.0002967850  0.0000000000  -0.0012017600
atom   12.923077    11.551219   21.401236 Mg  0.0   0.0  0.0000003400  0.0000000000  0.0000000100
atom   15.229154    7.695098   12.472717 Mg  0.0   0.0  -0.0008609050  -0.0001558450  0.0002401050
atom   17.209436    7.719588   19.100949 Mg  0.0   0.0  -0.0009023600  0.0001238450  -0.0000222750
atom   22.421970    11.551219   6.077924 Mg  0.0   0.0  0.0012073800  0.0000000000  -0.0001612350
atom   24.474070    11.551219   12.684873 Mg  0.0   0.0  0.0009752950  0.0000000000  -0.0000342050
atom   14.583096    11.551219   16.531496 Si  0.0   0.0  0.0000443900  0.0000000000  0.0010959200
atom   18.356354    11.551219   9.949150 Si  0.0   0.0  -0.0006250200  0.0000000000  -0.0017241350
atom   18.685388    11.551219   14.637166 Si  0.0   0.0  0.0001517600  -0.0000000000  0.0013686250
atom   21.002064    7.705111   10.454520 Si  0.0   0.0  -0.0002311250  -0.0001549650  -0.0002345700
atom   21.308153    7.687919   15.180223 Si  0.0   0.0  0.0011398350  0.0002174550  0.0006405800
atom   25.105424    7.683181   8.573639 Si  0.0   0.0  -0.0000000100  -0.0012246750  -0.0020698050
atom   -0.276888    15.170940   12.920521 Mg  0.0   0.0  0.0000003050  0.0001626550  0.0000000000
atom   2.034331    19.265426   4.092406 Mg  0.0   0.0  -0.0002728850  -0.0002911550  -0.0008911500
atom   3.915022    19.290570   10.719799 Mg  0.0   0.0  -0.0004610650  -0.0033931950  -0.0008206350
atom   9.274061    15.382850   -2.464988 Mg  0.0   0.0  0.0009030500  -0.0001238500  0.0000223050
atom   11.254342    15.407340   4.163245 Mg  0.0   0.0  0.0008615650  0.0001558500  -0.0002400700
atom   1.378073    15.419257   8.062322 Si  0.0   0.0  -0.0000034800  0.0012247500  0.0020692300
atom   5.175343    15.414518   1.455739 Si  0.0   0.0  -0.0011414850  -0.0002173850  -0.0006401650
atom   5.481433    15.397327   6.181442 Si  0.0   0.0  0.0002279700  0.0001549950  0.0002335100
atom   7.779925    19.255206   1.984929 Si  0.0   0.0  -0.0004077800  0.0006674850  -0.0005204800
atom   8.092299    19.264917   6.702195 Si  0.0   0.0  0.0004376500  -0.0004209350  0.0011488850
atom   11.884305    19.238829   0.103888 Si  0.0   0.0  0.0004057850  0.0002980850  -0.0009011950
atom   13.241748    19.294597   8.317981 Mg  0.0   0.0  0.0000003100  0.0002585500  -0.0000000050
atom   15.585724    15.411668   -0.588261 Mg  0.0   0.0  -0.0004810800  -0.0001729900  0.0001858400
atom   17.523642    15.441078   6.015721 Mg  0.0   0.0  -0.0010982100  -0.0002870000  -0.0001954000
atom   22.787098    19.328233   -7.001492 Mg  0.0   0.0  0.0010078850  -0.0006591750  -0.0005617200
atom   24.873918    19.387517   -0.186328 Mg  0.0   0.0  0.0002575150  -0.0064175250  -0.0021601000
atom   14.933993    19.280086   3.458941 Si  0.0   0.0  -0.0006745300  -0.0006024250  0.0006849600
atom   18.696160    19.298405   -3.144213 Si  0.0   0.0  -0.0005485050  0.0003782400  -0.0003126200
atom   19.042887    19.339255   1.565370 Si  0.0   0.0  -0.0008551800  -0.0019031450  0.0007217900
atom   21.318628    15.475348   -2.577614 Si  0.0   0.0  0.0000044750  -0.0005039500  -0.0012995950
atom   21.606393    15.420327   2.093013 Si  0.0   0.0  0.0017590950  0.0004546450  0.0014168600
atom   25.394759    15.442357   -4.500074 Si  0.0   0.0  -0.0000837600  -0.0007939150  -0.0017681250
atom   -0.595559    15.494328   26.003777 Mg  0.0   0.0  0.0000003300  0.0002400450  -0.0000000050
atom   1.609579    19.387517   16.822289 Mg  0.0   0.0  -0.0002568300  -0.0064174800  0.0021601450
atom   3.696399    19.328233   23.637453 Mg  0.0   0.0  -0.0010071950  -0.0006591800  0.0005617550
atom   8.959854    15.441078   10.620240 Mg  0.0   0.0  0.0010989050  -0.0002870050  0.0001954250
atom   10.897773    15.411668   17.224222 Mg  0.0   0.0  0.0004817550  -0.0001730000  -0.0001857950
atom   1.088738    15.442357   21.136035 Si  0.0   0.0  0.0000836050  -0.0007940200  0.0017672200
atom   4.877103    15.420327   14.542948 Si  0.0   0.0  -0.0017585750  0.0004546300  -0.0014165100
atom   5.164868    15.475348   19.213576 Si  0.0   0.0  -0.0000078400  -0.0005039100  0.0013006050
atom   7.440610    19.339255   15.070592 Si  0.0   0.0  0.0008578400  -0.0019031600  -0.0007217000
atom   7.787336    19.298405   19.780174 Si  0.0   0.0  0.0005467650  0.0003781450  0.0003130700
atom   11.549503    19.280086   13.177020 Si  0.0   0.0  0.0006762400  -0.0006023250  -0.0006856250
atom   12.923077    19.206643   21.401236 Mg  0.0   0.0  0.0000003200  0.0002360150  -0.0000000000
atom   15.229154    15.407340   12.472717 Mg  0.0   0.0  -0.0008609050  0.0001558450  0.0002401050
atom   17.209436    15.382850   19.100949 Mg  0.0   0.0  -0.0009023600  -0.0001238450  -0.0000222750
atom   22.568475    19.290570   5.916163 Mg  0.0   0.0  0.0004617600  -0.0033931800  0.0008206600
atom   24.449165    19.265426   12.543555 Mg  0.0   0.0  0.0002735700  -0.0002911650  0.0008911800
atom   14.599192    19.238829   16.532073 Si  0.0   0.0  -0.0004072700  0.0002981150  0.0008999500
atom   18.391198    19.264917   9.933766 Si  0.0   0.0  -0.0004375700  -0.0004209300  -0.0011488150
atom   18.703571    19.255206   14.651032 Si  0.0   0.0  0.0004071400  0.0006674350  0.0005203600
atom   21.002064    15.397327   10.454520 Si  0.0   0.0  -0.0002311250  0.0001549650  -0.0002345700
atom   21.308153    15.414518   15.180223 Si  0.0   0.0  0.0011398350  -0.0002174550  0.0006405800
atom   25.105424    15.419257   8.573639 Si  0.0   0.0  -0.0000000100  0.0012246750  -0.0020698050
energy -1422.398866970000427
charge 0.000000000000000
end
begin
comment uuid: 56e8d802-0804-44cc-b3c4-1e53fc1e17fa 
lattice 27.0372728256 -0.0000000004 -9.2050815968
lattice 0.0000000000 23.1024381087 0.0000000000
lattice -0.6373419832 0.0000000000 26.1665111992
atom   -0.276888    -0.000000   12.920522 Si  0.0   0.0  0.0000002750  -0.0000000000  -0.0000007400
atom   2.034682    3.834710   4.058105 Mg  0.0   0.0  -0.0005228900  -0.0002057050  0.0003762850
atom   4.099293    4.048534   10.567401 Mg  0.0   0.0  -0.0033592700  -0.0020641800  0.0003404750
atom   9.282276    -0.000000   -2.508905 Mg  0.0   0.0  0.0007214750  0.0000000000  0.0000904050
atom   11.229243    -0.000000   4.177813 Mg  0.0   0.0  0.0007422800  0.0000000000  0.0002638850
atom   1.436196    -0.000000   8.409521 Si  0.0   0.0  0.0059764150  -0.0000000000  -0.0045841350
atom   5.150006    -0.000000   1.482090 Si  0.0   0.0  -0.0005737400  0.0000000000  -0.0020249050
atom   5.477056    -0.000000   6.226713 Si  0.0   0.0  -0.0022122700  0.0000000000  0.0006242500
atom   7.769285    3.838418   1.988874 Si  0.0   0.0  -0.0007104350  -0.0004776950  -0.0009965150
atom   8.108868    3.866225   6.688274 Si  0.0   0.0  0.0013158200  -0.0001712100  0.0010479450
atom   11.852836    3.867665   0.082979 Si  0.0   0.0  0.0006384850  -0.0002007900  -0.0004049300
atom   13.241748    3.943114   8.317981 Mg  0.0   0.0  0.0000003000  -0.0008190050  0.0000000100
atom   15.485222    -0.000000   -0.599179 Mg  0.0   0.0  -0.0000099500  0.0000000000  0.0004906700
atom   17.449699    -0.000000   6.063690 Mg  0.0   0.0  -0.0003922000  0.0000000000  -0.0010864350
atom   22.817333    3.739327   -6.986102 Mg  0.0   0.0  0.0008035900  0.0003418200  -0.0001406500
atom   24.838497    3.895358   -0.262679 Mg  0.0   0.0  0.0021420500  -0.0007872550  0.0012341250
atom   14.869409    3.858976   3.464497 Si  0.0   0.0  0.0001433300  0.0001971300  0.0003919150
atom   18.705494    3.769955   -3.085343 Si  0.0   0.0  -0.0008514650  -0.0006476600  -0.0010063250
atom   18.995163    3.811460   1.632724 Si  0.0   0.0  0.0006146650  -0.0012879750  0.0006403800
atom   21.443020    -0.000000   -2.402188 Si  0.0   0.0  -0.0020748800  -0.0000000000  -0.0000773250
atom   21.776898    -0.000000   2.295603 Si  0.0   0.0  -0.0009376500  -0.0000000000  0.0005366750
atom   25.534248    -0.000000   -4.273123 Si  0.0   0.0  0.0000219400  0.0000000000  -0.0018354050
atom   -0.595559    -0.000000   26.003777 Mg  0.0   0.0  0.0000003450  0.0000000000  0.0000000200
atom   1.644999    3.895358   16.898641 Mg  0.0   0.0  -0.0021414050  -0.0007872750  -0.0012340850
atom   3.666164    3.739327   23.622064 Mg  0.0   0.0  -0.0008029450  0.0003418200  0.0001406750
atom   9.033798    -0.000000   10.572271 Mg  0.0   0.0  0.0003928350  0.0000000000  0.0010864700
atom   10.998274    -0.000000   17.235140 Mg  0.0   0.0  0.0000105850  -0.0000000000  -0.0004906400
atom   0.949249    -0.000000   20.909084 Si  0.0   0.0  -0.0000232450  -0.0000000000  0.0018351100
atom   4.706599    -0.000000   14.340358 Si  0.0   0.0  0.0009367200  -0.0000000000  -0.0005356250
atom   5.040476    -0.000000   19.038149 Si  0.0   0.0  0.0020734300  -0.0000000000  0.0000761100
atom   7.488334    3.811460   15.003237 Si  0.0   0.0  -0.0006176100  -0.0012878500  -0.0006404700
atom   7.778002    3.769955   19.721305 Si  0.0   0.0  0.0008502900  -0.0006476400  0.0010067500
atom   11.614087    3.858976   13.171465 Si  0.0   0.0  -0.0001445450  0.0001970550  -0.0003914750
atom   12.923077    3.919370   21.401236 Mg  0.0   0.0  0.0000002950  -0.0005582950  -0.0000000050
atom   15.254254    -0.000000   12.458148 Mg  0.0   0.0  -0.0007416250  -0.0000000000  -0.0002638400
atom   17.201221    -0.000000   19.144867 Mg  0.0   0.0  -0.0007208450  0.0000000000  -0.0000903600
atom   22.384203    4.048534   6.068561 Mg  0.0   0.0  0.0033599250  -0.0020641950  -0.0003404400
atom   24.448815    3.834710   12.577856 Mg  0.0   0.0  0.0005235250  -0.0002057000  -0.0003762550
atom   14.630661    3.867665   16.552982 Si  0.0   0.0  -0.0006338650  -0.0002008400  0.0004047100
atom   18.374629    3.866225   9.947687 Si  0.0   0.0  -0.0013177150  -0.0001711650  -0.0010469350
atom   18.714212    3.838418   14.647087 Si  0.0   0.0  0.0007115850  -0.0004776100  0.0009966300
atom   21.006440    -0.000000   10.409248 Si  0.0   0.0  0.0022101450  -0.0000000000  -0.0006249450
atom   21.333491    -0.000000   15.153871 Si  0.0   0.0  0.0005720400  -0.0000000000  0.0020261850
atom   25.047300    -0.000000   8.226441 Si  0.0   0.0  -0.0059722750  -0.0000000000  0.0045840300
atom   -0.276888    8.069713   12.920521 Mg  0.0   0.0  0.0000002900  -0.0005623250  -0.0000000050
atom   2.031466    11.551219   3.923612 Mg  0.0   0.0  -0.0015688850  0.0000000000  0.0003669950
atom   4.109979    11.551219   10.597907 Mg  0.0   0.0  -0.0011780700  0.0000000000  -0.0006286150
atom   9.249358    7.715700   -2.457443 Mg  0.0   0.0  0.0009595600  -0.0002315500  -0.0003828950
atom   11.218973    7.744730   4.134486 Mg  0.0   0.0  0.0006689050  -0.0010143650  -0.0001495450
atom   1.369306    7.787959   8.037582 Si  0.0   0.0  -0.0005368750  -0.0024329250  0.0021215300
atom   5.159677    7.670896   1.428289 Si  0.0   0.0  -0.0008729900  -0.0000425000  -0.0001195650
atom   5.469085    7.711897   6.149743 Si  0.0   0.0  0.0006012050  0.0002723050  0.0001036900
atom   7.776456    11.551219   1.945165 Si  0.0   0.0  -0.0000552050  -0.0000000000  -0.0003887700
atom   8.098508    11.551219   6.671083 Si  0.0   0.0  0.0010413400  -0.0000000000  0.0012888100
atom   11.890010    11.551219   0.074022 Si  0.0   0.0  -0.0002607550  0.0000000000  -0.0006472300
atom   13.241748    11.551219   8.317981 Mg  0.0   0.0  0.0000002950  -0.0000000000  -0.0000000050
atom   15.588045    7.699419   -0.590822 Mg  0.0   0.0  -0.0007389300  -0.0003918750  -0.0000386900
atom   17.476386    7.717556   6.022099 Mg  0.0   0.0  -0.0009552050  0.0000410800  -0.0000876650
atom   22.851842    11.551219   -7.121639 Mg  0.0   0.0  0.0016422200  -0.0000000000  0.0013875200
atom   24.630027    11.551219   -0.574282 Mg  0.0   0.0  0.0005858650  0.0000000000  -0.0007150550
atom   14.918837    11.551219   3.434496 Si  0.0   0.0  -0.0003899200  -0.0000000000  0.0015375550
atom   18.746584    11.551219   -3.155963 Si  0.0   0.0  -0.0011833700  0.0000000000  -0.0008401250
atom   19.006409    11.551219   1.543409 Si  0.0   0.0  0.0001960500  -0.0000000000  0.0007207100
atom   21.291058    7.611232   -2.619759 Si  0.0   0.0  0.0000621000  0.0011738250  -0.0006315900
atom   21.605303    7.705734   2.091007 Si  0.0   0.0  0.0006498750  -0.0009763850  0.0007234300
atom   25.379325    7.667102   -4.512859 Si  0.0   0.0  0.0004641800  0.0009165050  -0.0023239950
atom   -0.595559    7.624516   26.003777 Mg  0.0   0.0  0.0000003350  -0.0008317650  0.0000000100
atom   1.853469    11.551219   17.210243 Mg  0.0   0.0  -0.0005852250  0.0000000000  0.0007151000
atom   3.631655    11.551219   23.757601 Mg  0.0   0.0  -0.0016415750  0.0000000000  -0.0013874800
atom   9.007111    7.717556   10.613862 Mg  0.0   0.0  0.0009558600  0.0000410850  0.0000876950
atom   10.895451    7.699419   17.226784 Mg  0.0   0.0  0.0007395600  -0.0003918750  0.0000387250
atom   1.104172    7.667102   21.148821 Si  0.0   0.0  -0.0004609800  0.0009166050  0.0023236250
atom   4.878194    7.705734   14.544954 Si  0.0   0.0  -0.0006492250  -0.0009763750  -0.0007229650
atom   5.192439    7.611232   19.255720 Si  0.0   0.0  -0.0000614650  0.0011737200  0.0006314950
atom   7.477087    11.551219   15.092552 Si  0.0   0.0  -0.0001991850  -0.0000000000  -0.0007198700
atom   7.736912    11.551219   19.791924 Si  0.0   0.0  0.0011870400  0.0000000000  0.0008398900
atom   11.564659    11.551219   13.201465 Si  0.0   0.0  0.0003881600  0.0000000000  -0.0015389600
atom   12.923077    11.551219   21.401236 Mg  0.0   0.0  0.0000003100  0.0000000000  0.0000000150
atom   15.264524    7.744730   12.501476 Mg  0.0   0.0  -0.0006682750  -0.0010143500  0.0001495850
atom   17.234138    7.715700   19.093404 Mg  0.0   0.0  -0.0009589150  -0.0002315500  0.0003829300
atom   22.373518    11.551219   6.038054 Mg  0.0   0.0  0.0011787200  0.0000000000  0.0006286500
atom   24.452031    11.551219   12.712349 Mg  0.0   0.0  0.0015695200  0.0000000000  -0.0003669750
atom   14.593486    11.551219   16.561939 Si  0.0   0.0  0.0002580250  0.0000000000  0.0006477250
atom   18.384988    11.551219   9.964878 Si  0.0   0.0  -0.0010425250  -0.0000000000  -0.0012873350
atom   18.707040    11.551219   14.690796 Si  0.0   0.0  0.0000563750  0.0000000000  0.0003879900
atom   21.014412    7.711897   10.486219 Si  0.0   0.0  -0.0006050100  0.0002722900  -0.0001029500
atom   21.323819    7.670896   15.207672 Si  0.0   0.0  0.0008710300  -0.0000423100  0.0001186150
atom   25.114190    7.787959   8.598379 Si  0.0   0.0  0.0005337600  -0.0024328900  -0.0021232950
atom   -0.276888    15.032725   12.920521 Mg  0.0   0.0  0.0000002900  0.0005623250  -0.0000000050
atom   2.034682    19.267728   4.058105 Mg  0.0   0.0  -0.0005228900  0.0002057050  0.0003762850
atom   4.099293    19.053904   10.567401 Mg  0.0   0.0  -0.0033592700  0.0020641800  0.0003404750
atom   9.249358    15.386738   -2.457443 Mg  0.0   0.0  0.0009595600  0.0002315500  -0.0003828950
atom   11.218973    15.357708   4.134486 Mg  0.0   0.0  0.0006689050  0.0010143650  -0.0001495450
atom   1.369306    15.314479   8.037582 Si  0.0   0.0  -0.0005368750  0.0024329250  0.0021215300
atom   5.159677    15.431542   1.428289 Si  0.0   0.0  -0.0008729900  0.0000425000  -0.0001195650
atom   5.469085    15.390541   6.149743 Si  0.0   0.0  0.0006012050  -0.0002723050  0.0001036900
atom   7.769285    19.264019   1.988874 Si  0.0   0.0  -0.0007104350  0.0004776950  -0.0009965150
atom   8.108868    19.236213   6.688274 Si  0.0   0.0  0.0013158200  0.0001712100  0.0010479450
atom   11.852836    19.234773   0.082979 Si  0.0   0.0  0.0006384850  0.0002007900  -0.0004049300
atom   13.241748    19.159323   8.317981 Mg  0.0   0.0  0.0000003000  0.0008190050  0.0000000100
atom   15.588045    15.403018   -0.590822 Mg  0.0   0.0  -0.0007389300  0.0003918750  -0.0000386900
atom   17.476386    15.384882   6.022099 Mg  0.0   0.0  -0.0009552050  -0.0000410800  -0.0000876650
atom   22.817333    19.363110   -6.986102 Mg  0.0   0.0  0.0008035900  -0.0003418200  -0.0001406500
atom   24.838497    19.207080   -0.262679 Mg  0.0   0.0  0.0021420500  0.0007872550  0.0012341250
atom   14.869409    19.243462   3.464497 Si  0.0   0.0  0.0001433300  -0.0001971300  0.0003919150
atom   18.705494    19.332483   -3.085343 Si  0.0   0.0  -0.0008514650  0.0006476600  -0.0010063250
atom   18.995163    19.290977   1.632724 Si  0.0   0.0  0.0006146650  0.0012879750  0.0006403850
atom   21.291058    15.491206   -2.619759 Si  0.0   0.0  0.0000621000  -0.0011738250  -0.0006315900
atom   21.605303    15.396704   2.091007 Si  0.0   0.0  0.0006498750  0.0009763850  0.0007234300
atom   25.379325    15.435336   -4.512859 Si  0.0   0.0  0.0004641800  -0.0009165050  -0.0023239950
atom   -0.595559    15.477922   26.003777 Mg  0.0   0.0  0.0000003350  0.0008317650  0.0000000100
atom   1.644999    19.207080   16.898641 Mg  0.0   0.0  -0.0021414050  0.0007872750  -0.0012340850
atom   3.666164    19.363110   23.622063 Mg  0.0   0.0  -0.0008029450  -0.0003418200  0.0001406750
atom   9.007111    15.384882   10.613862 Mg  0.0   0.0  0.0009558600  -0.0000410850  0.0000876950
atom   10.895452    15.403018   17.226784 Mg  0.0   0.0  0.0007395600  0.0003918750  0.0000387250
atom   1.104172    15.435336   21.148821 Si  0.0   0.0  -0.0004609800  -0.0009166050  0.0023236250
atom   4.878194    15.396704   14.544954 Si  0.0   0.0  -0.0006492250  0.0009763750  -0.0007229650
atom   5.192439    15.491206   19.255720 Si  0.0   0.0  -0.0000614650  -0.0011737200  0.0006314950
atom   7.488334    19.290977   15.003237 Si  0.0   0.0  -0.0006176100  0.0012878500  -0.0006404700
atom   7.778002    19.332483   19.721305 Si  0.0   0.0  0.0008502900  0.0006476400  0.0010067500
atom   11.614087    19.243462   13.171465 Si  0.0   0.0  -0.0001445450  -0.0001970550  -0.0003914700
atom   12.923077    19.183068   21.401236 Mg  0.0   0.0  0.0000002950  0.0005582950  -0.0000000050
atom   15.264524    15.357708   12.501476 Mg  0.0   0.0  -0.0006682750  0.0010143450  0.0001495850
atom   17.234138    15.386738   19.093404 Mg  0.0   0.0  -0.0009589150  0.0002315500  0.0003829300
atom   22.384203    19.053904   6.068561 Mg  0.0   0.0  0.0033599250  0.0020641950  -0.0003404400
atom   24.448815    19.267728   12.577856 Mg  0.0   0.0  0.0005235250  0.0002057000  -0.0003762550
atom   14.630661    19.234773   16.552982 Si  0.0   0.0  -0.0006338650  0.0002008400  0.0004047100
atom   18.374629    19.236213   9.947687 Si  0.0   0.0  -0.0013177150  0.0001711650  -0.0010469350
atom   18.714212    19.264019   14.647087 Si  0.0   0.0  0.0007115850  0.0004776100  0.0009966300
atom   21.014412    15.390541   10.486219 Si  0.0   0.0  -0.0006050100  -0.0002722900  -0.0001029500
atom   21.323819    15.431542   15.207672 Si  0.0   0.0  0.0008710300  0.0000423100  0.0001186150
atom   25.114190    15.314479   8.598379 Si  0.0   0.0  0.0005337600  0.0024328900  -0.0021232950
energy -1408.335775110000441
charge 0.000000000000000
end
begin
comment uuid: 05475bb8-64d3-4cdc-bd8a-3f8bb16385bf 
lattice 27.0372728256 -0.0000000004 -9.2050815968
lattice 0.0000000000 23.1024381087 0.0000000000
lattice -0.6373419832 0.0000000000 26.1665111992
atom   -0.265934    -0.063960   12.956195 Mg  0.0   0.0  -0.0004880050  0.0003630100  0.0012956750
atom   1.471118    3.850406   2.919952 Al  0.0   0.0  0.0038319200  0.0000000000  0.0044687050
atom   4.006109    3.850406   10.692463 Mg  0.0   0.0  -0.0018945900  -0.0000000000  -0.0024790600
atom   9.249643    0.061744   -2.424739 Mg  0.0   0.0  0.0010415150  -0.0004714450  0.0002336600
atom   11.310487    0.003846   4.176846 Mg  0.0   0.0  0.0009973500  -0.0005807850  -0.0000498050
atom   1.430708    -0.149628   8.204775 Si  0.0   0.0  0.0002797700  0.0031046300  -0.0037445750
atom   5.021982    0.177329   1.500016 Si  0.0   0.0  0.0016458250  -0.0016453000  0.0008412200
atom   5.428447    0.159108   6.164850 Si  0.0   0.0  -0.0010173250  -0.0001146500  -0.0004622550
atom   7.938651    3.850406   2.011671 Si  0.0   0.0  -0.0063965300  0.0000000000  0.0000712350
atom   8.229117    3.850406   6.746954 Si  0.0   0.0  -0.0018938800  -0.0000000000  -0.0002148500
atom   11.992683    3.850406   0.090123 Si  0.0   0.0  -0.0007384350  0.0000000000  -0.0005353200
atom   13.268179    3.850406   8.324020 Mg  0.0   0.0  0.0007316500  0.0000000000  0.0004713900
atom   15.598222    -0.020352   -0.610567 Mg  0.0   0.0  -0.0006215000  0.0001765350  0.0002166300
atom   17.514432    -0.059873   6.021197 Mg  0.0   0.0  -0.0009248450  0.0000455050  -0.0006227800
atom   22.774431    3.850406   -7.156547 Mg  0.0   0.0  -0.0003925500  0.0000000000  -0.0014103800
atom   24.997906    3.850406   -0.473336 Mg  0.0   0.0  0.0001554800  0.0000000000  0.0006232750
atom   14.997165    3.850406   3.476018 Si  0.0   0.0  0.0003267000  0.0000000000  0.0004600300
atom   18.760648    3.850406   -3.167139 Si  0.0   0.0  -0.0010479050  -0.0000000000  -0.0011031850
atom   19.081529    3.850406   1.531257 Si  0.0   0.0  -0.0012384750  -0.0000000000  0.0010113050
atom   21.453433    0.029704   -2.690581 Si  0.0   0.0  0.0002069050  0.0013035850  -0.0004932300
atom   21.691052    -0.000498   2.032097 Si  0.0   0.0  0.0003395800  0.0009454950  0.0013846600
atom   25.615825    0.197917   -4.531591 Si  0.0   0.0  0.0000387550  -0.0048210250  0.0030524600
atom   -0.654291    -0.350374   25.954772 Mg  0.0   0.0  -0.0002349600  0.0009769500  -0.0023803600
atom   1.718685    3.850406   17.109634 Mg  0.0   0.0  -0.0005956600  -0.0000000000  -0.0003264000
atom   3.639290    3.850406   23.672034 Mg  0.0   0.0  -0.0027983050  -0.0000000000  -0.0002360800
atom   8.971951    -0.009340   10.607245 Mg  0.0   0.0  0.0014502550  -0.0003312800  0.0006909850
atom   10.926399    -0.007493   17.240273 Mg  0.0   0.0  0.0008882500  0.0003509850  0.0000397850
atom   1.066455    -0.044284   21.133442 Si  0.0   0.0  -0.0003269650  0.0014904450  0.0018643050
atom   4.877850    -0.004001   14.553010 Si  0.0   0.0  -0.0009521100  -0.0006210900  0.0004222450
atom   5.178557    0.000648   19.290798 Si  0.0   0.0  0.0003820600  0.0003516300  -0.0003161600
atom   7.479059    3.850406   15.082745 Si  0.0   0.0  0.0001514750  -0.0000000000  -0.0000142450
atom   7.817996    3.850406   19.790681 Si  0.0   0.0  -0.0000860050  -0.0000000000  0.0010831750
atom   11.558989    3.850406   13.177745 Si  0.0   0.0  0.0010783550  0.0000000000  -0.0006664050