begin
comment uuid: d0dc4e30-e6d6-4620-8877-255d426671bb parent_uuid: a92eb12b-a1c1-421e-9fbe-b522f1045a85 trajectory_step: final_scf
lattice     27.2611226035    -0.0000000002    -9.2486491900
lattice      0.0000000001     7.6727598826     0.0000000000
lattice     -0.3591009654     0.0000000000    13.0341185422
atom     -0.3165395943    -0.0000001748    12.8718854015   Mg  0.0 0.0   -2.45156583e-11 -3.50963835e-13 -5.32888558e-13
atom      2.0421369460     3.8363797664     4.0122886854   Mg  0.0 0.0    5.23207620e-07 -3.02599973e-13  7.41501973e-07
atom      3.9823874267     3.8363797664    10.5608365671   Mg  0.0 0.0    1.54499142e-06 -2.51035926e-13  8.47270659e-07
atom      9.3741956524    -0.0000001750    -2.4755089038   Mg  0.0 0.0   -1.54504911e-06  2.57124564e-13 -8.47227037e-07
atom     11.3144461261    -0.0000001750     4.0730389870   Mg  0.0 0.0   -5.23192086e-07  3.06641624e-13 -7.41556109e-07
atom      1.3896458259    -0.0000001749     8.0282146579   Si  0.0 0.0   -2.12457594e-07 -3.29958032e-13  6.32824071e-07
atom      5.2059349522    -0.0000001749     1.4342422237   Si  0.0 0.0    4.26710180e-07 -6.32282130e-14  6.09433176e-07
atom      5.5239087067    -0.0000001749     6.1540738373   Si  0.0 0.0   -4.74562058e-07 -7.56583956e-15  1.10178769e-06
atom      7.8326743649     3.8363797664     1.9312538310   Si  0.0 0.0    4.74589842e-07  1.91426528e-14 -1.10179327e-06
atom      8.1506481216     3.8363797663     6.6510854440   Si  0.0 0.0   -4.26703261e-07  7.36366654e-14 -6.09432481e-07
atom     11.9669372451     3.8363797663     0.0571130104   Si  0.0 0.0    2.12489972e-07  3.32857968e-13 -6.32831405e-07
atom     13.3140217075     3.8363797663     8.2475608096   Mg  0.0 0.0   -2.44659639e-11  3.51278870e-13 -1.57122308e-11
atom     15.6726982476    -0.0000001751    -0.6120359067   Mg  0.0 0.0    5.23208753e-07  3.01617886e-13  7.41488827e-07
atom     17.6129487289    -0.0000001751     5.9365119729   Mg  0.0 0.0    1.54498877e-06  2.46727851e-13  8.47268628e-07
atom     23.0047569544     3.8363797663    -7.0998335022   Mg  0.0 0.0   -1.54505060e-06 -2.52690856e-13 -8.47208787e-07
atom     24.9450074276     3.8363797663    -0.5512856120   Mg  0.0 0.0   -5.23189963e-07 -3.05705244e-13 -7.41536410e-07
atom     15.0202071282     3.8363797662     3.4038900655   Si  0.0 0.0   -2.12460252e-07  3.30789886e-13  6.32811779e-07
atom     18.8364962535     3.8363797663    -3.1900823710   Si  0.0 0.0    4.26712623e-07  6.18588760e-14  6.09433664e-07
atom     19.1544700083     3.8363797663     1.5297492424   Si  0.0 0.0   -4.74560884e-07  8.42630505e-15  1.10178953e-06
atom     21.4632356666    -0.0000001751    -2.6930707669   Si  0.0 0.0    4.74590157e-07 -1.95099398e-14 -1.10177683e-06
atom     21.7812094236    -0.0000001750     2.0267608461   Si  0.0 0.0   -4.26704221e-07 -7.27608308e-14 -6.09416408e-07
atom     25.5974985468    -0.0000001750    -4.5672115879   Si  0.0 0.0    2.12489674e-07 -3.33731690e-13 -6.32815017e-07
energy -2.365803243635453e+02
charge 0.0000
end
