begin
comment uuid: 2de31ede-4cd9-4681-ab6d-28c194209012 parent_uuid: 46939af9-eee4-4d42-a067-25e919f9bf55 trajectory_step: final_scf
lattice     13.8082882481    -0.0000000004    -0.0000000000
lattice     -6.9041441242    11.9583282865    -0.0000000001
lattice     -0.0000000000     0.0000000001    21.7928707613
atom      3.6211938664     8.1502099261     1.7737242140   Mg  0.0 0.0    2.79792917e-07 -6.12071011e-08 -2.91632653e-07
atom     -1.9647417679    11.0192693837     1.7737242233   Mg  0.0 0.0   -8.68707637e-08  2.72903320e-07 -2.91612429e-07
atom     -1.6564523569     4.7471775164     1.7737241991   Mg  0.0 0.0   -1.92891775e-07 -2.11728796e-07 -2.91652110e-07
atom      2.8870407252     3.3581348815     5.4482177819   Mg  0.0 0.0   -3.06323218e-07  9.12100819e-07 -1.17166059e-15
atom      9.4565376960     0.8211833539     5.4482177819   Mg  0.0 0.0   -6.36722400e-07 -7.21346499e-07 -1.07037143e-14
atom      8.3688537155     7.7790103047     5.4482177818   Mg  0.0 0.0    9.43085886e-07 -1.90793996e-07  1.05353701e-14
atom      3.6211938663     8.1502099261     9.1227113497   Mg  0.0 0.0    2.79792929e-07 -6.12070810e-08  2.91632667e-07
atom     -1.9647417679    11.0192693837     9.1227113403   Mg  0.0 0.0   -8.68708428e-08  2.72903333e-07  2.91612439e-07
atom     -1.6564523569     4.7471775164     9.1227113646   Mg  0.0 0.0   -1.92891802e-07 -2.11728720e-07  2.91652123e-07
atom      3.2829500863     3.8081185751    12.6701596278   Mg  0.0 0.0   -2.79756081e-07  6.14424424e-08 -2.91400852e-07
atom      8.8688856836     0.9390590717    12.6701596372   Mg  0.0 0.0    8.66485884e-08 -2.72989092e-07 -2.91380626e-07
atom      8.5605963307     7.2111509300    12.6701596129   Mg  0.0 0.0    1.93077199e-07  2.11579127e-07 -2.91420308e-07
atom      4.0171033037     8.6001936865    16.3446531626   Mg  0.0 0.0    3.06893302e-07 -9.11398646e-07  2.87981470e-16
atom     -2.5523938762    11.1371451342    16.3446531626   Mg  0.0 0.0    6.35829257e-07  7.21489114e-07  1.16492723e-14
atom     -1.4647097220     4.1793180422    16.3446531626   Mg  0.0 0.0   -9.42762824e-07  1.89949194e-07 -9.40430407e-15
atom      3.2829500863     3.8081185751    20.0191466973   Mg  0.0 0.0   -2.79756072e-07  6.14424476e-08  2.91400861e-07
atom      8.8688856836     0.9390590717    20.0191466879   Mg  0.0 0.0    8.66485265e-08 -2.72989081e-07  2.91380636e-07
atom      8.5605963307     7.2111509300    20.0191467122   Mg  0.0 0.0    1.93077172e-07  2.11579207e-07  2.91420318e-07
atom     -0.0000000702     0.0000000711     2.2455947965   Si  0.0 0.0    1.94445841e-11 -2.19857283e-11 -1.78425204e-06
atom      6.9041440375     3.9861095170     1.9977968160   Si  0.0 0.0    6.02804091e-12 -7.88583820e-12 -2.72691441e-07
atom     -0.0000000785     7.9722189325     5.4482177818   Si  0.0 0.0    8.76864755e-12 -2.65532693e-11  4.78568604e-15
atom     -0.0000000702     0.0000000711     8.6508407673   Si  0.0 0.0    1.95964596e-11 -2.21508787e-11  1.78425200e-06
atom     -0.0000001062     0.0000001108    13.1420298560   Si  0.0 0.0   -1.95789935e-11  2.21329576e-11 -1.78650317e-06
atom      6.9041440375     3.9861095171     8.8986387477   Si  0.0 0.0    6.01891465e-12 -7.87816362e-12  2.72691450e-07
atom     -0.0000000901     7.9722189506    12.8942322333   Si  0.0 0.0   -6.01740008e-12  7.88166208e-12 -2.72435789e-07
atom     -0.0000001062     0.0000001108    19.5472764691   Si  0.0 0.0   -1.94633877e-11  2.20080290e-11  1.78650311e-06
atom      6.9041440259     3.9861095351    16.3446531626   Si  0.0 0.0   -8.77227042e-12  2.65518097e-11  5.12688138e-15
atom     -0.0000000901     7.9722189506    19.7950740918   Si  0.0 0.0   -6.02180452e-12  7.88576641e-12  2.72435798e-07
energy -3.597997201643171e+02
charge 0.0000
end
