begin
comment uuid: d7dac1cb-ee87-4461-ab4a-7b9936f14816 parent_uuid: 4c3843d7-8355-4b7b-b4e8-830f92b1b176 trajectory_step: final_scf
lattice     27.8970594494    -0.0000000001    -7.7759874715
lattice      0.0000000000     7.6408383850     0.0000000001
lattice     -0.0248508193    -0.0000000001    12.8664432153
atom      0.0147816387    -0.0000000396    12.7082062686   Mg  0.0 0.0    6.58579443e-13 -1.10802340e-13  5.45468351e-12
atom      2.1067683159     3.8204191530     3.8344001667   Mg  0.0 0.0    4.61787646e-07 -8.54834086e-14 -1.05749022e-06
atom      4.3136275784     3.8204191529    10.3939341913   Mg  0.0 0.0   -2.95030884e-07 -3.88256372e-14  5.68247033e-07
atom      9.6893162429    -0.0000000395    -1.7319586021   Mg  0.0 0.0    2.95032606e-07  1.30569762e-13 -5.68254809e-07
atom     11.8961755058    -0.0000000396     4.8275754218   Mg  0.0 0.0   -4.61789195e-07  1.18375073e-13  1.05748785e-06
atom      1.6137185639    -0.0000000395     7.8621648652   Si  0.0 0.0    8.79929149e-08 -7.64499338e-14 -3.06696374e-07
atom      5.2414184446    -0.0000000395     1.2468935491   Si  0.0 0.0    1.33820551e-07  2.35880949e-14  2.81772862e-07
atom      6.0190756882    -0.0000000396     6.0812241401   Al  0.0 0.0   -7.32675017e-07  7.10595900e-14 -1.42665553e-06
atom      7.9838681334     3.8204191530     2.5807514492   Al  0.0 0.0    7.32674082e-07  4.51677433e-14  1.42664693e-06
atom      8.7615253771     3.8204191529     7.4150820401   Si  0.0 0.0   -1.33821618e-07  8.78471476e-14 -2.81780595e-07
atom     12.3892252575     3.8204191530     0.7998107231   Si  0.0 0.0   -8.79920685e-08  1.24740240e-13  3.06694637e-07
atom     13.9633113636     3.8204191529     8.8202125348   Mg  0.0 0.0   -4.44518265e-13  1.10975215e-13 -5.12187618e-12
atom     16.0552980404    -0.0000000396    -0.0535935673   Mg  0.0 0.0    4.61788854e-07  8.40068441e-14 -1.05749945e-06
atom     18.2621573039    -0.0000000396     6.5059404552   Mg  0.0 0.0   -2.95035627e-07  2.46265497e-14  5.68250063e-07
atom     23.6378459672     3.8204191530    -5.6199523397   Mg  0.0 0.0    2.95034654e-07 -1.16561150e-13 -5.68243061e-07
atom     25.8447052303     3.8204191529     0.9395816834   Mg  0.0 0.0   -4.61787581e-07 -1.17068823e-13  1.05750316e-06
atom     15.5622482889     3.8204191529     3.9741711310   Si  0.0 0.0    8.79914257e-08  8.04964733e-14 -3.06704469e-07
atom     19.1899481689     3.8204191530    -2.6411001869   Si  0.0 0.0    1.33822717e-07 -1.04006944e-14  2.81775850e-07
atom     19.9676054127     3.8204191529     2.1932304038   Al  0.0 0.0   -7.32673657e-07 -5.35765296e-14 -1.42665045e-06
atom     21.9323978581    -0.0000000396    -1.3072422884   Al  0.0 0.0    7.32674243e-07 -6.24632371e-14  1.42665844e-06
atom     22.7100551019    -0.0000000396     3.5270883025   Si  0.0 0.0   -1.33821701e-07 -1.01252510e-13 -2.81768763e-07
atom     26.3377549822    -0.0000000395    -3.0881830147   Si  0.0 0.0   -8.79925590e-08 -1.28129434e-13  3.06706561e-07
energy -2.928224507407074e+02
charge 0.0000
end
