begin
comment uuid: d201a52c-24f4-4e24-b375-3f6888bd1cdf
lattice     27.2236118308    -0.0000000002    -9.2634235703
lattice      0.0000000001     7.6912083307     0.0000000000
lattice     -0.2951218308     0.0000000000    13.2418065851
atom      0.0027287745    -0.0000001753    13.1122776471   Mg  0.0 0.0   -5.56904954e-08 -1.04388925e-16  7.92364791e-07
atom      2.2680230660     3.8456039900     4.1740666276   Mg  0.0 0.0   -6.82835402e-07 -1.07983466e-15  4.53110014e-07
atom      4.2270077025     3.8456039900    10.8179939061   Mg  0.0 0.0    5.74063798e-07 -2.17915279e-16 -1.24479398e-06
atom      9.4513088198    -0.0000001754    -2.5096527329   Mg  0.0 0.0    3.16119000e-07  1.37019110e-16 -5.46674253e-09
atom     11.4248977328    -0.0000001754     4.2345025920   Mg  0.0 0.0    4.83985784e-07  4.35229160e-17 -1.97104021e-07
atom      1.6658934114    -0.0000001753     8.3235125162   Si  0.0 0.0    3.46301953e-07  7.11311239e-16 -7.03503716e-07
atom      5.3602156269    -0.0000001754     1.5965081630   Si  0.0 0.0   -1.45614921e-07  3.76605780e-16 -8.99665263e-07
atom      5.6250565558    -0.0000001754     6.2882588158   Si  0.0 0.0   -5.96495226e-07  4.92687911e-16  1.04476459e-07
atom      7.9215892802     3.8456039900     2.1016406044   Si  0.0 0.0    2.15605209e-07 -9.69916858e-16 -1.02444965e-06
atom      8.2239481277     3.8456039900     6.7889527464   Si  0.0 0.0    7.14743254e-07 -2.66221432e-16  8.41295641e-07
atom     11.9366381527     3.8456039899     0.0591332554   Si  0.0 0.0    2.96759782e-07  2.74528028e-16  1.42689635e-06
atom     13.3368889621     3.8456039899     8.3653256640   Mg  0.0 0.0    8.37758251e-07 -1.70131166e-16  5.21449931e-07
atom     15.4961823600    -0.0000001754    -0.6310375752   Mg  0.0 0.0   -6.93643214e-08 -3.42498554e-16  6.01954982e-07
atom     17.5879393986    -0.0000001754     5.9404300725   Mg  0.0 0.0    6.24913240e-07 -1.21152706e-16  5.95980091e-07
atom     22.6771952074     3.8456039899    -7.4961524708   Mg  0.0 0.0   -4.62149830e-07 -4.34051881e-17 -8.14783540e-08
atom     25.1501839694     3.8456039898    -0.1294315368   Mg  0.0 0.0    5.80079420e-08 -9.26535632e-16 -1.08184252e-06
atom     15.0055435947     3.8456039899     3.3810857704   Si  0.0 0.0    1.86678823e-07  2.20521007e-16 -4.21937159e-07
atom     18.7598460946     3.8456039899    -3.2960914482   Si  0.0 0.0   -2.65712230e-07 -5.47505453e-16  2.40889118e-07
atom     19.0853255162     3.8456039899     1.4605335062   Si  0.0 0.0   -1.57304961e-06  6.15834377e-16 -7.44613809e-08
atom     20.9338943132    -0.0000001755    -2.3029619659   Si  0.0 0.0   -1.11349776e-06  7.97544790e-16 -3.25617214e-07
atom     21.7687890875    -0.0000001755     2.1568663279   Si  0.0 0.0   -5.97411079e-07 -6.37658629e-16  9.09601821e-07
atom     25.3164419633    -0.0000001755    -4.4219147017   Mg  0.0 0.0    9.06883842e-07  8.97866275e-16 -4.27699188e-07
energy -2.476724813550416e+02
charge 0.0000
end
