begin
comment uuid: d0dc4e30-e6d6-4620-8877-255d426671bb parent_uuid: a92eb12b-a1c1-421e-9fbe-b522f1045a85 trajectory_step: final_scf
lattice     27.1666811006    -0.0000000002    -9.2466198557
lattice      0.0000000001     7.6808516743     0.0000000000
lattice     -0.3466906905     0.0000000000    13.0644681860
atom     -0.3044045752    -0.0000001749    12.9018905238   Mg  0.0 0.0   -1.88055675e-11 -1.39277731e-12  1.54428972e-11
atom      2.0270319144     3.8404256622     3.9877031584   Mg  0.0 0.0    1.65560380e-06 -1.04096790e-12  7.59367076e-09
atom      4.0015470851     3.8404256622    10.6031597516   Mg  0.0 0.0    4.01088685e-07 -9.07738525e-13 -2.39156405e-07
atom      9.3196750033    -0.0000001753    -2.4871568098   Mg  0.0 0.0   -4.01105502e-07  9.25936902e-13  2.39164512e-07
atom     11.2941901725    -0.0000001753     4.1282997859   Mg  0.0 0.0   -1.65559808e-06  1.05247739e-12 -7.63711139e-09
atom      1.3937989898    -0.0000001749     8.0419203252   Si  0.0 0.0    6.50011382e-07 -1.39114869e-12 -8.37569955e-08
atom      5.1923907388    -0.0000001751     1.4427664452   Si  0.0 0.0    1.85886389e-07 -5.42162904e-13  5.33370023e-07
atom      5.4927774233    -0.0000001751     6.1424036288   Si  0.0 0.0   -1.07388197e-07 -3.11320063e-13 -3.80929642e-07
atom      7.8284446633     3.8404256620     1.9735993157   Si  0.0 0.0    1.07405894e-07  3.43942871e-13  3.80911715e-07
atom      8.1288313488     3.8404256620     6.6732364989   Si  0.0 0.0   -1.85891426e-07  5.72259133e-13 -5.33395922e-07
atom     11.9274230957     3.8404256618     0.0740826167   Si  0.0 0.0   -6.49988438e-07  1.39910968e-12  8.37437560e-08
atom     13.2789359747     3.8404256618     8.2785806035   Mg  0.0 0.0   -1.65385674e-11  1.39417026e-12 -1.92691794e-11
atom     15.6103724647    -0.0000001754    -0.6356067628   Mg  0.0 0.0    1.65560472e-06  1.05061996e-12  7.56564013e-09
atom     17.5848876371    -0.0000001754     5.9798498250   Mg  0.0 0.0    4.01077660e-07  9.11887396e-13 -2.39153931e-07
atom     22.9030155551     3.8404256621    -7.1104667472   Mg  0.0 0.0   -4.01115243e-07 -9.30348889e-13  2.39216609e-07
atom     24.8775307217     3.8404256621    -0.4950101511   Mg  0.0 0.0   -1.65559132e-06 -1.06278993e-12 -7.59237900e-09
atom     14.9771395418     3.8404256618     3.4186104039   Si  0.0 0.0    6.50002840e-07  1.39425522e-12 -8.37860551e-08
atom     18.7757312879     3.8404256619    -3.1805434824   Si  0.0 0.0    1.85892425e-07  5.00292410e-13  5.33376753e-07
atom     19.0761179733     3.8404256619     1.5190937008   Si  0.0 0.0   -1.07385996e-07  2.78185042e-13 -3.80921184e-07
atom     21.4117852133    -0.0000001752    -2.6497106203   Si  0.0 0.0    1.07408569e-07 -3.10505332e-13  3.80957093e-07
atom     21.7121719000    -0.0000001752     2.0499265629   Si  0.0 0.0   -1.85895326e-07 -5.32482348e-13 -5.33350700e-07
atom     25.5107636456    -0.0000001751    -4.5492273195   Si  0.0 0.0   -6.49987492e-07 -1.40154236e-12  8.37843800e-08
energy -2.365805095463648e+02
charge 0.0000
end
