begin
comment uuid: 214987d9-9043-440d-af0a-812ec59364b7 parent_uuid: 00284ee1-6af0-439a-857f-64d2dfa5a7e3 trajectory_step: final_scf
lattice     27.5073012513     0.0000000001    -7.6914085860
lattice     -0.0000000000     7.7189851217    -0.0000000000
lattice     -0.0720199681     0.0000000000    12.5615262238
atom     -0.0323974446     0.0000000236    12.4068986324   Al  0.0 0.0   -6.91693742e-13  3.74292533e-13 -2.72489686e-12
atom      2.0010230536     3.8594925845     3.6194661980   Mg  0.0 0.0    6.24733153e-07  2.80446984e-13 -4.25087064e-07
atom      4.1589353604     3.8594925845    10.1313403464   Mg  0.0 0.0    1.70604034e-07  2.20839659e-13  1.51134520e-06
atom      9.6019403436     0.0000000238    -1.7247735979   Mg  0.0 0.0   -1.70603415e-07 -2.39741394e-13 -1.51135053e-06
atom     11.7598526510     0.0000000238     4.7871005503   Mg  0.0 0.0   -6.24734201e-07 -2.83368140e-13  4.25078092e-07
atom      1.5563234138     0.0000000237     7.7426085738   Si  0.0 0.0   -1.64556145e-06  3.00563625e-13 -5.36346244e-07
atom      5.0680552020     0.0000000237     1.1630783179   Si  0.0 0.0    1.21621045e-06  1.13788980e-13 -1.50057070e-06
atom      5.9421132768     0.0000000237     5.9278501368   Al  0.0 0.0   -1.67041960e-07 -3.58211061e-14 -8.88668661e-07
atom      7.8187624277     3.8594925845     2.4787166116   Al  0.0 0.0    1.67042156e-07  1.62371285e-14  8.88662850e-07
atom      8.6928205025     3.8594925846     7.2434884305   Si  0.0 0.0   -1.21621035e-06 -1.32009959e-13  1.50056530e-06
atom     12.2045522904     3.8594925846     0.6639581739   Si  0.0 0.0    1.64556294e-06 -3.13411966e-13  5.36342689e-07
atom     13.7212531810     3.8594925847     8.5611943389   Al  0.0 0.0   -6.64863814e-13 -3.76019921e-13 -2.05828492e-13
atom     15.7546736790     0.0000000238    -0.2262380961   Mg  0.0 0.0    6.24734898e-07 -2.91215192e-13 -4.25080219e-07
atom     17.9125859865     0.0000000238     6.2856360519   Mg  0.0 0.0    1.70601321e-07 -1.92055619e-13  1.51135450e-06
atom     23.3555909699     3.8594925846    -5.5704778921   Mg  0.0 0.0   -1.70607638e-07  2.10843793e-13 -1.51134336e-06
atom     25.5135032765     3.8594925846     0.9413962571   Mg  0.0 0.0   -6.24732895e-07  2.94227102e-13  4.25079460e-07
atom     15.3099740395     3.8594925846     3.8969042801   Si  0.0 0.0   -1.64556214e-06 -2.57124124e-13 -5.36342216e-07
atom     18.8217058275     3.8594925846    -2.6826259766   Si  0.0 0.0    1.21621101e-06 -1.02898082e-13 -1.50056174e-06
atom     19.6957639023     3.8594925846     2.0821458423   Al  0.0 0.0   -1.67040929e-07  2.34780760e-14 -8.88659257e-07
atom     21.5724130531     0.0000000238    -1.3669876826   Al  0.0 0.0    1.67043605e-07 -4.07147693e-15  8.88670717e-07
atom     22.4464711280     0.0000000238     3.3977841365   Si  0.0 0.0   -1.21620926e-06  1.22118329e-13  1.50057222e-06
atom     25.9582029162     0.0000000238    -3.1817461189   Si  0.0 0.0    1.64556203e-06  2.70695973e-13  5.36341890e-07
energy -2.986847347784627e+02
charge 0.0000
end
