begin
comment uuid: d7dac1cb-ee87-4461-ab4a-7b9936f14816 parent_uuid: 4c3843d7-8355-4b7b-b4e8-830f92b1b176 trajectory_step: final_scf
lattice     27.9414010199    -0.0000000000    -7.8694924882
lattice      0.0000000000     7.6006321953     0.0000000001
lattice     -0.0582424278    -0.0000000001    12.9009759098
atom     -0.0181652272    -0.0000000393    12.7422118155   Mg  0.0 0.0   -2.86908749e-12 -2.05717654e-13  6.72277889e-12
atom      2.1278651069     3.8003160584     3.8648190165   Mg  0.0 0.0    6.77170189e-07 -1.43360063e-13 -3.15812723e-07
atom      4.3482167536     3.8003160583    10.3870441940   Mg  0.0 0.0    1.33482582e-06 -6.39847713e-14  3.13563865e-07
atom      9.6443957295    -0.0000000393    -1.7383427119   Mg  0.0 0.0   -1.33483118e-06  2.18692357e-13 -3.13570491e-07
atom     11.8647473764    -0.0000000394     4.7838824656   Mg  0.0 0.0   -6.77168715e-07  2.10662990e-13  3.15791804e-07
atom      1.5709336725    -0.0000000393     7.8959336252   Si  0.0 0.0   -1.19403773e-07 -1.65740431e-13  1.76437549e-06
atom      5.1971428577    -0.0000000393     1.2220101327   Si  0.0 0.0    1.51741895e-07  2.41201362e-14 -6.86744195e-07
atom      5.9511459021    -0.0000000394     6.0721433639   Al  0.0 0.0   -3.49809465e-07  9.76943247e-14 -1.39798115e-06
atom      8.0414665810     3.8003160583     2.5765581184   Al  0.0 0.0    3.49812385e-07  1.12787117e-13  1.39797154e-06
atom      8.7954696255     3.8003160583     7.4266913495   Si  0.0 0.0   -1.51742163e-07  1.75067708e-13  6.86735041e-07
atom     12.4216788101     3.8003160583     0.7527678560   Si  0.0 0.0    1.19408341e-07  2.30874689e-13 -1.76438437e-06
atom     13.9525352829     3.8003160582     8.8074655750   Mg  0.0 0.0   -3.83215413e-12  2.05540748e-13 -1.46434751e-11
atom     16.0985656164    -0.0000000394    -0.0699272248   Mg  0.0 0.0    6.77173259e-07  1.44185094e-13 -3.15828691e-07
atom     18.3189172647    -0.0000000394     6.4522979493   Mg  0.0 0.0    1.33481810e-06  5.64858022e-14  3.13568859e-07
atom     23.6150962394     3.8003160584    -5.6730889601   Mg  0.0 0.0   -1.33483128e-06 -2.11128276e-13 -3.13544252e-07
atom     25.8354478858     3.8003160583     0.8491362168   Mg  0.0 0.0   -6.77165696e-07 -2.11547259e-13  3.15821103e-07
atom     15.5416341828     3.8003160583     3.9611873839   Si  0.0 0.0   -1.19406056e-07  1.56465362e-13  1.76435956e-06
atom     19.1678433673     3.8003160584    -2.7127361122   Si  0.0 0.0    1.51743878e-07 -4.25229531e-14 -6.86737503e-07
atom     19.9218464114     3.8003160583     2.1373971184   Al  0.0 0.0   -3.49805798e-07 -1.11887202e-13 -1.39797008e-06
atom     22.0121670910    -0.0000000393    -1.3581881293   Al  0.0 0.0    3.49811660e-07 -9.85374299e-14  1.39799526e-06
atom     22.7661701353    -0.0000000394     3.4919451016   Si  0.0 0.0   -1.51741495e-07 -1.56507884e-13  6.86759718e-07
atom     26.3923793202    -0.0000000393    -3.1819783920   Si  0.0 0.0    1.19406801e-07 -2.21653157e-13 -1.76436087e-06
energy -2.928251348692717e+02
charge 0.0000
end
