begin
comment uuid: 214987d9-9043-440d-af0a-812ec59364b7 parent_uuid: 00284ee1-6af0-439a-857f-64d2dfa5a7e3 trajectory_step: final_scf
lattice     27.5373629418     0.0000000001    -7.6656892596
lattice     -0.0000000000     7.7240009886    -0.0000000000
lattice     -0.0668417318     0.0000000000    12.5392759854
atom     -0.0272360773     0.0000000237    12.3849393464   Al  0.0 0.0   -3.60491389e-14  2.08075326e-13 -1.57373142e-12
atom      2.0119062146     3.8620005180     3.6034579807   Mg  0.0 0.0   -1.15686538e-06  1.49956709e-13  8.69342644e-07
atom      4.2054604751     3.8620005180    10.0928501587   Mg  0.0 0.0   -2.03553865e-07  1.31083633e-13 -2.76491400e-07
atom      9.5755905726     0.0000000238    -1.6950920812   Mg  0.0 0.0    2.03556461e-07 -1.42206378e-13  2.76486564e-07
atom     11.7691448335     0.0000000238     4.7943000963   Mg  0.0 0.0    1.15686481e-06 -1.52038699e-13 -8.69343214e-07
atom      1.5603411110     0.0000000237     7.7314505172   Si  0.0 0.0   -1.44516684e-06  1.67753691e-13 -8.71950214e-07
atom      5.0455409097     0.0000000237     1.1551573880   Si  0.0 0.0    1.50052043e-06  6.40974401e-14 -8.52090692e-07
atom      5.9523447972     0.0000000237     5.9205558104   Al  0.0 0.0    1.12793243e-06 -2.24044970e-14  1.51361574e-06
atom      7.8287062509     3.8620005180     2.4772022672   Al  0.0 0.0   -1.12793324e-06  1.09479558e-14 -1.51362109e-06
atom      8.7355101384     3.8620005181     7.2426006895   Si  0.0 0.0   -1.50052096e-06 -7.55746261e-14  8.52085777e-07
atom     12.2207099370     3.8620005181     0.6663075597   Si  0.0 0.0    1.44516725e-06 -1.75044730e-13  8.71950079e-07
atom     13.7414453936     3.8620005181     8.5520947157   Al  0.0 0.0    5.69620030e-15 -2.08044425e-13  2.71226561e-12
atom     15.7805876853     0.0000000238    -0.2293866503   Mg  0.0 0.0   -1.15686421e-06 -1.61814157e-13  8.69349422e-07
atom     17.9741419460     0.0000000238     6.2600055279   Mg  0.0 0.0   -2.03554028e-07 -9.57589461e-14 -2.76485658e-07
atom     23.3442720440     3.8620005181    -5.5279367114   Mg  0.0 0.0    2.03553423e-07  1.06609506e-13  2.76488807e-07
atom     25.5378263044     3.8620005181     0.9614554670   Mg  0.0 0.0    1.15686490e-06  1.63986066e-13 -8.69345690e-07
atom     15.3290225819     3.8620005181     3.8986058864   Si  0.0 0.0   -1.44516705e-06 -1.42870156e-13 -8.71945349e-07
atom     18.8142223807     3.8620005181    -2.6776872428   Si  0.0 0.0    1.50052010e-06 -5.88073655e-14 -8.52085005e-07
atom     19.7210262681     3.8620005181     2.0877111796   Al  0.0 0.0    1.12793242e-06  1.07001991e-14  1.51362115e-06
atom     21.5973877217     0.0000000238    -1.3556423631   Al  0.0 0.0   -1.12793255e-06  8.87638778e-16 -1.51361801e-06
atom     22.5041916092     0.0000000238     3.4097560594   Si  0.0 0.0   -1.50052048e-06  7.00534340e-14  8.52087999e-07
atom     25.9893914081     0.0000000238    -3.1665370694   Si  0.0 0.0    1.44516640e-06  1.50603242e-13  8.71946994e-07
energy -2.986845955686538e+02
charge 0.0000
end
