begin
comment uuid: d0dc4e30-e6d6-4620-8877-255d426671bb parent_uuid: a92eb12b-a1c1-421e-9fbe-b522f1045a85 trajectory_step: final_scf
lattice     27.2529482260    -0.0000000002    -9.1249195117
lattice      0.0000000001     7.6529650603     0.0000000000
lattice     -0.3025485896     0.0000000000    13.0241175202
atom     -0.2606460453    -0.0000001744    12.8621733671   Mg  0.0 0.0   -2.17398696e-11 -3.67919856e-13  5.06243141e-12
atom      2.0479033274     3.8264823557     3.9811766117   Mg  0.0 0.0   -1.01773057e-08 -3.09048735e-13  7.84167716e-07
atom      4.0325581573     3.8264823557    10.5758501366   Mg  0.0 0.0   -1.03073733e-07 -2.65670201e-13  7.27123172e-07
atom      9.3751724557    -0.0000001746    -2.4380806780   Mg  0.0 0.0    1.03015349e-07  2.74647531e-13 -7.27083085e-07
atom     11.3598272783    -0.0000001746     4.1565928553   Mg  0.0 0.0    1.01954619e-08  3.15214087e-13 -7.84213913e-07
atom      1.4070734307    -0.0000001744     8.0324661037   Si  0.0 0.0   -1.09147586e-06 -3.55626565e-13  1.35171707e-06
atom      5.2036551477    -0.0000001745     1.4542583915   Si  0.0 0.0   -8.67359876e-07 -8.41675069e-14 -4.08107620e-07
atom      5.5263151111    -0.0000001745     6.1804015655   Si  0.0 0.0   -1.27432651e-06  1.55793011e-14  6.04497056e-07
atom      7.8814154945     3.8264823556     1.9573678984   Si  0.0 0.0    1.27435163e-06  1.52671503e-15 -6.04506981e-07
atom      8.2040754594     3.8264823556     6.6835110719   Si  0.0 0.0    8.67368801e-07  1.00252358e-13  4.08103729e-07
atom     12.0006571743     3.8264823555     0.1053033600   Si  0.0 0.0    1.09150463e-06  3.59095163e-13 -1.35172707e-06
atom     13.3658280674     3.8264823555     8.2997136170   Mg  0.0 0.0   -2.05932962e-11  3.68162158e-13 -1.95630140e-11
atom     15.6743774401    -0.0000001746    -0.5812831381   Mg  0.0 0.0   -1.01758470e-08  3.10411475e-13  7.84143416e-07
atom     17.6590322711    -0.0000001746     6.0133903830   Mg  0.0 0.0   -1.03078526e-07  2.56616256e-13  7.27117137e-07
atom     23.0016465689     3.8264823556    -7.0005404393   Mg  0.0 0.0    1.03012999e-07 -2.65688717e-13 -7.27056369e-07
atom     24.9863013910     3.8264823556    -0.4058669078   Mg  0.0 0.0    1.01973010e-08 -3.16744167e-13 -7.84181832e-07
atom     15.0335475444     3.8264823555     3.4700063529   Si  0.0 0.0   -1.09147959e-06  3.49625608e-13  1.35169618e-06
atom     18.8301292596     3.8264823555    -3.1082013626   Si  0.0 0.0   -8.67354885e-07  8.11790334e-14 -4.08111583e-07
atom     19.1527892240     3.8264823555     1.6179418110   Si  0.0 0.0   -1.27432585e-06 -1.04912256e-14  6.04494939e-07
atom     21.5078896071    -0.0000001746    -2.6050918621   Si  0.0 0.0    1.27435310e-06 -6.45035710e-15 -6.04483252e-07
atom     21.8305495731    -0.0000001746     2.1210513113   Si  0.0 0.0    8.67365900e-07 -9.74578244e-14  4.08127167e-07
atom     25.6271312870    -0.0000001746    -4.4571564016   Si  0.0 0.0    1.09150514e-06 -3.53231895e-13 -1.35170138e-06
energy -2.365794515243012e+02
charge 0.0000
end
