begin
comment uuid: 6b33aebd-7345-4f73-a2bf-f34dd1810256 
lattice 27.0372728256 -0.0000000004 -9.2050815968
lattice 0.0000000000 7.7008127029 0.0000000000
lattice -0.3186709916 0.0000000000 13.0832555996
atom   -0.276864    0.000000   12.920529 Al  0.0   0.0  0.0000005350  -0.0000000050  0.0000000200
atom   2.019966    3.850406   4.002666 Mg  0.0   0.0  -0.0015197850  0.0000000150  -0.0038677950
atom   3.968672    3.850406   10.618657 Mg  0.0   0.0  -0.0023560950  0.0000000100  0.0012729650
atom   9.314946    0.000000   -2.463459 Mg  0.0   0.0  -0.0001585450  -0.0000000100  0.0001401400
atom   11.263589    0.000000   4.152617 Mg  0.0   0.0  -0.0003840900  -0.0000000150  -0.0000614450
atom   1.393249    0.000000   8.070019 Si  0.0   0.0  -0.0011768250  -0.0000000150  0.0055203250
atom   5.160176    0.000000   1.449655 Si  0.0   0.0  -0.0037853850  -0.0000000200  -0.0019121550
atom   5.493089    0.000000   6.178589 Si  0.0   0.0  0.0000323300  -0.0000000150  -0.0012009250
atom   7.790393    3.850406   1.976658 Si  0.0   0.0  -0.0008960250  0.0000000150  0.0003642500
atom   8.123320    3.850406   6.705593 Si  0.0   0.0  -0.0000807850  0.0000000200  0.0000468800
atom   11.890230    3.850406   0.085231 Si  0.0   0.0  -0.0001427550  0.0000000150  0.0000762050
atom   13.241773    3.850406   8.317988 Mg  0.0   0.0  -0.0000000000  0.0000000050  0.0000000150
atom   15.538602    0.000000   -0.599874 Mg  0.0   0.0  0.0003841300  -0.0000000150  0.0000614200
atom   17.487308    0.000000   6.016116 Mg  0.0   0.0  0.0001585900  -0.0000000100  -0.0001401500
atom   22.833583    3.850406   -7.066000 Mg  0.0   0.0  0.0023564400  0.0000000100  -0.0012731800
atom   24.782226    3.850406   -0.449924 Mg  0.0   0.0  0.0015197650  0.0000000150  0.0038679100
atom   14.911886    3.850406   3.467478 Si  0.0   0.0  0.0001426650  0.0000000150  -0.0000762300
atom   18.678813    3.850406   -3.152886 Si  0.0   0.0  0.0000806950  0.0000000200  -0.0000470150
atom   19.011726    3.850406   1.576048 Si  0.0   0.0  0.0008958550  0.0000000150  -0.0003642650
atom   21.309029    0.000000   -2.625883 Si  0.0   0.0  -0.0000324450  -0.0000000150  0.0012009650
atom   21.641957    0.000000   2.103052 Si  0.0   0.0  0.0037851650  -0.0000000200  0.0019118450
atom   25.408867    0.000000   -4.517310 Si  0.0   0.0  0.0011765600  -0.0000000150  -0.0055197750
energy -239.503474020000084
charge 0.000000000000000
end
begin
comment uuid: 64d3b649-c300-4bc0-aed0-6963fe115213 
lattice 27.0372728256 -0.0000000004 -9.2050815968
lattice 0.0000000000 7.7008127029 0.0000000000
lattice -0.3186709916 0.0000000000 13.0832555996
atom   -0.276864    0.000000   12.920529 Si  0.0   0.0  0.0000010250  -0.0000000050  -0.0000006100
atom   2.019966    3.850406   4.002666 Mg  0.0   0.0  -0.0027997950  0.0000000150  -0.0053975200
atom   3.968672    3.850406   10.618657 Mg  0.0   0.0  -0.0037181900  0.0000000100  0.0018921150
atom   9.314946    0.000000   -2.463459 Mg  0.0   0.0  -0.0001969800  -0.0000000100  0.0003760350
atom   11.263589    0.000000   4.152617 Mg  0.0   0.0  -0.0005331250  -0.0000000150  -0.0003984800
atom   1.393249    0.000000   8.070019 Si  0.0   0.0  -0.0012820550  -0.0000000150  0.0060984350
atom   5.160176    0.000000   1.449655 Si  0.0   0.0  -0.0030517750  -0.0000000200  -0.0015379400
atom   5.493089    0.000000   6.178589 Si  0.0   0.0  -0.0003979350  -0.0000000150  -0.0022170150
atom   7.790393    3.850406   1.976658 Si  0.0   0.0  -0.0004280750  0.0000000150  -0.0001502650
atom   8.123320    3.850406   6.705593 Si  0.0   0.0  0.0002434150  0.0000000200  0.0001673750
atom   11.890230    3.850406   0.085231 Si  0.0   0.0  0.0007509900  0.0000000150  0.0004263150
atom   13.241773    3.850406   8.317988 Mg  0.0   0.0  -0.0000000100  0.0000000050  0.0000000400
atom   15.538602    0.000000   -0.599874 Mg  0.0   0.0  0.0005331350  -0.0000000150  0.0003984950
atom   17.487308    0.000000   6.016116 Mg  0.0   0.0  0.0001969850  -0.0000000100  -0.0003760050
atom   22.833583    3.850406   -7.066000 Mg  0.0   0.0  0.0037186650  0.0000000100  -0.0018923950
atom   24.782226    3.850406   -0.449924 Mg  0.0   0.0  0.0027997300  0.0000000150  0.0053977000
atom   14.911886    3.850406   3.467478 Si  0.0   0.0  -0.0007512250  0.0000000150  -0.0004263000
atom   18.678813    3.850406   -3.152886 Si  0.0   0.0  -0.0002435600  0.0000000200  -0.0001675400
atom   19.011726    3.850406   1.576048 Si  0.0   0.0  0.0004279150  0.0000000150  0.0001503300
atom   21.309029    0.000000   -2.625883 Si  0.0   0.0  0.0003977950  -0.0000000150  0.0022171500
atom   21.641957    0.000000   2.103052 Si  0.0   0.0  0.0030514250  -0.0000000200  0.0015374850
atom   25.408867    0.000000   -4.517310 Si  0.0   0.0  0.0012816500  -0.0000000150  -0.0060974000
energy -225.440007905000073
charge 0.000000000000000
end
begin
comment uuid: a776acbb-92a6-43fd-87b8-d4c55d44ef8c 
lattice 27.0372728256 -0.0000000004 -9.2050815968
lattice 0.0000000000 7.7008127029 0.0000000000
lattice -0.3186709916 0.0000000000 13.0832555996
atom   -0.276864    0.000000   12.920529 Mg  0.0   0.0  0.0015046550  -0.0000000050  0.0027189000
atom   2.019966    3.850406   4.002666 Al  0.0   0.0  -0.0026673000  0.0000000050  -0.0015387400
atom   3.968672    3.850406   10.618657 Mg  0.0   0.0  0.0002468500  0.0000000100  -0.0001593200
atom   9.314946    0.000000   -2.463459 Mg  0.0   0.0  0.0002748950  -0.0000000100  -0.0001664800
atom   11.263589    0.000000   4.152617 Mg  0.0   0.0  0.0001650700  -0.0000000150  0.0000092250
atom   1.393249    0.000000   8.070019 Si  0.0   0.0  0.0007093050  -0.0000000150  -0.0012460600
atom   5.160176    0.000000   1.449655 Si  0.0   0.0  -0.0025231000  -0.0000000200  0.0031321850
atom   5.493089    0.000000   6.178589 Si  0.0   0.0  -0.0040217000  -0.0000000150  -0.0023327200
atom   7.790393    3.850406   1.976658 Si  0.0   0.0  -0.0004091000  0.0000000200  -0.0008076700
atom   8.123320    3.850406   6.705593 Si  0.0   0.0  0.0008964400  0.0000000200  0.0006415750
atom   11.890230    3.850406   0.085231 Si  0.0   0.0  -0.0002684650  0.0000000150  0.0000903250
atom   13.241773    3.850406   8.317988 Mg  0.0   0.0  -0.0002895350  0.0000000050  -0.0000268100
atom   15.538602    0.000000   -0.599874 Mg  0.0   0.0  -0.0000757700  -0.0000000150  0.0000567500
atom   17.487308    0.000000   6.016116 Mg  0.0   0.0  -0.0001387350  -0.0000000100  -0.0000021450
atom   22.833583    3.850406   -7.066000 Mg  0.0   0.0  0.0001870700  0.0000000100  -0.0001865950
atom   24.782226    3.850406   -0.449924 Mg  0.0   0.0  0.0002433600  0.0000000150  -0.0001933300
atom   14.911886    3.850406   3.467478 Si  0.0   0.0  0.0003922650  0.0000000150  -0.0000910950
atom   18.678813    3.850406   -3.152886 Si  0.0   0.0  -0.0004120250  0.0000000200  -0.0004230800
atom   19.011726    3.850406   1.576048 Si  0.0   0.0  -0.0006176400  0.0000000150  0.0003552850
atom   21.309029    0.000000   -2.625883 Si  0.0   0.0  -0.0001450100  -0.0000000150  0.0007942750
atom   21.641957    0.000000   2.103052 Si  0.0   0.0  0.0011079150  -0.0000000200  0.0002344650
atom   25.408867    0.000000   -4.517310 Si  0.0   0.0  0.0058405550  -0.0000000100  -0.0008589500
energy -239.499378820000089
charge 0.000000000000000
end
begin
comment uuid: b2d8e2e2-eeb1-4406-b835-d7d50b7712f2 
lattice 27.0372728256 -0.0000000004 -9.2050815968
lattice 0.0000000000 7.7008127029 0.0000000000
lattice -0.3186709916 0.0000000000 13.0832555996
atom   -0.276864    0.000000   12.920529 Mg  0.0   0.0  0.0028629000  -0.0000000050  0.0047846850
atom   2.019966    3.850406   4.002666 Si  0.0   0.0  -0.0066200050  -0.0000000000  -0.0035034200
atom   3.968672    3.850406   10.618657 Mg  0.0   0.0  0.0000028700  0.0000000100  -0.0000471550
atom   9.314946    0.000000   -2.463459 Mg  0.0   0.0  0.0001028500  -0.0000000100  -0.0001746250
atom   11.263589    0.000000   4.152617 Mg  0.0   0.0  -0.0001813250  -0.0000000150  0.0000471300
atom   1.393249    0.000000   8.070019 Si  0.0   0.0  0.0004087950  -0.0000000100  -0.0015549650
atom   5.160176    0.000000   1.449655 Si  0.0   0.0  -0.0024257000  -0.0000000150  0.0039681650
atom   5.493089    0.000000   6.178589 Si  0.0   0.0  -0.0050131800  -0.0000000150  -0.0035584050
atom   7.790393    3.850406   1.976658 Si  0.0   0.0  -0.0011921100  0.0000000150  -0.0007005300
atom   8.123320    3.850406   6.705593 Si  0.0   0.0  0.0013963400  0.0000000200  0.0016026400
atom   11.890230    3.850406   0.085231 Si  0.0   0.0  -0.0002876950  0.0000000150  0.0002572500
atom   13.241773    3.850406   8.317988 Mg  0.0   0.0  -0.0004884450  0.0000000050  -0.0000393950
atom   15.538602    0.000000   -0.599874 Mg  0.0   0.0  0.0001600000  -0.0000000150  -0.0000052700
atom   17.487308    0.000000   6.016116 Mg  0.0   0.0  -0.0001290600  -0.0000000100  0.0000173200
atom   22.833583    3.850406   -7.066000 Mg  0.0   0.0  0.0002465500  0.0000000100  -0.0000492200
atom   24.782226    3.850406   -0.449924 Mg  0.0   0.0  0.0011154100  0.0000000150  -0.0009981400
atom   14.911886    3.850406   3.467478 Si  0.0   0.0  0.0003977950  0.0000000150  -0.0002383450
atom   18.678813    3.850406   -3.152886 Si  0.0   0.0  -0.0012338550  0.0000000200  -0.0006746800
atom   19.011726    3.850406   1.576048 Si  0.0   0.0  -0.0003358950  0.0000000200  0.0002054350
atom   21.309029    0.000000   -2.625883 Si  0.0   0.0  -0.0003317750  -0.0000000150  0.0013968450
atom   21.641957    0.000000   2.103052 Si  0.0   0.0  0.0009378350  -0.0000000200  0.0002742650
atom   25.408867    0.000000   -4.517310 Si  0.0   0.0  0.0106077000  -0.0000000100  -0.0010095900
energy -225.429189305000051
charge 0.000000000000000
end
begin
comment uuid: b6c90e7a-f282-40e8-abfc-0792ff91e2f5 
lattice 27.0372728256 -0.0000000004 -9.2050815968
lattice 0.0000000000 7.7008127029 0.0000000000
lattice -0.3186709916 0.0000000000 13.0832555996
atom   -0.276864    0.000000   12.920529 Mg  0.0   0.0  0.0024288350  -0.0000000050  -0.0010501300
atom   2.019966    3.850406   4.002666 Mg  0.0   0.0  0.0006931250  0.0000000150  -0.0009264650
atom   3.968672    3.850406   10.618657 Al  0.0   0.0  -0.0031028350  0.0000000100  0.0010778450
atom   9.314946    0.000000   -2.463459 Mg  0.0   0.0  -0.0029735400  -0.0000000100  -0.0002908000
atom   11.263589    0.000000   4.152617 Mg  0.0   0.0  -0.0003973000  -0.0000000150  -0.0002566650
atom   1.393249    0.000000   8.070019 Si  0.0   0.0  0.0074597650  -0.0000000150  0.0052614300
atom   5.160176    0.000000   1.449655 Si  0.0   0.0  -0.0003595150  -0.0000000150  -0.0046650450
atom   5.493089    0.000000   6.178589 Si  0.0   0.0  0.0008569350  -0.0000000150  0.0005400850
atom   7.790393    3.850406   1.976658 Si  0.0   0.0  -0.0016358750  0.0000000150  0.0001230400
atom   8.123320    3.850406   6.705593 Si  0.0   0.0  -0.0022030300  0.0000000200  0.0013074300
atom   11.890230    3.850406   0.085231 Si  0.0   0.0  0.0000519450  0.0000000150  -0.0002864900
atom   13.241773    3.850406   8.317988 Mg  0.0   0.0  -0.0004469250  0.0000000050  0.0003309650
atom   15.538602    0.000000   -0.599874 Mg  0.0   0.0  0.0000462800  -0.0000000150  0.0000830000
atom   17.487308    0.000000   6.016116 Mg  0.0   0.0  0.0000218650  -0.0000000100  0.0000213150
atom   22.833583    3.850406   -7.066000 Mg  0.0   0.0  -0.0000563850  0.0000000100  -0.0000142000
atom   24.782226    3.850406   -0.449924 Mg  0.0   0.0  -0.0005789600  0.0000000150  -0.0001788250
atom   14.911886    3.850406   3.467478 Si  0.0   0.0  -0.0000721100  0.0000000150  0.0000625400
atom   18.678813    3.850406   -3.152886 Si  0.0   0.0  0.0002520050  0.0000000200  -0.0002737000
atom   19.011726    3.850406   1.576048 Si  0.0   0.0  -0.0002342000  0.0000000150  0.0006173050
atom   21.309029    0.000000   -2.625883 Si  0.0   0.0  0.0001942550  -0.0000000150  -0.0004013100
atom   21.641957    0.000000   2.103052 Si  0.0   0.0  0.0001006150  -0.0000000200  0.0000466450
atom   25.408867    0.000000   -4.517310 Si  0.0   0.0  -0.0000449500  -0.0000000150  -0.0011279650
energy -239.500027925000069
charge 0.000000000000000
end
begin
comment uuid: 7b0775d6-8e42-45e8-b660-1be23caad3b5 
lattice 27.0372728256 -0.0000000004 -9.2050815968
lattice 0.0000000000 7.7008127029 0.0000000000
lattice -0.3186709916 0.0000000000 13.0832555996
atom   -0.276864    0.000000   12.920529 Mg  0.0   0.0  0.0040632000  -0.0000000050  -0.0020984300
atom   2.019966    3.850406   4.002666 Mg  0.0   0.0  0.0010085350  0.0000000150  -0.0010565200
atom   3.968672    3.850406   10.618657 Si  0.0   0.0  -0.0082123450  -0.0000000000  0.0025571100
atom   9.314946    0.000000   -2.463459 Mg  0.0   0.0  -0.0042263150  -0.0000000100  -0.0000442500
atom   11.263589    0.000000   4.152617 Mg  0.0   0.0  -0.0003985150  -0.0000000150  -0.0005123600
atom   1.393249    0.000000   8.070019 Si  0.0   0.0  0.0118433700  -0.0000000100  0.0082037950
atom   5.160176    0.000000   1.449655 Si  0.0   0.0  0.0007970300  -0.0000000150  -0.0064247600
atom   5.493089    0.000000   6.178589 Si  0.0   0.0  0.0007497650  -0.0000000150  0.0004922850
atom   7.790393    3.850406   1.976658 Si  0.0   0.0  -0.0024411250  0.0000000150  -0.0005674500
atom   8.123320    3.850406   6.705593 Si  0.0   0.0  -0.0037650500  0.0000000200  0.0015885000
atom   11.890230    3.850406   0.085231 Si  0.0   0.0  0.0001664600  0.0000000150  -0.0005315650
atom   13.241773    3.850406   8.317988 Mg  0.0   0.0  -0.0002895950  0.0000000050  0.0004096750
atom   15.538602    0.000000   -0.599874 Mg  0.0   0.0  0.0000210850  -0.0000000150  0.0000462600
atom   17.487308    0.000000   6.016116 Mg  0.0   0.0  0.0000346800  -0.0000000100  0.0000966350
atom   22.833583    3.850406   -7.066000 Mg  0.0   0.0  -0.0004187500  0.0000000100  -0.0000538050
atom   24.782226    3.850406   -0.449924 Mg  0.0   0.0  -0.0004192100  0.0000000150  -0.0001306900
atom   14.911886    3.850406   3.467478 Si  0.0   0.0  0.0001476350  0.0000000150  0.0000432900
atom   18.678813    3.850406   -3.152886 Si  0.0   0.0  0.0001807600  0.0000000200  -0.0006195050
atom   19.011726    3.850406   1.576048 Si  0.0   0.0  -0.0000055400  0.0000000150  0.0004762800
atom   21.309029    0.000000   -2.625883 Si  0.0   0.0  -0.0000547400  -0.0000000150  -0.0005232450
atom   21.641957    0.000000   2.103052 Si  0.0   0.0  0.0002230150  -0.0000000200  0.0002707400
atom   25.408867    0.000000   -4.517310 Si  0.0   0.0  0.0009956600  -0.0000000150  -0.0016219900
energy -225.431457205000044
charge 0.000000000000000
end
begin
comment uuid: 8c3c467a-5f28-4a89-a961-06328405fc75 
lattice 27.0372728256 -0.0000000004 -9.2050815968
lattice 0.0000000000 7.7008127029 0.0000000000
lattice -0.3186709916 0.0000000000 13.0832555996
atom   -0.276864    0.000000   12.920529 Mg  0.0   0.0  0.0004470250  -0.0000000050  -0.0003309250
atom   2.019966    3.850406   4.002666 Mg  0.0   0.0  0.0003973400  0.0000000150  0.0002566600
atom   3.968672    3.850406   10.618657 Mg  0.0   0.0  0.0029737800  0.0000000100  0.0002908650
atom   9.314946    0.000000   -2.463459 Al  0.0   0.0  0.0031038950  -0.0000000050  -0.0010780050
atom   11.263589    0.000000   4.152617 Mg  0.0   0.0  -0.0006931000  -0.0000000150  0.0009266900
atom   1.393249    0.000000   8.070019 Si  0.0   0.0  -0.0000520400  -0.0000000150  0.0002865300
atom   5.160176    0.000000   1.449655 Si  0.0   0.0  0.0022029250  -0.0000000200  -0.0013070700
atom   5.493089    0.000000   6.178589 Si  0.0   0.0  0.0016354750  -0.0000000150  -0.0001234150
atom   7.790393    3.850406   1.976658 Si  0.0   0.0  -0.0008570700  0.0000000150  -0.0005398250
atom   8.123320    3.850406   6.705593 Si  0.0   0.0  0.0003592650  0.0000000150  0.0046650600
atom   11.890230    3.850406   0.085231 Si  0.0   0.0  -0.0074599600  0.0000000150  -0.0052619450
atom   13.241773    3.850406   8.317988 Mg  0.0   0.0  -0.0024288200  0.0000000050  0.0010501850
atom   15.538602    0.000000   -0.599874 Mg  0.0   0.0  0.0005790100  -0.0000000150  0.0001787950
atom   17.487308    0.000000   6.016116 Mg  0.0   0.0  0.0000564300  -0.0000000100  0.0000141900
atom   22.833583    3.850406   -7.066000 Mg  0.0   0.0  -0.0000218350  0.0000000100  -0.0000212950
atom   24.782226    3.850406   -0.449924 Mg  0.0   0.0  -0.0000462450  0.0000000150  -0.0000830250
atom   14.911886    3.850406   3.467478 Si  0.0   0.0  0.0000448200  0.0000000150  0.0011280200
atom   18.678813    3.850406   -3.152886 Si  0.0   0.0  -0.0001007200  0.0000000200  -0.0000466450
atom   19.011726    3.850406   1.576048 Si  0.0   0.0  -0.0001942800  0.0000000150  0.0004013400
atom   21.309029    0.000000   -2.625883 Si  0.0   0.0  0.0002342000  -0.0000000150  -0.0006173350
atom   21.641957    0.000000   2.103052 Si  0.0   0.0  -0.0002520150  -0.0000000200  0.0002736700
atom   25.408867    0.000000   -4.517310 Si  0.0   0.0  0.0000719250  -0.0000000150  -0.0000625100
energy -239.500028730000054
charge 0.000000000000000
end
begin
comment uuid: ed50e8db-99a7-4912-bc49-89c122c1485f 
lattice 27.0372728256 -0.0000000004 -9.2050815968
lattice 0.0000000000 7.7008127029 0.0000000000
lattice -0.3186709916 0.0000000000 13.0832555996
atom   -0.276864    0.000000   12.920529 Mg  0.0   0.0  0.0002897600  -0.0000000050  -0.0004095900
atom   2.019966    3.850406   4.002666 Mg  0.0   0.0  0.0003985800  0.0000000150  0.0005123950
atom   3.968672    3.850406   10.618657 Mg  0.0   0.0  0.0042265250  0.0000000100  0.0000443850
atom   9.314946    0.000000   -2.463459 Si  0.0   0.0  0.0082144550  0.0000000000  -0.0025582700
atom   11.263589    0.000000   4.152617 Mg  0.0   0.0  -0.0010085600  -0.0000000150  0.0010569550
atom   1.393249    0.000000   8.070019 Si  0.0   0.0  -0.0001665750  -0.0000000150  0.0005317000
atom   5.160176    0.000000   1.449655 Si  0.0   0.0  0.0037647400  -0.0000000200  -0.0015875950
atom   5.493089    0.000000   6.178589 Si  0.0   0.0  0.0024406750  -0.0000000150  0.0005666100
atom   7.790393    3.850406   1.976658 Si  0.0   0.0  -0.0007499000  0.0000000150  -0.0004915700
atom   8.123320    3.850406   6.705593 Si  0.0   0.0  -0.0007976450  0.0000000150  0.0064245700
atom   11.890230    3.850406   0.085231 Si  0.0   0.0  -0.0118439300  0.0000000100  -0.0082047300
atom   13.241773    3.850406   8.317988 Mg  0.0   0.0  -0.0040633250  0.0000000050  0.0020986400
atom   15.538602    0.000000   -0.599874 Mg  0.0   0.0  0.0004192450  -0.0000000150  0.0001306100
atom   17.487308    0.000000   6.016116 Mg  0.0   0.0  0.0004188750  -0.0000000100  0.0000538700
atom   22.833583    3.850406   -7.066000 Mg  0.0   0.0  -0.0000346200  0.0000000100  -0.0000965750
atom   24.782226    3.850406   -0.449924 Mg  0.0   0.0  -0.0000210350  0.0000000150  -0.0000462600
atom   14.911886    3.850406   3.467478 Si  0.0   0.0  -0.0009959500  0.0000000150  0.0016221150
atom   18.678813    3.850406   -3.152886 Si  0.0   0.0  -0.0002232050  0.0000000200  -0.0002706950
atom   19.011726    3.850406   1.576048 Si  0.0   0.0  0.0000548100  0.0000000150  0.0005233250
atom   21.309029    0.000000   -2.625883 Si  0.0   0.0  0.0000055950  -0.0000000150  -0.0004762150
atom   21.641957    0.000000   2.103052 Si  0.0   0.0  -0.0001807300  -0.0000000200  0.0006195400
atom   25.408867    0.000000   -4.517310 Si  0.0   0.0  -0.0001478000  -0.0000000150  -0.0000432100
energy -225.431458865000053
charge 0.000000000000000
end
begin
comment uuid: eae77dfe-489f-443b-b233-0203a9e25a2d 
lattice 27.0372728256 -0.0000000004 -9.2050815968
lattice 0.0000000000 7.7008127029 0.0000000000
lattice -0.3186709916 0.0000000000 13.0832555996
atom   -0.276864    0.000000   12.920529 Mg  0.0   0.0  0.0002896050  -0.0000000050  0.0000268250
atom   2.019966    3.850406   4.002666 Mg  0.0   0.0  -0.0001650200  0.0000000150  -0.0000092100
atom   3.968672    3.850406   10.618657 Mg  0.0   0.0  -0.0002748800  0.0000000100  0.0001665100
atom   9.314946    0.000000   -2.463459 Mg  0.0   0.0  -0.0002468000  -0.0000000100  0.0001592150
atom   11.263589    0.000000   4.152617 Al  0.0   0.0  0.0026681000  -0.0000000050  0.0015390050
atom   1.393249    0.000000   8.070019 Si  0.0   0.0  0.0002684400  -0.0000000150  -0.0000903050
atom   5.160176    0.000000   1.449655 Si  0.0   0.0  -0.0008963400  -0.0000000200  -0.0006416250
atom   5.493089    0.000000   6.178589 Si  0.0   0.0  0.0004090400  -0.0000000200  0.0008076450
atom   7.790393    3.850406   1.976658 Si  0.0   0.0  0.0040214350  0.0000000150  0.0023326250
atom   8.123320    3.850406   6.705593 Si  0.0   0.0  0.0025234350  0.0000000200  -0.0031323300
atom   11.890230    3.850406   0.085231 Si  0.0   0.0  -0.0007097450  0.0000000150  0.0012458150
atom   13.241773    3.850406   8.317988 Mg  0.0   0.0  -0.0015046000  0.0000000050  -0.0027187700
atom   15.538602    0.000000   -0.599874 Mg  0.0   0.0  -0.0002433500  -0.0000000150  0.0001932350
atom   17.487308    0.000000   6.016116 Mg  0.0   0.0  -0.0001869250  -0.0000000100  0.0001866800
atom   22.833583    3.850406   -7.066000 Mg  0.0   0.0  0.0001387700  0.0000000100  0.0000021600
atom   24.782226    3.850406   -0.449924 Mg  0.0   0.0  0.0000758150  0.0000000150  -0.0000567700
atom   14.911886    3.850406   3.467478 Si  0.0   0.0  -0.0058411900  0.0000000100  0.0008592050
atom   18.678813    3.850406   -3.152886 Si  0.0   0.0  -0.0011079400  0.0000000200  -0.0002345000
atom   19.011726    3.850406   1.576048 Si  0.0   0.0  0.0001450100  0.0000000150  -0.0007943150
atom   21.309029    0.000000   -2.625883 Si  0.0   0.0  0.0006175700  -0.0000000150  -0.0003553050
atom   21.641957    0.000000   2.103052 Si  0.0   0.0  0.0004120200  -0.0000000200  0.0004230500
atom   25.408867    0.000000   -4.517310 Si  0.0   0.0  -0.0003924450  -0.0000000150  0.0000911550
energy -239.499378820000089
charge 0.000000000000000
end
begin
comment uuid: be5ec900-39c3-46af-b670-aa58c1847be4 
lattice 27.0372728256 -0.0000000004 -9.2050815968
lattice 0.0000000000 7.7008127029 0.0000000000
lattice -0.3186709916 0.0000000000 13.0832555996
atom   -0.276864    0.000000   12.920529 Mg  0.0   0.0  0.0004885050  -0.0000000050  0.0000393600
atom   2.019966    3.850406   4.002666 Mg  0.0   0.0  0.0001813550  0.0000000150  -0.0000471450
atom   3.968672    3.850406   10.618657 Mg  0.0   0.0  -0.0001028500  0.0000000100  0.0001745950
atom   9.314946    0.000000   -2.463459 Mg  0.0   0.0  -0.0000027950  -0.0000000100  0.0000469800
atom   11.263589    0.000000   4.152617 Si  0.0   0.0  0.0066214850  0.0000000000  0.0035047900
atom   1.393249    0.000000   8.070019 Si  0.0   0.0  0.0002877500  -0.0000000150  -0.0002572250
atom   5.160176    0.000000   1.449655 Si  0.0   0.0  -0.0013961500  -0.0000000200  -0.0016027750
atom   5.493089    0.000000   6.178589 Si  0.0   0.0  0.0011919500  -0.0000000150  0.0007005100
atom   7.790393    3.850406   1.976658 Si  0.0   0.0  0.0050126550  0.0000000150  0.0035580500
atom   8.123320    3.850406   6.705593 Si  0.0   0.0  0.0024261050  0.0000000150  -0.0039682800
atom   11.890230    3.850406   0.085231 Si  0.0   0.0  -0.0004095050  0.0000000100  0.0015543750
atom   13.241773    3.850406   8.317988 Mg  0.0   0.0  -0.0028629050  0.0000000050  -0.0047845650
atom   15.538602    0.000000   -0.599874 Mg  0.0   0.0  -0.0011154450  -0.0000000150  0.0009979300
atom   17.487308    0.000000   6.016116 Mg  0.0   0.0  -0.0002463000  -0.0000000100  0.0000493650
atom   22.833583    3.850406   -7.066000 Mg  0.0   0.0  0.0001290650  0.0000000100  -0.0000173350
atom   24.782226    3.850406   -0.449924 Mg  0.0   0.0  -0.0001599250  0.0000000150  0.0000052150
atom   14.911886    3.850406   3.467478 Si  0.0   0.0  -0.0106086900  0.0000000100  0.0010099100
atom   18.678813    3.850406   -3.152886 Si  0.0   0.0  -0.0009378750  0.0000000200  -0.0002743600
atom   19.011726    3.850406   1.576048 Si  0.0   0.0  0.0003317850  0.0000000150  -0.0013969000
atom   21.309029    0.000000   -2.625883 Si  0.0   0.0  0.0003358550  -0.0000000200  -0.0002055750
atom   21.641957    0.000000   2.103052 Si  0.0   0.0  0.0012339050  -0.0000000200  0.0006746800
atom   25.408867    0.000000   -4.517310 Si  0.0   0.0  -0.0003979800  -0.0000000150  0.0002383900
energy -225.429189550000075
charge 0.000000000000000
end
begin
comment uuid: 0ad53347-9dec-4abf-bd29-b6a97ef33f1f 
lattice 27.0372728256 -0.0000000004 -9.2050815968
lattice 0.0000000000 7.7008127029 0.0000000000
lattice -0.3186709916 0.0000000000 13.0832555996
atom   -0.276864    0.000000   12.920529 Mg  0.0   0.0  -0.0020594650  -0.0000000050  0.0042053550
atom   2.019966    3.850406   4.002666 Mg  0.0   0.0  -0.0004678550  0.0000000150  -0.0008805700
atom   3.968672    3.850406   10.618657 Mg  0.0   0.0  0.0038955950  0.0000000150  0.0039282300
atom   9.314946    0.000000   -2.463459 Mg  0.0   0.0  -0.0002935050  -0.0000000100  0.0003337200
atom   11.263589    0.000000   4.152617 Mg  0.0   0.0  -0.0002905950  -0.0000000150  0.0000459750
atom   1.393249    0.000000   8.070019 Al  0.0   0.0  -0.0037913850  -0.0000000200  0.0051557200
atom   5.160176    0.000000   1.449655 Si  0.0   0.0  0.0017860050  -0.0000000200  0.0001066100
atom   5.493089    0.000000   6.178589 Si  0.0   0.0  0.0106646100  -0.0000000150  -0.0032250100
atom   7.790393    3.850406   1.976658 Si  0.0   0.0  0.0005210600  0.0000000150  -0.0004368700
atom   8.123320    3.850406   6.705593 Si  0.0   0.0  0.0022492300  0.0000000200  -0.0003166950
atom   11.890230    3.850406   0.085231 Si  0.0   0.0  0.0005173500  0.0000000150  0.0000961500
atom   13.241773    3.850406   8.317988 Mg  0.0   0.0  -0.0001868050  0.0000000050  -0.0002252750
atom   15.538602    0.000000   -0.599874 Mg  0.0   0.0  0.0002245950  -0.0000000150  0.0003885250
atom   17.487308    0.000000   6.016116 Mg  0.0   0.0  -0.0003092950  -0.0000000100  -0.0005033000
atom   22.833583    3.850406   -7.066000 Mg  0.0   0.0  -0.0002804250  0.0000000100  -0.0000119750
atom   24.782226    3.850406   -0.449924 Mg  0.0   0.0  -0.0031499300  0.0000000150  0.0001443100
atom   14.911886    3.850406   3.467478 Si  0.0   0.0  -0.0002126700  0.0000000150  -0.0007923800
atom   18.678813    3.850406   -3.152886 Si  0.0   0.0  0.0001312100  0.0000000200  -0.0007531250
atom   19.011726    3.850406   1.576048 Si  0.0   0.0  -0.0009089450  0.0000000150  -0.0001553700
atom   21.309029    0.000000   -2.625883 Si  0.0   0.0  -0.0007633400  -0.0000000150  0.0003387100
atom   21.641957    0.000000   2.103052 Si  0.0   0.0  -0.0018736650  -0.0000000200  -0.0010436700
atom   25.408867    0.000000   -4.517310 Si  0.0   0.0  -0.0054017750  -0.0000000150  -0.0063990600
energy -250.611019505000087
charge 0.000000000000000
end
begin
comment uuid: 99580180-b3ad-4cd9-9ae2-6b0d82ca9b14 
lattice 27.0372728256 -0.0000000004 -9.2050815968
lattice 0.0000000000 7.7008127029 0.0000000000
lattice -0.3186709916 0.0000000000 13.0832555996
atom   -0.276864    0.000000   12.920529 Mg  0.0   0.0  -0.0048690750  -0.0000000050  0.0112273750
atom   2.019966    3.850406   4.002666 Mg  0.0   0.0  -0.0011916300  0.0000000150  -0.0027345550
atom   3.968672    3.850406   10.618657 Mg  0.0   0.0  0.0087949100  0.0000000150  0.0073175750
atom   9.314946    0.000000   -2.463459 Mg  0.0   0.0  -0.0008295000  -0.0000000100  0.0002816050
atom   11.263589    0.000000   4.152617 Mg  0.0   0.0  -0.0009228500  -0.0000000150  0.0005341800
atom   1.393249    0.000000   8.070019 Mg  0.0   0.0  -0.0046074850  -0.0000000200  0.0141616600
atom   5.160176    0.000000   1.449655 Si  0.0   0.0  0.0017878100  -0.0000000200  -0.0009917000
atom   5.493089    0.000000   6.178589 Si  0.0   0.0  0.0238052500  -0.0000000150  -0.0062839600
atom   7.790393    3.850406   1.976658 Si  0.0   0.0  0.0004320550  0.0000000150  -0.0009071300
atom   8.123320    3.850406   6.705593 Si  0.0   0.0  0.0045381050  0.0000000200  -0.0010049200
atom   11.890230    3.850406   0.085231 Si  0.0   0.0  0.0007741550  0.0000000150  0.0003500600
atom   13.241773    3.850406   8.317988 Mg  0.0   0.0  -0.0001589400  0.0000000050  -0.0004524500
atom   15.538602    0.000000   -0.599874 Mg  0.0   0.0  0.0006707100  -0.0000000150  0.0005017500
atom   17.487308    0.000000   6.016116 Mg  0.0   0.0  -0.0005941400  -0.0000000100  -0.0006845300
atom   22.833583    3.850406   -7.066000 Mg  0.0   0.0  0.0001067150  0.0000000100  0.0012405850
atom   24.782226    3.850406   -0.449924 Mg  0.0   0.0  -0.0080640700  0.0000000150  -0.0007531750
atom   14.911886    3.850406   3.467478 Si  0.0   0.0  -0.0003944500  0.0000000150  -0.0010764450
atom   18.678813    3.850406   -3.152886 Si  0.0   0.0  -0.0007739350  0.0000000200  -0.0012901200
atom   19.011726    3.850406   1.576048 Si  0.0   0.0  -0.0016964650  0.0000000150  -0.0008976450
atom   21.309029    0.000000   -2.625883 Si  0.0   0.0  0.0005002950  -0.0000000150  -0.0003116200
atom   21.641957    0.000000   2.103052 Si  0.0   0.0  -0.0020904850  -0.0000000200  -0.0025323700
atom   25.408867    0.000000   -4.517310 Si  0.0   0.0  -0.0152169800  -0.0000000150  -0.0156941750
energy -247.636384320000047
charge 0.000000000000000
end
begin
comment uuid: d803dd55-1678-4d4b-869b-bacecc0e00d0 
lattice 27.0372728256 -0.0000000004 -9.2050815968
lattice 0.0000000000 7.7008127029 0.0000000000
lattice -0.3186709916 0.0000000000 13.0832555996
atom   -0.276864    0.000000   12.920529 Mg  0.0   0.0  -0.0030002900  -0.0000000050  -0.0014847150
atom   2.019966    3.850406   4.002666 Mg  0.0   0.0  -0.0015304650  0.0000000150  0.0012072400
atom   3.968672    3.850406   10.618657 Mg  0.0   0.0  -0.0001267050  0.0000000150  -0.0019814600
atom   9.314946    0.000000   -2.463459 Mg  0.0   0.0  -0.0001139250  -0.0000000100  -0.0014581300
atom   11.263589    0.000000   4.152617 Mg  0.0   0.0  -0.0015602100  -0.0000000150  -0.0005153150
atom   1.393249    0.000000   8.070019 Si  0.0   0.0  -0.0023813550  -0.0000000150  0.0013845000
atom   5.160176    0.000000   1.449655 Al  0.0   0.0  -0.0031195450  -0.0000000300  -0.0066189300
atom   5.493089    0.000000   6.178589 Si  0.0   0.0  -0.0005881650  -0.0000000150  0.0080953700
atom   7.790393    3.850406   1.976658 Si  0.0   0.0  0.0083837900  0.0000000250  -0.0015704050