begin
comment uuid: 2de31ede-4cd9-4681-ab6d-28c194209012 parent_uuid: 46939af9-eee4-4d42-a067-25e919f9bf55 trajectory_step: final_scf
lattice     13.6011824865     0.0000000028    -0.0000000000
lattice     -6.8005912407    11.7789697612    -0.0000000001
lattice     -0.0000000000     0.0000000001    22.9752153498
atom      3.4877903490     8.0023516907     1.8876960864   Mg  0.0 0.0    6.93647009e-07 -8.60576719e-09 -1.32608240e-07
atom     -1.8735437203    10.7983092183     1.8876960839   Mg  0.0 0.0   -3.39486062e-07  6.05070269e-07 -1.32715990e-07
atom     -1.6142468745     4.7572788744     1.8876960876   Mg  0.0 0.0   -3.54323981e-07 -5.96360581e-07 -1.32557521e-07
atom      2.8283732540     3.1735284814     5.7438039340   Mg  0.0 0.0   -5.64738163e-07  1.61408463e-06 -1.23770439e-15
atom      9.4386395607     0.8626790890     5.7438039340   Mg  0.0 0.0   -1.11560290e-06 -1.29605854e-06 -9.69440189e-16
atom      8.1347606446     7.7427624500     5.7438039340   Mg  0.0 0.0    1.68013541e-06 -3.17904167e-07 -1.05587021e-15
atom      3.4877903490     8.0023516908     9.5999117815   Mg  0.0 0.0    6.93647015e-07 -8.60576358e-09  1.32608241e-07
atom     -1.8735437203    10.7983092183     9.5999117840   Mg  0.0 0.0   -3.39486062e-07  6.05070265e-07  1.32715995e-07
atom     -1.6142468745     4.7572788744     9.5999117804   Mg  0.0 0.0   -3.54323988e-07 -5.96360557e-07  1.32557490e-07
atom      3.3128007235     3.7766182556    13.3753037643   Mg  0.0 0.0   -6.93648032e-07  8.59971176e-09 -1.32614191e-07
atom      8.6741347894     0.9806607240    13.3753037618   Mg  0.0 0.0    3.39491810e-07 -6.05068119e-07 -1.32721946e-07
atom      8.4148379488     7.0216910670    13.3753037654   Mg  0.0 0.0    3.54319257e-07  5.96364458e-07 -1.32563428e-07
atom      3.9722178246     8.6054414690    17.2314116089   Mg  0.0 0.0    5.64724966e-07 -1.61409858e-06  2.75999196e-15
atom     -2.6380484981    10.9162908566    17.2314116089   Mg  0.0 0.0    1.11562159e-06  1.29605412e-06  2.64918688e-15
atom     -1.3341695699     4.0362074841    17.2314116089   Mg  0.0 0.0   -1.68014090e-06  3.17922593e-07  2.59711937e-15
atom      3.3128007235     3.7766182557    21.0875194534   Mg  0.0 0.0   -6.93648023e-07  8.59972159e-09  1.32614181e-07
atom      8.6741347894     0.9806607240    21.0875194559   Mg  0.0 0.0    3.39491801e-07 -6.05068122e-07  1.32721932e-07
atom      8.4148379488     7.0216910670    21.0875194523   Mg  0.0 0.0    3.54319254e-07  5.96364475e-07  1.32563451e-07
atom     -0.0000001113     0.0000000899     2.2716804339   Si  0.0 0.0   -1.09461182e-10  6.87252572e-11  2.41411485e-07
atom      6.8005911543     3.9263233440     2.0429998115   Si  0.0 0.0   -3.49619358e-11  3.28114418e-11  2.71992843e-07
atom     -0.0000000956     7.8526465927     5.7438039340   Si  0.0 0.0   -5.74016638e-11  9.39425132e-11 -7.14281917e-15
atom     -0.0000001113     0.0000000899     9.2159274341   Si  0.0 0.0   -1.09461798e-10  6.87441033e-11 -2.41411472e-07
atom     -0.0000000625     0.0000000866    13.7592880916   Si  0.0 0.0    1.09463174e-10 -6.87746680e-11  2.41445878e-07
atom      6.8005911543     3.9263233441     9.4446080564   Si  0.0 0.0   -3.49607062e-11  3.28143235e-11 -2.71992850e-07
atom     -0.0000000823     7.8526465993    13.5306074889   Si  0.0 0.0    3.49579982e-11 -3.28089756e-11  2.71987693e-07
atom     -0.0000000625     0.0000000866    20.7035351262   Si  0.0 0.0    1.09457650e-10 -6.87548474e-11 -2.41445860e-07
atom      6.8005911676     3.9263233507    17.2314116088   Si  0.0 0.0    5.73949481e-11 -9.39395613e-11  2.32476142e-15
atom     -0.0000000823     7.8526465993    20.9322157288   Si  0.0 0.0    3.49589034e-11 -3.28059470e-11 -2.71987693e-07
energy -3.597668588110483e+02
charge 0.0000
end
