begin
comment uuid: 214987d9-9043-440d-af0a-812ec59364b7 parent_uuid: 00284ee1-6af0-439a-857f-64d2dfa5a7e3 trajectory_step: final_scf
lattice     27.5573251446     0.0000000001    -7.8066469382
lattice     -0.0000000000     7.6738215807    -0.0000000000
lattice     -0.1138095462     0.0000000000    12.5995486413
atom     -0.0736381426     0.0000000235    12.4443233057   Al  0.0 0.0   -2.10799079e-14  1.81102439e-13 -2.26133635e-12
atom      2.0108285418     3.8369108139     3.6057486732   Mg  0.0 0.0    5.09078883e-07  1.37773939e-13 -4.02611757e-07
atom      4.1689624176     3.8369108139    10.1383465607   Mg  0.0 0.0   -2.39713805e-07  1.20347249e-13 -3.29270977e-08
atom      9.5762334155     0.0000000236    -1.7525720597   Mg  0.0 0.0    2.39715402e-07 -1.31675641e-13  3.29228643e-08
atom     11.7343672917     0.0000000236     4.7800258275   Mg  0.0 0.0   -5.09079676e-07 -1.40180248e-13  4.02608281e-07
atom      1.5068544636     0.0000000235     7.7725441228   Si  0.0 0.0    1.32038660e-07  1.65172823e-13 -1.74000598e-06
atom      5.0415384694     0.0000000236     1.1280307549   Si  0.0 0.0    1.16981078e-06  5.89844080e-14  7.73843186e-07
atom      5.8536688677     0.0000000236     5.9121327538   Al  0.0 0.0   -1.73497723e-06 -9.91380402e-15  1.14815245e-07
atom      7.8915269657     3.8369108139     2.4736417472   Al  0.0 0.0    1.73497710e-06 -2.23454088e-15 -1.14819613e-07
atom      8.7036573640     3.8369108139     7.2577437460   Si  0.0 0.0   -1.16981048e-06 -7.03073850e-14 -7.73847393e-07
atom     12.2383413697     3.8369108140     0.6132303776   Si  0.0 0.0   -1.32038025e-07 -1.72856104e-13  1.74000436e-06
atom     13.7050244298     3.8369108140     8.5409998359   Al  0.0 0.0    2.16723222e-14 -1.81543305e-13  1.47548332e-12
atom     15.7894911140     0.0000000236    -0.2975747970   Mg  0.0 0.0    5.09080105e-07 -1.51399511e-13 -4.02605327e-07
atom     17.9476249902     0.0000000237     6.2350230905   Mg  0.0 0.0   -2.39715308e-07 -9.16054978e-14 -3.29203872e-08
atom     23.3548959883     3.8369108140    -5.6558955293   Mg  0.0 0.0    2.39712101e-07  1.02891690e-13  3.29259719e-08
atom     25.5130298639     3.8369108140     0.8767023587   Mg  0.0 0.0   -5.09079159e-07  1.53835726e-13  4.02606944e-07
atom     15.2855170360     3.8369108140     3.8692206529   Si  0.0 0.0    1.32038324e-07 -1.28516082e-13 -1.74000145e-06
atom     18.8202010417     3.8369108140    -2.7752927153   Si  0.0 0.0    1.16981050e-06 -4.20449026e-14  7.73849557e-07
atom     19.6323314400     3.8369108140     2.0088092837   Al  0.0 0.0   -1.73497702e-06  6.18011912e-15  1.14821509e-07
atom     21.6701895379     0.0000000236    -1.4296817225   Al  0.0 0.0    1.73497791e-06  5.98219209e-15 -1.14815724e-07
atom     22.4823199363     0.0000000237     3.3544202765   Si  0.0 0.0   -1.16981021e-06  5.39366254e-14 -7.73844165e-07
atom     26.0170039422     0.0000000236    -3.2900930910   Si  0.0 0.0   -1.32038858e-07  1.36669612e-13  1.74000176e-06
energy -2.986864422006077e+02
charge 0.0000
end
