begin
comment uuid: 2de31ede-4cd9-4681-ab6d-28c194209012 parent_uuid: 46939af9-eee4-4d42-a067-25e919f9bf55 trajectory_step: final_scf
lattice     13.8083230453    -0.0000000005    -0.0000000000
lattice     -6.9041615230    11.9583584228    -0.0000000001
lattice     -0.0000000000     0.0000000001    21.7927464170
atom      3.6212156913     8.1502272658     1.7737014347   Mg  0.0 0.0    2.15848877e-07  8.23199507e-08  3.96356134e-07
atom     -1.9647502982    11.0193097515     1.7737014437   Mg  0.0 0.0   -1.79200259e-07  1.45758295e-07  3.96379859e-07
atom     -1.6564656521     4.7471800818     1.7737014201   Mg  0.0 0.0   -3.66213082e-08 -2.28114563e-07  3.96337314e-07
atom      2.8870296793     3.3581739885     5.4481866958   Mg  0.0 0.0    3.46526597e-07  1.76751535e-07  2.16614316e-14
atom      9.4565441482     0.8211542347     5.4481866958   Mg  0.0 0.0   -3.26309258e-07  2.11711584e-07  2.14218116e-14
atom      8.3689105040     7.7790304536     5.4481866958   Mg  0.0 0.0   -2.01694075e-08 -3.88500529e-07  2.24197970e-14
atom      3.6212156913     8.1502272658     9.1226719568   Mg  0.0 0.0    2.15848719e-07  8.23197688e-08 -3.96356059e-07
atom     -1.9647502982    11.0193097515     9.1226719478   Mg  0.0 0.0   -1.79200035e-07  1.45758243e-07 -3.96379776e-07
atom     -1.6564656521     4.7471800818     9.1226719714   Mg  0.0 0.0   -3.66213916e-08 -2.28114301e-07 -3.96337260e-07
atom      3.2829456577     3.8081313581    12.6700746631   Mg  0.0 0.0   -2.15826701e-07 -8.21811011e-08  3.96493587e-07
atom      8.8689116251     0.9390488449    12.6700746721   Mg  0.0 0.0    1.79068998e-07 -1.45808732e-07  3.96517308e-07
atom      8.5606270139     7.2111785093    12.6700746485   Mg  0.0 0.0    3.67305207e-08  2.28026136e-07  3.96474825e-07
atom      4.0171317154     8.6001846753    16.3445599043   Mg  0.0 0.0   -3.46187240e-07 -1.76330845e-07 -1.68386359e-14
atom     -2.5523828786    11.1372043815    16.3445599043   Mg  0.0 0.0    3.25775297e-07 -2.11628004e-07 -1.59949107e-14
atom     -1.4647491307     4.1793280781    16.3445599043   Mg  0.0 0.0    2.03640016e-08  3.87996461e-07 -2.05352938e-14
atom      3.2829456576     3.8081313582    20.0190451454   Mg  0.0 0.0   -2.15826857e-07 -8.21812965e-08 -3.96493641e-07
atom      8.8689116251     0.9390488449    20.0190451365   Mg  0.0 0.0    1.79069236e-07 -1.45808792e-07 -3.96517372e-07
atom      8.5606270139     7.2111785093    20.0190451601   Mg  0.0 0.0    3.67304380e-08  2.28026401e-07 -3.96474854e-07
atom     -0.0000000706     0.0000000716     2.2455762170   Si  0.0 0.0    2.03332800e-11 -2.51323613e-11  9.39037334e-07
atom      6.9041614360     3.9861195625     1.9977776027   Si  0.0 0.0    5.04287525e-12 -7.32729035e-12  1.05392571e-06
atom     -0.0000000788     7.9722390238     5.4481866958   Si  0.0 0.0    7.33743717e-12 -2.83342852e-11  1.07920938e-13
atom     -0.0000000706     0.0000000716     8.6507971746   Si  0.0 0.0    2.03483836e-11 -2.51357937e-11 -9.39039022e-07
atom     -0.0000001059     0.0000001104    13.1419492337   Si  0.0 0.0   -2.03048012e-11  2.50050541e-11  9.37692435e-07
atom      6.9041614360     3.9861195626     8.8985957888   Si  0.0 0.0    5.04295837e-12 -7.31688176e-12 -1.05392559e-06
atom     -0.0000000901     7.9722390413    12.8941508333   Si  0.0 0.0   -5.09353820e-12  7.31889749e-12  1.05407314e-06
atom     -0.0000001059     0.0000001104    19.5471705749   Si  0.0 0.0   -2.03644166e-11  2.50836134e-11 -9.37690851e-07
atom      6.9041614247     3.9861195800    16.3445599043   Si  0.0 0.0   -7.48043471e-12  2.83054887e-11 -9.26265995e-14
atom     -0.0000000901     7.9722390413    19.7949689753   Si  0.0 0.0   -5.08876241e-12  7.32215764e-12 -1.05407325e-06
energy -3.597997207218910e+02
charge 0.0000
end
