begin
comment uuid: 214987d9-9043-440d-af0a-812ec59364b7 parent_uuid: 00284ee1-6af0-439a-857f-64d2dfa5a7e3 trajectory_step: final_scf
lattice     27.4841493030     0.0000000002    -7.8194519869
lattice     -0.0000000001     7.7995499048    -0.0000000003
lattice     -0.1507741683    -0.0000000004    12.4887263536
atom     -0.1102690000    -0.0000000000    12.3347870000   Al  0.0 0.0   -1.10970265e-06  1.03661082e-09 -2.71245401e-07
atom      1.9583800000     3.8997750000     3.6072050000   Mg  0.0 0.0    8.01843951e-04 -2.00879097e-09 -2.79856205e-04
atom      4.0867740000     3.8997750000    10.0389700000   Mg  0.0 0.0    8.58540386e-04 -2.18935359e-09  1.31023600e-04
atom      9.5856190000    -0.0000000000    -1.7679640000   Mg  0.0 0.0   -8.61430163e-04  2.19127809e-09 -1.31807123e-04
atom     11.7139720000     0.0000000000     4.6639470000   Mg  0.0 0.0   -8.04670299e-04  2.00927401e-09  2.78940182e-04
atom      1.5238540000    -0.0000000000     7.7012450000   Si  0.0 0.0   -4.31005015e-04  2.12384265e-09 -9.07166897e-04
atom      5.0339660000     0.0000000000     1.1331970000   Si  0.0 0.0   -2.64966063e-03  2.78307079e-09 -1.73939262e-03
atom      5.9302470000     0.0000000000     5.8851170000   Al  0.0 0.0   -4.55727956e-03  2.59644278e-09 -4.58571824e-04
atom      7.7420020000     3.8997750000     2.3858890000   Al  0.0 0.0    4.55506148e-03 -2.59643554e-09  4.57899410e-04
atom      8.6382370000     3.8997750000     7.1377640000   Si  0.0 0.0    2.65354688e-03 -2.78334519e-09  1.74324857e-03
atom     12.1483510000     3.8997750000     0.5698470000   Si  0.0 0.0    4.36123701e-04 -2.12661714e-09  9.05948599e-04
atom     13.6318050000     3.8997750000     8.4250610000   Al  0.0 0.0   -1.08812816e-06 -1.04695652e-09 -2.74839606e-07
atom     15.7004540000    -0.0000000000    -0.3025210000   Mg  0.0 0.0    8.01861822e-04  2.01320834e-09 -2.79855976e-04
atom     17.8288490000     0.0000000000     6.1292440000   Mg  0.0 0.0    8.58517668e-04  2.18041930e-09  1.31019963e-04
atom     23.3276940000     3.8997750000    -5.6776900000   Mg  0.0 0.0   -8.61434746e-04 -2.17904552e-09 -1.31803604e-04
atom     25.4560470000     3.8997750000     0.7542210000   Mg  0.0 0.0   -8.04673221e-04 -2.00537377e-09  2.78943457e-04
atom     15.2659280000     3.8997750000     3.7915190000   Si  0.0 0.0   -4.30947144e-04 -2.12851622e-09 -9.07160925e-04
atom     18.7760400000     3.8997750000    -2.7765290000   Si  0.0 0.0   -2.64962533e-03 -2.77617231e-09 -1.73938084e-03
atom     19.6723220000     3.8997750000     1.9753910000   Al  0.0 0.0   -4.55733946e-03 -2.60075946e-09 -4.58576499e-04
atom     21.4840770000    -0.0000000000    -1.5238370000   Al  0.0 0.0    4.55503503e-03  2.60089891e-09  4.57884894e-04
atom     22.3803110000     0.0000000000     3.2280380000   Si  0.0 0.0    2.65359982e-03  2.77589933e-09  1.74325681e-03
atom     25.8904260000    -0.0000000000    -3.3398790000   Si  0.0 0.0    4.36132649e-04  2.13042129e-09  9.05953107e-04
energy -2.986844123019952e+02
charge 0.0000
end
