begin
comment uuid: 2de31ede-4cd9-4681-ab6d-28c194209012 parent_uuid: 46939af9-eee4-4d42-a067-25e919f9bf55 trajectory_step: final_scf
lattice     13.8083230453    -0.0000000005    -0.0000000000
lattice     -6.9041615230    11.9583584228    -0.0000000001
lattice     -0.0000000000     0.0000000001    21.7927464170
atom      3.6212156913     8.1502272658     1.7737014347   Mg  0.0 0.0    2.15848880e-07  8.23199547e-08  3.96356135e-07
atom     -1.9647502982    11.0193097515     1.7737014437   Mg  0.0 0.0   -1.79200295e-07  1.45758300e-07  3.96379862e-07
atom     -1.6564656521     4.7471800818     1.7737014201   Mg  0.0 0.0   -3.66213247e-08 -2.28114522e-07  3.96337309e-07
atom      2.8870296793     3.3581739885     5.4481866958   Mg  0.0 0.0    3.46526595e-07  1.76751540e-07  2.20393568e-14
atom      9.4565441482     0.8211542347     5.4481866958   Mg  0.0 0.0   -3.26309259e-07  2.11711587e-07  4.18270044e-14
atom      8.3689105040     7.7790304536     5.4481866958   Mg  0.0 0.0   -2.01694095e-08 -3.88500533e-07  1.64212439e-15
atom      3.6212156913     8.1502272658     9.1226719568   Mg  0.0 0.0    2.15848711e-07  8.23197624e-08 -3.96356056e-07
atom     -1.9647502982    11.0193097515     9.1226719478   Mg  0.0 0.0   -1.79199974e-07  1.45758233e-07 -3.96379754e-07
atom     -1.6564656521     4.7471800818     9.1226719714   Mg  0.0 0.0   -3.66213694e-08 -2.28114369e-07 -3.96337285e-07
atom      3.2829456577     3.8081313581    12.6700746631   Mg  0.0 0.0   -2.15826695e-07 -8.21810952e-08  3.96493585e-07
atom      8.8689116251     0.9390488449    12.6700746721   Mg  0.0 0.0    1.79068960e-07 -1.45808730e-07  3.96517288e-07
atom      8.5606270139     7.2111785093    12.6700746485   Mg  0.0 0.0    3.67305057e-08  2.28026179e-07  3.96474847e-07
atom      4.0171317154     8.6001846753    16.3445599043   Mg  0.0 0.0   -3.46187237e-07 -1.76330849e-07 -1.72996837e-14
atom     -2.5523828786    11.1372043815    16.3445599043   Mg  0.0 0.0    3.25775296e-07 -2.11628008e-07 -2.76772401e-14
atom     -1.4647491307     4.1793280781    16.3445599043   Mg  0.0 0.0    2.03640033e-08  3.87996465e-07 -8.36735498e-15
atom      3.2829456576     3.8081313582    20.0190451454   Mg  0.0 0.0   -2.15826856e-07 -8.21812980e-08 -3.96493640e-07
atom      8.8689116251     0.9390488449    20.0190451365   Mg  0.0 0.0    1.79069247e-07 -1.45808791e-07 -3.96517373e-07
atom      8.5606270139     7.2111785093    20.0190451601   Mg  0.0 0.0    3.67304466e-08  2.28026388e-07 -3.96474852e-07
atom     -0.0000000706     0.0000000716     2.2455762170   Si  0.0 0.0    2.03282230e-11 -2.51217658e-11  9.39037341e-07
atom      6.9041614360     3.9861195625     1.9977776027   Si  0.0 0.0    5.04388352e-12 -7.31460478e-12  1.05392571e-06
atom     -0.0000000788     7.9722390238     5.4481866958   Si  0.0 0.0    7.33399134e-12 -2.83259016e-11  1.06668858e-13
atom     -0.0000000706     0.0000000716     8.6507971746   Si  0.0 0.0    2.02673516e-11 -2.50502714e-11 -9.39039025e-07
atom     -0.0000001059     0.0000001104    13.1419492337   Si  0.0 0.0   -2.03680368e-11  2.50713296e-11  9.37692436e-07
atom      6.9041614360     3.9861195626     8.8985957888   Si  0.0 0.0    5.04912459e-12 -7.33657382e-12 -1.05392559e-06
atom     -0.0000000901     7.9722390413    12.8941508333   Si  0.0 0.0   -5.09121508e-12  7.33357680e-12  1.05407314e-06
atom     -0.0000001059     0.0000001104    19.5471705749   Si  0.0 0.0   -2.02138311e-11  2.49177770e-11 -9.37690857e-07
atom      6.9041614247     3.9861195800    16.3445599043   Si  0.0 0.0   -7.48105219e-12  2.82982767e-11 -9.05410365e-14
atom     -0.0000000901     7.9722390413    19.7949689753   Si  0.0 0.0   -5.09463500e-12  7.31475861e-12 -1.05407325e-06
energy -3.597997207218910e+02
charge 0.0000
end
