begin
comment uuid: d7dac1cb-ee87-4461-ab4a-7b9936f14816 parent_uuid: 4c3843d7-8355-4b7b-b4e8-830f92b1b176 trajectory_step: final_scf
lattice     27.8920162632    -0.0000000001    -7.8251997061
lattice      0.0000000000     7.6379069655     0.0000000001
lattice     -0.0456175338    -0.0000000001    12.8730376049
atom     -0.0057544934    -0.0000000395    12.7146557653   Mg  0.0 0.0   -4.21374002e-12 -5.06213928e-13  8.90492168e-12
atom      2.1065818507     3.8189534433     3.8712699008   Mg  0.0 0.0   -8.19604386e-07 -4.15613310e-13 -4.64187509e-07
atom      4.3040318050     3.8189534432    10.3805606129   Mg  0.0 0.0   -8.77053532e-07 -1.82438599e-13 -3.52047217e-07
atom      9.6760848734    -0.0000000396    -1.7368865335   Mg  0.0 0.0    8.77047143e-07  4.79045444e-13  3.52036502e-07
atom     11.8735348279    -0.0000000396     4.7724041787   Mg  0.0 0.0    8.19605979e-07  5.16040282e-13  4.64156221e-07
atom      1.6047840259    -0.0000000395     7.8684837006   Si  0.0 0.0    1.12175393e-06 -3.96257442e-13  8.82745994e-07
atom      5.2221251770    -0.0000000395     1.2428739863   Si  0.0 0.0   -5.84813277e-07  9.98072748e-15  3.51282431e-07
atom      6.0148859177    -0.0000000396     6.0743817110   Al  0.0 0.0    1.02243130e-06  1.81794730e-13  2.60389914e-07
atom      7.9652307607     3.8189534432     2.5692923689   Al  0.0 0.0   -1.02242856e-06  1.81500125e-13 -2.60404250e-07
atom      8.7579915017     3.8189534431     7.4008000932   Si  0.0 0.0    5.84811758e-07  3.42842700e-13 -3.51295776e-07
atom     12.3753326519     3.8189534431     0.7751903775   Si  0.0 0.0   -1.12174748e-06  5.52468527e-13 -8.82758504e-07
atom     13.9402536385     3.8189534431     8.8020559172   Mg  0.0 0.0   -6.04580130e-12  5.06147420e-13 -2.10790929e-11
atom     16.0525899819    -0.0000000396    -0.0413299482   Mg  0.0 0.0   -8.19601515e-07  4.27215426e-13 -4.64211369e-07
atom     18.2500399383    -0.0000000396     6.4679607588   Mg  0.0 0.0   -8.77064531e-07  2.10074808e-13 -3.52037887e-07
atom     23.6220930045     3.8189534433    -5.6494863922   Mg  0.0 0.0    8.77050087e-07 -5.06359679e-13  3.52074173e-07
atom     25.8195429590     3.8189534432     0.8598043188   Mg  0.0 0.0    8.19609468e-07 -5.27774923e-13  4.64199119e-07
atom     15.5507921579     3.8189534431     3.9558838512   Si  0.0 0.0    1.12175078e-06  4.01859606e-13  8.82724585e-07
atom     19.1681333079     3.8189534432    -2.6697258681   Si  0.0 0.0   -5.84808392e-07 -3.48075127e-14  3.51294053e-07
atom     19.9608940485     3.8189534432     2.1617818558   Al  0.0 0.0    1.02243660e-06 -2.04093197e-13  2.60406593e-07
atom     21.9112388924    -0.0000000395    -1.3433074894   Al  0.0 0.0   -1.02242881e-06 -1.59054911e-13 -2.60369110e-07
atom     22.7039996331    -0.0000000395     3.4882002349   Si  0.0 0.0    5.84813494e-07 -3.17713665e-13 -3.51260808e-07
atom     26.3213407838    -0.0000000395    -3.1374094809   Si  0.0 0.0   -1.12174980e-06 -5.58178532e-13 -8.82724980e-07
energy -2.928221898358225e+02
charge 0.0000
end
