begin
comment uuid: d7dac1cb-ee87-4461-ab4a-7b9936f14816 parent_uuid: 4c3843d7-8355-4b7b-b4e8-830f92b1b176 trajectory_step: final_scf
lattice     27.9034359104    -0.0000000015    -7.8194272980
lattice     -0.0000000004     7.6778121620     0.0000000000
lattice     -0.0561859628    -0.0000000002    12.8259389961
atom     -0.0161710000    -0.0000000000    12.6681120000   Mg  0.0 0.0   -1.19150001e-07 -1.83863351e-09 -1.67042800e-07
atom      2.0894050000     3.8389060000     3.8613850000   Mg  0.0 0.0    1.02582526e-03  3.31860967e-09 -1.32540376e-04
atom      4.2769530000     3.8389060000    10.3430660000   Mg  0.0 0.0    1.59535050e-03  3.10087439e-09 -2.12263962e-04
atom      9.6986060000     0.0000000000    -1.7425290000   Mg  0.0 0.0   -1.59617719e-03 -3.10197471e-09  2.12273286e-04
atom     11.8861370000    -0.0000000000     4.7391860000   Mg  0.0 0.0   -1.02661221e-03 -3.29871236e-09  1.32602960e-04
atom      1.6135760000    -0.0000000000     7.8328790000   Si  0.0 0.0   -8.74909252e-04 -3.17040209e-09 -2.72385926e-04
atom      5.2178020000    -0.0000000000     1.2374370000   Si  0.0 0.0   -3.08635212e-03 -4.36978677e-09 -1.95279485e-03
atom      6.0502260000     0.0000000000     6.0678970000   Al  0.0 0.0   -5.38972781e-03 -4.63834104e-09 -8.21552881e-04
atom      7.9252920000     3.8389060000     2.5326650000   Al  0.0 0.0    5.38950281e-03  4.63955071e-09  8.21907745e-04
atom      8.7577440000     3.8389060000     7.3631170000   Si  0.0 0.0    3.08538105e-03  4.37006696e-09  1.95261467e-03
atom     12.3619050000     3.8389060000     0.7676710000   Si  0.0 0.0    8.77838228e-04  3.18820091e-09  2.72260052e-04
atom     13.9355470000     3.8389060000     8.7583980000   Mg  0.0 0.0   -1.25620668e-07  1.85360907e-09 -1.40751579e-07
atom     16.0411230000     0.0000000000    -0.0483290000   Mg  0.0 0.0    1.02582323e-03 -3.29386440e-09 -1.32534531e-04
atom     18.2286710000     0.0000000000     6.4333530000   Mg  0.0 0.0    1.59534415e-03 -3.10303868e-09 -2.12289399e-04
atom     23.6503240000     3.8389060000    -5.6522430000   Mg  0.0 0.0   -1.59617697e-03  3.09932244e-09  2.12276753e-04
atom     25.8378550000     3.8389060000     0.8294720000   Mg  0.0 0.0   -1.02661405e-03  3.26560559e-09  1.32610561e-04
atom     15.5652940000     3.8389060000     3.9231650000   Si  0.0 0.0   -8.74901906e-04  3.18792325e-09 -2.72356076e-04
atom     19.1695200000     3.8389060000    -2.6722770000   Si  0.0 0.0   -3.08634638e-03  4.36567728e-09 -1.95275619e-03
atom     20.0019440000     3.8389060000     2.1581840000   Al  0.0 0.0   -5.38973120e-03  4.63166640e-09 -8.21603245e-04
atom     21.8770100000     0.0000000000    -1.3770490000   Al  0.0 0.0    5.38949910e-03 -4.63249110e-09  8.21918715e-04
atom     22.7094620000    -0.0000000000     3.4534030000   Si  0.0 0.0    3.08538363e-03 -4.36746606e-09  1.95262472e-03
atom     26.3136230000     0.0000000000    -3.1420430000   Si  0.0 0.0    8.77845910e-04 -3.20639622e-09  2.72295772e-04
energy -2.928231575040347e+02
charge 0.0000
end
