begin
comment uuid: 2de31ede-4cd9-4681-ab6d-28c194209012 parent_uuid: 46939af9-eee4-4d42-a067-25e919f9bf55 trajectory_step: final_scf
lattice     13.8684403285     0.0000000062     0.0000000000
lattice     -6.9342201588    12.0104232393    -0.0000000001
lattice      0.0000000000     0.0000000001    20.5218206585
atom      3.7251234836     8.2843034519     1.6016750857   Mg  0.0 0.0   -5.23866679e-07  1.02814184e-06  1.79929598e-08
atom     -2.1027580629    11.0943237133     1.6016749298   Mg  0.0 0.0   -6.29224059e-07 -9.67573304e-07  1.68713691e-08
atom     -1.6223657778     4.6422196877     1.6016752084   Mg  0.0 0.0    1.15221273e-06 -5.99854410e-08  1.82551298e-08
atom      2.8890678993     3.4059204812     5.1304552508   Mg  0.0 0.0   -1.16049555e-06 -7.24033896e-07 -2.44935191e-14
atom      9.4742926805     0.7990465225     5.1304552508   Mg  0.0 0.0    1.20657493e-06 -6.42821144e-07 -2.28366249e-14
atom      8.4392990734     7.8054565945     5.1304552508   Mg  0.0 0.0   -4.71009265e-08  1.36745683e-06 -2.45214180e-14
atom      3.7251234836     8.2843034519     8.6592354159   Mg  0.0 0.0   -5.23866634e-07  1.02814194e-06 -1.79930031e-08
atom     -2.1027580629    11.0943237133     8.6592355718   Mg  0.0 0.0   -6.29224176e-07 -9.67573324e-07 -1.68714118e-08
atom     -1.6223657778     4.6422196877     8.6592352932   Mg  0.0 0.0    1.15221279e-06 -5.99855180e-08 -1.82551705e-08
atom      3.2090965897     3.7261202629    11.8625856132   Mg  0.0 0.0    5.25278687e-07 -1.02317499e-06  2.14126512e-08
atom      9.0369777664     0.9160996410    11.8625854573   Mg  0.0 0.0    6.24227986e-07  9.66298174e-07  2.02942269e-08
atom      8.5565859785     7.3682035264    11.8625857359   Mg  0.0 0.0   -1.14862052e-06  5.63093342e-08  2.16825912e-08
atom      4.0451525106     8.6045034557    15.3913655801   Mg  0.0 0.0    1.16771143e-06  7.32837429e-07  4.21935057e-14
atom     -2.5400733377    11.2113770124    15.3913655801   Mg  0.0 0.0   -1.21779817e-06  6.44649986e-07  4.08007468e-14
atom     -1.5050788486     4.2049662171    15.3913655801   Mg  0.0 0.0    5.11156547e-08 -1.37808508e-06  4.30989660e-14
atom      3.2090965897     3.7261202629    18.9201455469   Mg  0.0 0.0    5.25278828e-07 -1.02317487e-06 -2.14126761e-08
atom      9.0369777664     0.9160996411    18.9201457029   Mg  0.0 0.0    6.24227803e-07  9.66298228e-07 -2.02942518e-08
atom      8.5565859785     7.3682035264    18.9201454243   Mg  0.0 0.0   -1.14862049e-06  5.63091640e-08 -2.16826190e-08
atom     -0.0000004056     0.0000002571     2.2787299810   Si  0.0 0.0   -8.07322545e-10  4.50788553e-10 -1.75335590e-06
atom      6.9342200546     4.0034745742     1.9576103193   Si  0.0 0.0   -1.99641545e-10  1.19566570e-10 -1.15151418e-06
atom     -0.0000002402     8.0069490310     5.1304552508   Si  0.0 0.0   -4.24959637e-10  8.27739563e-10 -4.20599412e-14
atom     -0.0000004056     0.0000002571     7.9821805205   Si  0.0 0.0   -8.07325026e-10  4.50790539e-10  1.75335647e-06
atom      0.0000002284    -0.0000000745    12.5396381605   Si  0.0 0.0    8.07533336e-10 -4.76904771e-10 -1.79053177e-06
atom      6.9342200546     4.0034745742     8.3033001823   Si  0.0 0.0   -1.99641113e-10  1.19571399e-10  1.15151416e-06
atom     -0.0000000620     8.0069488536    12.2185209523   Si  0.0 0.0    1.89729447e-10 -1.14445613e-10 -1.14628080e-06
atom      0.0000002284    -0.0000000745    18.2430929998   Si  0.0 0.0    8.07531237e-10 -4.76903150e-10  1.79053137e-06
atom      6.9342202328     4.0034743967    15.3913655801   Si  0.0 0.0    4.20715730e-10 -8.21115005e-10  8.89846607e-14
atom     -0.0000000620     8.0069488536    18.5642102079   Si  0.0 0.0    1.89730184e-10 -1.14441031e-10  1.14628075e-06
energy -3.598121377097246e+02
charge 0.0000
end
