begin
comment uuid: d0dc4e30-e6d6-4620-8877-255d426671bb parent_uuid: a92eb12b-a1c1-421e-9fbe-b522f1045a85 trajectory_step: final_scf
lattice     27.2474858498    -0.0000000002    -9.1136641203
lattice      0.0000000001     7.6431044982     0.0000000000
lattice     -0.2944102731     0.0000000000    13.0319058486
atom     -0.2526085865    -0.0000001742    12.8698884269   Mg  0.0 0.0   -2.37060969e-13 -1.33702334e-13  4.33229997e-12
atom      1.9793697850     3.8215520749     3.8566347272   Mg  0.0 0.0   -9.92181471e-07 -1.10614939e-13 -7.96967667e-07
atom      4.0239477115     3.8215520749    10.6162105373   Mg  0.0 0.0   -1.53714339e-06 -9.55948444e-14 -7.16670084e-07
atom      9.3889883135    -0.0000001743    -2.4651715897   Mg  0.0 0.0    1.53714296e-06  9.82666289e-14  7.16668883e-07
atom     11.4335662400    -0.0000001743     4.2944042204   Mg  0.0 0.0    9.92182117e-07  1.11681496e-13  7.96964848e-07
atom      1.4161006504    -0.0000001742     8.0271884871   Si  0.0 0.0   -4.13567397e-07 -1.31628024e-13 -3.40883903e-07
atom      5.2267774925    -0.0000001743     1.4362756632   Si  0.0 0.0    9.95161409e-07 -3.63165881e-14 -1.83766594e-07
atom      5.5020134378    -0.0000001743     6.1447525780   Si  0.0 0.0    5.04714195e-07  1.28432723e-14 -5.12058842e-07
atom      7.9109225873     3.8215520748     2.0062863699   Si  0.0 0.0   -5.04714198e-07 -9.29743298e-15  5.12055517e-07
atom      8.1861585327     3.8215520748     6.7147632846   Si  0.0 0.0   -9.95161837e-07  3.99961242e-14  1.83763515e-07
atom     11.9968353745     3.8215520748     0.1238504603   Si  0.0 0.0    4.13568478e-07  1.32606525e-13  3.40882699e-07
atom     13.3711343385     3.8215520748     8.3130563691   Mg  0.0 0.0   -5.77796273e-13  1.33872463e-13 -5.16886860e-12
atom     15.6031127101    -0.0000001744    -0.7001973302   Mg  0.0 0.0   -9.92181870e-07  1.13453884e-13 -7.96978439e-07
atom     17.6476906371    -0.0000001744     6.0593784780   Mg  0.0 0.0   -1.53714640e-06  9.52598971e-14 -7.16672108e-07
atom     23.0127312382     3.8215520747    -7.0220036517   Mg  0.0 0.0    1.53714343e-06 -9.80227398e-14  7.16677824e-07
atom     25.0573091647     3.8215520747    -0.2624278428   Mg  0.0 0.0    9.92183167e-07 -1.14123858e-13  7.96977540e-07
atom     15.0398435757     3.8215520747     3.4703564291   Si  0.0 0.0   -4.13568952e-07  1.30763053e-13 -3.40892246e-07
atom     18.8505204169     3.8215520747    -3.1205563962   Si  0.0 0.0    9.95163608e-07  3.60721116e-14 -1.83768437e-07
atom     19.1257563628     3.8215520747     1.5879205185   Si  0.0 0.0    5.04714346e-07 -1.27732657e-14 -5.12060389e-07
atom     21.5346655120    -0.0000001744    -2.5505456921   Si  0.0 0.0   -5.04713318e-07  8.68147994e-15  5.12064181e-07
atom     21.8099014579    -0.0000001744     2.1579312226   Si  0.0 0.0   -9.95163196e-07 -3.94438575e-14  1.83772071e-07
atom     25.6205782992    -0.0000001744    -4.4329816021   Si  0.0 0.0    4.13569130e-07 -1.32052569e-13  3.40892468e-07
energy -2.365803535954275e+02
charge 0.0000
end
