begin
comment uuid: 2de31ede-4cd9-4681-ab6d-28c194209012 parent_uuid: 46939af9-eee4-4d42-a067-25e919f9bf55 trajectory_step: final_scf
lattice     13.8082882481    -0.0000000004    -0.0000000000
lattice     -6.9041441242    11.9583282865    -0.0000000001
lattice     -0.0000000000     0.0000000001    21.7928707613
atom      3.6211938664     8.1502099261     1.7737242140   Mg  0.0 0.0    2.79792921e-07 -6.12070935e-08 -2.91632655e-07
atom     -1.9647417679    11.0192693837     1.7737242233   Mg  0.0 0.0   -8.68708036e-08  2.72903330e-07 -2.91612427e-07
atom     -1.6564523569     4.7471775164     1.7737241991   Mg  0.0 0.0   -1.92891791e-07 -2.11728750e-07 -2.91652115e-07
atom      2.8870407252     3.3581348815     5.4482177819   Mg  0.0 0.0   -3.06323218e-07  9.12100818e-07  5.50791400e-16
atom      9.4565376960     0.8211833539     5.4482177819   Mg  0.0 0.0   -6.36722398e-07 -7.21346500e-07  2.56013542e-15
atom      8.3688537155     7.7790103047     5.4482177819   Mg  0.0 0.0    9.43085887e-07 -1.90793998e-07 -4.00154306e-15
atom      3.6211938663     8.1502099261     9.1227113497   Mg  0.0 0.0    2.79792926e-07 -6.12070893e-08  2.91632667e-07
atom     -1.9647417679    11.0192693837     9.1227113403   Mg  0.0 0.0   -8.68707983e-08  2.72903323e-07  2.91612439e-07
atom     -1.6564523569     4.7471775164     9.1227113646   Mg  0.0 0.0   -1.92891783e-07 -2.11728772e-07  2.91652124e-07
atom      3.2829500863     3.8081185751    12.6701596278   Mg  0.0 0.0   -2.79756077e-07  6.14424461e-08 -2.91400852e-07
atom      8.8688856836     0.9390590717    12.6701596372   Mg  0.0 0.0    8.66485593e-08 -2.72989085e-07 -2.91380622e-07
atom      8.5605963307     7.2111509300    12.6701596129   Mg  0.0 0.0    1.93077188e-07  2.11579161e-07 -2.91420310e-07
atom      4.0171033037     8.6001936865    16.3446531626   Mg  0.0 0.0    3.06893302e-07 -9.11398645e-07  2.66706755e-15
atom     -2.5523938762    11.1371451342    16.3446531626   Mg  0.0 0.0    6.35829253e-07  7.21489114e-07  3.23254065e-15
atom     -1.4647097220     4.1793180422    16.3446531626   Mg  0.0 0.0   -9.42762826e-07  1.89949197e-07  4.20635927e-17
atom      3.2829500863     3.8081185751    20.0191466973   Mg  0.0 0.0   -2.79756076e-07  6.14424447e-08  2.91400861e-07
atom      8.8688856836     0.9390590717    20.0191466879   Mg  0.0 0.0    8.66485490e-08 -2.72989087e-07  2.91380635e-07
atom      8.5605963307     7.2111509300    20.0191467122   Mg  0.0 0.0    1.93077179e-07  2.11579180e-07  2.91420319e-07
atom     -0.0000000702     0.0000000711     2.2455947965   Si  0.0 0.0    1.93353858e-11 -2.18624633e-11 -1.78425203e-06
atom      6.9041440375     3.9861095170     1.9977968160   Si  0.0 0.0    6.02222229e-12 -7.88382894e-12 -2.72691443e-07
atom     -0.0000000785     7.9722189325     5.4482177818   Si  0.0 0.0    8.77080659e-12 -2.65565554e-11  7.33821521e-15
atom     -0.0000000702     0.0000000711     8.6508407673   Si  0.0 0.0    1.94080428e-11 -2.19451027e-11  1.78425200e-06
atom     -0.0000001062     0.0000001108    13.1420298560   Si  0.0 0.0   -1.93995524e-11  2.19373432e-11 -1.78650317e-06
atom      6.9041440375     3.9861095171     8.8986387477   Si  0.0 0.0    6.02221474e-12 -7.87902508e-12  2.72691450e-07
atom     -0.0000000901     7.9722189506    12.8942322333   Si  0.0 0.0   -6.01980093e-12  7.88063437e-12 -2.72435790e-07
atom     -0.0000001062     0.0000001108    19.5472764691   Si  0.0 0.0   -1.93383037e-11  2.18700561e-11  1.78650311e-06
atom      6.9041440259     3.9861095351    16.3446531626   Si  0.0 0.0   -8.77033160e-12  2.65547653e-11  8.65694084e-15
atom     -0.0000000901     7.9722189506    19.7950740918   Si  0.0 0.0   -6.02603624e-12  7.89164548e-12  2.72435797e-07
energy -3.597997201643171e+02
charge 0.0000
end
