begin
comment uuid: d0dc4e30-e6d6-4620-8877-255d426671bb parent_uuid: a92eb12b-a1c1-421e-9fbe-b522f1045a85 trajectory_step: final_scf
lattice     27.3407851423    -0.0000000002    -9.1651680685
lattice      0.0000000001     7.6308372072     0.0000000000
lattice     -0.3199088178     0.0000000000    13.0333769622
atom     -0.2776836793    -0.0000001739    12.8712700570   Mg  0.0 0.0    3.40903214e-13 -8.34247679e-14  5.42808492e-12
atom      2.0151399192     3.8154184297     3.9199975450   Mg  0.0 0.0   -4.89231252e-10 -6.71202480e-14  1.54257967e-07
atom      4.0326553546     3.8154184297    10.6045323313   Mg  0.0 0.0    7.12524161e-07 -5.82048212e-14  4.15743483e-07
atom      9.4022786756    -0.0000001740    -2.4779532106   Mg  0.0 0.0   -7.12522457e-07  6.08444691e-14 -4.15747533e-07
atom     11.4197941113    -0.0000001740     4.2065815752   Mg  0.0 0.0    4.88354746e-10  6.84491677e-14 -1.54258474e-07
atom      1.4041863343    -0.0000001739     8.0295567285   Si  0.0 0.0    6.97101960e-07 -7.94288104e-14 -2.90711681e-07
atom      5.2179401988    -0.0000001740     1.4392615255   Si  0.0 0.0    1.62167272e-06 -2.17420818e-14  7.25358749e-07
atom      5.5017614565    -0.0000001740     6.1543503328   Si  0.0 0.0   -1.15855573e-07  5.82189263e-15  3.37943606e-07
atom      7.9331725740     3.8154184296     1.9722287878   Si  0.0 0.0    1.15854817e-07 -2.14712475e-15 -3.37947208e-07
atom      8.2169938316     3.8154184296     6.6873175951   Si  0.0 0.0   -1.62167327e-06  2.53555859e-14 -7.25362098e-07
atom     12.0307476960     3.8154184296     0.0970223917   Si  0.0 0.0   -6.97101774e-07  8.10436037e-14  2.90711094e-07
atom     13.3927088919     3.8154184296     8.2886860252   Mg  0.0 0.0    2.12720652e-13  8.34076980e-14 -5.14990104e-12
atom     15.6855324904    -0.0000001741    -0.6625864867   Mg  0.0 0.0   -4.89316313e-10  6.74212343e-14  1.54247344e-07
atom     17.7030479261    -0.0000001741     6.0219482981   Mg  0.0 0.0    7.12522460e-07  5.61195300e-14  4.15739864e-07
atom     23.0726712467     3.8154184295    -7.0605372470   Mg  0.0 0.0   -7.12522690e-07 -5.85077564e-14 -4.15737310e-07
atom     25.0901866822     3.8154184295    -0.3760024620   Mg  0.0 0.0    4.89612317e-10 -6.89867165e-14 -1.54245469e-07
atom     15.0745789057     3.8154184296     3.4469726965   Si  0.0 0.0    6.97100614e-07  7.71253998e-14 -2.90721163e-07
atom     18.8883327695     3.8154184295    -3.1433225078   Si  0.0 0.0    1.62167485e-06  1.93105804e-14  7.25355811e-07
atom     19.1721540276     3.8154184295     1.5717662994   Si  0.0 0.0   -1.15855143e-07 -5.23967921e-15  3.37941152e-07
atom     21.6035651450    -0.0000001741    -2.6103552484   Si  0.0 0.0    1.15855268e-07  1.55041952e-15 -3.37937759e-07
atom     21.8873864031    -0.0000001741     2.1047335589   Si  0.0 0.0   -1.62167451e-06 -2.30666354e-14 -7.25352748e-07
atom     25.7011402670    -0.0000001741    -4.4855616451   Si  0.0 0.0   -6.97101414e-07 -7.82604582e-14  2.90722093e-07
energy -2.365807819504794e+02
charge 0.0000
end
