begin
comment uuid: 2de31ede-4cd9-4681-ab6d-28c194209012 parent_uuid: 46939af9-eee4-4d42-a067-25e919f9bf55 trajectory_step: final_scf
lattice     13.8082882481    -0.0000000004    -0.0000000000
lattice     -6.9041441242    11.9583282865    -0.0000000001
lattice     -0.0000000000     0.0000000001    21.7928707613
atom      3.6211938664     8.1502099261     1.7737242140   Mg  0.0 0.0    2.79792920e-07 -6.12070929e-08 -2.91632655e-07
atom     -1.9647417679    11.0192693837     1.7737242233   Mg  0.0 0.0   -8.68708135e-08  2.72903332e-07 -2.91612431e-07
atom     -1.6564523569     4.7471775164     1.7737241991   Mg  0.0 0.0   -1.92891795e-07 -2.11728739e-07 -2.91652110e-07
atom      2.8870407252     3.3581348815     5.4482177819   Mg  0.0 0.0   -3.06323220e-07  9.12100821e-07  1.19934765e-15
atom      9.4565376960     0.8211833539     5.4482177819   Mg  0.0 0.0   -6.36722405e-07 -7.21346497e-07  6.05566271e-15
atom      8.3688537155     7.7790103047     5.4482177819   Mg  0.0 0.0    9.43085882e-07 -1.90793992e-07 -5.88423547e-15
atom      3.6211938663     8.1502099261     9.1227113497   Mg  0.0 0.0    2.79792925e-07 -6.12070869e-08  2.91632665e-07
atom     -1.9647417679    11.0192693837     9.1227113403   Mg  0.0 0.0   -8.68707973e-08  2.72903326e-07  2.91612446e-07
atom     -1.6564523569     4.7471775164     9.1227113646   Mg  0.0 0.0   -1.92891782e-07 -2.11728775e-07  2.91652114e-07
atom      3.2829500863     3.8081185751    12.6701596278   Mg  0.0 0.0   -2.79756077e-07  6.14424442e-08 -2.91400853e-07
atom      8.8688856836     0.9390590717    12.6701596372   Mg  0.0 0.0    8.66485566e-08 -2.72989087e-07 -2.91380632e-07
atom      8.5605963307     7.2111509300    12.6701596129   Mg  0.0 0.0    1.93077186e-07  2.11579166e-07 -2.91420302e-07
atom      4.0171033037     8.6001936865    16.3446531626   Mg  0.0 0.0    3.06893305e-07 -9.11398649e-07  3.18909613e-15
atom     -2.5523938762    11.1371451342    16.3446531626   Mg  0.0 0.0    6.35829260e-07  7.21489112e-07  8.39093945e-16
atom     -1.4647097220     4.1793180422    16.3446531626   Mg  0.0 0.0   -9.42762820e-07  1.89949191e-07  5.07910298e-15
atom      3.2829500863     3.8081185751    20.0191466973   Mg  0.0 0.0   -2.79756077e-07  6.14424427e-08  2.91400861e-07
atom      8.8688856836     0.9390590717    20.0191466879   Mg  0.0 0.0    8.66485613e-08 -2.72989090e-07  2.91380639e-07
atom      8.5605963307     7.2111509300    20.0191467122   Mg  0.0 0.0    1.93077186e-07  2.11579165e-07  2.91420315e-07
atom     -0.0000000702     0.0000000711     2.2455947965   Si  0.0 0.0    1.94210959e-11 -2.19589649e-11 -1.78425203e-06
atom      6.9041440375     3.9861095170     1.9977968160   Si  0.0 0.0    6.01843858e-12 -7.88110963e-12 -2.72691442e-07
atom     -0.0000000785     7.9722189325     5.4482177818   Si  0.0 0.0    8.77094476e-12 -2.65487893e-11  6.92243471e-15
atom     -0.0000000702     0.0000000711     8.6508407673   Si  0.0 0.0    1.94398973e-11 -2.19805779e-11  1.78425200e-06
atom     -0.0000001062     0.0000001108    13.1420298560   Si  0.0 0.0   -1.93381374e-11  2.18680563e-11 -1.78650317e-06
atom      6.9041440375     3.9861095171     8.8986387477   Si  0.0 0.0    6.02197616e-12 -7.88307166e-12  2.72691449e-07
atom     -0.0000000901     7.9722189506    12.8942322333   Si  0.0 0.0   -6.01899777e-12  7.88595857e-12 -2.72435788e-07
atom     -0.0000001062     0.0000001108    19.5472764691   Si  0.0 0.0   -1.95202606e-11  2.20756820e-11  1.78650310e-06
atom      6.9041440259     3.9861095351    16.3446531626   Si  0.0 0.0   -8.76900163e-12  2.65444904e-11  7.82903463e-15
atom     -0.0000000901     7.9722189506    19.7950740918   Si  0.0 0.0   -6.02057819e-12  7.88558937e-12  2.72435796e-07
energy -3.597997201643171e+02
charge 0.0000
end
