begin
comment uuid: 2de31ede-4cd9-4681-ab6d-28c194209012 parent_uuid: 46939af9-eee4-4d42-a067-25e919f9bf55 trajectory_step: final_scf
lattice     13.5623732934     0.0000000001    -0.0000000000
lattice     -6.7811866465    11.7453597843    -0.0000000001
lattice     -0.0000000000     0.0000000001    22.9829452069
atom      3.4564503617     7.9928060248     1.9018868666   Mg  0.0 0.0    4.45167461e-07  2.44982274e-07  5.48654131e-07
atom     -1.8690116535    10.7423307869     1.9018868791   Mg  0.0 0.0   -4.34757989e-07  2.63045894e-07  5.48639929e-07
atom     -1.5874389474     4.7555830048     1.9018868546   Mg  0.0 0.0   -1.04340329e-08 -5.08004649e-07  5.48666530e-07
atom      2.8336278989     3.1426948759     5.7457363983   Mg  0.0 0.0    5.14266090e-07 -1.47170956e-06 -1.58867484e-14
atom      9.4239057027     0.8826465017     5.7457363983   Mg  0.0 0.0    1.01739012e-06  1.18123420e-06 -1.35933007e-14
atom      8.0860261092     7.7200186484     5.7457363983   Mg  0.0 0.0   -1.53168829e-06  2.90505131e-07 -1.79239318e-14
atom      3.4564503617     7.9928060248     9.5895859300   Mg  0.0 0.0    4.45167457e-07  2.44982280e-07 -5.48654105e-07
atom     -1.8690116535    10.7423307869     9.5895859175   Mg  0.0 0.0   -4.34757993e-07  2.63045892e-07 -5.48639903e-07
atom     -1.5874389474     4.7555830048     9.5895859420   Mg  0.0 0.0   -1.04340351e-08 -5.08004624e-07 -5.48666522e-07
atom      3.3247361124     3.7525539487    13.3933594794   Mg  0.0 0.0   -4.45167161e-07 -2.44974157e-07  5.48661209e-07
atom      8.6501981177     1.0030291709    13.3933594919   Mg  0.0 0.0    4.34750801e-07 -2.63049678e-07  5.48647011e-07
atom      8.3686254301     6.9897769523    13.3933594674   Mg  0.0 0.0    1.04409321e-08  5.08000259e-07  5.48673618e-07
atom      3.9475586016     8.6026651155    17.2372090017   Mg  0.0 0.0   -5.14245551e-07  1.47173142e-06  1.10802022e-14
atom     -2.6427192674    10.8627134701    17.2372090017   Mg  0.0 0.0   -1.01741932e-06 -1.18122734e-06  8.64784013e-15
atom     -1.3048396243     4.0253412767    17.2372090017   Mg  0.0 0.0    1.53169695e-06 -2.90533847e-07  1.30534890e-14
atom      3.3247361123     3.7525539487    21.0810585240   Mg  0.0 0.0   -4.45167179e-07 -2.44974156e-07 -5.48661208e-07
atom      8.6501981177     1.0030291709    21.0810585116   Mg  0.0 0.0    4.34750809e-07 -2.63049690e-07 -5.48647011e-07
atom      8.3686254301     6.9897769523    21.0810585360   Mg  0.0 0.0    1.04409321e-08  5.08000298e-07 -5.48673598e-07
atom     -0.0000000715     0.0000000753     2.3026671994   Si  0.0 0.0   -1.48008110e-11  1.46162004e-11 -5.81842532e-07
atom      6.7811865644     3.9151200101     2.0686467685   Si  0.0 0.0   -4.10944883e-12  7.78640739e-12  7.06624437e-07
atom     -0.0000000796     7.8302399291     5.7457363983   Si  0.0 0.0   -8.10688018e-12  1.88439440e-11  1.33771497e-14
atom     -0.0000000715     0.0000000753     9.1888055972   Si  0.0 0.0   -1.48101796e-11  1.46392792e-11  5.81842496e-07
atom     -0.0000001018     0.0000001029    13.7941397305   Si  0.0 0.0    1.48057734e-11 -1.46192124e-11 -5.81897591e-07
atom      6.7811865644     3.9151200101     9.4228260281   Si  0.0 0.0   -4.11128941e-12  7.79120477e-12 -7.06624421e-07
atom     -0.0000000908     7.8302399527    13.5601193862   Si  0.0 0.0    4.11113180e-12 -7.79038002e-12  7.06635227e-07
atom     -0.0000001018     0.0000001029    20.6802782729   Si  0.0 0.0    1.47950945e-11 -1.45973621e-11  5.81897530e-07
atom      6.7811865532     3.9151200337    17.2372090017   Si  0.0 0.0    8.10734977e-12 -1.88354676e-11  2.06297219e-15
atom     -0.0000000908     7.8302399527    20.9142986172   Si  0.0 0.0    4.10911094e-12 -7.78487663e-12 -7.06635227e-07
energy -3.597712231962318e+02
charge 0.0000
end
