begin
comment uuid: d7dac1cb-ee87-4461-ab4a-7b9936f14816 parent_uuid: 4c3843d7-8355-4b7b-b4e8-830f92b1b176 trajectory_step: final_scf
lattice     27.9809230665    -0.0000000001    -7.8355075002
lattice      0.0000000000     7.6000017190     0.0000000001
lattice     -0.0441725857    -0.0000000001    12.8957181739
atom     -0.0042006837    -0.0000000394    12.7370621951   Mg  0.0 0.0    3.16613890e-13 -5.33838846e-14  4.84337298e-12
atom      2.1059338864     3.8000008202     3.8124867627   Mg  0.0 0.0    1.13439289e-06 -4.10054018e-14 -1.51664168e-06
atom      4.3090251981     3.8000008201    10.4156811326   Mg  0.0 0.0    1.57223756e-06 -7.13335985e-15  8.36935159e-08
atom      9.7172075533    -0.0000000393    -1.7550286640   Mg  0.0 0.0   -1.57223675e-06  7.21352604e-14 -8.36967994e-08
atom     11.9202988653    -0.0000000394     4.8481657056   Mg  0.0 0.0   -1.13439352e-06  5.89075905e-14  1.51664022e-06
atom      1.5953648804    -0.0000000393     7.8804089801   Si  0.0 0.0   -9.47685484e-07 -3.17058452e-14  2.82268968e-07
atom      5.2620553515    -0.0000000393     1.2474240393   Si  0.0 0.0    1.44697341e-06  1.64114134e-14 -7.93436513e-07
atom      5.9918902021    -0.0000000394     6.0887036391   Al  0.0 0.0   -8.77671688e-07  3.46246898e-14 -8.07305541e-07
atom      8.0343425495     3.8000008202     2.5719488295   Al  0.0 0.0    8.77671549e-07  4.13330044e-14  8.07301821e-07
atom      8.7641774001     3.8000008201     7.4132284292   Si  0.0 0.0   -1.44697369e-06  5.72101839e-14  7.93433186e-07
atom     12.4308678711     3.8000008201     0.7802434881   Si  0.0 0.0    9.47686033e-07  6.85857746e-14 -2.82269770e-07
atom     13.9862608496     3.8000008201     8.8193084469   Mg  0.0 0.0   -2.20094848e-13  5.34780306e-14 -4.80200532e-12
atom     16.0963954196    -0.0000000393    -0.1052669855   Mg  0.0 0.0    1.13439310e-06  3.53398561e-14 -1.51665095e-06
atom     18.2994867321    -0.0000000394     6.4979273828   Mg  0.0 0.0    1.57223338e-06  3.22542897e-16  8.36924074e-08
atom     23.7076690860     3.8000008202    -5.6727824154   Mg  0.0 0.0   -1.57223432e-06 -6.56557069e-14 -8.36891099e-08
atom     25.9107603983     3.8000008201     0.9304119532   Mg  0.0 0.0   -1.13439271e-06 -5.34137379e-14  1.51665239e-06
atom     15.5858264138     3.8000008201     3.9626552317   Si  0.0 0.0   -9.47686666e-07  3.03898019e-14  2.82260595e-07
atom     19.2525168845     3.8000008202    -2.6703297104   Si  0.0 0.0    1.44697465e-06 -2.15033541e-14 -7.93437342e-07
atom     19.9823517351     3.8000008201     2.1709498891   Al  0.0 0.0   -8.77670906e-07 -4.76386158e-14 -8.07304936e-07
atom     22.0248040828    -0.0000000393    -1.3458049217   Al  0.0 0.0    8.77671132e-07 -2.81895022e-14  8.07308530e-07
atom     22.7546389335    -0.0000000394     3.4954746779   Si  0.0 0.0   -1.44697431e-06 -5.21204515e-14  7.93440665e-07
atom     26.4213294042    -0.0000000394    -3.1375102639   Si  0.0 0.0    9.47686248e-07 -6.68025163e-14 -2.82259696e-07
energy -2.928226330163884e+02
charge 0.0000
end
