begin
comment uuid: d0dc4e30-e6d6-4620-8877-255d426671bb parent_uuid: a92eb12b-a1c1-421e-9fbe-b522f1045a85 trajectory_step: final_scf
lattice     27.1666811006    -0.0000000002    -9.2466198557
lattice      0.0000000001     7.6808516743     0.0000000000
lattice     -0.3466906905     0.0000000000    13.0644681860
atom     -0.3044045752    -0.0000001749    12.9018905238   Mg  0.0 0.0   -1.86988746e-11 -1.39166108e-12  1.55902932e-11
atom      2.0270319144     3.8404256622     3.9877031584   Mg  0.0 0.0    1.65560377e-06 -1.04074552e-12  7.59367928e-09
atom      4.0015470851     3.8404256622    10.6031597516   Mg  0.0 0.0    4.01088701e-07 -9.07560674e-13 -2.39156402e-07
atom      9.3196750033    -0.0000001753    -2.4871568098   Mg  0.0 0.0   -4.01105522e-07  9.25654170e-13  2.39164451e-07
atom     11.2941901725    -0.0000001753     4.1282997859   Mg  0.0 0.0   -1.65559809e-06  1.05259155e-12 -7.63707420e-09
atom      1.3937989898    -0.0000001749     8.0419203252   Si  0.0 0.0    6.50011392e-07 -1.39207674e-12 -8.37571273e-08
atom      5.1923907388    -0.0000001751     1.4427664452   Si  0.0 0.0    1.85886297e-07 -5.42570422e-13  5.33369974e-07
atom      5.4927774233    -0.0000001751     6.1424036288   Si  0.0 0.0   -1.07388314e-07 -3.13315286e-13 -3.80929579e-07
atom      7.8284446633     3.8404256620     1.9735993157   Si  0.0 0.0    1.07405934e-07  3.43880285e-13  3.80911722e-07
atom      8.1288313488     3.8404256620     6.6732364989   Si  0.0 0.0   -1.85891299e-07  5.74643860e-13 -5.33395850e-07
atom     11.9274230957     3.8404256618     0.0740826167   Si  0.0 0.0   -6.49988365e-07  1.39923126e-12  8.37437623e-08
atom     13.2789359747     3.8404256618     8.2785806035   Mg  0.0 0.0   -1.66397863e-11  1.39289909e-12 -1.93193958e-11
atom     15.6103724647    -0.0000001754    -0.6356067628   Mg  0.0 0.0    1.65560470e-06  1.05076914e-12  7.56568174e-09
atom     17.5848876371    -0.0000001754     5.9798498250   Mg  0.0 0.0    4.01077658e-07  9.12190134e-13 -2.39153978e-07
atom     22.9030155551     3.8404256621    -7.1104667472   Mg  0.0 0.0   -4.01115238e-07 -9.30199376e-13  2.39216604e-07
atom     24.8775307217     3.8404256621    -0.4950101511   Mg  0.0 0.0   -1.65559134e-06 -1.06224369e-12 -7.59237481e-09
atom     14.9771395418     3.8404256618     3.4186104039   Si  0.0 0.0    6.50002854e-07  1.39402830e-12 -8.37860865e-08
atom     18.7757312879     3.8404256619    -3.1805434824   Si  0.0 0.0    1.85892537e-07  5.02568578e-13  5.33376814e-07
atom     19.0761179733     3.8404256619     1.5190937008   Si  0.0 0.0   -1.07385961e-07  2.78055500e-13 -3.80921175e-07
atom     21.4117852133    -0.0000001752    -2.6497106203   Si  0.0 0.0    1.07408451e-07 -3.12095465e-13  3.80957157e-07
atom     21.7121719000    -0.0000001752     2.0499265629   Si  0.0 0.0   -1.85895397e-07 -5.32618367e-13 -5.33350745e-07
atom     25.5107636456    -0.0000001751    -4.5492273195   Si  0.0 0.0   -6.49987433e-07 -1.40190562e-12  8.37842763e-08
energy -2.365805095463648e+02
charge 0.0000
end
