begin
comment uuid: 08bdd492-574c-45d9-a9bc-3ff1e122c0e7 trajectory_step: 0 
lattice 27.1386724869 0.0000000000 -9.2616837954
lattice 0.0000000000 7.6844399264 0.0000000000
lattice -0.3491167728 0.0000000000 13.0777376649
atom   -0.306841    -0.000000   12.914987 Mg  0.0   0.0  0.0000007050  0.0000000000  0.0000000700
atom   2.006629    3.842220   3.989356 Mg  0.0   0.0  -0.0000745950  -0.0000000000  -0.0000700300
atom   3.960806    3.842220   10.619492 Mg  0.0   0.0  -0.0002071850  -0.0000000000  0.0001559950
atom   9.343968    -0.000000   -2.498103 Mg  0.0   0.0  0.0002085800  0.0000000000  -0.0001557350
atom   11.298139    -0.000000   4.132041 Mg  0.0   0.0  0.0000760050  0.0000000000  0.0000701350
atom   1.392906    -0.000000   8.051999 Si  0.0   0.0  -0.0004479700  0.0000000000  0.0009052550
atom   5.197484    -0.000000   1.437181 Si  0.0   0.0  -0.0014695250  0.0000000000  -0.0011473250
atom   5.480807    -0.000000   6.141206 Si  0.0   0.0  0.0001297250  0.0000000000  0.0009316900
atom   7.823953    3.842220   1.980189 Si  0.0   0.0  -0.0001336150  -0.0000000000  -0.0009311050
atom   8.107285    3.842220   6.684215 Si  0.0   0.0  0.0014695950  -0.0000000000  0.0011473450
atom   11.911862    3.842220   0.069394 Si  0.0   0.0  0.0004482850  -0.0000000000  -0.0009062950
atom   13.262495    3.842220   8.284145 Mg  0.0   0.0  0.0000007050  -0.0000000000  0.0000000700
atom   15.575966    -0.000000   -0.641486 Mg  0.0   0.0  -0.0000745950  0.0000000000  -0.0000700300
atom   17.530142    -0.000000   5.988650 Mg  0.0   0.0  -0.0002071850  0.0000000000  0.0001559950
atom   22.913304    3.842220   -7.128945 Mg  0.0   0.0  0.0002085800  -0.0000000000  -0.0001557350
atom   24.867475    3.842220   -0.498801 Mg  0.0   0.0  0.0000760050  -0.0000000000  0.0000701350
atom   14.962242    3.842220   3.421157 Si  0.0   0.0  -0.0004479700  -0.0000000000  0.0009052550
atom   18.766820    3.842220   -3.193661 Si  0.0   0.0  -0.0014695250  -0.0000000000  -0.0011473250
atom   19.050143    3.842220   1.510364 Si  0.0   0.0  0.0001297300  -0.0000000000  0.0009316900
atom   21.393290    -0.000000   -2.650652 Si  0.0   0.0  -0.0001336150  0.0000000000  -0.0009311050
atom   21.676621    -0.000000   2.053373 Si  0.0   0.0  0.0014695950  0.0000000000  0.0011473500
atom   25.481198    -0.000000   -4.561448 Si  0.0   0.0  0.0004482850  0.0000000000  -0.0009062950
energy -236.579437920000061
charge 0.000000000000000
end
begin
comment uuid: 08bdd492-574c-45d9-a9bc-3ff1e122c0e7 trajectory_step: 1 
lattice 27.1174860227 0.0000000000 -9.2495043669
lattice 0.0000000000 7.6888846019 -0.0000000000
lattice -0.3407467015 -0.0000000000 13.0842671978
atom   -0.298594    -0.000000   12.921459 Mg  0.0   0.0  0.0000007250  0.0000000000  0.0000000450
atom   2.007793    3.844442   3.992483 Mg  0.0   0.0  -0.0000482450  -0.0000000000  -0.0000468150
atom   3.964437    3.844442   10.627822 Mg  0.0   0.0  -0.0001968750  -0.0000000000  0.0000946050
atom   9.337868    -0.000000   -2.493928 Mg  0.0   0.0  0.0001982900  0.0000000000  -0.0000943950
atom   11.294507    -0.000000   4.141419 Mg  0.0   0.0  0.0000496100  0.0000000000  0.0000469250
atom   1.395056    -0.000000   8.059852 Si  0.0   0.0  -0.0005514200  0.0000000000  0.0007258200
atom   5.190645    -0.000000   1.437831 Si  0.0   0.0  -0.0012326850  0.0000000000  -0.0008495400
atom   5.482409    -0.000000   6.150661 Si  0.0   0.0  0.0002323150  0.0000000000  0.0007322150
atom   7.819866    3.844442   1.983240 Si  0.0   0.0  -0.0002352050  -0.0000000000  -0.0007318200
atom   8.111648    3.844442   6.696068 Si  0.0   0.0  0.0012322850  -0.0000000000  0.0008494450
atom   11.907237    3.844442   0.074042 Si  0.0   0.0  0.0005512100  -0.0000000000  -0.0007264850
atom   13.260149    3.844442   8.296707 Mg  0.0   0.0  0.0000007250  -0.0000000000  0.0000000450
atom   15.566536    -0.000000   -0.632269 Mg  0.0   0.0  -0.0000482450  0.0000000000  -0.0000468150
atom   17.523180    -0.000000   6.003070 Mg  0.0   0.0  -0.0001968750  0.0000000000  0.0000946050
atom   22.896611    3.844442   -7.118681 Mg  0.0   0.0  0.0001982900  -0.0000000000  -0.0000943950
atom   24.853250    3.844442   -0.483333 Mg  0.0   0.0  0.0000496100  -0.0000000000  0.0000469250
atom   14.953799    3.844442   3.435100 Si  0.0   0.0  -0.0005514200  -0.0000000000  0.0007258200
atom   18.749388    3.844442   -3.186921 Si  0.0   0.0  -0.0012326850  -0.0000000000  -0.0008495400
atom   19.041152    3.844442   1.525909 Si  0.0   0.0  0.0002323150  -0.0000000000  0.0007322150
atom   21.378609    -0.000000   -2.641512 Si  0.0   0.0  -0.0002352050  0.0000000000  -0.0007318200
atom   21.670391    -0.000000   2.071316 Si  0.0   0.0  0.0012322850  0.0000000000  0.0008494450
atom   25.465980    -0.000000   -4.550710 Si  0.0   0.0  0.0005512100  0.0000000000  -0.0007264800
energy -236.579512475000058
charge 0.000000000000000
end
begin
comment uuid: 08bdd492-574c-45d9-a9bc-3ff1e122c0e7 trajectory_step: 2 
lattice 27.0842759380 0.0000000000 -9.2314193516
lattice 0.0000000000 7.6943846309 -0.0000000000
lattice -0.3292019262 -0.0000000000 13.0913068396
atom   -0.287223    -0.000000   12.928444 Mg  0.0   0.0  0.0000007150  0.0000000000  0.0000000250
atom   2.009211    3.847192   3.996245 Mg  0.0   0.0  0.0000020600  -0.0000000000  -0.0000150350
atom   3.968635    3.847192   10.637445 Mg  0.0   0.0  -0.0001788850  -0.0000000000  -0.0000051650
atom   9.328261    -0.000000   -2.487578 Mg  0.0   0.0  0.0001803000  0.0000000000  0.0000052800
atom   11.287679    -0.000000   4.153629 Mg  0.0   0.0  -0.0000008050  0.0000000000  0.0000151550
atom   1.396902    -0.000000   8.069441 Si  0.0   0.0  -0.0006089200  0.0000000000  0.0004700950
atom   5.180217    -0.000000   1.438959 Si  0.0   0.0  -0.0008714900  0.0000000000  -0.0004263650
atom   5.484467    -0.000000   6.162711 Si  0.0   0.0  0.0003395400  0.0000000000  0.0004650200
atom   7.812375    3.847192   1.987164 Si  0.0   0.0  -0.0003410300  -0.0000000000  -0.0004648850
atom   8.116653    3.847192   6.710911 Si  0.0   0.0  0.0008705650  -0.0000000000  0.0004261300
atom   11.899968    3.847192   0.080424 Si  0.0   0.0  0.0006079450  -0.0000000000  -0.0004702550
atom   13.254915    3.847192   8.312735 Mg  0.0   0.0  0.0000007150  0.0000000000  0.0000000250
atom   15.551349    -0.000000   -0.619464 Mg  0.0   0.0  0.0000020600  0.0000000000  -0.0000150350
atom   17.510773    -0.000000   6.021735 Mg  0.0   0.0  -0.0001788850  0.0000000000  -0.0000051650
atom   22.870399    3.847192   -7.103288 Mg  0.0   0.0  0.0001803000  -0.0000000000  0.0000052800
atom   24.829817    3.847192   -0.462080 Mg  0.0   0.0  -0.0000008050  -0.0000000000  0.0000151550
atom   14.939040    3.847192   3.453731 Si  0.0   0.0  -0.0006089200  -0.0000000000  0.0004701000
atom   18.722355    3.847192   -3.176750 Si  0.0   0.0  -0.0008714900  -0.0000000000  -0.0004263650
atom   19.026605    3.847192   1.547001 Si  0.0   0.0  0.0003395400  -0.0000000000  0.0004650200
atom   21.354513    -0.000000   -2.628546 Si  0.0   0.0  -0.0003410300  0.0000000000  -0.0004648850
atom   21.658791    -0.000000   2.095201 Si  0.0   0.0  0.0008705650  0.0000000000  0.0004261300
atom   25.442106    -0.000000   -4.535286 Si  0.0   0.0  0.0006079450  0.0000000000  -0.0004702500
energy -236.579599690000094
charge 0.000000000000000
end
begin
comment uuid: 08bdd492-574c-45d9-a9bc-3ff1e122c0e7 trajectory_step: 3 
lattice 27.0565982665 0.0000000000 -9.2172570278
lattice 0.0000000000 7.6975994557 -0.0000000000
lattice -0.3211017398 -0.0000000000 13.0940008180
atom   -0.279251    -0.000000   12.931127 Mg  0.0   0.0  0.0000006050  0.0000000000  0.0000000150
atom   2.010111    3.848799   3.998276 Mg  0.0   0.0  0.0000812400  -0.0000000000  0.0000232500
atom   3.970623    3.848799   10.641917 Mg  0.0   0.0  -0.0001498250  -0.0000000000  -0.0001441100
atom   9.320279    -0.000000   -2.482296 Mg  0.0   0.0  0.0001511400  0.0000000000  0.0001440350
atom   11.280785    -0.000000   4.161353 Mg  0.0   0.0  -0.0000802300  0.0000000000  -0.0000230950
atom   1.396965    -0.000000   8.074750 Si  0.0   0.0  -0.0005512100  0.0000000000  0.0001486200
atom   5.171773    -0.000000   1.440156 Si  0.0   0.0  -0.0003892650  0.0000000000  0.0000882700
atom   5.485859    -0.000000   6.170131 Si  0.0   0.0  0.0004120050  0.0000000000  0.0001620200
atom   7.804973    3.848799   1.989498 Si  0.0   0.0  -0.0004118900  -0.0000000000  -0.0001621850
atom   8.119090    3.848799   6.719465 Si  0.0   0.0  0.0003880450  -0.0000000000  -0.0000886300
atom   11.893895    3.848799   0.084868 Si  0.0   0.0  0.0005493800  -0.0000000000  -0.0001481900
atom   13.249049    3.848799   8.322499 Mg  0.0   0.0  0.0000006050  0.0000000000  0.0000000150
atom   15.538410    -0.000000   -0.610353 Mg  0.0   0.0  0.0000812400  0.0000000000  0.0000232500
atom   17.498923    -0.000000   6.033289 Mg  0.0   0.0  -0.0001498250  0.0000000000  -0.0001441100
atom   22.848579    3.848799   -7.090925 Mg  0.0   0.0  0.0001511400  -0.0000000000  0.0001440350
atom   24.809084    3.848799   -0.447275 Mg  0.0   0.0  -0.0000802300  -0.0000000000  -0.0000230950
atom   14.925265    3.848799   3.466121 Si  0.0   0.0  -0.0005512100  -0.0000000000  0.0001486200
atom   18.700072    3.848799   -3.168472 Si  0.0   0.0  -0.0003892650  -0.0000000000  0.0000882700
atom   19.014158    3.848799   1.561503 Si  0.0   0.0  0.0004120050  -0.0000000000  0.0001620200
atom   21.333272    -0.000000   -2.619131 Si  0.0   0.0  -0.0004118900  0.0000000000  -0.0001621850
atom   21.647389    -0.000000   2.110837 Si  0.0   0.0  0.0003880450  -0.0000000000  -0.0000886300
atom   25.422195    -0.000000   -4.523761 Si  0.0   0.0  0.0005493800  0.0000000000  -0.0001481900
energy -236.579669130000099
charge 0.000000000000000
end
begin
comment uuid: 08bdd492-574c-45d9-a9bc-3ff1e122c0e7 trajectory_step: 4 
lattice 27.0455797856 0.0000000000 -9.2121716557
lattice 0.0000000000 7.6980010735 -0.0000000000
lattice -0.3189315538 -0.0000000000 13.0927647746
atom   -0.277119    -0.000000   12.929913 Mg  0.0   0.0  0.0000004200  0.0000000000  0.0000000400
atom   2.010400    3.849000   3.998315 Mg  0.0   0.0  0.0001449850  0.0000000000  0.0000458250
atom   3.970291    3.849000   10.640965 Mg  0.0   0.0  -0.0001221150  0.0000000000  -0.0002399000
atom   9.317197    -0.000000   -2.479996 Mg  0.0   0.0  0.0001232500  0.0000000000  0.0002396200
atom   11.277079    -0.000000   4.162664 Mg  0.0   0.0  -0.0001442700  0.0000000000  -0.0000456250
atom   1.395970    -0.000000   8.074934 Si  0.0   0.0  -0.0003616300  0.0000000000  -0.0000464600
atom   5.168532    -0.000000   1.440986 Si  0.0   0.0  -0.0000695450  -0.0000000000  0.0003743150
atom   5.486308    -0.000000   6.171325 Si  0.0   0.0  0.0003746600  -0.0000000000  0.0000158700
atom   7.801103    3.849000   1.989653 Si  0.0   0.0  -0.0003738300  0.0000000000  -0.0000161400
atom   8.118907    3.849000   6.719984 Si  0.0   0.0  0.0000684950  0.0000000000  -0.0003746650
atom   11.891464    3.849000   0.086034 Si  0.0   0.0  0.0003595850  -0.0000000000  0.0000471200
atom   13.245671    3.849000   8.323827 Mg  0.0   0.0  0.0000004200  0.0000000000  0.0000000400
atom   15.533190    -0.000000   -0.607771 Mg  0.0   0.0  0.0001449850  -0.0000000000  0.0000458250
atom   17.493081    -0.000000   6.034879 Mg  0.0   0.0  -0.0001221150  -0.0000000000  -0.0002399000
atom   22.839987    3.849000   -7.086081 Mg  0.0   0.0  0.0001232500  0.0000000000  0.0002396200
atom   24.799869    3.849000   -0.443422 Mg  0.0   0.0  -0.0001442700  0.0000000000  -0.0000456250
atom   14.918760    3.849000   3.468848 Si  0.0   0.0  -0.0003616300  0.0000000000  -0.0000464600
atom   18.691322    3.849000   -3.165100 Si  0.0   0.0  -0.0000695450  0.0000000000  0.0003743150
atom   19.009098    3.849000   1.565239 Si  0.0   0.0  0.0003746550  0.0000000000  0.0000158700
atom   21.323893    -0.000000   -2.616433 Si  0.0   0.0  -0.0003738350  -0.0000000000  -0.0000161400
atom   21.641697    -0.000000   2.113898 Si  0.0   0.0  0.0000684950  -0.0000000000  -0.0003746650
atom   25.414254    -0.000000   -4.520052 Si  0.0   0.0  0.0003595850  -0.0000000000  0.0000471200
energy -236.579690330000091
charge 0.000000000000000
end
begin
comment uuid: 08bdd492-574c-45d9-a9bc-3ff1e122c0e7 trajectory_step: 5 
lattice 27.0334646380 0.0000000000 -9.2069267038
lattice 0.0000000000 7.6977967223 -0.0000000000
lattice -0.3175060635 -0.0000000000 13.0890830080
atom   -0.275724    -0.000000   12.926281 Mg  0.0   0.0  0.0000002950  0.0000000000  0.0000000800
atom   2.010903    3.848898   3.997657 Mg  0.0   0.0  0.0001654600  0.0000000000  0.0000498550
atom   3.968763    3.848898   10.636890 Mg  0.0   0.0  -0.0001054500  0.0000000000  -0.0002600950
atom   9.314034    -0.000000   -2.476883 Mg  0.0   0.0  0.0001064600  -0.0000000000  0.0002597100
atom   11.271882    -0.000000   4.162363 Mg  0.0   0.0  -0.0001649150  -0.0000000000  -0.0000496150
atom   1.393981    -0.000000   8.073237 Si  0.0   0.0  -0.0001891350  -0.0000000000  -0.0000737450
atom   5.164976    -0.000000   1.442543 Si  0.0   0.0  -0.0000019750  -0.0000000000  0.0003855450
atom   5.486921    -0.000000   6.171147 Si  0.0   0.0  0.0002874600  -0.0000000000  0.0000287100
atom   7.795792    3.848898   1.988869 Si  0.0   0.0  -0.0002867950  0.0000000000  -0.0000289050
atom   8.117758    3.848898   6.717465 Si  0.0   0.0  0.0000011700  0.0000000000  -0.0003858100
atom   11.888743    3.848898   0.086774 Si  0.0   0.0  0.0001874300  0.0000000000  0.0000742700
atom   13.241009    3.848898   8.322818 Mg  0.0   0.0  0.0000002950  0.0000000000  0.0000000800
atom   15.527635    -0.000000   -0.605806 Mg  0.0   0.0  0.0001654600  -0.0000000000  0.0000498550
atom   17.485496    -0.000000   6.033427 Mg  0.0   0.0  -0.0001054500  -0.0000000000  -0.0002600950
atom   22.830766    3.848898   -7.080346 Mg  0.0   0.0  0.0001064600  0.0000000000  0.0002597150
atom   24.788615    3.848898   -0.441100 Mg  0.0   0.0  -0.0001649150  0.0000000000  -0.0000496150
atom   14.910713    3.848898   3.469773 Si  0.0   0.0  -0.0001891350  -0.0000000000  -0.0000737450
atom   18.681708    3.848898   -3.160920 Si  0.0   0.0  -0.0000019750  0.0000000000  0.0003855450
atom   19.003653    3.848898   1.567684 Si  0.0   0.0  0.0002874600  0.0000000000  0.0000287100
atom   21.312525    -0.000000   -2.614594 Si  0.0   0.0  -0.0002867950  -0.0000000000  -0.0000289050
atom   21.634490    -0.000000   2.114001 Si  0.0   0.0  0.0000011700  -0.0000000000  -0.0003858100
atom   25.405476    -0.000000   -4.516690 Si  0.0   0.0  0.0001874300  -0.0000000000  0.0000742700
energy -236.579697350000060
charge 0.000000000000000
end
begin
comment uuid: 08bdd492-574c-45d9-a9bc-3ff1e122c0e7 trajectory_step: 6 
lattice 27.0294138192 0.0000000000 -9.2051717038
lattice 0.0000000000 7.6975783834 -0.0000000000
lattice -0.3176221437 -0.0000000000 13.0861180107
atom   -0.275842    -0.000000   12.923353 Mg  0.0   0.0  0.0000000950  0.0000000000  0.0000001550
atom   2.011562    3.848789   3.997027 Mg  0.0   0.0  0.0001768100  0.0000000000  0.0000517550
atom   3.967336    3.848789   10.632862 Mg  0.0   0.0  -0.0000756450  0.0000000000  -0.0002573100
atom   9.313318    -0.000000   -2.474872 Mg  0.0   0.0  0.0000764300  -0.0000000000  0.0002567750
atom   11.269077    -0.000000   4.160981 Mg  0.0   0.0  -0.0001765300  -0.0000000000  -0.0000514500
atom   1.392814    -0.000000   8.071301 Si  0.0   0.0  0.0000846600  0.0000000000  -0.0000570200
atom   5.163619    -0.000000   1.443930 Si  0.0   0.0  0.0000146350  -0.0000000000  0.0002867650
atom   5.487524    -0.000000   6.170384 Si  0.0   0.0  0.0001197700  -0.0000000000  0.0001101100
atom   7.793041    3.848789   1.987617 Si  0.0   0.0  -0.0001197300  0.0000000000  -0.0001101200
atom   8.116960    3.848789   6.714062 Si  0.0   0.0  -0.0000150200  0.0000000000  -0.0002868300
atom   11.887751    3.848789   0.086697 Si  0.0   0.0  -0.0000854800  0.0000000000  0.0000571700
atom   13.238865    3.848789   8.320767 Mg  0.0   0.0  0.0000000950  0.0000000000  0.0000001550
atom   15.526269    -0.000000   -0.605559 Mg  0.0   0.0  0.0001768100  -0.0000000000  0.0000517550
atom   17.482043    -0.000000   6.030276 Mg  0.0   0.0  -0.0000756450  -0.0000000000  -0.0002573100
atom   22.828025    3.848789   -7.077457 Mg  0.0   0.0  0.0000764300  0.0000000000  0.0002567750
atom   24.783784    3.848789   -0.441605 Mg  0.0   0.0  -0.0001765300  0.0000000000  -0.0000514500
atom   14.907521    3.848789   3.468715 Si  0.0   0.0  0.0000846600  0.0000000000  -0.0000570250
atom   18.678326    3.848789   -3.158656 Si  0.0   0.0  0.0000146350  0.0000000000  0.0002867650
atom   19.002231    3.848789   1.567799 Si  0.0   0.0  0.0001197700  0.0000000000  0.0001101100
atom   21.307748    -0.000000   -2.614969 Si  0.0   0.0  -0.0001197300  -0.0000000000  -0.0001101200
atom   21.631667    -0.000000   2.111476 Si  0.0   0.0  -0.0000150200  -0.0000000000  -0.0002868300
atom   25.402458    -0.000000   -4.515889 Si  0.0   0.0  -0.0000854800  -0.0000000000  0.0000571700
energy -236.579705575000077
charge 0.000000000000000
end
begin
comment uuid: 08bdd492-574c-45d9-a9bc-3ff1e122c0e7 trajectory_step: 7 
lattice 27.0288482449 0.0000000000 -9.2045990469
lattice 0.0000000000 7.6978782375 -0.0000000000
lattice -0.3180598175 -0.0000000000 13.0840138498
atom   -0.276274    -0.000000   12.921275 Mg  0.0   0.0  -0.0000000250  0.0000000000  0.0000001850
atom   2.012642    3.848939   3.996717 Mg  0.0   0.0  0.0001638300  0.0000000000  0.0000533200
atom   3.966162    3.848939   10.629090 Mg  0.0   0.0  -0.0000492550  0.0000000000  -0.0002278950
atom   9.313787    -0.000000   -2.472871 Mg  0.0   0.0  0.0000498700  -0.0000000000  0.0002272950
atom   11.267288    -0.000000   4.159524 Mg  0.0   0.0  -0.0001637300  -0.0000000000  -0.0000529700
atom   1.392378    -0.000000   8.069755 Si  0.0   0.0  0.0002204600  -0.0000000000  -0.0000219350
atom   5.163000    -0.000000   1.445497 Si  0.0   0.0  -0.0000190950  -0.0000000000  0.0001594350
atom   5.488433    -0.000000   6.170211 Si  0.0   0.0  0.0000112950  -0.0000000000  0.0001821000
atom   7.791420    3.848939   1.986022 Si  0.0   0.0  -0.0000117850  0.0000000000  -0.0001819800
atom   8.116863    3.848939   6.710726 Si  0.0   0.0  0.0000189850  0.0000000000  -0.0001593400
atom   11.887468    3.848939   0.086476 Si  0.0   0.0  -0.0002205550  0.0000000000  0.0000217800
atom   13.238150    3.848939   8.318976 Mg  0.0   0.0  -0.0000000250  0.0000000000  0.0000001850
atom   15.527066    -0.000000   -0.605582 Mg  0.0   0.0  0.0001638300  -0.0000000000  0.0000533200
atom   17.480586    -0.000000   6.026790 Mg  0.0   0.0  -0.0000492550  -0.0000000000  -0.0002278950
atom   22.828211    3.848939   -7.075171 Mg  0.0   0.0  0.0000498700  0.0000000000  0.0002272950
atom   24.781712    3.848939   -0.442775 Mg  0.0   0.0  -0.0001637300  0.0000000000  -0.0000529700
atom   14.906802    3.848939   3.467456 Si  0.0   0.0  0.0002204600  0.0000000000  -0.0000219350
atom   18.677424    3.848939   -3.156802 Si  0.0   0.0  -0.0000190950  0.0000000000  0.0001594350
atom   19.002858    3.848939   1.567912 Si  0.0   0.0  0.0000112950  0.0000000000  0.0001821000
atom   21.305844    -0.000000   -2.616278 Si  0.0   0.0  -0.0000117850  -0.0000000000  -0.0001819800
atom   21.631288    -0.000000   2.108426 Si  0.0   0.0  0.0000189850  -0.0000000000  -0.0001593400
atom   25.401892    -0.000000   -4.515824 Si  0.0   0.0  -0.0002205550  -0.0000000000  0.0000217800
energy -236.579709510000072
charge 0.000000000000000
end
begin
comment uuid: 08bdd492-574c-45d9-a9bc-3ff1e122c0e7 trajectory_step: 8 
lattice 27.0298932672 0.0000000000 -9.2042042151
lattice 0.0000000000 7.6990723971 -0.0000000000
lattice -0.3184128013 -0.0000000000 13.0824734698
atom   -0.276620    -0.000000   12.919755 Mg  0.0   0.0  -0.0000001050  0.0000000000  0.0000001800
atom   2.014566    3.849536   3.996870 Mg  0.0   0.0  0.0001339350  0.0000000000  0.0000579300
atom   3.965072    3.849536   10.624820 Mg  0.0   0.0  -0.0000186700  0.0000000000  -0.0001819300
atom   9.315068    -0.000000   -2.469914 Mg  0.0   0.0  0.0000191150  0.0000000000  0.0001812950
atom   11.265548    -0.000000   4.158069 Mg  0.0   0.0  -0.0001340000  0.0000000000  -0.0000575550
atom   1.392575    -0.000000   8.068584 Si  0.0   0.0  0.0002566800  -0.0000000000  0.0000053500
atom   5.162344    -0.000000   1.447736 Si  0.0   0.0  -0.0000557450  0.0000000000  0.0000359850
atom   5.490026    -0.000000   6.171265 Si  0.0   0.0  -0.0000530850  -0.0000000000  0.0002254700
atom   7.790006    3.849536   1.983662 Si  0.0   0.0  0.0000522350  -0.0000000000  -0.0002252750
atom   8.117695    3.849536   6.707180 Si  0.0   0.0  0.0000558250  -0.0000000000  -0.0000357450
atom   11.887442    3.849536   0.086342 Si  0.0   0.0  -0.0002561950  0.0000000000  -0.0000057100
atom   13.238326    3.849536   8.317653 Mg  0.0   0.0  -0.0000001050  0.0000000000  0.0000001800
atom   15.529512    -0.000000   -0.605232 Mg  0.0   0.0  0.0001339350  -0.0000000000  0.0000579300
atom   17.480018    -0.000000   6.022718 Mg  0.0   0.0  -0.0000186700  0.0000000000  -0.0001819300
atom   22.830014    3.849536   -7.072017 Mg  0.0   0.0  0.0000191150  0.0000000000  0.0001812950
atom   24.780495    3.849536   -0.444033 Mg  0.0   0.0  -0.0001340000  0.0000000000  -0.0000575550
atom   14.907522    3.849536   3.466482 Si  0.0   0.0  0.0002566800  -0.0000000000  0.0000053500
atom   18.677290    3.849536   -3.154366 Si  0.0   0.0  -0.0000557450  -0.0000000000  0.0000359850
atom   19.004972    3.849536   1.569163 Si  0.0   0.0  -0.0000530850  -0.0000000000  0.0002254700
atom   21.304952    -0.000000   -2.618440 Si  0.0   0.0  0.0000522350  0.0000000000  -0.0002252750
atom   21.632642    -0.000000   2.105078 Si  0.0   0.0  0.0000558250  0.0000000000  -0.0000357450
atom   25.402389    -0.000000   -4.515760 Si  0.0   0.0  -0.0002561900  0.0000000000  -0.0000057100
energy -236.579713050000066
charge 0.000000000000000
end
begin
comment uuid: 08bdd492-574c-45d9-a9bc-3ff1e122c0e7 trajectory_step: 9 
lattice 27.0319771722 -0.0000000000 -9.2038953545
lattice -0.0000000000 7.7012271459 0.0000000000
lattice -0.3183421936 0.0000000000 13.0823347884
atom   -0.276546    -0.000000   12.919620 Mg  0.0   0.0  -0.0000001700  -0.0000000000  0.0000001200
atom   2.017089    3.850613   3.997773 Mg  0.0   0.0  0.0000826200  -0.0000000000  0.0000677100
atom   3.964515    3.850613   10.621311 Mg  0.0   0.0  0.0000263500  0.0000000000  -0.0001121400
atom   9.316753    -0.000000   -2.466395 Mg  0.0   0.0  -0.0000261350  0.0000000000  0.0001115000
atom   11.264146    -0.000000   4.157191 Mg  0.0   0.0  -0.0000829000  -0.0000000000  -0.0000673300
atom   1.393512    -0.000000   8.068480 Si  0.0   0.0  0.0002097000  -0.0000000000  0.0000206350
atom   5.161506    -0.000000   1.450119 Si  0.0   0.0  -0.0000802300  0.0000000000  -0.0000909100
atom   5.492075    -0.000000   6.174066 Si  0.0   0.0  -0.0000892550  0.0000000000  0.0002334750
atom   7.789068    3.850613   1.980881 Si  0.0   0.0  0.0000882350  -0.0000000000  -0.0002332650
atom   8.119645    3.850613   6.704818 Si  0.0   0.0  0.0000804800  -0.0000000000  0.0000912950
atom   11.887616    3.850613   0.086465 Si  0.0   0.0  -0.0002086950  -0.0000000000  -0.0000211000
atom   13.239442    3.850613   8.317673 Mg  0.0   0.0  -0.0000001700  0.0000000000  0.0000001200
atom   15.533077    -0.000000   -0.604174 Mg  0.0   0.0  0.0000826200  0.0000000000  0.0000677100
atom   17.480503    -0.000000   6.019364 Mg  0.0   0.0  0.0000263500  0.0000000000  -0.0001121400
atom   22.832742    3.850613   -7.068343 Mg  0.0   0.0  -0.0000261350  -0.0000000000  0.0001115000
atom   24.780134    3.850613   -0.444756 Mg  0.0   0.0  -0.0000829000  -0.0000000000  -0.0000673300
atom   14.909501    3.850613   3.466532 Si  0.0   0.0  0.0002097000  0.0000000000  0.0000206350
atom   18.677494    3.850613   -3.151829 Si  0.0   0.0  -0.0000802300  -0.0000000000  -0.0000909100
atom   19.008063    3.850613   1.572119 Si  0.0   0.0  -0.0000892550  -0.0000000000  0.0002334750
atom   21.305057    -0.000000   -2.621067 Si  0.0   0.0  0.0000882350  0.0000000000  -0.0002332650
atom   21.635634    -0.000000   2.102870 Si  0.0   0.0  0.0000804800  0.0000000000  0.0000912950
atom   25.403605    -0.000000   -4.515483 Si  0.0   0.0  -0.0002086950  0.0000000000  -0.0000211000
energy -236.579717600000095
charge 0.000000000000000
end
begin
comment uuid: 08bdd492-574c-45d9-a9bc-3ff1e122c0e7 trajectory_step: 10 
lattice 27.0330168163 -0.0000000000 -9.2039896764
lattice -0.0000000000 7.7023759671 0.0000000000
lattice -0.3180536343 0.0000000000 13.0833536872
atom   -0.276260    -0.000000   12.920628 Mg  0.0   0.0  -0.0000001950  -0.0000000000  0.0000000100
atom   2.018082    3.851188   3.998634 Mg  0.0   0.0  0.0000216600  -0.0000000000  0.0000800950
atom   3.964807    3.851188   10.621048 Mg  0.0   0.0  0.0000759850  -0.0000000000  -0.0000351650
atom   9.317269    -0.000000   -2.465188 Mg  0.0   0.0  -0.0000760300  0.0000000000  0.0000345850
atom   11.263957    -0.000000   4.157281 Mg  0.0   0.0  -0.0000221600  0.0000000000  -0.0000797550
atom   1.394139    -0.000000   8.069260 Si  0.0   0.0  0.0000712350  -0.0000000000  0.0000136600
atom   5.161055    -0.000000   1.450602 Si  0.0   0.0  -0.0000666250  0.0000000000  -0.0001616000
atom   5.492816    -0.000000   6.176125 Si  0.0   0.0  -0.0000741400  0.0000000000  0.0001753000
atom   7.789127    3.851188   1.979770 Si  0.0   0.0  0.0000733950  -0.0000000000  -0.0001751700
atom   8.120899    3.851188   6.705284 Si  0.0   0.0  0.0000669450  -0.0000000000  0.0001620550
atom   11.887795    3.851188   0.086632 Si  0.0   0.0  -0.0000700700  0.0000000000  -0.0000140100
atom   13.240249    3.851188   8.318633 Mg  0.0   0.0  -0.0000001950  0.0000000000  0.0000000100
atom   15.534591    -0.000000   -0.603361 Mg  0.0   0.0  0.0000216600  0.0000000000  0.0000800950
atom   17.481315    -0.000000   6.019053 Mg  0.0   0.0  0.0000759850  0.0000000000  -0.0000351650
atom   22.833778    3.851188   -7.067183 Mg  0.0   0.0  -0.0000760300  -0.0000000000  0.0000345850
atom   24.780465    3.851188   -0.444714 Mg  0.0   0.0  -0.0000221600  -0.0000000000  -0.0000797550
atom   14.910648    3.851188   3.467265 Si  0.0   0.0  0.0000712350  -0.0000000000  0.0000136600
atom   18.677564    3.851188   -3.151393 Si  0.0   0.0  -0.0000666250  -0.0000000000  -0.0001616000
atom   19.009325    3.851188   1.574131 Si  0.0   0.0  -0.0000741400  -0.0000000000  0.0001753000
atom   21.305636    -0.000000   -2.622224 Si  0.0   0.0  0.0000733950  0.0000000000  -0.0001751700
atom   21.637408    -0.000000   2.103289 Si  0.0   0.0  0.0000669450  0.0000000000  0.0001620550
atom   25.404303    -0.000000   -4.515363 Si  0.0   0.0  -0.0000700700  0.0000000000  -0.0000140100
energy -236.579721540000065
charge 0.000000000000000
end
begin
comment uuid: 08bdd492-574c-45d9-a9bc-3ff1e122c0e7 trajectory_step: 11 
lattice 27.0335000136 -0.0000000000 -9.2044036001
lattice -0.0000000000 7.7027481090 0.0000000000
lattice -0.3179723534 0.0000000000 13.0841909795
atom   -0.276179    -0.000000   12.921455 Mg  0.0   0.0  -0.0000001550  -0.0000000000  -0.0000000600
atom   2.018339    3.851374   3.999269 Mg  0.0   0.0  0.0000037400  -0.0000000000  0.0000819700
atom   3.965194    3.851374   10.621461 Mg  0.0   0.0  0.0000876300  -0.0000000000  -0.0000142800
atom   9.317205    -0.000000   -2.464993 Mg  0.0   0.0  -0.0000877400  0.0000000000  0.0000137850
atom   11.264021    -0.000000   4.157258 Mg  0.0   0.0  -0.0000042850  0.0000000000  -0.0000816850
atom   1.394289    -0.000000   8.069889 Si  0.0   0.0  -0.0000189300  0.0000000000  0.0000008350
atom   5.160795    -0.000000   1.450274 Si  0.0   0.0  -0.0000315950  0.0000000000  -0.0001227850
atom   5.492903    -0.000000   6.177305 Si  0.0   0.0  -0.0000331900  0.0000000000  0.0001036450
atom   7.789360    3.851374   1.979202 Si  0.0   0.0  0.0000329100  -0.0000000000  -0.0001036250
atom   8.121483    3.851374   6.706223 Si  0.0   0.0  0.0000318500  -0.0000000000  0.0001231600
atom   11.887970    3.851374   0.086612 Si  0.0   0.0  0.0000197600  -0.0000000000  -0.0000009600
atom   13.240571    3.851374   8.319253 Mg  0.0   0.0  -0.0000001550  0.0000000000  -0.0000000600
atom   15.535089    -0.000000   -0.602933 Mg  0.0   0.0  0.0000037400  0.0000000000  0.0000819700
atom   17.481944    -0.000000   6.019259 Mg  0.0   0.0  0.0000876300  0.0000000000  -0.0000142800
atom   22.833956    3.851374   -7.067195 Mg  0.0   0.0  -0.0000877400  -0.0000000000  0.0000137850
atom   24.780771    3.851374   -0.444944 Mg  0.0   0.0  -0.0000042850  -0.0000000000  -0.0000816800
atom   14.911039    3.851374   3.467687 Si  0.0   0.0  -0.0000189300  -0.0000000000  0.0000008350
atom   18.677545    3.851374   -3.151927 Si  0.0   0.0  -0.0000315950  -0.0000000000  -0.0001227850
atom   19.009653    3.851374   1.575103 Si  0.0   0.0  -0.0000331850  -0.0000000000  0.0001036450
atom   21.306110    -0.000000   -2.623000 Si  0.0   0.0  0.0000329100  0.0000000000  -0.0001036250
atom   21.638233    -0.000000   2.104021 Si  0.0   0.0  0.0000318500  0.0000000000  0.0001231600
atom   25.404720    -0.000000   -4.515590 Si  0.0   0.0  0.0000197600  0.0000000000  -0.0000009600
energy -236.579722850000081
charge 0.000000000000000
end
begin
comment uuid: 08bdd492-574c-45d9-a9bc-3ff1e122c0e7 trajectory_step: 12 
lattice 27.0339619893 -0.0000000000 -9.2050984222
lattice 0.0000000000 7.7026787145 0.0000000000
lattice -0.3181922306 0.0000000000 13.0845405164
atom   -0.276396    -0.000000   12.921800 Mg  0.0   0.0  -0.0000000950  -0.0000000000  -0.0000000850
atom   2.018399    3.851339   3.999786 Mg  0.0   0.0  0.0000048450  -0.0000000000  0.0000767800
atom   3.965472    3.851339   10.621496 Mg  0.0   0.0  0.0000823450  -0.0000000000  -0.0000145900
atom   9.316945    -0.000000   -2.465039 Mg  0.0   0.0  -0.0000824350  -0.0000000000  0.0000141900
atom   11.263975    -0.000000   4.156734 Mg  0.0   0.0  -0.0000053450  -0.0000000000  -0.0000765450