begin
comment uuid: 214987d9-9043-440d-af0a-812ec59364b7 parent_uuid: 00284ee1-6af0-439a-857f-64d2dfa5a7e3 trajectory_step: final_scf
lattice     27.4886382913     0.0000000001    -7.4313997202
lattice     -0.0000000000     7.8089057109    -0.0000000000
lattice     -0.0007886385     0.0000000000    12.3971001625
atom      0.0379922485     0.0000000240    12.2447213243   Al  0.0 0.0   -1.77147713e-12  9.68696501e-14  2.00594256e-12
atom      1.9981950029     3.9044528794     3.6115557570   Mg  0.0 0.0    9.89531919e-07  9.64736008e-14 -1.58554089e-07
atom      4.2118319757     3.9044528794    10.0109669401   Mg  0.0 0.0   -1.76314800e-06  7.20770577e-14  2.95011981e-07
atom      9.6092603041     0.0000000240    -1.6343243128   Mg  0.0 0.0    1.76315613e-06 -7.72317758e-14 -2.95023260e-07
atom     11.8228972780     0.0000000240     4.7650868689   Mg  0.0 0.0   -9.89531959e-07 -9.84277091e-14  1.58557671e-07
atom      1.6303116590     0.0000000240     7.6346578571   Si  0.0 0.0    3.83532400e-07  9.41413711e-14 -5.58116637e-07
atom      5.0530424062     0.0000000240     1.1835416827   Si  0.0 0.0   -7.95446745e-07  3.49001282e-14  5.01642169e-07
atom      6.0662420025     0.0000000240     5.9169101340   Al  0.0 0.0   -1.30912485e-06 -2.07163713e-14  8.02699165e-07
atom      7.7548502786     3.9044528794     2.4597324939   Al  0.0 0.0    1.30912204e-06  1.30803863e-14 -8.02715117e-07
atom      8.7680498749     3.9044528794     7.1931009449   Si  0.0 0.0    7.95443318e-07 -4.16860259e-14 -5.01656573e-07
atom     12.1907806215     3.9044528795     0.7419847683   Si  0.0 0.0   -3.83530182e-07 -9.64930175e-14  5.58123204e-07
atom     13.7823113941     3.9044528795     8.5290214634   Al  0.0 0.0   -1.83868643e-12 -9.68670651e-14  5.02989241e-12
atom     15.7425141483     0.0000000241    -0.1041441045   Mg  0.0 0.0    9.89533360e-07 -9.59749086e-14 -1.58547159e-07
atom     17.9561511218     0.0000000241     6.2952670784   Mg  0.0 0.0   -1.76315007e-06 -7.02722954e-14  2.95020328e-07
atom     23.3535794505     3.9044528795    -5.3500241740   Mg  0.0 0.0    1.76315222e-06  7.56916918e-14 -2.95017508e-07
atom     25.5672164235     3.9044528795     1.0493870087   Mg  0.0 0.0   -9.89531311e-07  9.80942141e-14  1.58558345e-07
atom     15.3746308048     3.9044528795     3.9189579960   Si  0.0 0.0    3.83531529e-07 -9.60633120e-14 -5.58112014e-07
atom     18.7973615518     3.9044528795    -2.5321581791   Si  0.0 0.0   -7.95446751e-07 -3.97865998e-14  5.01650885e-07
atom     19.8105611482     3.9044528795     2.2012102721   Al  0.0 0.0   -1.30912479e-06  1.50353079e-14  8.02707986e-07
atom     21.4991694241     0.0000000241    -1.2559673676   Al  0.0 0.0    1.30912296e-06 -7.67446569e-15 -8.02707898e-07
atom     22.5123690205     0.0000000241     3.4774010836   Si  0.0 0.0    7.95443766e-07  4.66688098e-14 -5.01650189e-07
atom     25.9350997675     0.0000000241    -2.9737150914   Si  0.0 0.0   -3.83531362e-07  9.81665192e-14  5.58121675e-07
energy -2.986846496810714e+02
charge 0.0000
end
