begin
comment uuid: 816cbb40-0bbd-434a-883a-426e5415d3e2 
lattice 27.9034359104 -0.0000000015 -7.8194272980
lattice -0.0000000004 7.6778121620 0.0000000000
lattice -0.0561859628 -0.0000000002 12.8259389961
atom   -0.016171    0.000000   12.668112 Al  0.0   0.0  0.0000000850  -0.0000000000  -0.0000004200
atom   2.089405    3.838906   3.861385 Mg  0.0   0.0  -0.0016367500  0.0000000050  -0.0042220050
atom   4.276953    3.838906   10.343066 Mg  0.0   0.0  -0.0018500550  0.0000000050  0.0010059400
atom   9.698606    0.000000   -1.742529 Mg  0.0   0.0  0.0001742650  -0.0000000050  -0.0002564600
atom   11.886137    0.000000   4.739186 Mg  0.0   0.0  -0.0004740300  -0.0000000050  -0.0001544800
atom   1.613576    0.000000   7.832879 Si  0.0   0.0  -0.0007734550  -0.0000000050  0.0054891650
atom   5.217802    0.000000   1.237437 Si  0.0   0.0  -0.0044948200  -0.0000000050  -0.0015342250
atom   6.050226    0.000000   6.067897 Al  0.0   0.0  0.0005600200  -0.0000000050  -0.0002268900
atom   7.925292    3.838906   2.532665 Al  0.0   0.0  0.0000748150  0.0000000050  0.0004949050
atom   8.757744    3.838906   7.363117 Si  0.0   0.0  -0.0006269850  0.0000000050  -0.0002299400
atom   12.361905    3.838906   0.767671 Si  0.0   0.0  0.0003210400  0.0000000050  -0.0005435250
atom   13.935547    3.838906   8.758398 Mg  0.0   0.0  -0.0000000100  0.0000000000  -0.0000003700
atom   16.041123    0.000000   -0.048329 Mg  0.0   0.0  0.0004737750  -0.0000000050  0.0001539550
atom   18.228671    0.000000   6.433353 Mg  0.0   0.0  -0.0001745250  -0.0000000050  0.0002559700
atom   23.650324    3.838906   -5.652243 Mg  0.0   0.0  0.0018498250  0.0000000050  -0.0010064400
atom   25.837855    3.838906   0.829472 Mg  0.0   0.0  0.0016364400  0.0000000050  0.0042214600
atom   15.565294    3.838906   3.923165 Si  0.0   0.0  -0.0003218000  0.0000000050  0.0005401600
atom   19.169520    3.838906   -2.672277 Si  0.0   0.0  0.0006279150  0.0000000050  0.0002349050
atom   20.001944    3.838906   2.158184 Al  0.0   0.0  -0.0000747600  0.0000000050  -0.0004949150
atom   21.877010    0.000000   -1.377049 Al  0.0   0.0  -0.0005599650  -0.0000000050  0.0002269300
atom   22.709462    0.000000   3.453403 Si  0.0   0.0  0.0044959900  -0.0000000050  0.0015391350
atom   26.313623    0.000000   -3.142043 Si  0.0   0.0  0.0007729800  -0.0000000050  -0.0054928600
energy -295.749432505000129
charge 0.000000000000000
end
begin
comment uuid: e526851f-1de7-4145-afea-a44a353445b4 
lattice 27.9034359104 -0.0000000015 -7.8194272980
lattice -0.0000000004 7.6778121620 0.0000000000
lattice -0.0561859628 -0.0000000002 12.8259389961
atom   -0.016171    0.000000   12.668112 Si  0.0   0.0  -0.0000016500  -0.0000000000  0.0000014250
atom   2.089405    3.838906   3.861385 Mg  0.0   0.0  -0.0029271450  0.0000000050  -0.0062219250
atom   4.276953    3.838906   10.343066 Mg  0.0   0.0  -0.0026562650  0.0000000050  0.0014000700
atom   9.698606    0.000000   -1.742529 Mg  0.0   0.0  0.0002620400  -0.0000000050  -0.0003564700
atom   11.886137    0.000000   4.739186 Mg  0.0   0.0  -0.0006140850  -0.0000000050  -0.0001699950
atom   1.613576    0.000000   7.832879 Si  0.0   0.0  -0.0014868900  -0.0000000050  0.0059526350
atom   5.217802    0.000000   1.237437 Si  0.0   0.0  -0.0051636750  -0.0000000050  -0.0016871650
atom   6.050226    0.000000   6.067897 Al  0.0   0.0  0.0008800550  -0.0000000050  -0.0006015000
atom   7.925292    3.838906   2.532665 Al  0.0   0.0  -0.0004057850  0.0000000050  0.0002560300
atom   8.757744    3.838906   7.363117 Si  0.0   0.0  -0.0005469050  0.0000000050  0.0000128000
atom   12.361905    3.838906   0.767671 Si  0.0   0.0  -0.0002516050  0.0000000050  -0.0006940000
atom   13.935547    3.838906   8.758398 Mg  0.0   0.0  0.0000000450  0.0000000000  -0.0000004450
atom   16.041123    0.000000   -0.048329 Mg  0.0   0.0  0.0006139300  -0.0000000050  0.0001693050
atom   18.228671    0.000000   6.433353 Mg  0.0   0.0  -0.0002621850  -0.0000000050  0.0003558250
atom   23.650324    3.838906   -5.652243 Mg  0.0   0.0  0.0026561500  0.0000000050  -0.0014007400
atom   25.837855    3.838906   0.829472 Mg  0.0   0.0  0.0029269350  0.0000000050  0.0062211750
atom   15.565294    3.838906   3.923165 Si  0.0   0.0  0.0002508500  0.0000000050  0.0006904650
atom   19.169520    3.838906   -2.672277 Si  0.0   0.0  0.0005479650  0.0000000050  -0.0000079850
atom   20.001944    3.838906   2.158184 Al  0.0   0.0  0.0004059450  0.0000000050  -0.0002561700
atom   21.877010    0.000000   -1.377049 Al  0.0   0.0  -0.0008798950  -0.0000000050  0.0006013600
atom   22.709462    0.000000   3.453403 Si  0.0   0.0  0.0051653500  -0.0000000050  0.0016918350
atom   26.313623    0.000000   -3.142043 Si  0.0   0.0  0.0014868050  -0.0000000050  -0.0059565350
energy -281.685615040000130
charge 0.000000000000000
end
begin
comment uuid: 8f204884-25fc-40dc-90cd-b49261157c94 
lattice 27.9034359104 -0.0000000015 -7.8194272980
lattice -0.0000000004 7.6778121620 0.0000000000
lattice -0.0561859628 -0.0000000002 12.8259389961
atom   -0.016171    0.000000   12.668112 Mg  0.0   0.0  0.0022954200  -0.0000000000  0.0035741150
atom   2.089405    3.838906   3.861385 Al  0.0   0.0  -0.0014866050  0.0000000000  -0.0015866100
atom   4.276953    3.838906   10.343066 Mg  0.0   0.0  0.0006209950  0.0000000050  0.0009096400
atom   9.698606    0.000000   -1.742529 Mg  0.0   0.0  -0.0000360000  -0.0000000050  -0.0001275000
atom   11.886137    0.000000   4.739186 Mg  0.0   0.0  -0.0001712300  -0.0000000050  -0.0000966250
atom   1.613576    0.000000   7.832879 Si  0.0   0.0  0.0006475400  -0.0000000050  -0.0022094200
atom   5.217802    0.000000   1.237437 Si  0.0   0.0  -0.0020375500  -0.0000000050  0.0023846300
atom   6.050226    0.000000   6.067897 Al  0.0   0.0  -0.0028444050  -0.0000000050  -0.0023463450
atom   7.925292    3.838906   2.532665 Al  0.0   0.0  -0.0024709850  0.0000000050  -0.0002031350
atom   8.757744    3.838906   7.363117 Si  0.0   0.0  -0.0000355250  0.0000000050  -0.0000633150
atom   12.361905    3.838906   0.767671 Si  0.0   0.0  0.0005788900  0.0000000050  -0.0000100900
atom   13.935547    3.838906   8.758398 Mg  0.0   0.0  -0.0000580750  0.0000000000  0.0000936200
atom   16.041123    0.000000   -0.048329 Mg  0.0   0.0  0.0000266900  -0.0000000050  -0.0000038550
atom   18.228671    0.000000   6.433353 Mg  0.0   0.0  -0.0000859300  -0.0000000050  0.0001290750
atom   23.650324    3.838906   -5.652243 Mg  0.0   0.0  -0.0001150950  0.0000000050  -0.0000882550
atom   25.837855    3.838906   0.829472 Mg  0.0   0.0  -0.0000480400  0.0000000050  -0.0002087300
atom   15.565294    3.838906   3.923165 Si  0.0   0.0  -0.0000380700  0.0000000050  0.0000937550
atom   19.169520    3.838906   -2.672277 Si  0.0   0.0  0.0001044250  0.0000000050  -0.0001834900
atom   20.001944    3.838906   2.158184 Al  0.0   0.0  -0.0004757800  0.0000000050  -0.0000224850
atom   21.877010    0.000000   -1.377049 Al  0.0   0.0  -0.0006320800  -0.0000000050  -0.0000354650
atom   22.709462    0.000000   3.453403 Si  0.0   0.0  0.0013553500  -0.0000000050  0.0005977800
atom   26.313623    0.000000   -3.142043 Si  0.0   0.0  0.0049060550  -0.0000000050  -0.0005972950
energy -295.741667085000074
charge 0.000000000000000
end
begin
comment uuid: 8f25d9c7-8b6f-4a5a-ba4d-78f0cbded240 
lattice 27.9034359104 -0.0000000015 -7.8194272980
lattice -0.0000000004 7.6778121620 0.0000000000
lattice -0.0561859628 -0.0000000002 12.8259389961
atom   -0.016171    0.000000   12.668112 Mg  0.0   0.0  0.0033800850  -0.0000000000  0.0056460850
atom   2.089405    3.838906   3.861385 Si  0.0   0.0  -0.0037159150  -0.0000000000  -0.0039465100
atom   4.276953    3.838906   10.343066 Mg  0.0   0.0  0.0004656650  0.0000000050  0.0013428950
atom   9.698606    0.000000   -1.742529 Mg  0.0   0.0  -0.0000108100  -0.0000000050  -0.0000002400
atom   11.886137    0.000000   4.739186 Mg  0.0   0.0  0.0002002250  -0.0000000050  -0.0001945700
atom   1.613576    0.000000   7.832879 Si  0.0   0.0  0.0001844750  -0.0000000000  -0.0021741150
atom   5.217802    0.000000   1.237437 Si  0.0   0.0  -0.0016571050  -0.0000000050  0.0020972000
atom   6.050226    0.000000   6.067897 Al  0.0   0.0  -0.0042921750  -0.0000000050  -0.0028666050
atom   7.925292    3.838906   2.532665 Al  0.0   0.0  -0.0035718400  0.0000000050  -0.0000512850
atom   8.757744    3.838906   7.363117 Si  0.0   0.0  0.0006878100  0.0000000050  0.0005231100
atom   12.361905    3.838906   0.767671 Si  0.0   0.0  0.0006856050  0.0000000050  0.0001383250
atom   13.935547    3.838906   8.758398 Mg  0.0   0.0  -0.0001068550  0.0000000000  0.0001052300
atom   16.041123    0.000000   -0.048329 Mg  0.0   0.0  -0.0000626000  -0.0000000050  0.0000542550
atom   18.228671    0.000000   6.433353 Mg  0.0   0.0  -0.0000286050  -0.0000000050  0.0001776850
atom   23.650324    3.838906   -5.652243 Mg  0.0   0.0  -0.0006276450  0.0000000050  -0.0004104150
atom   25.837855    3.838906   0.829472 Mg  0.0   0.0  0.0005258100  0.0000000050  -0.0006045750
atom   15.565294    3.838906   3.923165 Si  0.0   0.0  -0.0002232050  0.0000000050  0.0000013650
atom   19.169520    3.838906   -2.672277 Si  0.0   0.0  -0.0001402050  0.0000000050  -0.0003932150
atom   20.001944    3.838906   2.158184 Al  0.0   0.0  -0.0004620400  0.0000000050  0.0001846600
atom   21.877010    0.000000   -1.377049 Al  0.0   0.0  -0.0009289400  -0.0000000050  0.0002794500
atom   22.709462    0.000000   3.453403 Si  0.0   0.0  0.0014881350  -0.0000000050  0.0006184050
atom   26.313623    0.000000   -3.142043 Si  0.0   0.0  0.0082101200  -0.0000000000  -0.0005271400
energy -281.672983950000116
charge 0.000000000000000
end
begin
comment uuid: 0ddf0613-5ee2-4dff-a653-2b1dd6ccb077 
lattice 27.9034359104 -0.0000000015 -7.8194272980
lattice -0.0000000004 7.6778121620 0.0000000000
lattice -0.0561859628 -0.0000000002 12.8259389961
atom   -0.016171    0.000000   12.668112 Mg  0.0   0.0  0.0016785100  -0.0000000000  -0.0008374350
atom   2.089405    3.838906   3.861385 Mg  0.0   0.0  0.0009063200  0.0000000050  -0.0006937750
atom   4.276953    3.838906   10.343066 Al  0.0   0.0  -0.0017688200  0.0000000050  -0.0012167150
atom   9.698606    0.000000   -1.742529 Mg  0.0   0.0  -0.0010772250  -0.0000000050  -0.0004855050
atom   11.886137    0.000000   4.739186 Mg  0.0   0.0  -0.0003108300  -0.0000000050  -0.0003147850
atom   1.613576    0.000000   7.832879 Si  0.0   0.0  0.0075754150  -0.0000000050  0.0066455200
atom   5.217802    0.000000   1.237437 Si  0.0   0.0  -0.0015624150  -0.0000000050  -0.0083418900
atom   6.050226    0.000000   6.067897 Al  0.0   0.0  -0.0000303450  -0.0000000050  0.0020301800
atom   7.925292    3.838906   2.532665 Al  0.0   0.0  -0.0012737400  0.0000000050  0.0004773600
atom   8.757744    3.838906   7.363117 Si  0.0   0.0  -0.0030757050  0.0000000050  0.0043103200
atom   12.361905    3.838906   0.767671 Si  0.0   0.0  0.0003447800  0.0000000050  -0.0003950100
atom   13.935547    3.838906   8.758398 Mg  0.0   0.0  -0.0001040250  0.0000000000  0.0003060950
atom   16.041123    0.000000   -0.048329 Mg  0.0   0.0  -0.0001906250  -0.0000000050  -0.0000252100
atom   18.228671    0.000000   6.433353 Mg  0.0   0.0  0.0001542650  -0.0000000050  -0.0000791450
atom   23.650324    3.838906   -5.652243 Mg  0.0   0.0  0.0001339600  0.0000000050  -0.0001944750
atom   25.837855    3.838906   0.829472 Mg  0.0   0.0  -0.0005292950  0.0000000050  0.0000569950
atom   15.565294    3.838906   3.923165 Si  0.0   0.0  -0.0003268800  0.0000000050  0.0002663650
atom   19.169520    3.838906   -2.672277 Si  0.0   0.0  0.0000761300  0.0000000050  -0.0001044150
atom   20.001944    3.838906   2.158184 Al  0.0   0.0  0.0001241900  0.0000000050  0.0003624150
atom   21.877010    0.000000   -1.377049 Al  0.0   0.0  0.0003732200  -0.0000000050  -0.0003413300
atom   22.709462    0.000000   3.453403 Si  0.0   0.0  -0.0003501250  -0.0000000050  -0.0001129900
atom   26.313623    0.000000   -3.142043 Si  0.0   0.0  -0.0007667600  -0.0000000050  -0.0013125700
energy -295.740341005000118
charge 0.000000000000000
end
begin
comment uuid: 9e0040d5-463c-4ded-a613-c04e2591a8a3 
lattice 27.9034359104 -0.0000000015 -7.8194272980
lattice -0.0000000004 7.6778121620 0.0000000000
lattice -0.0561859628 -0.0000000002 12.8259389961
atom   -0.016171    0.000000   12.668112 Mg  0.0   0.0  0.0023714950  -0.0000000000  -0.0013477500
atom   2.089405    3.838906   3.861385 Mg  0.0   0.0  0.0009544600  0.0000000050  -0.0006734000
atom   4.276953    3.838906   10.343066 Si  0.0   0.0  -0.0035057100  0.0000000000  -0.0043205000
atom   9.698606    0.000000   -1.742529 Mg  0.0   0.0  -0.0021442650  -0.0000000050  -0.0003373400
atom   11.886137    0.000000   4.739186 Mg  0.0   0.0  -0.0001342900  -0.0000000050  -0.0004565250
atom   1.613576    0.000000   7.832879 Si  0.0   0.0  0.0111842200  -0.0000000000  0.0093938500
atom   5.217802    0.000000   1.237437 Si  0.0   0.0  -0.0004532700  -0.0000000050  -0.0084668600
atom   6.050226    0.000000   6.067897 Al  0.0   0.0  -0.0006615650  -0.0000000050  0.0034086750
atom   7.925292    3.838906   2.532665 Al  0.0   0.0  -0.0017360900  0.0000000050  -0.0007010800
atom   8.757744    3.838906   7.363117 Si  0.0   0.0  -0.0046242350  0.0000000050  0.0057235450
atom   12.361905    3.838906   0.767671 Si  0.0   0.0  0.0002303900  0.0000000050  0.0000667100
atom   13.935547    3.838906   8.758398 Mg  0.0   0.0  0.0000489050  0.0000000000  0.0003026000
atom   16.041123    0.000000   -0.048329 Mg  0.0   0.0  -0.0001053950  -0.0000000050  -0.0000371500
atom   18.228671    0.000000   6.433353 Mg  0.0   0.0  0.0002201300  -0.0000000050  -0.0000245500
atom   23.650324    3.838906   -5.652243 Mg  0.0   0.0  0.0000405700  0.0000000050  0.0000157600
atom   25.837855    3.838906   0.829472 Mg  0.0   0.0  -0.0004411100  0.0000000050  0.0000297350
atom   15.565294    3.838906   3.923165 Si  0.0   0.0  -0.0003923150  0.0000000050  0.0000741900
atom   19.169520    3.838906   -2.672277 Si  0.0   0.0  -0.0001994400  0.0000000050  -0.0001709550
atom   20.001944    3.838906   2.158184 Al  0.0   0.0  0.0003054450  0.0000000050  0.0002692050
atom   21.877010    0.000000   -1.377049 Al  0.0   0.0  0.0004118800  -0.0000000050  -0.0007524800
atom   22.709462    0.000000   3.453403 Si  0.0   0.0  -0.0004587650  -0.0000000050  -0.0002087100
atom   26.313623    0.000000   -3.142043 Si  0.0   0.0  -0.0009110550  -0.0000000050  -0.0017869650
energy -281.671123970000053
charge 0.000000000000000
end
begin
comment uuid: f1c32bb3-f00b-4cb5-8138-255a906cfbad 
lattice 27.9034359104 -0.0000000015 -7.8194272980
lattice -0.0000000004 7.6778121620 0.0000000000
lattice -0.0561859628 -0.0000000002 12.8259389961
atom   -0.016171    0.000000   12.668112 Mg  0.0   0.0  0.0001040650  -0.0000000000  -0.0003068650
atom   2.089405    3.838906   3.861385 Mg  0.0   0.0  0.0003106050  0.0000000050  0.0003142300
atom   4.276953    3.838906   10.343066 Mg  0.0   0.0  0.0010770000  0.0000000000  0.0004850800
atom   9.698606    0.000000   -1.742529 Al  0.0   0.0  0.0017690950  -0.0000000000  0.0012162800
atom   11.886137    0.000000   4.739186 Mg  0.0   0.0  -0.0009065400  -0.0000000050  0.0006933550
atom   1.613576    0.000000   7.832879 Si  0.0   0.0  -0.0003453650  -0.0000000050  0.0003916250
atom   5.217802    0.000000   1.237437 Si  0.0   0.0  0.0030764500  -0.0000000050  -0.0043055250
atom   6.050226    0.000000   6.067897 Al  0.0   0.0  0.0012738400  -0.0000000050  -0.0004774100
atom   7.925292    3.838906   2.532665 Al  0.0   0.0  0.0000303300  0.0000000050  -0.0020299400
atom   8.757744    3.838906   7.363117 Si  0.0   0.0  0.0015636550  0.0000000050  0.0083468900
atom   12.361905    3.838906   0.767671 Si  0.0   0.0  -0.0075765900  0.0000000050  -0.0066498400
atom   13.935547    3.838906   8.758398 Mg  0.0   0.0  -0.0016784300  0.0000000000  0.0008365850
atom   16.041123    0.000000   -0.048329 Mg  0.0   0.0  0.0005290750  -0.0000000050  -0.0000575350
atom   18.228671    0.000000   6.433353 Mg  0.0   0.0  -0.0001342300  -0.0000000050  0.0001940000
atom   23.650324    3.838906   -5.652243 Mg  0.0   0.0  -0.0001545150  0.0000000050  0.0000786650
atom   25.837855    3.838906   0.829472 Mg  0.0   0.0  0.0001903700  0.0000000050  0.0000246800
atom   15.565294    3.838906   3.923165 Si  0.0   0.0  0.0007660600  0.0000000050  0.0013092000
atom   19.169520    3.838906   -2.672277 Si  0.0   0.0  0.0003511200  0.0000000050  0.0001179600
atom   20.001944    3.838906   2.158184 Al  0.0   0.0  -0.0003730800  0.0000000050  0.0003412950
atom   21.877010    0.000000   -1.377049 Al  0.0   0.0  -0.0001240450  -0.0000000050  -0.0003624300
atom   22.709462    0.000000   3.453403 Si  0.0   0.0  -0.0000751650  -0.0000000050  0.0001093600
atom   26.313623    0.000000   -3.142043 Si  0.0   0.0  0.0003263000  -0.0000000050  -0.0002696500
energy -295.740341470000033
charge 0.000000000000000
end
begin
comment uuid: 054674be-f6ba-4454-b1df-e506aeb7c57f 
lattice 27.9034359104 -0.0000000015 -7.8194272980
lattice -0.0000000004 7.6778121620 0.0000000000
lattice -0.0561859628 -0.0000000002 12.8259389961
atom   -0.016171    0.000000   12.668112 Mg  0.0   0.0  -0.0000490750  -0.0000000000  -0.0003035200
atom   2.089405    3.838906   3.861385 Mg  0.0   0.0  0.0001338700  0.0000000050  0.0004558350
atom   4.276953    3.838906   10.343066 Mg  0.0   0.0  0.0021438200  0.0000000050  0.0003367850
atom   9.698606    0.000000   -1.742529 Si  0.0   0.0  0.0035117350  -0.0000000000  0.0043235000
atom   11.886137    0.000000   4.739186 Mg  0.0   0.0  -0.0009549100  -0.0000000050  0.0006729400
atom   1.613576    0.000000   7.832879 Si  0.0   0.0  -0.0002312400  -0.0000000050  -0.0000701550
atom   5.217802    0.000000   1.237437 Si  0.0   0.0  0.0046244250  -0.0000000050  -0.0057189700
atom   6.050226    0.000000   6.067897 Al  0.0   0.0  0.0017359700  -0.0000000050  0.0007008000
atom   7.925292    3.838906   2.532665 Al  0.0   0.0  0.0006611850  0.0000000050  -0.0034083600
atom   8.757744    3.838906   7.363117 Si  0.0   0.0  0.0004541500  0.0000000050  0.0084715700
atom   12.361905    3.838906   0.767671 Si  0.0   0.0  -0.0111859400  0.0000000000  -0.0093988600
atom   13.935547    3.838906   8.758398 Mg  0.0   0.0  -0.0023716900  0.0000000000  0.0013467750
atom   16.041123    0.000000   -0.048329 Mg  0.0   0.0  0.0004406450  -0.0000000050  -0.0000304300
atom   18.228671    0.000000   6.433353 Mg  0.0   0.0  -0.0000410300  -0.0000000050  -0.0000163850
atom   23.650324    3.838906   -5.652243 Mg  0.0   0.0  -0.0002206000  0.0000000050  0.0000239200
atom   25.837855    3.838906   0.829472 Mg  0.0   0.0  0.0001049400  0.0000000050  0.0000364700
atom   15.565294    3.838906   3.923165 Si  0.0   0.0  0.0009100400  0.0000000050  0.0017834500
atom   19.169520    3.838906   -2.672277 Si  0.0   0.0  0.0004594950  0.0000000050  0.0002135400
atom   20.001944    3.838906   2.158184 Al  0.0   0.0  -0.0004119400  0.0000000050  0.0007522950
atom   21.877010    0.000000   -1.377049 Al  0.0   0.0  -0.0003055100  -0.0000000050  -0.0002693700
atom   22.709462    0.000000   3.453403 Si  0.0   0.0  0.0002001500  -0.0000000050  0.0001757650
atom   26.313623    0.000000   -3.142043 Si  0.0   0.0  0.0003915150  -0.0000000050  -0.0000775900
energy -281.671124745000043
charge 0.000000000000000
end
begin
comment uuid: 73378883-ee41-418c-900f-e2ea46f77bd9 
lattice 27.9034359104 -0.0000000015 -7.8194272980
lattice -0.0000000004 7.6778121620 0.0000000000
lattice -0.0561859628 -0.0000000002 12.8259389961
atom   -0.016171    0.000000   12.668112 Mg  0.0   0.0  0.0000580650  -0.0000000000  -0.0000944250
atom   2.089405    3.838906   3.861385 Mg  0.0   0.0  0.0001709550  0.0000000050  0.0000960450
atom   4.276953    3.838906   10.343066 Mg  0.0   0.0  0.0000357150  0.0000000050  0.0001269950
atom   9.698606    0.000000   -1.742529 Mg  0.0   0.0  -0.0006212550  -0.0000000050  -0.0009101950
atom   11.886137    0.000000   4.739186 Al  0.0   0.0  0.0014866650  -0.0000000000  0.0015861050
atom   1.613576    0.000000   7.832879 Si  0.0   0.0  -0.0005794450  -0.0000000050  0.0000066800
atom   5.217802    0.000000   1.237437 Si  0.0   0.0  0.0000364600  -0.0000000050  0.0000681900
atom   6.050226    0.000000   6.067897 Al  0.0   0.0  0.0024709900  -0.0000000050  0.0002031150
atom   7.925292    3.838906   2.532665 Al  0.0   0.0  0.0028444550  0.0000000050  0.0023462500
atom   8.757744    3.838906   7.363117 Si  0.0   0.0  0.0020387900  0.0000000050  -0.0023800550
atom   12.361905    3.838906   0.767671 Si  0.0   0.0  -0.0006472900  0.0000000050  0.0022060150
atom   13.935547    3.838906   8.758398 Mg  0.0   0.0  -0.0022954000  0.0000000000  -0.0035747700
atom   16.041123    0.000000   -0.048329 Mg  0.0   0.0  0.0000477300  -0.0000000050  0.0002080900
atom   18.228671    0.000000   6.433353 Mg  0.0   0.0  0.0001148650  -0.0000000050  0.0000877700
atom   23.650324    3.838906   -5.652243 Mg  0.0   0.0  0.0000856500  0.0000000050  -0.0001295950
atom   25.837855    3.838906   0.829472 Mg  0.0   0.0  -0.0000269850  0.0000000050  0.0000032750
atom   15.565294    3.838906   3.923165 Si  0.0   0.0  -0.0049076050  0.0000000050  0.0005942050
atom   19.169520    3.838906   -2.672277 Si  0.0   0.0  -0.0013543300  0.0000000050  -0.0005928050
atom   20.001944    3.838906   2.158184 Al  0.0   0.0  0.0006321950  0.0000000050  0.0000354050
atom   21.877010    0.000000   -1.377049 Al  0.0   0.0  0.0004758650  -0.0000000050  0.0000224250
atom   22.709462    0.000000   3.453403 Si  0.0   0.0  -0.0001035300  -0.0000000050  0.0001883750
atom   26.313623    0.000000   -3.142043 Si  0.0   0.0  0.0000374450  -0.0000000050  -0.0000971100
energy -295.741667230000132
charge 0.000000000000000
end
begin
comment uuid: 50ed92e9-e4c5-44a1-9116-8d3749a6385b 
lattice 27.9034359104 -0.0000000015 -7.8194272980
lattice -0.0000000004 7.6778121620 0.0000000000
lattice -0.0561859628 -0.0000000002 12.8259389961
atom   -0.016171    0.000000   12.668112 Mg  0.0   0.0  0.0001067950  -0.0000000000  -0.0001062000
atom   2.089405    3.838906   3.861385 Mg  0.0   0.0  -0.0002005450  0.0000000050  0.0001938300
atom   4.276953    3.838906   10.343066 Mg  0.0   0.0  0.0000105050  0.0000000050  -0.0000004350
atom   9.698606    0.000000   -1.742529 Mg  0.0   0.0  -0.0004659400  -0.0000000050  -0.0013436700
atom   11.886137    0.000000   4.739186 Si  0.0   0.0  0.0037167700  0.0000000000  0.0039494900
atom   1.613576    0.000000   7.832879 Si  0.0   0.0  -0.0006862050  -0.0000000050  -0.0001419100
atom   5.217802    0.000000   1.237437 Si  0.0   0.0  -0.0006868450  -0.0000000050  -0.0005184150
atom   6.050226    0.000000   6.067897 Al  0.0   0.0  0.0035717400  -0.0000000050  0.0000511750
atom   7.925292    3.838906   2.532665 Al  0.0   0.0  0.0042921500  0.0000000050  0.0028663050
atom   8.757744    3.838906   7.363117 Si  0.0   0.0  0.0016583600  0.0000000050  -0.0020927750
atom   12.361905    3.838906   0.767671 Si  0.0   0.0  -0.0001836700  0.0000000000  0.0021703150
atom   13.935547    3.838906   8.758398 Mg  0.0   0.0  -0.0033801100  0.0000000000  -0.0056468250
atom   16.041123    0.000000   -0.048329 Mg  0.0   0.0  -0.0005262050  -0.0000000050  0.0006037550
atom   18.228671    0.000000   6.433353 Mg  0.0   0.0  0.0006273700  -0.0000000050  0.0004097750
atom   23.650324    3.838906   -5.652243 Mg  0.0   0.0  0.0000282900  0.0000000050  -0.0001783750
atom   25.837855    3.838906   0.829472 Mg  0.0   0.0  0.0000622700  0.0000000050  -0.0000550000
atom   15.565294    3.838906   3.923165 Si  0.0   0.0  -0.0082123200  0.0000000000  0.0005240850
atom   19.169520    3.838906   -2.672277 Si  0.0   0.0  -0.0014871300  0.0000000050  -0.0006135950
atom   20.001944    3.838906   2.158184 Al  0.0   0.0  0.0009290200  0.0000000050  -0.0002796600
atom   21.877010    0.000000   -1.377049 Al  0.0   0.0  0.0004621050  -0.0000000050  -0.0001848900
atom   22.709462    0.000000   3.453403 Si  0.0   0.0  0.0001410500  -0.0000000050  0.0003978950
atom   26.313623    0.000000   -3.142043 Si  0.0   0.0  0.0002225550  -0.0000000050  -0.0000048850
energy -281.672984240000062
charge 0.000000000000000
end
begin
comment uuid: 1a75a811-8b2d-4e99-8de5-6f4e20d5e1a6 
lattice 27.9034359104 -0.0000000015 -7.8194272980
lattice -0.0000000004 7.6778121620 0.0000000000
lattice -0.0561859628 -0.0000000002 12.8259389961
atom   -0.016171    0.000000   12.668112 Mg  0.0   0.0  -0.0019127200  -0.0000000000  0.0051826300
atom   2.089405    3.838906   3.861385 Mg  0.0   0.0  -0.0006061150  0.0000000050  -0.0017140150
atom   4.276953    3.838906   10.343066 Mg  0.0   0.0  0.0044873000  0.0000000050  0.0031191000
atom   9.698606    0.000000   -1.742529 Mg  0.0   0.0  -0.0007535450  -0.0000000050  -0.0004476350
atom   11.886137    0.000000   4.739186 Mg  0.0   0.0  -0.0004008800  -0.0000000050  0.0005490550
atom   1.613576    0.000000   7.832879 Al  0.0   0.0  0.0005472900  -0.0000000050  0.0036229000
atom   5.217802    0.000000   1.237437 Si  0.0   0.0  0.0007929500  -0.0000000050  -0.0008518300
atom   6.050226    0.000000   6.067897 Al  0.0   0.0  0.0078487550  -0.0000000050  -0.0013473450
atom   7.925292    3.838906   2.532665 Al  0.0   0.0  0.0002104850  0.0000000050  -0.0002101850
atom   8.757744    3.838906   7.363117 Si  0.0   0.0  0.0042691800  0.0000000050  0.0005647700
atom   12.361905    3.838906   0.767671 Si  0.0   0.0  -0.0001792800  0.0000000050  0.0011405300
atom   13.935547    3.838906   8.758398 Mg  0.0   0.0  -0.0003534500  0.0000000000  -0.0004684600
atom   16.041123    0.000000   -0.048329 Mg  0.0   0.0  0.0003362600  -0.0000000050  0.0002452250
atom   18.228671    0.000000   6.433353 Mg  0.0   0.0  0.0002006100  -0.0000000050  -0.0003272650
atom   23.650324    3.838906   -5.652243 Mg  0.0   0.0  -0.0000961650  0.0000000050  0.0004873400
atom   25.837855    3.838906   0.829472 Mg  0.0   0.0  -0.0031161650  0.0000000050  -0.0002408500
atom   15.565294    3.838906   3.923165 Si  0.0   0.0  0.0000206450  0.0000000050  -0.0008564550
atom   19.169520    3.838906   -2.672277 Si  0.0   0.0  -0.0008744350  0.0000000050  -0.0003136200
atom   20.001944    3.838906   2.158184 Al  0.0   0.0  -0.0003814650  0.0000000050  0.0001422550
atom   21.877010    0.000000   -1.377049 Al  0.0   0.0  0.0002910500  -0.0000000050  -0.0005894450
atom   22.709462    0.000000   3.453403 Si  0.0   0.0  -0.0022189500  -0.0000000050  -0.0013601800
atom   26.313623    0.000000   -3.142043 Si  0.0   0.0  -0.0081113550  -0.0000000050  -0.0063265300
energy -306.850214690000143
charge 0.000000000000000
end
begin
comment uuid: 48b07dcd-a3f0-4f6b-be82-eb5430ce9792 
lattice 27.9034359104 -0.0000000015 -7.8194272980
lattice -0.0000000004 7.6778121620 0.0000000000
lattice -0.0561859628 -0.0000000002 12.8259389961
atom   -0.016171    0.000000   12.668112 Mg  0.0   0.0  -0.0047259850  -0.0000000000  0.0128615100
atom   2.089405    3.838906   3.861385 Mg  0.0   0.0  -0.0018343400  0.0000000050  -0.0042247900
atom   4.276953    3.838906   10.343066 Mg  0.0   0.0  0.0102733250  0.0000000050  0.0062756400
atom   9.698606    0.000000   -1.742529 Mg  0.0   0.0  -0.0011950650  -0.0000000050  -0.0013207300
atom   11.886137    0.000000   4.739186 Mg  0.0   0.0  -0.0012887550  -0.0000000050  0.0012775950
atom   1.613576    0.000000   7.832879 Mg  0.0   0.0  0.0039205700  -0.0000000050  0.0103499000
atom   5.217802    0.000000   1.237437 Si  0.0   0.0  -0.0000993850  -0.0000000050  -0.0019237500
atom   6.050226    0.000000   6.067897 Al  0.0   0.0  0.0178122650  -0.0000000050  -0.0029037950
atom   7.925292    3.838906   2.532665 Al  0.0   0.0  0.0005939400  0.0000000050  -0.0001721450
atom   8.757744    3.838906   7.363117 Si  0.0   0.0  0.0075932150  0.0000000050  0.0011398550
atom   12.361905    3.838906   0.767671 Si  0.0   0.0  -0.0007799500  0.0000000050  0.0014703650
atom   13.935547    3.838906   8.758398 Mg  0.0   0.0  -0.0004740500  0.0000000000  -0.0007868050
atom   16.041123    0.000000   -0.048329 Mg  0.0   0.0  0.0008438550  -0.0000000050  0.0001216600
atom   18.228671    0.000000   6.433353 Mg  0.0   0.0  0.0003136650  -0.0000000050  -0.0000073800
atom   23.650324    3.838906   -5.652243 Mg  0.0   0.0  0.0002085400  0.0000000050  0.0020336700
atom   25.837855    3.838906   0.829472 Mg  0.0   0.0  -0.0081217950  0.0000000050  -0.0015335950
atom   15.565294    3.838906   3.923165 Si  0.0   0.0  0.0005866000  0.0000000050  -0.0011002150
atom   19.169520    3.838906   -2.672277 Si  0.0   0.0  -0.0022486750  0.0000000050  -0.0008833050
atom   20.001944    3.838906   2.158184 Al  0.0   0.0  -0.0004893500  0.0000000050  -0.0002929650
atom   21.877010    0.000000   -1.377049 Al  0.0   0.0  0.0015238250  -0.0000000050  -0.0022642500
atom   22.709462    0.000000   3.453403 Si  0.0   0.0  -0.0021295650  -0.0000000050  -0.0023550550
atom   26.313623    0.000000   -3.142043 Si  0.0   0.0  -0.0202828800  -0.0000000050  -0.0157614200
energy -303.873531570000125
charge 0.000000000000000
end
begin
comment uuid: c9294e80-8406-44f2-9f56-dd66a7e96b8d 
lattice 27.9034359104 -0.0000000015 -7.8194272980
lattice -0.0000000004 7.6778121620 0.0000000000
lattice -0.0561859628 -0.0000000002 12.8259389961
atom   -0.016171    0.000000   12.668112 Mg  0.0   0.0  -0.0026369750  -0.0000000000  -0.0010617450
atom   2.089405    3.838906   3.861385 Mg  0.0   0.0  -0.0004047750  0.0000000050  0.0004345800
atom   4.276953    3.838906   10.343066 Mg  0.0   0.0  0.0008779050  0.0000000050  -0.0019760300
atom   9.698606    0.000000   -1.742529 Mg  0.0   0.0  0.0003078450  -0.0000000050  -0.0015675550
atom   11.886137    0.000000   4.739186 Mg  0.0   0.0  -0.0013218650  -0.0000000050  -0.0009306400
atom   1.613576    0.000000   7.832879 Si  0.0   0.0  -0.0023781600  -0.0000000050  0.0013311850
atom   5.217802    0.000000   1.237437 Al  0.0   0.0  -0.0074238000  -0.0000000050  -0.0071553650
atom   6.050226    0.000000   6.067897 Al  0.0   0.0  0.0012289950  -0.0000000050  0.0044172550
atom   7.925292    3.838906   2.532665 Al  0.0   0.0  0.0062151050  0.0000000050  0.0022175050