begin
comment uuid: 214987d9-9043-440d-af0a-812ec59364b7 parent_uuid: 00284ee1-6af0-439a-857f-64d2dfa5a7e3 trajectory_step: final_scf
lattice     27.5375417234     0.0000000001    -7.7132576232
lattice     -0.0000000000     7.7273846253    -0.0000000000
lattice     -0.0904923686     0.0000000000    12.5320763937
atom     -0.0506157571     0.0000000237    12.3777550670   Al  0.0 0.0    4.87929950e-13  2.95848940e-13  1.21986703e-12
atom      1.9976341757     3.8636923363     3.6302803929   Mg  0.0 0.0    9.82507157e-07  2.11026152e-13 -1.10652701e-08
atom      4.1348788020     3.8636923364    10.1159945433   Mg  0.0 0.0   -1.67821754e-07  1.61381310e-13  1.58167045e-06
atom      9.6231529139     0.0000000238    -1.7491896138   Mg  0.0 0.0    1.67824409e-07 -1.78217614e-13 -1.58167432e-06
atom     11.7603975407     0.0000000238     4.7365245362   Mg  0.0 0.0   -9.82507931e-07 -2.13414590e-13  1.10642531e-08
atom      1.5432583813     0.0000000237     7.7295424822   Si  0.0 0.0   -9.64708764e-07  2.32053774e-13 -1.10979726e-07
atom      5.0651007325     0.0000000237     1.1506288247   Si  0.0 0.0    7.12527111e-07  7.93854940e-14 -7.10589215e-07
atom      5.9287285716     0.0000000237     5.9180043917   Al  0.0 0.0   -8.37259176e-07 -2.16089836e-14 -1.36865117e-06
atom      7.8293031447     3.8636923364     2.4488005378   Al  0.0 0.0    8.37258003e-07  4.87500631e-15  1.36864626e-06
atom      8.6929309838     3.8636923364     7.2161761048   Si  0.0 0.0   -7.12527557e-07 -9.58940593e-14  7.10584555e-07
atom     12.2147733349     3.8636923364     0.6372624467   Si  0.0 0.0    9.64709090e-07 -2.44297891e-13  1.10980084e-07
atom     13.7181551046     3.8636923365     8.5211262555   Al  0.0 0.0    5.89751959e-13 -2.94449246e-13  1.61256118e-13
atom     15.7664050373     0.0000000238    -0.2263484188   Mg  0.0 0.0    9.82507791e-07 -2.23614996e-13 -1.10644289e-08
atom     17.9036496640     0.0000000238     6.2593657312   Mg  0.0 0.0   -1.67823619e-07 -1.33610887e-13  1.58167355e-06
atom     23.3919237758     3.8636923364    -5.6058184261   Mg  0.0 0.0    1.67823008e-07  1.50200083e-13 -1.58167023e-06
atom     25.5291684023     3.8636923364     0.8798957241   Mg  0.0 0.0   -9.82507242e-07  2.25746436e-13  1.10672521e-08
atom     15.3120292431     3.8636923365     3.8729136706   Si  0.0 0.0   -9.64709205e-07 -1.75534822e-13 -1.10980057e-07
atom     18.8338715941     3.8636923364    -2.7059999874   Si  0.0 0.0    7.12527174e-07 -6.46911620e-14 -7.10586173e-07
atom     19.6974994333     3.8636923364     2.0613755796   Al  0.0 0.0   -8.37258751e-07  8.60442050e-15 -1.36864780e-06
atom     21.5980740064     0.0000000238    -1.4078282745   Al  0.0 0.0    8.37258194e-07  7.92714679e-15  1.36865030e-06
atom     22.4617018456     0.0000000238     3.3595472926   Si  0.0 0.0   -7.12527696e-07  8.07390368e-14  7.10588493e-07
atom     25.9835441967     0.0000000238    -3.2193663652   Si  0.0 0.0    9.64708679e-07  1.87473077e-13  1.10981813e-07
energy -2.986844445526886e+02
charge 0.0000
end
