begin
comment uuid: 0ddf0613-5ee2-4dff-a653-2b1dd6ccb077
lattice     27.8626436108    -0.0000000000    -7.8999691914
lattice      0.0000000000     7.5717526759     0.0000000001
lattice     -0.0617983909    -0.0000000001    12.9376929852
atom     -0.0552988279    -0.0000000392    12.8307143078   Mg  0.0 0.0    6.42761950e-07 -2.50394182e-15 -8.48270881e-08
atom      2.1556949601     3.7858762988     3.9089504254   Mg  0.0 0.0    5.95360432e-08 -3.48676564e-15 -3.41782335e-07
atom      4.4146170768     3.7858762987    10.1953879159   Al  0.0 0.0   -4.92251767e-07  5.96448028e-15  4.26237199e-07
atom      9.6295077952    -0.0000000392    -1.7794826800   Mg  0.0 0.0    6.52992263e-07  7.57322668e-15  1.82216997e-07
atom     11.7867464080    -0.0000000392     4.7678772079   Mg  0.0 0.0    4.01575519e-07  1.05465712e-14  5.70221805e-07
atom      1.7411743682    -0.0000000392     8.0105937838   Si  0.0 0.0   -1.16392951e-06  6.33423074e-17 -5.94931325e-07
atom      5.1117913530    -0.0000000392     0.9527612729   Si  0.0 0.0   -1.76111731e-07 -1.62737263e-15  2.72771791e-07
atom      6.0074786054    -0.0000000392     5.9405830449   Al  0.0 0.0   -2.54046969e-08  1.84365861e-14  1.62459140e-07
atom      7.9557374154     3.7858762988     2.5246384401   Al  0.0 0.0    2.97626036e-07  2.71619523e-16 -1.41555735e-07
atom      8.7412064668     3.7858762987     7.4452505121   Si  0.0 0.0   -8.64705292e-07 -1.69883572e-14  7.84920827e-07
atom     12.3531187884     3.7858762988     0.7702536137   Si  0.0 0.0    1.41082543e-06  6.52196308e-15  1.01765160e-06
atom     13.8790931751     3.7858762987     8.8527997820   Mg  0.0 0.0   -1.98863218e-07  8.41497735e-15  1.92378244e-07
atom     16.0133624715    -0.0000000392    -0.0600400785   Mg  0.0 0.0    3.40930173e-08 -6.90559475e-16  1.01667089e-07
atom     18.2230367372    -0.0000000392     6.5171482202   Mg  0.0 0.0   -3.90469528e-08  6.64498040e-16 -4.93776468e-07
atom     23.5755501841     3.7858762988    -5.6306260856   Mg  0.0 0.0    3.86425094e-07 -6.06417270e-15 -4.54446793e-07
atom     25.7847440807     3.7858762987     0.8737667003   Mg  0.0 0.0   -5.02405698e-07  1.12296064e-15  2.06155724e-07
atom     15.4704101913     3.7858762987     3.9978096644   Si  0.0 0.0   -8.47497166e-07  6.95469951e-15 -7.84133725e-07
atom     19.0995496818     3.7858762988    -2.6735868594   Si  0.0 0.0    4.73886966e-07  2.27183784e-15  3.75676447e-07
atom     19.8623514484     3.7858762987     2.1752502940   Al  0.0 0.0   -4.22312627e-07  1.96113662e-15 -3.87520176e-07
atom     21.9363772597    -0.0000000392    -1.2962990197   Al  0.0 0.0    1.77180996e-07 -1.54295495e-14 -3.91034304e-07
atom     22.6643147970    -0.0000000392     3.5510353364   Si  0.0 0.0   -4.55671393e-07 -1.73194772e-14 -1.10850923e-06
atom     26.3457627575    -0.0000000392    -3.0751480178   Si  0.0 0.0    6.51296738e-07 -6.58705762e-15  4.90160320e-07
energy -2.957488108904467e+02
charge 0.0000
end
