begin
comment uuid: 214987d9-9043-440d-af0a-812ec59364b7 parent_uuid: 00284ee1-6af0-439a-857f-64d2dfa5a7e3 trajectory_step: final_scf
lattice     27.5709816704     0.0000000001    -7.7101096166
lattice     -0.0000000000     7.7092406474    -0.0000000000
lattice     -0.0845107720     0.0000000000    12.5487197231
atom     -0.0446554597     0.0000000236    12.3942123374   Al  0.0 0.0   -3.92085271e-14  4.20296009e-13 -7.38968429e-13
atom      2.0050141978     3.8546203473     3.6246580185   Mg  0.0 0.0    7.64301730e-07  2.91653619e-13 -8.12351523e-07
atom      4.1535465592     3.8546203473    10.1284861984   Mg  0.0 0.0   -7.69151396e-07  2.38357029e-13  1.10731827e-06
atom      9.6271441282     0.0000000237    -1.7438360545   Mg  0.0 0.0    7.69152924e-07 -2.54049257e-13 -1.10732304e-06
atom     11.7756764900     0.0000000238     4.7599921251   Mg  0.0 0.0   -7.64302627e-07 -2.94628844e-13  8.12347749e-07
atom      1.5448548940     0.0000000236     7.7412508928   Si  0.0 0.0    1.67881767e-07  3.28019174e-13  8.43787220e-07
atom      5.0840263413     0.0000000236     1.1619283042   Si  0.0 0.0    1.10608394e-06  1.17692761e-13 -1.17554336e-06
atom      5.9299619518     0.0000000237     5.9308504475   Al  0.0 0.0   -1.25596559e-06 -3.19109671e-14 -9.13695643e-07
atom      7.8507287360     3.8546203474     2.4537996965   Al  0.0 0.0    1.25596550e-06  1.46764299e-14  9.13690546e-07
atom      8.6966643464     3.8546203474     7.2227218397   Si  0.0 0.0   -1.10608378e-06 -1.33925354e-13  1.17553864e-06
atom     12.2358357937     3.8546203475     0.6433992505   Si  0.0 0.0   -1.67880988e-07 -3.38405618e-13 -8.43788611e-07
atom     13.7408353754     3.8546203475     8.5391575289   Al  0.0 0.0   -4.74587734e-14 -4.20577882e-13  2.07755894e-13
atom     15.7905050329     0.0000000238    -0.2303967904   Mg  0.0 0.0    7.64302516e-07 -3.11025290e-13 -8.12347582e-07
atom     17.9390373948     0.0000000238     6.2734313892   Mg  0.0 0.0   -7.69153375e-07 -1.91453195e-13  1.10732397e-06
atom     23.4126349637     3.8546203474    -5.5988908635   Mg  0.0 0.0    7.69150420e-07  2.07325850e-13 -1.10731818e-06
atom     25.5611673251     3.8546203474     0.9049373166   Mg  0.0 0.0   -7.64301878e-07  3.13639332e-13  8.12349668e-07
atom     15.3303457292     3.8546203475     3.8861960842   Si  0.0 0.0    1.67881284e-07 -2.50489467e-13  8.43789212e-07
atom     18.8695171765     3.8546203474    -2.6931265050   Si  0.0 0.0    1.10608395e-06 -9.92070844e-14 -1.17553775e-06
atom     19.7154527869     3.8546203474     2.0757956382   Al  0.0 0.0   -1.25596520e-06  1.61547970e-14 -9.13689818e-07
atom     21.6362195711     0.0000000238    -1.4012551126   Al  0.0 0.0    1.25596600e-06  1.09957643e-15  9.13695787e-07
atom     22.4821551816     0.0000000237     3.3676670307   Si  0.0 0.0   -1.10608352e-06  1.15993773e-13  1.17554342e-06
atom     26.0213266290     0.0000000237    -3.2116555578   Si  0.0 0.0   -1.67881603e-07  2.61232514e-13 -8.43788440e-07
energy -2.986847390590219e+02
charge 0.0000
end
