begin
comment uuid: d0dc4e30-e6d6-4620-8877-255d426671bb parent_uuid: a92eb12b-a1c1-421e-9fbe-b522f1045a85 trajectory_step: final_scf
lattice     27.2474858498    -0.0000000002    -9.1136641203
lattice      0.0000000001     7.6431044982     0.0000000000
lattice     -0.2944102731     0.0000000000    13.0319058486
atom     -0.2526085865    -0.0000001742    12.8698884269   Mg  0.0 0.0   -2.36926404e-13 -1.33887471e-13  4.33236196e-12
atom      1.9793697850     3.8215520749     3.8566347272   Mg  0.0 0.0   -9.92181471e-07 -1.10666754e-13 -7.96967666e-07
atom      4.0239477115     3.8215520749    10.6162105373   Mg  0.0 0.0   -1.53714339e-06 -9.56339758e-14 -7.16670084e-07
atom      9.3889883135    -0.0000001743    -2.4651715897   Mg  0.0 0.0    1.53714296e-06  9.83002787e-14  7.16668883e-07
atom     11.4335662400    -0.0000001743     4.2944042204   Mg  0.0 0.0    9.92182117e-07  1.11592264e-13  7.96964848e-07
atom      1.4161006504    -0.0000001742     8.0271884871   Si  0.0 0.0   -4.13567401e-07 -1.31683349e-13 -3.40883902e-07
atom      5.2267774925    -0.0000001743     1.4362756632   Si  0.0 0.0    9.95161410e-07 -3.58249331e-14 -1.83766596e-07
atom      5.5020134378    -0.0000001743     6.1447525780   Si  0.0 0.0    5.04714195e-07  1.33005182e-14 -5.12058840e-07
atom      7.9109225873     3.8215520748     2.0062863699   Si  0.0 0.0   -5.04714198e-07 -9.72112786e-15  5.12055517e-07
atom      8.1861585327     3.8215520748     6.7147632846   Si  0.0 0.0   -9.95161838e-07  3.96887715e-14  1.83763515e-07
atom     11.9968353745     3.8215520748     0.1238504603   Si  0.0 0.0    4.13568475e-07  1.32715184e-13  3.40882701e-07
atom     13.3711343385     3.8215520748     8.3130563691   Mg  0.0 0.0   -5.75842952e-13  1.33835115e-13 -5.16895318e-12
atom     15.6031127101    -0.0000001744    -0.7001973302   Mg  0.0 0.0   -9.92181869e-07  1.13445340e-13 -7.96978441e-07
atom     17.6476906371    -0.0000001744     6.0593784780   Mg  0.0 0.0   -1.53714640e-06  9.53544620e-14 -7.16672107e-07
atom     23.0127312382     3.8215520747    -7.0220036517   Mg  0.0 0.0    1.53714343e-06 -9.81479654e-14  7.16677824e-07
atom     25.0573091647     3.8215520747    -0.2624278428   Mg  0.0 0.0    9.92183166e-07 -1.14242607e-13  7.96977539e-07
atom     15.0398435757     3.8215520747     3.4703564291   Si  0.0 0.0   -4.13568955e-07  1.30742294e-13 -3.40892246e-07
atom     18.8505204169     3.8215520747    -3.1205563962   Si  0.0 0.0    9.95163611e-07  3.59603823e-14 -1.83768435e-07
atom     19.1257563628     3.8215520747     1.5879205185   Si  0.0 0.0    5.04714351e-07 -1.24307862e-14 -5.12060392e-07
atom     21.5346655120    -0.0000001744    -2.5505456921   Si  0.0 0.0   -5.04713319e-07  8.60793592e-15  5.12064182e-07
atom     21.8099014579    -0.0000001744     2.1579312226   Si  0.0 0.0   -9.95163196e-07 -3.95531599e-14  1.83772069e-07
atom     25.6205782992    -0.0000001744    -4.4329816021   Si  0.0 0.0    4.13569129e-07 -1.31967962e-13  3.40892468e-07
energy -2.365803535954275e+02
charge 0.0000
end
