begin
comment uuid: d7dac1cb-ee87-4461-ab4a-7b9936f14816 parent_uuid: 4c3843d7-8355-4b7b-b4e8-830f92b1b176 trajectory_step: final_scf
lattice     27.9413696947    -0.0000000000    -7.8694846856
lattice      0.0000000000     7.6006408082     0.0000000001
lattice     -0.0582415893    -0.0000000001    12.9009660356
atom     -0.0181644417    -0.0000000393    12.7422020649   Mg  0.0 0.0   -1.72589496e-11 -4.00928340e-13 -5.85328541e-13
atom      2.1278676389     3.8003203648     3.8648184135   Mg  0.0 0.0    2.30110627e-07 -2.80909986e-13 -4.57206101e-07
atom      4.3482652688     3.8003203648    10.3870244379   Mg  0.0 0.0   -6.16994267e-07 -1.38946631e-13  3.43195245e-08
atom      9.6443322845    -0.0000000394    -1.7383286807   Mg  0.0 0.0    6.16952807e-07  4.49932237e-13 -3.43032811e-08
atom     11.8647299120    -0.0000000394     4.7838773486   Mg  0.0 0.0   -2.30093219e-07  4.14099850e-13  4.57117828e-07
atom      1.5709371745    -0.0000000393     7.8959291979   Si  0.0 0.0    8.62704620e-08 -3.30751717e-13  1.20772445e-06
atom      5.1971385301    -0.0000000393     1.2219647874   Si  0.0 0.0   -1.41397108e-07  6.21149626e-14  1.52940021e-06
atom      5.9511407072    -0.0000000394     6.0720918647   Al  0.0 0.0   -2.49330282e-07  2.20055750e-13  3.68457153e-07
atom      8.0414568432     3.8003203648     2.5766038935   Al  0.0 0.0    2.49350367e-07  1.99948653e-13 -3.68451682e-07
atom      8.7954590214     3.8003203647     7.4267309707   Si  0.0 0.0    1.41400366e-07  3.34365297e-13 -1.52939776e-06
atom     12.4216603754     3.8003203647     0.7527665604   Si  0.0 0.0   -8.62521836e-08  4.62750298e-13 -1.20775867e-06
atom     13.9525204060     3.8003203647     8.8074597288   Mg  0.0 0.0   -1.89559552e-11  4.01095531e-13 -4.02991323e-11
atom     16.0985524853    -0.0000000394    -0.0699239242   Mg  0.0 0.0    2.30116876e-07  2.87215163e-13 -4.57234685e-07
atom     18.3189501185    -0.0000000394     6.4522820938   Mg  0.0 0.0   -6.17008940e-07  9.43316166e-14  3.43310875e-08
atom     23.6150171318     3.8003203649    -5.6730710315   Mg  0.0 0.0    6.16952220e-07 -4.05074923e-13 -3.42519551e-08
atom     25.8354147585     3.8003203648     0.8491349968   Mg  0.0 0.0   -2.30087011e-07 -4.20838484e-13  4.57173312e-07
atom     15.5416220226     3.8003203647     3.9611868602   Si  0.0 0.0    8.62656997e-08  2.89221868e-13  1.20769519e-06
atom     19.1678233768     3.8003203648    -2.7127775572   Si  0.0 0.0   -1.41393056e-07 -6.68766156e-14  1.52941496e-06
atom     19.9218255534     3.8003203648     2.1373495188   Al  0.0 0.0   -2.49323125e-07 -1.86548437e-13  3.68480239e-07
atom     22.0121416908    -0.0000000393    -1.3581384565   Al  0.0 0.0    2.49349452e-07 -2.33043726e-13 -3.68404865e-07
atom     22.7661438685    -0.0000000393     3.4919886204   Si  0.0 0.0    1.41402081e-07 -3.30042388e-13 -1.52934955e-06
atom     26.3923452233    -0.0000000393    -3.1819757898   Si  0.0 0.0   -8.62555519e-08 -4.20928873e-13 -1.20771452e-06
energy -2.928251348665723e+02
charge 0.0000
end
