begin
comment uuid: d0dc4e30-e6d6-4620-8877-255d426671bb parent_uuid: a92eb12b-a1c1-421e-9fbe-b522f1045a85 trajectory_step: final_scf
lattice     28.2569598697    -0.0000000002    -9.3643746889
lattice      0.0000000001     7.5098504533     0.0000000000
lattice     -0.4832265354     0.0000000000    12.8668270611
atom     -0.4378398261    -0.0000001712    12.7063455051   Mg  0.0 0.0    1.77923430e-13 -8.63616163e-18  4.26086421e-12
atom      2.0942610443     3.7549250555     3.9633997051   Mg  0.0 0.0    9.87073790e-07  1.98664324e-16  1.03967728e-06
atom      4.0795365045     3.7549250554    10.3808125190   Mg  0.0 0.0    8.97992361e-07  2.90014196e-16  1.55830726e-06
atom      9.6564903136    -0.0000001713    -2.5171359105   Mg  0.0 0.0   -8.97992098e-07 -2.49836540e-16 -1.55830781e-06
atom     11.6417657739    -0.0000001713     3.9002769033   Mg  0.0 0.0   -9.87073930e-07 -1.88982377e-16 -1.03967755e-06
atom      1.3111505409    -0.0000001712     7.9540810837   Si  0.0 0.0    1.21877105e-06  1.12427591e-16  1.15696186e-06
atom      5.3949586991    -0.0000001712     1.4432692245   Si  0.0 0.0   -7.44040648e-08  4.22034074e-16  1.18127918e-06
atom      5.5157783327    -0.0000001712     6.1672704580   Si  0.0 0.0   -7.49323022e-07 -1.87281950e-16  1.25426330e-06
atom      8.2202484855     3.7549250554     1.6964061504   Si  0.0 0.0    7.49323045e-07  1.71493969e-16 -1.25426386e-06
atom      8.3410681191     3.7549250554     6.4204073840   Si  0.0 0.0    7.44040731e-08 -5.34843917e-16 -1.18127970e-06
atom     12.4248762774     3.7549250554    -0.0904044754   Si  0.0 0.0   -1.21877092e-06 -1.67055628e-16 -1.15696199e-06
atom     13.6906401090     3.7549250554     8.0241581643   Mg  0.0 0.0   -1.83323192e-13 -6.44338370e-18 -4.25905980e-12
atom     16.2227409791    -0.0000001713    -0.7187876353   Mg  0.0 0.0    9.87074212e-07 -4.40858260e-16  1.03966779e-06
atom     18.2080164390    -0.0000001713     5.6986251766   Mg  0.0 0.0    8.97993088e-07 -2.27063252e-18  1.55830270e-06
atom     23.7849702490     3.7549250553    -7.1993232573   Mg  0.0 0.0   -8.97993349e-07 -2.63414217e-17 -1.55830217e-06
atom     25.7702457089     3.7549250553    -0.7819104454   Mg  0.0 0.0   -9.87074080e-07  4.76035695e-16 -1.03966751e-06
atom     15.4396304750     3.7549250554     3.2718937425   Si  0.0 0.0    1.21877277e-06  3.63728033e-16  1.15695441e-06
atom     19.5234386346     3.7549250553    -3.2389181176   Si  0.0 0.0   -7.44054171e-08  1.09040746e-16  1.18127403e-06
atom     19.6442582665     3.7549250553     1.4850831159   Si  0.0 0.0   -7.49320301e-07 -3.40573814e-16  1.25425814e-06
atom     22.3487284215    -0.0000001713    -2.9857811966   Si  0.0 0.0    7.49320283e-07  3.86993175e-16 -1.25425758e-06
atom     22.4695480534    -0.0000001714     1.7382200369   Si  0.0 0.0    7.44054193e-08 -6.98744104e-17 -1.18127351e-06
atom     26.5533562130    -0.0000001714    -4.7725918231   Si  0.0 0.0   -1.21877291e-06 -4.30211285e-16 -1.15695427e-06
energy -2.365816083069284e+02
charge 0.0000
end
