begin
comment uuid: 2de31ede-4cd9-4681-ab6d-28c194209012 parent_uuid: 46939af9-eee4-4d42-a067-25e919f9bf55 trajectory_step: final_scf
lattice     13.6011824865     0.0000000028    -0.0000000000
lattice     -6.8005912407    11.7789697612    -0.0000000001
lattice     -0.0000000000     0.0000000001    22.9752153498
atom      3.4877903490     8.0023516907     1.8876960864   Mg  0.0 0.0    6.93647009e-07 -8.60576720e-09 -1.32608240e-07
atom     -1.8735437203    10.7983092183     1.8876960839   Mg  0.0 0.0   -3.39486060e-07  6.05070269e-07 -1.32715990e-07
atom     -1.6142468745     4.7572788744     1.8876960876   Mg  0.0 0.0   -3.54323982e-07 -5.96360582e-07 -1.32557522e-07
atom      2.8283732540     3.1735284814     5.7438039340   Mg  0.0 0.0   -5.64738162e-07  1.61408463e-06 -1.02764949e-15
atom      9.4386395607     0.8626790890     5.7438039340   Mg  0.0 0.0   -1.11560290e-06 -1.29605854e-06 -8.53168773e-16
atom      8.1347606446     7.7427624500     5.7438039340   Mg  0.0 0.0    1.68013541e-06 -3.17904168e-07 -6.87082931e-16
atom      3.4877903490     8.0023516908     9.5999117815   Mg  0.0 0.0    6.93647015e-07 -8.60576398e-09  1.32608241e-07
atom     -1.8735437203    10.7983092183     9.5999117840   Mg  0.0 0.0   -3.39486063e-07  6.05070266e-07  1.32715995e-07
atom     -1.6142468745     4.7572788744     9.5999117804   Mg  0.0 0.0   -3.54323988e-07 -5.96360558e-07  1.32557489e-07
atom      3.3128007235     3.7766182556    13.3753037643   Mg  0.0 0.0   -6.93648033e-07  8.59971175e-09 -1.32614192e-07
atom      8.6741347894     0.9806607240    13.3753037618   Mg  0.0 0.0    3.39491811e-07 -6.05068119e-07 -1.32721946e-07
atom      8.4148379488     7.0216910670    13.3753037654   Mg  0.0 0.0    3.54319257e-07  5.96364458e-07 -1.32563428e-07
atom      3.9722178246     8.6054414690    17.2314116089   Mg  0.0 0.0    5.64724965e-07 -1.61409858e-06  2.78056043e-15
atom     -2.6380484981    10.9162908566    17.2314116089   Mg  0.0 0.0    1.11562159e-06  1.29605412e-06  2.62893819e-15
atom     -1.3341695699     4.0362074841    17.2314116089   Mg  0.0 0.0   -1.68014090e-06  3.17922592e-07  2.82760956e-15
atom      3.3128007235     3.7766182557    21.0875194534   Mg  0.0 0.0   -6.93648023e-07  8.59972127e-09  1.32614182e-07
atom      8.6741347894     0.9806607240    21.0875194559   Mg  0.0 0.0    3.39491800e-07 -6.05068122e-07  1.32721932e-07
atom      8.4148379488     7.0216910670    21.0875194523   Mg  0.0 0.0    3.54319255e-07  5.96364475e-07  1.32563452e-07
atom     -0.0000001113     0.0000000899     2.2716804339   Si  0.0 0.0   -1.09461469e-10  6.87251971e-11  2.41411487e-07
atom      6.8005911543     3.9263233440     2.0429998115   Si  0.0 0.0   -3.49617296e-11  3.28108885e-11  2.71992843e-07
atom     -0.0000000956     7.8526465927     5.7438039340   Si  0.0 0.0   -5.74013494e-11  9.39422406e-11 -7.07392234e-15
atom     -0.0000001113     0.0000000899     9.2159274341   Si  0.0 0.0   -1.09463770e-10  6.87442277e-11 -2.41411471e-07
atom     -0.0000000625     0.0000000866    13.7592880916   Si  0.0 0.0    1.09460868e-10 -6.87744169e-11  2.41445878e-07
atom      6.8005911543     3.9263233441     9.4446080564   Si  0.0 0.0   -3.49607991e-11  3.28152994e-11 -2.71992850e-07
atom     -0.0000000823     7.8526465993    13.5306074889   Si  0.0 0.0    3.49577597e-11 -3.28092147e-11  2.71987694e-07
atom     -0.0000000625     0.0000000866    20.7035351262   Si  0.0 0.0    1.09461838e-10 -6.87545931e-11 -2.41445862e-07
atom      6.8005911676     3.9263233507    17.2314116088   Si  0.0 0.0    5.73949427e-11 -9.39400816e-11  2.60369149e-15
atom     -0.0000000823     7.8526465993    20.9322157288   Si  0.0 0.0    3.49586200e-11 -3.28045911e-11 -2.71987692e-07
energy -3.597668588110483e+02
charge 0.0000
end
