begin
comment uuid: b7745953-ee25-464c-bb02-10e6fed9026a 
lattice 27.4841493030 0.0000000002 -7.8194519869
lattice -0.0000000003 23.3986497144 -0.0000000009
lattice -0.3015483366 -0.0000000008 24.9774527072
atom   -0.110283    0.000000   12.334751 Si  0.0   0.0  -0.0000018750  -0.0000000000  0.0000016350
atom   1.982336    3.896122   3.598812 Mg  0.0   0.0  -0.0006267500  -0.0000815200  0.0003685550
atom   4.140066    3.981458   10.002730 Mg  0.0   0.0  -0.0007998250  -0.0006711100  0.0000318250
atom   9.547597    0.000000   -1.778775 Mg  0.0   0.0  0.0007027650  -0.0000000000  0.0003257650
atom   11.690273    0.000000   4.697197 Mg  0.0   0.0  0.0003356000  -0.0000000000  -0.0001490400
atom   1.479205    0.000000   7.849864 Si  0.0   0.0  0.0029621950  0.0000000000  -0.0025791450
atom   5.010662    0.000000   1.117321 Si  0.0   0.0  0.0024679600  -0.0000000000  0.0020681350
atom   5.786054    0.000000   5.917144 Al  0.0   0.0  0.0061269400  -0.0000000000  -0.0013994750
atom   7.815604    3.883152   2.414615 Al  0.0   0.0  -0.0042387500  0.0000629600  -0.0008672900
atom   8.654662    3.901008   7.159283 Si  0.0   0.0  -0.0021143000  -0.0000046500  -0.0012852150
atom   12.175567    3.894243   0.561429 Si  0.0   0.0  -0.0007413450  -0.0003320900  -0.0007095500
atom   13.631792    3.903100   8.425025 Al  0.0   0.0  0.0000008200  0.0000044750  -0.0000002250
atom   15.732102    0.000000   -0.344587 Mg  0.0   0.0  -0.0003795700  0.0000000000  0.0004670600
atom   17.899577    0.000000   6.111061 Mg  0.0   0.0  -0.0009121950  0.0000000000  -0.0000893450
atom   23.314281    3.857565   -5.654956 Mg  0.0   0.0  0.0007416600  0.0002460550  0.0001916700
atom   25.482037    3.949097   0.873580 Mg  0.0   0.0  0.0008729500  -0.0005975450  -0.0001046050
atom   15.249139    3.890358   3.792567 Si  0.0   0.0  0.0012424950  0.0002318150  0.0011397500
atom   18.773016    3.877849   -2.787460 Si  0.0   0.0  0.0023166700  0.0002243700  0.0019179350
atom   19.639880    3.849913   1.976969 Al  0.0   0.0  0.0037527950  0.0003968850  0.0003209450
atom   21.627976    0.000000   -1.427128 Al  0.0   0.0  -0.0050079050  -0.0000000000  -0.0008547350
atom   22.556858    0.000000   3.322667 Si  0.0   0.0  -0.0064278050  0.0000000000  -0.0022010550
atom   25.974144    0.000000   -3.269616 Si  0.0   0.0  -0.0004482500  0.0000000000  -0.0028375600
atom   -0.261057    0.000000   24.823478 Al  0.0   0.0  0.0000008150  0.0000000000  -0.0000001950
atom   1.781547    3.949097   15.976471 Mg  0.0   0.0  -0.0008712200  -0.0005975250  0.0001042800
atom   3.949303    3.857565   22.505007 Mg  0.0   0.0  -0.0007399400  0.0002460800  -0.0001919700
atom   9.364007    0.000000   10.738990 Mg  0.0   0.0  0.0009138800  -0.0000000000  0.0000890400
atom   11.531482    0.000000   17.194638 Mg  0.0   0.0  0.0003812900  -0.0000000000  -0.0004673850
atom   1.289440    0.000000   20.119666 Si  0.0   0.0  0.0004567400  0.0000000000  0.0028318000
atom   4.706726    0.000000   13.527384 Si  0.0   0.0  0.0064201400  -0.0000000000  0.0021955400
atom   5.635608    0.000000   18.277179 Al  0.0   0.0  0.0050097150  -0.0000000000  0.0008542100
atom   7.623703    3.849913   14.873081 Al  0.0   0.0  -0.0037511650  0.0003968650  -0.0003213500
atom   8.490568    3.877849   19.637511 Si  0.0   0.0  -0.0023213650  0.0002245700  -0.0019205600
atom   12.014444    3.890358   13.057484 Si  0.0   0.0  -0.0012464750  0.0002317950  -0.0011381900
atom   13.481018    3.906069   20.913752 Al  0.0   0.0  0.0000008250  -0.0000505850  -0.0000002150
atom   15.573310    0.000000   12.152853 Mg  0.0   0.0  -0.0003338750  0.0000000000  0.0001487250
atom   17.715987    0.000000   18.628826 Mg  0.0   0.0  -0.0007010700  -0.0000000000  -0.0003260700
atom   23.123518    3.981458   6.847321 Mg  0.0   0.0  0.0008015450  -0.0006711250  -0.0000321350
atom   25.281248    3.896122   13.251239 Mg  0.0   0.0  0.0006284900  -0.0000815550  -0.0003688850
atom   15.088016    3.894243   16.288622 Si  0.0   0.0  0.0007395250  -0.0003320600  0.0007108450
atom   18.608922    3.901008   9.690768 Si  0.0   0.0  0.0021082100  -0.0000046400  0.0012862000
atom   19.447980    3.883152   14.435435 Al  0.0   0.0  0.0042404050  0.0000629650  0.0008669300
atom   21.477530    0.000000   10.932907 Al  0.0   0.0  -0.0061252250  0.0000000000  0.0013990450
atom   22.252921    0.000000   15.732730 Si  0.0   0.0  -0.0024749000  0.0000000000  -0.0020679050
atom   25.784378    0.000000   9.000187 Si  0.0   0.0  -0.0029572050  0.0000000000  0.0025843750
atom   -0.110283    7.925603   12.334751 Al  0.0   0.0  0.0000008200  0.0007390600  -0.0000001950
atom   1.979755    11.699325   3.563398 Mg  0.0   0.0  -0.0006307950  -0.0000000000  -0.0001400350
atom   4.139033    11.699325   10.043702 Mg  0.0   0.0  -0.0005429750  0.0000000000  -0.0002221550
atom   9.559110    7.783434   -1.766039 Mg  0.0   0.0  0.0006905600  -0.0000190050  0.0000666450
atom   11.684114    7.802931   4.671209 Mg  0.0   0.0  0.0006841900  -0.0003639100  -0.0000603450
atom   1.503050    7.850094   7.686195 Si  0.0   0.0  -0.0001573700  -0.0012411300  0.0016043950
atom   5.013849    7.781489   1.090805 Si  0.0   0.0  0.0024396450  0.0001422150  0.0016497950
atom   5.860228    7.812812   5.840863 Al  0.0   0.0  0.0045960500  -0.0000435750  0.0004769300
atom   7.819536    11.699325   2.384410 Al  0.0   0.0  -0.0046673850  -0.0000000000  -0.0002691800
atom   8.667155    11.699325   7.148550 Si  0.0   0.0  -0.0026775900  -0.0000000000  -0.0014548100
atom   12.173075    11.699325   0.544105 Si  0.0   0.0  -0.0006365250  0.0000000000  -0.0008945850
atom   13.631792    11.699325   8.425025 Al  0.0   0.0  0.0000008200  0.0000000000  -0.0000001900
atom   15.736796    7.787543   -0.324057 Mg  0.0   0.0  -0.0005010000  -0.0000605450  0.0002320300
atom   17.832746    7.807637   6.125355 Mg  0.0   0.0  -0.0005573850  -0.0002756400  -0.0001037850
atom   23.300200    11.699325   -5.682874 Mg  0.0   0.0  0.0007460650  -0.0000000000  0.0003640450
atom   25.388181    11.699325   0.738708 Mg  0.0   0.0  0.0005573400  -0.0000000000  -0.0004266150
atom   15.221858    11.699325   3.788972 Si  0.0   0.0  0.0010250650  -0.0000000000  0.0010729000
atom   18.753454    11.699325   -2.823066 Si  0.0   0.0  0.0024289900  0.0000000000  0.0020909650
atom   19.570269    11.699325   1.935130 Al  0.0   0.0  0.0040207600  0.0000000000  0.0005127950
atom   21.552003    7.787402   -1.512177 Al  0.0   0.0  -0.0043423450  -0.0000490700  -0.0003443600
atom   22.371627    7.819481   3.243722 Si  0.0   0.0  -0.0016017500  -0.0004358600  -0.0013075450
atom   25.905507    7.793650   -3.355622 Si  0.0   0.0  -0.0001098950  -0.0000357650  -0.0007809400
atom   -0.261057    7.775629   24.823478 Al  0.0   0.0  0.0000008250  0.0000817350  -0.0000002250
atom   1.875403    11.699325   16.111342 Mg  0.0   0.0  -0.0005556250  0.0000000000  0.0004262950
atom   3.963383    11.699325   22.532925 Mg  0.0   0.0  -0.0007443700  0.0000000000  -0.0003643500
atom   9.430837    7.807637   10.724696 Mg  0.0   0.0  0.0005591150  -0.0002756250  0.0001034550
atom   11.526787    7.787543   17.174108 Mg  0.0   0.0  0.0005027300  -0.0000605600  -0.0002323550
atom   1.358076    7.793650   20.205673 Si  0.0   0.0  0.0001040000  -0.0000357600  0.0007793700
atom   4.891957    7.819481   13.606329 Si  0.0   0.0  0.0016012450  -0.0004356050  0.0013047000
atom   5.711580    7.787402   18.362228 Al  0.0   0.0  0.0043439650  -0.0000490800  0.0003439750
atom   7.693314    11.699325   14.914921 Al  0.0   0.0  -0.0040190150  0.0000000000  -0.0005130800
atom   8.510130    11.699325   19.673117 Si  0.0   0.0  -0.0024332750  0.0000000000  -0.0020861450
atom   12.041726    11.699325   13.061078 Si  0.0   0.0  -0.0010197950  0.0000000000  -0.0010679450
atom   13.481018    11.699325   20.913752 Al  0.0   0.0  0.0000008400  0.0000000000  -0.0000002250
atom   15.579470    7.802931   12.178842 Mg  0.0   0.0  -0.0006824600  -0.0003639300  0.0000600250
atom   17.704474    7.783434   18.616090 Mg  0.0   0.0  -0.0006888550  -0.0000189950  -0.0000669500
atom   23.124551    11.699325   6.806349 Mg  0.0   0.0  0.0005446900  0.0000000000  0.0002218450
atom   25.283829    11.699325   13.286653 Mg  0.0   0.0  0.0006325200  -0.0000000000  0.0001397150
atom   15.090508    11.699325   16.305946 Si  0.0   0.0  0.0006323100  0.0000000000  0.0008919400
atom   18.596429    11.699325   9.701501 Si  0.0   0.0  0.0026705600  0.0000000000  0.0014546600
atom   19.444048    11.699325   14.465641 Al  0.0   0.0  0.0046690150  -0.0000000000  0.0002688000
atom   21.403356    7.812812   11.009188 Al  0.0   0.0  -0.0045943850  -0.0000435700  -0.0004771700
atom   22.249734    7.781489   15.759246 Si  0.0   0.0  -0.0024440400  0.0001422100  -0.0016453100
atom   25.760533    7.850094   9.163856 Si  0.0   0.0  0.0001562300  -0.0012409650  -0.0015999100
atom   -0.110283    15.473047   12.334751 Al  0.0   0.0  0.0000008200  -0.0007390600  -0.0000002000
atom   1.982336    19.502527   3.598812 Mg  0.0   0.0  -0.0006267500  0.0000815200  0.0003685550
atom   4.140066    19.417192   10.002730 Mg  0.0   0.0  -0.0007998250  0.0006711100  0.0000318250
atom   9.559110    15.615216   -1.766039 Mg  0.0   0.0  0.0006905600  0.0000190050  0.0000666450
atom   11.684114    15.595719   4.671209 Mg  0.0   0.0  0.0006841900  0.0003639100  -0.0000603450
atom   1.503050    15.548556   7.686195 Si  0.0   0.0  -0.0001573700  0.0012411300  0.0016043950
atom   5.013849    15.617161   1.090805 Si  0.0   0.0  0.0024396450  -0.0001422100  0.0016497950
atom   5.860228    15.585838   5.840863 Al  0.0   0.0  0.0045960500  0.0000435750  0.0004769300
atom   7.815604    19.515498   2.414615 Al  0.0   0.0  -0.0042387500  -0.0000629600  -0.0008672900
atom   8.654662    19.497641   7.159283 Si  0.0   0.0  -0.0021143000  0.0000046500  -0.0012852150
atom   12.175567    19.504407   0.561429 Si  0.0   0.0  -0.0007413450  0.0003320900  -0.0007095500
atom   13.631792    19.495550   8.425025 Al  0.0   0.0  0.0000008200  -0.0000044750  -0.0000002250
atom   15.736796    15.611107   -0.324057 Mg  0.0   0.0  -0.0005010000  0.0000605450  0.0002320300
atom   17.832746    15.591013   6.125355 Mg  0.0   0.0  -0.0005573850  0.0002756400  -0.0001037850
atom   23.314281    19.541084   -5.654956 Mg  0.0   0.0  0.0007416600  -0.0002460550  0.0001916700
atom   25.482037    19.449553   0.873580 Mg  0.0   0.0  0.0008729500  0.0005975450  -0.0001046050
atom   15.249139    19.508291   3.792567 Si  0.0   0.0  0.0012424950  -0.0002318150  0.0011397500
atom   18.773016    19.520801   -2.787460 Si  0.0   0.0  0.0023166700  -0.0002243700  0.0019179350
atom   19.639880    19.548737   1.976969 Al  0.0   0.0  0.0037527950  -0.0003968850  0.0003209450
atom   21.552003    15.611248   -1.512177 Al  0.0   0.0  -0.0043423450  0.0000490700  -0.0003443600
atom   22.371627    15.579169   3.243722 Si  0.0   0.0  -0.0016017500  0.0004358600  -0.0013075450
atom   25.905507    15.604999   -3.355622 Si  0.0   0.0  -0.0001098950  0.0000357650  -0.0007809400
atom   -0.261057    15.623021   24.823478 Al  0.0   0.0  0.0000008250  -0.0000817350  -0.0000002250
atom   1.781547    19.449553   15.976471 Mg  0.0   0.0  -0.0008712200  0.0005975250  0.0001042800
atom   3.949303    19.541084   22.505007 Mg  0.0   0.0  -0.0007399400  -0.0002460800  -0.0001919700
atom   9.430837    15.591013   10.724696 Mg  0.0   0.0  0.0005591150  0.0002756200  0.0001034550
atom   11.526787    15.611107   17.174108 Mg  0.0   0.0  0.0005027250  0.0000605600  -0.0002323550
atom   1.358076    15.604999   20.205673 Si  0.0   0.0  0.0001040000  0.0000357600  0.0007793700
atom   4.891957    15.579169   13.606329 Si  0.0   0.0  0.0016012450  0.0004356050  0.0013047000
atom   5.711580    15.611248   18.362228 Al  0.0   0.0  0.0043439650  0.0000490800  0.0003439750
atom   7.623703    19.548737   14.873081 Al  0.0   0.0  -0.0037511650  -0.0003968650  -0.0003213500
atom   8.490568    19.520801   19.637511 Si  0.0   0.0  -0.0023213650  -0.0002245750  -0.0019205650
atom   12.014444    19.508291   13.057484 Si  0.0   0.0  -0.0012464750  -0.0002317950  -0.0011381900
atom   13.481018    19.492581   20.913752 Al  0.0   0.0  0.0000008250  0.0000505850  -0.0000002150
atom   15.579470    15.595719   12.178842 Mg  0.0   0.0  -0.0006824600  0.0003639300  0.0000600250
atom   17.704474    15.615216   18.616090 Mg  0.0   0.0  -0.0006888550  0.0000189950  -0.0000669500
atom   23.123518    19.417192   6.847321 Mg  0.0   0.0  0.0008015450  0.0006711250  -0.0000321350
atom   25.281248    19.502527   13.251239 Mg  0.0   0.0  0.0006284900  0.0000815550  -0.0003688850
atom   15.088016    19.504407   16.288622 Si  0.0   0.0  0.0007395250  0.0003320600  0.0007108450
atom   18.608922    19.497641   9.690768 Si  0.0   0.0  0.0021082100  0.0000046400  0.0012862000
atom   19.447980    19.515498   14.435435 Al  0.0   0.0  0.0042404050  -0.0000629650  0.0008669300
atom   21.403356    15.585838   11.009188 Al  0.0   0.0  -0.0045943850  0.0000435700  -0.0004771700
atom   22.249734    15.617161   15.759246 Si  0.0   0.0  -0.0024440400  -0.0001422100  -0.0016453100
atom   25.760533    15.548556   9.163856 Si  0.0   0.0  0.0001562250  0.0012409650  -0.0015999100
energy -1778.036503935000610
charge 0.000000000000000
end
begin
comment uuid: 1e9e970b-1034-4808-bd87-ba191749b3de 
lattice 27.4841493030 0.0000000002 -7.8194519869
lattice -0.0000000003 23.3986497144 -0.0000000009
lattice -0.3015483366 -0.0000000008 24.9774527072
atom   -0.110283    0.000000   12.334751 Mg  0.0   0.0  0.0000008750  0.0000000000  -0.0000003350
atom   1.985701    3.901449   3.575755 Mg  0.0   0.0  -0.0003871750  0.0000101500  0.0000969450
atom   4.134819    3.893579   10.008124 Mg  0.0   0.0  -0.0011521150  -0.0007938600  0.0001847650
atom   9.568252    0.000000   -1.773587 Mg  0.0   0.0  0.0007306950  -0.0000000000  0.0003549950
atom   11.672186    0.000000   4.693765 Mg  0.0   0.0  0.0010603800  0.0000000000  -0.0003250800
atom   1.499206    0.000000   7.594823 Si  0.0   0.0  -0.0001114050  0.0000000000  0.0013060600
atom   5.028292    0.000000   1.076038 Si  0.0   0.0  0.0024819500  -0.0000000000  0.0021366900
atom   5.840732    0.000000   5.841541 Al  0.0   0.0  0.0063319350  0.0000000000  -0.0005631400
atom   7.817456    3.901026   2.411999 Al  0.0   0.0  -0.0045981550  0.0000828750  -0.0004711200
atom   8.660094    3.897486   7.169571 Si  0.0   0.0  -0.0024697400  0.0002747550  -0.0020130500
atom   12.167606    3.902426   0.558508 Si  0.0   0.0  -0.0009340950  0.0000443950  -0.0007858550
atom   13.631792    3.893976   8.425025 Al  0.0   0.0  0.0000008000  0.0000896250  -0.0000003700
atom   15.724228    0.000000   -0.320548 Mg  0.0   0.0  -0.0011918250  0.0000000000  0.0000117300
atom   17.842683    0.000000   6.123509 Mg  0.0   0.0  -0.0010954000  -0.0000000000  -0.0001712650
atom   23.280403    3.927722   -5.684552 Mg  0.0   0.0  0.0007550700  -0.0001688850  0.0002279700
atom   25.371981    3.927069   0.661488 Mg  0.0   0.0  0.0006677300  -0.0010072850  -0.0003073800
atom   15.221292    3.902510   3.800062 Si  0.0   0.0  0.0008139650  -0.0002598500  0.0008702800
atom   18.743202    3.916478   -2.811522 Si  0.0   0.0  0.0025450400  -0.0001714450  0.0018481950
atom   19.569810    3.908469   1.945345 Al  0.0   0.0  0.0040066550  0.0005454100  0.0006095000
atom   21.531857    0.000000   -1.535751 Al  0.0   0.0  -0.0050026750  0.0000000000  -0.0017944550
atom   22.297077    0.000000   3.200069 Si  0.0   0.0  -0.0014132200  0.0000000000  -0.0005531800
atom   25.883280    0.000000   -3.404172 Si  0.0   0.0  -0.0004476950  0.0000000000  -0.0030673900
atom   -0.261057    0.000000   24.823478 Al  0.0   0.0  0.0000007650  -0.0000000000  -0.0000003300
atom   1.891603    3.927069   16.188563 Mg  0.0   0.0  -0.0006660350  -0.0010072750  0.0003067150
atom   3.983180    3.927722   22.534603 Mg  0.0   0.0  -0.0007534000  -0.0001688650  -0.0002286050
atom   9.420900    0.000000   10.726542 Mg  0.0   0.0  0.0010970950  0.0000000000  0.0001706150
atom   11.539356    0.000000   17.170599 Mg  0.0   0.0  0.0011935250  0.0000000000  -0.0000123750
atom   1.380303    0.000000   20.254223 Si  0.0   0.0  0.0004394100  -0.0000000000  0.0030637100
atom   4.966506    0.000000   13.649982 Si  0.0   0.0  0.0014162050  0.0000000000  0.0005503050
atom   5.731726    0.000000   18.385802 Al  0.0   0.0  0.0050042600  0.0000000000  0.0017939050
atom   7.693773    3.908469   14.904706 Al  0.0   0.0  -0.0040049500  0.0005454150  -0.0006101500
atom   8.520382    3.916478   19.661573 Si  0.0   0.0  -0.0025491650  -0.0001713600  -0.0018437950
atom   12.042292    3.902510   13.049989 Si  0.0   0.0  -0.0008094750  -0.0002598300  -0.0008675750
atom   13.481018    3.904619   20.913752 Al  0.0   0.0  0.0000008400  -0.0000452700  -0.0000003800
atom   15.591397    0.000000   12.156286 Mg  0.0   0.0  -0.0010586800  -0.0000000000  0.0003244200
atom   17.695331    0.000000   18.623637 Mg  0.0   0.0  -0.0007290200  -0.0000000000  -0.0003556450
atom   23.128764    3.893579   6.841927 Mg  0.0   0.0  0.0011537850  -0.0007938900  -0.0001854100
atom   25.277883    3.901449   13.274296 Mg  0.0   0.0  0.0003888700  0.0000101550  -0.0000976000
atom   15.095978    3.902426   16.291542 Si  0.0   0.0  0.0009296150  0.0000443850  0.0007853250
atom   18.603489    3.897486   9.680480 Si  0.0   0.0  0.0024643500  0.0002747450  0.0020160100
atom   19.446127    3.901026   14.438052 Al  0.0   0.0  0.0045997550  0.0000828700  0.0004705050
atom   21.422852    0.000000   11.008510 Al  0.0   0.0  -0.0063303150  -0.0000000000  0.0005625900
atom   22.235291    0.000000   15.774013 Si  0.0   0.0  -0.0024840550  0.0000000000  -0.0021322700
atom   25.764378    0.000000   9.255228 Si  0.0   0.0  0.0001062850  -0.0000000000  -0.0013125300
atom   -0.110283    7.642452   12.334751 Al  0.0   0.0  0.0000007950  -0.0004486500  -0.0000003850
atom   1.983029    11.699325   3.582403 Mg  0.0   0.0  -0.0004663100  0.0000000000  0.0006129000
atom   4.097985    11.699325   10.051841 Mg  0.0   0.0  -0.0004811000  -0.0000000000  -0.0006457850
atom   9.551332    7.807580   -1.754357 Mg  0.0   0.0  0.0008749500  -0.0001487100  0.0001344300
atom   11.680013    7.799743   4.693117 Mg  0.0   0.0  0.0005762800  -0.0000006700  -0.0001165900
atom   1.494581    7.801700   7.708424 Si  0.0   0.0  0.0009868350  0.0009750600  0.0002698250
atom   5.017889    7.809773   1.114679 Si  0.0   0.0  0.0021458550  -0.0002074200  0.0017078200
atom   5.852467    7.805101   5.867912 Al  0.0   0.0  0.0041877400  -0.0002509500  0.0007515000
atom   7.826201    11.699325   2.423061 Al  0.0   0.0  -0.0044027750  0.0000000000  -0.0005952000
atom   8.648548    11.699325   7.181349 Si  0.0   0.0  -0.0019489500  0.0000000000  -0.0017886950
atom   12.172373    11.699325   0.564294 Si  0.0   0.0  -0.0007902350  0.0000000000  -0.0010456050
atom   13.631792    11.699325   8.425025 Al  0.0   0.0  0.0000007950  0.0000000000  -0.0000003800
atom   15.721057    7.802552   -0.325246 Mg  0.0   0.0  -0.0007350000  0.0000593950  0.0001617000
atom   17.849830    7.799564   6.117972 Mg  0.0   0.0  -0.0007780650  -0.0000872800  -0.0000192950
atom   23.289918    11.699325   -5.676893 Mg  0.0   0.0  0.0006386750  -0.0000000000  0.0001672250
atom   25.459525    11.699325   0.857305 Mg  0.0   0.0  0.0005128750  0.0000000000  -0.0004311450
atom   15.228028    11.699325   3.799583 Si  0.0   0.0  0.0011250300  0.0000000000  0.0011523000
atom   18.745744    11.699325   -2.801994 Si  0.0   0.0  0.0024274250  0.0000000000  0.0017241000
atom   19.587981    11.699325   1.962066 Al  0.0   0.0  0.0047589050  0.0000000000  0.0004017450
atom   21.558228    7.822121   -1.501530 Al  0.0   0.0  -0.0044122250  -0.0000458350  -0.0003318450
atom   22.392399    7.787342   3.262393 Si  0.0   0.0  -0.0025315900  0.0001954000  -0.0020984900
atom   25.916354    7.811117   -3.353175 Si  0.0   0.0  -0.0006570600  -0.0000887550  -0.0003322200
atom   -0.261057    7.793549   24.823478 Al  0.0   0.0  0.0000008100  0.0001548550  -0.0000003850
atom   1.804059    11.699325   15.992745 Mg  0.0   0.0  -0.0005111750  0.0000000000  0.0004304950
atom   3.973666    11.699325   22.526944 Mg  0.0   0.0  -0.0006370100  -0.0000000000  -0.0001678600
atom   9.413753    7.799564   10.732079 Mg  0.0   0.0  0.0007797450  -0.0000872850  0.0000186550
atom   11.542526    7.802552   17.175296 Mg  0.0   0.0  0.0007367000  0.0000594050  -0.0001623450
atom   1.347229    7.811117   20.203225 Si  0.0   0.0  0.0006543200  -0.0000888100  0.0003320150
atom   4.871185    7.787342   13.587658 Si  0.0   0.0  0.0025272400  0.0001953450  0.0021009650
atom   5.705356    7.822121   18.351581 Al  0.0   0.0  0.0044138350  -0.0000458400  0.0003312100
atom   7.675603    11.699325   14.887985 Al  0.0   0.0  -0.0047572400  0.0000000000  -0.0004024250
atom   8.517840    11.699325   19.652045 Si  0.0   0.0  -0.0024328550  0.0000000000  -0.0017213950
atom   12.035555    11.699325   13.050468 Si  0.0   0.0  -0.0011229500  0.0000000000  -0.0011501650
atom   13.481018    11.699325   20.913752 Al  0.0   0.0  0.0000008250  0.0000000000  -0.0000003800
atom   15.583570    7.799743   12.156934 Mg  0.0   0.0  -0.0005745750  -0.0000006650  0.0001159350
atom   17.712251    7.807580   18.604408 Mg  0.0   0.0  -0.0008732850  -0.0001487150  -0.0001350650
atom   23.165599    11.699325   6.798210 Mg  0.0   0.0  0.0004827800  -0.0000000000  0.0006451400
atom   25.280554    11.699325   13.267647 Mg  0.0   0.0  0.0004680000  -0.0000000000  -0.0006135500
atom   15.091210    11.699325   16.285756 Si  0.0   0.0  0.0007877050  0.0000000000  0.0010468350
atom   18.615035    11.699325   9.668702 Si  0.0   0.0  0.0019454850  -0.0000000000  0.0017923500
atom   19.437382    11.699325   14.426990 Al  0.0   0.0  0.0044043950  -0.0000000000  0.0005946100
atom   21.411117    7.805101   10.982139 Al  0.0   0.0  -0.0041861150  -0.0002509550  -0.0007522100
atom   22.245694    7.809773   15.735372 Si  0.0   0.0  -0.0021522600  -0.0002074650  -0.0017078500
atom   25.769003    7.801700   9.141626 Si  0.0   0.0  -0.0009877800  0.0009750750  -0.0002683600
atom   -0.110283    15.756198   12.334751 Al  0.0   0.0  0.0000007950  0.0004486500  -0.0000003850
atom   1.985701    19.497201   3.575755 Mg  0.0   0.0  -0.0003871750  -0.0000101550  0.0000969450
atom   4.134819    19.505071   10.008124 Mg  0.0   0.0  -0.0011521150  0.0007938600  0.0001847650
atom   9.551332    15.591070   -1.754357 Mg  0.0   0.0  0.0008749500  0.0001487100  0.0001344300
atom   11.680013    15.598907   4.693117 Mg  0.0   0.0  0.0005762800  0.0000006700  -0.0001165900
atom   1.494581    15.596949   7.708424 Si  0.0   0.0  0.0009868350  -0.0009750600  0.0002698200
atom   5.017889    15.588877   1.114679 Si  0.0   0.0  0.0021458550  0.0002074200  0.0017078200
atom   5.852467    15.593549   5.867912 Al  0.0   0.0  0.0041877400  0.0002509500  0.0007515000
atom   7.817456    19.497624   2.411999 Al  0.0   0.0  -0.0045981550  -0.0000828750  -0.0004711200
atom   8.660094    19.501164   7.169571 Si  0.0   0.0  -0.0024697400  -0.0002747550  -0.0020130500
atom   12.167606    19.496224   0.558508 Si  0.0   0.0  -0.0009340950  -0.0000443950  -0.0007858550
atom   13.631792    19.504673   8.425025 Al  0.0   0.0  0.0000008050  -0.0000896250  -0.0000003700
atom   15.721057    15.596098   -0.325246 Mg  0.0   0.0  -0.0007350000  -0.0000593950  0.0001617000
atom   17.849830    15.599086   6.117972 Mg  0.0   0.0  -0.0007780650  0.0000872800  -0.0000192950
atom   23.280403    19.470928   -5.684552 Mg  0.0   0.0  0.0007550700  0.0001688800  0.0002279700
atom   25.371981    19.471581   0.661488 Mg  0.0   0.0  0.0006677300  0.0010072800  -0.0003073800
atom   15.221292    19.496140   3.800062 Si  0.0   0.0  0.0008139650  0.0002598500  0.0008702800
atom   18.743202    19.482171   -2.811522 Si  0.0   0.0  0.0025450400  0.0001714450  0.0018481950
atom   19.569810    19.490181   1.945345 Al  0.0   0.0  0.0040066550  -0.0005454100  0.0006095000
atom   21.558228    15.576529   -1.501530 Al  0.0   0.0  -0.0044122250  0.0000458350  -0.0003318450
atom   22.392399    15.611308   3.262393 Si  0.0   0.0  -0.0025315900  -0.0001954000  -0.0020984900
atom   25.916354    15.587533   -3.353175 Si  0.0   0.0  -0.0006570600  0.0000887550  -0.0003322200
atom   -0.261057    15.605101   24.823478 Al  0.0   0.0  0.0000008100  -0.0001548550  -0.0000003900
atom   1.891603    19.471581   16.188563 Mg  0.0   0.0  -0.0006660350  0.0010072750  0.0003067150
atom   3.983180    19.470928   22.534603 Mg  0.0   0.0  -0.0007534050  0.0001688650  -0.0002286050
atom   9.413753    15.599086   10.732079 Mg  0.0   0.0  0.0007797450  0.0000872850  0.0000186550
atom   11.542526    15.596098   17.175296 Mg  0.0   0.0  0.0007367000  -0.0000594050  -0.0001623450
atom   1.347229    15.587533   20.203225 Si  0.0   0.0  0.0006543200  0.0000888100  0.0003320150
atom   4.871185    15.611308   13.587658 Si  0.0   0.0  0.0025272400  -0.0001953450  0.0021009600
atom   5.705356    15.576529   18.351581 Al  0.0   0.0  0.0044138350  0.0000458400  0.0003312100
atom   7.693773    19.490181   14.904706 Al  0.0   0.0  -0.0040049500  -0.0005454150  -0.0006101500
atom   8.520382    19.482171   19.661573 Si  0.0   0.0  -0.0025491650  0.0001713600  -0.0018437950
atom   12.042292    19.496140   13.049989 Si  0.0   0.0  -0.0008094750  0.0002598300  -0.0008675750
atom   13.481018    19.494031   20.913752 Al  0.0   0.0  0.0000008400  0.0000452700  -0.0000003800
atom   15.583570    15.598907   12.156934 Mg  0.0   0.0  -0.0005745750  0.0000006650  0.0001159350
atom   17.712251    15.591070   18.604408 Mg  0.0   0.0  -0.0008732850  0.0001487150  -0.0001350650
atom   23.128764    19.505071   6.841927 Mg  0.0   0.0  0.0011537850  0.0007938900  -0.0001854100
atom   25.277883    19.497201   13.274296 Mg  0.0   0.0  0.0003888700  -0.0000101550  -0.0000976000
atom   15.095978    19.496224   16.291542 Si  0.0   0.0  0.0009296150  -0.0000443850  0.0007853250
atom   18.603489    19.501164   9.680480 Si  0.0   0.0  0.0024643500  -0.0002747450  0.0020160100
atom   19.446127    19.497624   14.438052 Al  0.0   0.0  0.0045997550  -0.0000828700  0.0004705050
atom   21.411117    15.593549   10.982139 Al  0.0   0.0  -0.0041861150  0.0002509550  -0.0007522100
atom   22.245694    15.588877   15.735372 Si  0.0   0.0  -0.0021522600  0.0002074650  -0.0017078500
atom   25.769003    15.596949   9.141626 Si  0.0   0.0  -0.0009877800  -0.0009750750  -0.0002683600
energy -1789.166451655000401
charge 0.000000000000000
end
begin
comment uuid: 49723ca1-b951-4a5d-b422-32c1dea9d8b4 
lattice 27.4841493030 0.0000000002 -7.8194519869
lattice -0.0000000003 23.3986497144 -0.0000000009
lattice -0.3015483366 -0.0000000008 24.9774527072
atom   -0.134514    -0.027580   12.379982 Al  0.0   0.0  -0.0000192950  0.0002698250  -0.0005797050
atom   1.869186    3.899775   3.213154 Al  0.0   0.0  -0.0006789650  0.0000000000  -0.0007324100
atom   4.098608    3.899775   10.041729 Mg  0.0   0.0  -0.0004285450  -0.0000000000  -0.0008354000
atom   9.543556    0.009979   -1.749687 Mg  0.0   0.0  0.0006106050  -0.0001897750  0.0002658950
atom   11.675831    -0.001458   4.688861 Mg  0.0   0.0  0.0010287900  0.0000515200  -0.0002403000
atom   1.510967    -0.034539   7.783529 Si  0.0   0.0  -0.0008940650  0.0008072200  -0.0016566100
atom   4.983548    0.037193   1.109902 Si  0.0   0.0  0.0026727650  -0.0014152050  0.0025958850
atom   5.834394    0.041685   5.862090 Al  0.0   0.0  0.0025786250  0.0009216700  -0.0003776800
atom   7.806225    3.899775   2.432203 Al  0.0   0.0  -0.0053509650  0.0000000000  -0.0008330000
atom   8.672130    3.899775   7.188171 Si  0.0   0.0  -0.0027090550  -0.0000000000  -0.0018908750
atom   12.171890    3.899775   0.574587 Si  0.0   0.0  -0.0008028600  -0.0000000000  -0.0008014600
atom   13.638800    3.899775   8.416894 Al  0.0   0.0  0.0002455650  -0.0000000000  0.0001513150
atom   15.736626    -0.002007   -0.326839 Mg  0.0   0.0  -0.0007005350  0.0000554700  0.0002584450
atom   17.860509    -0.006639   6.122762 Mg  0.0   0.0  -0.0007935500  0.0001400800  -0.0002622000
atom   23.239030    3.899775   -5.698128 Mg  0.0   0.0  0.0007834300  -0.0000000000  -0.0000313150
atom   25.501935    3.899775   0.758349 Mg  0.0   0.0  0.0005394250  0.0000000000  0.0000136100
atom   15.254467    3.899775   3.793017 Si  0.0   0.0  0.0007234250  -0.0000000000  0.0011008850
atom   18.756146    3.899775   -2.801410 Si  0.0   0.0  0.0022380950  0.0000000000  0.0013460550
atom   19.618937    3.899775   1.936874 Al  0.0   0.0  0.0034686800  -0.0000000000  0.0011955050
atom   21.594388    0.012350   -1.519450 Al  0.0   0.0  -0.0028524450  -0.0001524900  -0.0012450400
atom   22.400370    0.001908   3.237392 Si  0.0   0.0  -0.0020619100  -0.0001324000  -0.0012561350
atom   26.007296    0.127047   -3.372579 Si  0.0   0.0  -0.0000924800  -0.0003267750  0.0020365550
atom   -0.279550    -0.020221   24.774894 Al  0.0   0.0  0.0011893200  0.0008796650  0.0013123850
atom   1.833510    3.899775   16.062472 Mg  0.0   0.0  -0.0008080750  -0.0000000000  0.0002223050
atom   3.985126    3.899775   22.499509 Mg  0.0   0.0  -0.0014173100  0.0000000000  0.0003271900
atom   9.404094    -0.013032   10.729480 Mg  0.0   0.0  0.0008627150  0.0001818950  0.0002638750
atom   11.536714    -0.009383   17.181523 Mg  0.0   0.0  0.0006075100  0.0002744250  -0.0002742000
atom   1.354668    0.005140   20.182039 Si  0.0   0.0  0.0004339050  0.0000626300  0.0017034100
atom   4.859307    -0.002273   13.593396 Si  0.0   0.0  0.0023250600  -0.0001684000  0.0021908350
atom   5.707536    0.008458   18.351713 Al  0.0   0.0  0.0046346300  -0.0002167150  0.0000792100
atom   7.663231    3.899775   14.883322 Al  0.0   0.0  -0.0039629000  0.0000000000  -0.0001456000
atom   8.510746    3.899775   19.645307 Si  0.0   0.0  -0.0021865900  0.0000000000  -0.0018001500
atom   12.020985    3.899775   13.041203 Si  0.0   0.0  -0.0005061500  -0.0000000000  -0.0007606200
atom   13.467276    3.899775   20.918937 Al  0.0   0.0  0.0001874400  0.0000000000  0.0000845250