begin
comment uuid: a776acbb-92a6-43fd-87b8-d4c55d44ef8c
lattice     27.7517636188    -0.0000000450    -9.6017587188
lattice      0.0000000072     7.9832675577     0.0000000547
lattice     -0.5395270741     0.0000000957    13.0534964751
atom     25.4344021960    -0.0000002124     2.0048046797   Mg  0.0 0.0    8.81988181e-07  4.09503972e-08  1.08366091e-06
atom      4.1566666065     3.9916337814     5.4188187074   Al  0.0 0.0   -1.07342588e-06 -5.86085244e-09  9.72514497e-07
atom      3.5484045115     3.9916336958    -0.7250309725   Mg  0.0 0.0   -6.19310755e-09  2.84770116e-09 -5.92487048e-07
atom      8.3027812597    -0.0000001743    -0.1229629570   Mg  0.0 0.0    8.00036665e-07  2.07588860e-08  4.22616502e-07
atom     12.6891793394    -0.0000004473     3.8800179398   Mg  0.0 0.0   -1.34280483e-07  6.89917309e-08  9.25543433e-07
atom      2.7632593092    -0.0000000425     8.0570527880   Si  0.0 0.0   -6.63702105e-07  4.72517033e-09  6.01348958e-07
atom      1.6675712766    -0.0000000345     3.0779765616   Si  0.0 0.0    4.25020025e-07  5.04211095e-09 -4.04787541e-07
atom      7.3048568933    -0.0000001094     6.2654068336   Si  0.0 0.0    7.77327862e-07  7.96885130e-09 -3.83844502e-08
atom      8.9844660505     3.9916336861     3.8808358051   Si  0.0 0.0    2.81433108e-07 -4.37850504e-09 -1.03215335e-07
atom      8.3469217735     3.9916336981     8.7028393812   Si  0.0 0.0    6.57023773e-07 -2.92368523e-09 -8.09776931e-08
atom     14.0806512447     3.9916349801    -0.1792268420   Si  0.0 0.0   -5.68482591e-07 -3.38689746e-07 -5.63724685e-07
atom     15.1314952486     3.9916340482     7.1738261204   Mg  0.0 0.0    5.23864661e-07 -1.02778090e-07 -3.64548694e-07
atom     12.7612478918    -0.0000005885    -3.6265928462   Mg  0.0 0.0   -1.18964883e-06  6.77738344e-08 -9.18945420e-07
atom     18.5120941337    -0.0000006839     6.0537580377   Mg  0.0 0.0   -1.10898702e-06  1.08648667e-07 -6.71619382e-07
atom     22.3240447940     3.9916339860     3.7308949229   Mg  0.0 0.0    6.49789465e-07 -5.09266610e-08  2.95128806e-07
atom     26.9127437555     3.9916338310    -1.6633365642   Mg  0.0 0.0    7.95155497e-07 -2.08774321e-08  1.18423235e-06
atom     17.3601027032     3.9916359135     2.8887947532   Si  0.0 0.0    6.42720603e-07 -5.45538017e-07  6.28552570e-07
atom     22.0323166712     3.9916341311    -4.1870383520   Si  0.0 0.0   -7.06168340e-07 -1.45305272e-07 -1.17842482e-07
atom     18.6965367975     3.9916409553    -1.2597319364   Si  0.0 0.0   -4.72217017e-07 -1.69269238e-06 -7.25983036e-07
atom     21.0583242054     7.9832636212    -1.5453241315   Si  0.0 0.0    2.07191484e-08  8.21093956e-07 -2.57309366e-07
atom     16.9166675107     7.9832594298     0.2730748599   Si  0.0 0.0   -5.26237781e-07  1.77239137e-06 -5.21995490e-07
atom     24.6832308726    -0.0000001800    -5.4620897483   Si  0.0 0.0   -5.73582772e-09 -1.12220256e-08 -7.51777410e-07
energy -2.395827882203995e+02
charge 0.0000
end
