begin
comment uuid: 214987d9-9043-440d-af0a-812ec59364b7 parent_uuid: 00284ee1-6af0-439a-857f-64d2dfa5a7e3 trajectory_step: final_scf
lattice     27.5573265688     0.0000000001    -7.8066460909
lattice     -0.0000000000     7.6738247159    -0.0000000000
lattice     -0.1138120834     0.0000000000    12.5995385560
atom     -0.0736406487     0.0000000235    12.4443133371   Al  0.0 0.0   -3.89030404e-14  2.14643126e-13 -3.18768825e-12
atom      2.0108348414     3.8369123815     3.6056908907   Mg  0.0 0.0    2.83538813e-07  1.62358784e-13  6.12573943e-07
atom      4.1689647055     3.8369123815    10.1383186493   Mg  0.0 0.0   -6.09389443e-07  1.41660165e-13  4.97388297e-07
atom      9.5762293644     0.0000000236    -1.7525535765   Mg  0.0 0.0    6.09391250e-07 -1.58065546e-13 -4.97394255e-07
atom     11.7343592292     0.0000000236     4.7800741818   Mg  0.0 0.0   -2.83539853e-07 -1.65083948e-13 -6.12579304e-07
atom      1.5068311421     0.0000000235     7.7725290899   Si  0.0 0.0    1.42414795e-06  1.97990079e-13  4.37845815e-07
atom      5.0415439665     0.0000000236     1.1280329640   Si  0.0 0.0    1.55907454e-06  7.56442406e-14  4.87769050e-07
atom      5.8536334989     0.0000000236     5.9121412581   Al  0.0 0.0   -1.01134691e-07 -1.16739603e-14 -8.57380602e-07
atom      7.8915605716     3.8369123815     2.4736238148   Al  0.0 0.0    1.01134306e-07 -5.91194381e-15  8.57374909e-07
atom      8.7036501039     3.8369123816     7.2577321088   Si  0.0 0.0   -1.55907406e-06 -9.21191704e-14 -4.87774732e-07
atom     12.2383629281     3.8369123816     0.6132359822   Si  0.0 0.0   -1.42414558e-06 -2.09752881e-13 -4.37847965e-07
atom     13.7050226357     3.8369123816     8.5409902907   Al  0.0 0.0    4.34062326e-15 -2.14355333e-13  1.98091067e-12
atom     15.7894981256     0.0000000236    -0.2976321563   Mg  0.0 0.0    2.83540353e-07 -1.77136833e-13  6.12583002e-07
atom     17.9476279903     0.0000000237     6.2349956023   Mg  0.0 0.0   -6.09391548e-07 -1.01864287e-13  4.97397841e-07
atom     23.3548926496     3.8369123816    -5.6558766226   Mg  0.0 0.0    6.09386685e-07  1.18304045e-13 -4.97389621e-07
atom     25.5130225135     3.8369123816     0.8767511367   Mg  0.0 0.0   -2.83539222e-07  1.80762338e-13 -6.12580943e-07
atom     15.2854944266     3.8369123816     3.8692060433   Si  0.0 0.0    1.42414644e-06 -1.48880035e-13  4.37851298e-07
atom     18.8202072510     3.8369123816    -2.7752900830   Si  0.0 0.0    1.55907416e-06 -5.07589183e-14  4.87778049e-07
atom     19.6322967833     3.8369123816     2.0088182111   Al  0.0 0.0   -1.01134224e-07  4.04654340e-16 -8.57371760e-07
atom     21.6702238558     0.0000000236    -1.4296992315   Al  0.0 0.0    1.01135782e-07  1.70343170e-14  8.57380400e-07
atom     22.4823133883     0.0000000237     3.3544090627   Si  0.0 0.0   -1.55907365e-06  6.75924139e-14 -4.87770038e-07
atom     26.0170262128     0.0000000236    -3.2900870626   Si  0.0 0.0   -1.42414797e-06  1.59810357e-13 -4.37852176e-07
energy -2.986864421963667e+02
charge 0.0000
end
