begin
comment uuid: d0dc4e30-e6d6-4620-8877-255d426671bb parent_uuid: a92eb12b-a1c1-421e-9fbe-b522f1045a85 trajectory_step: final_scf
lattice     27.2259222119    -0.0000000002    -9.1717482133
lattice      0.0000000001     7.6816943547     0.0000000000
lattice     -0.3315161911     0.0000000000    13.0046493025
atom     -0.2893202057    -0.0000001750    12.8428619311   Mg  0.0 0.0   -1.12801100e-11 -7.80100371e-13  7.56840294e-12
atom      2.0159398228     3.8408470023     3.9362000561   Mg  0.0 0.0    3.91272159e-07 -6.15267610e-13 -1.91308655e-07
atom      3.9946052333     3.8408470023    10.5638944447   Mg  0.0 0.0    1.57097815e-06 -5.61647766e-13  9.68287849e-07
atom      9.3712316516    -0.0000001753    -2.4686939858   Mg  0.0 0.0   -1.57098005e-06  5.70017942e-13 -9.68296552e-07
atom     11.3498970620    -0.0000001753     4.1590004026   Mg  0.0 0.0   -3.91268751e-07  6.20157975e-13  1.91305005e-07
atom      1.4011554792    -0.0000001750     8.0099040606   Si  0.0 0.0   -4.53958433e-07 -7.37524583e-13  2.27728263e-08
atom      5.2119214131    -0.0000001751     1.4310623228   Si  0.0 0.0   -2.39671631e-07 -1.87117347e-13 -1.37098568e-07
atom      5.5120479108    -0.0000001751     6.1380775796   Si  0.0 0.0    1.65144524e-07  2.93472876e-14  2.63913249e-07
atom      7.8537889739     3.8408470022     1.9571228797   Si  0.0 0.0   -1.65139564e-07 -1.51118553e-14 -2.63918968e-07
atom      8.1539154719     3.8408470022     6.6641381363   Si  0.0 0.0    2.39672733e-07  2.00939504e-13  1.37090267e-07
atom     11.9646814052     3.8408470020     0.0852963977   Si  0.0 0.0    4.53961486e-07  7.41368494e-13 -2.27804072e-08
atom     13.3236409002     3.8408470020     8.2569878295   Mg  0.0 0.0   -1.10418820e-11  7.80252183e-13 -1.51229151e-11
atom     15.6289009289    -0.0000001753    -0.6496740455   Mg  0.0 0.0    3.91271936e-07  6.13038900e-13 -1.91330207e-07
atom     17.6075663401    -0.0000001753     5.9780203396   Mg  0.0 0.0    1.57097335e-06  5.55835313e-13  9.68284288e-07
atom     22.9841927574     3.8408470022    -7.0545680970   Mg  0.0 0.0   -1.57097985e-06 -5.64312537e-13 -9.68272598e-07
atom     24.9628581673     3.8408470022    -0.4268737103   Mg  0.0 0.0   -3.91265026e-07 -6.17955288e-13  1.91334514e-07
atom     15.0141165860     3.8408470020     3.4240299585   Si  0.0 0.0   -4.53962349e-07  7.36383948e-13  2.27531134e-08
atom     18.8248825181     3.8408470021    -3.1548117827   Si  0.0 0.0   -2.39667248e-07  1.85541906e-13 -1.37100322e-07
atom     19.1250090165     3.8408470021     1.5522034738   Si  0.0 0.0    1.65145981e-07 -2.83791856e-14  2.63912819e-07
atom     21.4667500797    -0.0000001753    -2.6287512311   Si  0.0 0.0   -1.65138522e-07  1.39772245e-14 -2.63896658e-07
atom     21.7668765783    -0.0000001752     2.0782640255   Si  0.0 0.0    2.39671021e-07 -1.99163323e-13  1.37112517e-07
atom     25.5776425108    -0.0000001752    -4.5005777142   Si  0.0 0.0    4.53962417e-07 -7.39953485e-13 -2.27559578e-08
energy -2.365800961222349e+02
charge 0.0000
end
