begin
comment uuid: 2de31ede-4cd9-4681-ab6d-28c194209012 parent_uuid: 46939af9-eee4-4d42-a067-25e919f9bf55 trajectory_step: final_scf
lattice     13.8082882481    -0.0000000004    -0.0000000000
lattice     -6.9041441242    11.9583282865    -0.0000000001
lattice     -0.0000000000     0.0000000001    21.7928707613
atom      3.6211938664     8.1502099261     1.7737242140   Mg  0.0 0.0    2.79792922e-07 -6.12070960e-08 -2.91632656e-07
atom     -1.9647417679    11.0192693837     1.7737242233   Mg  0.0 0.0   -8.68708040e-08  2.72903329e-07 -2.91612432e-07
atom     -1.6564523569     4.7471775164     1.7737241991   Mg  0.0 0.0   -1.92891791e-07 -2.11728749e-07 -2.91652110e-07
atom      2.8870407252     3.3581348815     5.4482177819   Mg  0.0 0.0   -3.06323220e-07  9.12100819e-07 -8.55206907e-16
atom      9.4565376960     0.8211833539     5.4482177819   Mg  0.0 0.0   -6.36722397e-07 -7.21346498e-07  5.73969596e-15
atom      8.3688537155     7.7790103047     5.4482177819   Mg  0.0 0.0    9.43085886e-07 -1.90794000e-07 -9.55277814e-15
atom      3.6211938663     8.1502099261     9.1227113497   Mg  0.0 0.0    2.79792922e-07 -6.12070882e-08  2.91632668e-07
atom     -1.9647417679    11.0192693837     9.1227113403   Mg  0.0 0.0   -8.68707824e-08  2.72903324e-07  2.91612444e-07
atom     -1.6564523569     4.7471775164     9.1227113646   Mg  0.0 0.0   -1.92891778e-07 -2.11728790e-07  2.91652118e-07
atom      3.2829500863     3.8081185751    12.6701596278   Mg  0.0 0.0   -2.79756073e-07  6.14424479e-08 -2.91400851e-07
atom      8.8688856836     0.9390590717    12.6701596372   Mg  0.0 0.0    8.66485405e-08 -2.72989082e-07 -2.91380628e-07
atom      8.5605963307     7.2111509300    12.6701596129   Mg  0.0 0.0    1.93077179e-07  2.11579181e-07 -2.91420303e-07
atom      4.0171033037     8.6001936865    16.3446531626   Mg  0.0 0.0    3.06893304e-07 -9.11398648e-07  2.55736608e-15
atom     -2.5523938762    11.1371451342    16.3446531626   Mg  0.0 0.0    6.35829253e-07  7.21489114e-07  1.02925453e-15
atom     -1.4647097220     4.1793180422    16.3446531626   Mg  0.0 0.0   -9.42762825e-07  1.89949199e-07  5.02803425e-15
atom      3.2829500863     3.8081185751    20.0191466973   Mg  0.0 0.0   -2.79756075e-07  6.14424432e-08  2.91400862e-07
atom      8.8688856836     0.9390590717    20.0191466879   Mg  0.0 0.0    8.66485531e-08 -2.72989088e-07  2.91380639e-07
atom      8.5605963307     7.2111509300    20.0191467122   Mg  0.0 0.0    1.93077182e-07  2.11579176e-07  2.91420315e-07
atom     -0.0000000702     0.0000000711     2.2455947965   Si  0.0 0.0    1.93353728e-11 -2.18642812e-11 -1.78425203e-06
atom      6.9041440375     3.9861095170     1.9977968160   Si  0.0 0.0    6.02177753e-12 -7.88294940e-12 -2.72691442e-07
atom     -0.0000000785     7.9722189325     5.4482177818   Si  0.0 0.0    8.77162702e-12 -2.65550332e-11  4.15858445e-15
atom     -0.0000000702     0.0000000711     8.6508407673   Si  0.0 0.0    1.95583201e-11 -2.21124122e-11  1.78425200e-06
atom     -0.0000001062     0.0000001108    13.1420298560   Si  0.0 0.0   -1.95251589e-11  2.20763465e-11 -1.78650317e-06
atom      6.9041440375     3.9861095171     8.8986387477   Si  0.0 0.0    6.02478508e-12 -7.88335922e-12  2.72691451e-07
atom     -0.0000000901     7.9722189506    12.8942322333   Si  0.0 0.0   -6.02050046e-12  7.88745478e-12 -2.72435787e-07
atom     -0.0000001062     0.0000001108    19.5472764691   Si  0.0 0.0   -1.93678734e-11  2.19060900e-11  1.78650310e-06
atom      6.9041440259     3.9861095351    16.3446531626   Si  0.0 0.0   -8.77392856e-12  2.65500467e-11  3.51619023e-15
atom     -0.0000000901     7.9722189506    19.7950740918   Si  0.0 0.0   -6.02078545e-12  7.88600175e-12  2.72435797e-07
energy -3.597997201643171e+02
charge 0.0000
end
