begin
comment uuid: d201a52c-24f4-4e24-b375-3f6888bd1cdf
lattice     27.2236118308    -0.0000000002    -9.2634235703
lattice      0.0000000001     7.6912083307     0.0000000000
lattice     -0.2951218308     0.0000000000    13.2418065851
atom      0.0027287745    -0.0000001753    13.1122776471   Mg  0.0 0.0   -5.56904961e-08 -4.39369232e-17  7.92364791e-07
atom      2.2680230660     3.8456039900     4.1740666276   Mg  0.0 0.0   -6.82835402e-07 -9.62167743e-16  4.53110016e-07
atom      4.2270077025     3.8456039900    10.8179939061   Mg  0.0 0.0    5.74063799e-07 -4.38675274e-16 -1.24479398e-06
atom      9.4513088198    -0.0000001754    -2.5096527329   Mg  0.0 0.0    3.16119003e-07 -1.25713901e-16 -5.46674302e-09
atom     11.4248977328    -0.0000001754     4.2345025920   Mg  0.0 0.0    4.83985782e-07  1.81132568e-16 -1.97104021e-07
atom      1.6658934114    -0.0000001753     8.3235125162   Si  0.0 0.0    3.46301946e-07  8.14406452e-16 -7.03503717e-07
atom      5.3602156269    -0.0000001754     1.5965081630   Si  0.0 0.0   -1.45614912e-07  4.85368656e-16 -8.99665256e-07
atom      5.6250565558    -0.0000001754     6.2882588158   Si  0.0 0.0   -5.96495221e-07  7.89285781e-16  1.04476454e-07
atom      7.9215892802     3.8456039900     2.1016406044   Si  0.0 0.0    2.15605201e-07 -9.69529670e-16 -1.02444965e-06
atom      8.2239481277     3.8456039900     6.7889527464   Si  0.0 0.0    7.14743255e-07 -3.83048892e-16  8.41295639e-07
atom     11.9366381527     3.8456039899     0.0591332554   Si  0.0 0.0    2.96759781e-07  2.49056160e-16  1.42689634e-06
atom     13.3368889621     3.8456039899     8.3653256640   Mg  0.0 0.0    8.37758251e-07 -1.40360601e-16  5.21449930e-07
atom     15.4961823600    -0.0000001754    -0.6310375752   Mg  0.0 0.0   -6.93643215e-08 -3.23499818e-16  6.01954981e-07
atom     17.5879393986    -0.0000001754     5.9404300725   Mg  0.0 0.0    6.24913238e-07  1.66939458e-16  5.95980092e-07
atom     22.6771952074     3.8456039899    -7.4961524708   Mg  0.0 0.0   -4.62149830e-07 -2.56070606e-16 -8.14783560e-08
atom     25.1501839694     3.8456039898    -0.1294315368   Mg  0.0 0.0    5.80079404e-08 -1.16834659e-15 -1.08184253e-06
atom     15.0055435947     3.8456039899     3.3810857704   Si  0.0 0.0    1.86678823e-07  7.12442538e-17 -4.21937150e-07
atom     18.7598460946     3.8456039899    -3.2960914482   Si  0.0 0.0   -2.65712230e-07 -7.62870085e-16  2.40889116e-07
atom     19.0853255162     3.8456039899     1.4605335062   Si  0.0 0.0   -1.57304961e-06  8.44692433e-16 -7.44613818e-08
atom     20.9338943132    -0.0000001755    -2.3029619659   Si  0.0 0.0   -1.11349777e-06  7.84051037e-16 -3.25617217e-07
atom     21.7687890875    -0.0000001755     2.1568663279   Si  0.0 0.0   -5.97411079e-07 -7.07963756e-16  9.09601822e-07
atom     25.3164419633    -0.0000001755    -4.4219147017   Mg  0.0 0.0    9.06883845e-07  9.83149126e-16 -4.27699187e-07
energy -2.476724813550417e+02
charge 0.0000
end
