begin
comment uuid: 2de31ede-4cd9-4681-ab6d-28c194209012 parent_uuid: 46939af9-eee4-4d42-a067-25e919f9bf55 trajectory_step: final_scf
lattice     13.5749181303     0.0000000047    -0.0000000000
lattice     -6.7874590610    11.7562238007    -0.0000000001
lattice     -0.0000000000     0.0000000001    23.1541197795
atom      3.4688697301     8.0003167927     1.8816306351   Mg  0.0 0.0    2.88857871e-07  6.30222833e-07 -8.65334946e-08
atom     -1.8754534977    10.7601948824     1.8816306537   Mg  0.0 0.0   -6.90120771e-07 -6.49715508e-08 -8.64518126e-08
atom     -1.5934164637     4.7519361708     1.8816306098   Mg  0.0 0.0    4.01375785e-07 -5.65292783e-07 -8.65549062e-08
atom      2.8397883362     3.1429511419     5.7885300421   Mg  0.0 0.0    8.84794488e-07  1.01734375e-06  4.99649159e-14
atom      9.4331483599     0.8878534469     5.7885300421   Mg  0.0 0.0   -1.32335477e-06  2.57577903e-07  4.36931576e-14
atom      8.0894402750     7.7254194532     5.7885300421   Mg  0.0 0.0    4.38674441e-07 -1.27494504e-06  4.58108319e-14
atom      3.4688697300     8.0003167928     9.6954294491   Mg  0.0 0.0    2.88857887e-07  6.30222944e-07  8.65336650e-08
atom     -1.8754534976    10.7601948824     9.6954294305   Mg  0.0 0.0   -6.90120852e-07 -6.49715920e-08  8.64519752e-08
atom     -1.5934164637     4.7519361708     9.6954294745   Mg  0.0 0.0    4.01375798e-07 -5.65292705e-07  8.65549811e-08
atom      3.3185891672     3.7559071965    13.4586905315   Mg  0.0 0.0   -2.88861158e-07 -6.30237669e-07 -8.65503478e-08
atom      8.6629123876     0.9960290990    13.4586905501   Mg  0.0 0.0    6.90135312e-07  6.49760656e-08 -8.64682718e-08
atom      8.3808753641     7.0042878082    13.4586905061   Mg  0.0 0.0   -4.01386934e-07  5.65302970e-07 -8.65706941e-08
atom      3.9476705698     8.6132728533    17.3655899319   Mg  0.0 0.0   -8.84819862e-07 -1.01737326e-06 -5.24421936e-14
atom     -2.6456894794    10.8683705391    17.3655899319   Mg  0.0 0.0    1.32339255e-06 -2.57584476e-07 -4.55406248e-14
atom     -1.3019813739     4.0308045153    17.3655899319   Mg  0.0 0.0   -4.38686990e-07  1.27498101e-06 -4.81185712e-14
atom      3.3185891671     3.7559071965    21.2724893322   Mg  0.0 0.0   -2.88861144e-07 -6.30237561e-07  8.65501802e-08
atom      8.6629123876     0.9960290991    21.2724893136   Mg  0.0 0.0    6.90135233e-07  6.49760237e-08  8.64681117e-08
atom      8.3808753641     7.0042878082    21.2724893576   Mg  0.0 0.0   -4.01386923e-07  5.65303051e-07  8.65706216e-08
atom     -0.0000000497     0.0000000611     2.2700078855   Si  0.0 0.0    7.58477340e-11 -3.30027313e-11 -1.92007303e-06
atom      6.7874589885     3.9187413496     2.0112844451   Si  0.0 0.0    2.12080950e-11 -8.43647923e-12 -9.56878655e-08
atom     -0.0000000757     7.8374826018     5.7885300421   Si  0.0 0.0    3.67230081e-11 -4.94525879e-11  6.89357841e-14
atom     -0.0000000497     0.0000000610     9.3070521988   Si  0.0 0.0    7.58251213e-11 -3.28899344e-11  1.92007303e-06
atom     -0.0000001238     0.0000001215    13.8470677446   Si  0.0 0.0   -7.58072617e-11  3.29255457e-11 -1.91999770e-06
atom      6.7874589885     3.9187413497     9.5657756391   Si  0.0 0.0    2.11920414e-11 -8.41105492e-12  9.56877662e-08
atom     -0.0000000926     7.8374826336    13.5883443388   Si  0.0 0.0   -2.11105863e-11  8.51135258e-12 -9.56974266e-08
atom     -0.0000001237     0.0000001215    20.8841121192   Si  0.0 0.0   -7.58266338e-11  3.30363563e-11  1.91999769e-06
atom      6.7874589716     3.9187413814    17.3655899319   Si  0.0 0.0   -3.68821968e-11  4.92690711e-11 -6.45024673e-14
atom     -0.0000000926     7.8374826336    21.1428355249   Si  0.0 0.0   -2.11265178e-11  8.53689727e-12  9.56975278e-08
energy -3.597661117799016e+02
charge 0.0000
end
