begin
comment uuid: d7dac1cb-ee87-4461-ab4a-7b9936f14816 parent_uuid: 4c3843d7-8355-4b7b-b4e8-830f92b1b176 trajectory_step: final_scf
lattice     27.8965612459    -0.0000000001    -7.7556511608
lattice      0.0000000000     7.6292176075     0.0000000001
lattice     -0.0186984026    -0.0000000001    12.8550555829
atom      0.0208629321    -0.0000000395    12.6969776629   Mg  0.0 0.0    6.37261758e-13 -1.21257897e-13  3.93666714e-12
atom      2.0947191828     3.8146087643     3.7895772379   Mg  0.0 0.0    1.24066320e-06 -9.75186012e-14 -2.13475942e-07
atom      4.3245723263     3.8146087642    10.3747882549   Mg  0.0 0.0    1.64305000e-06 -5.88389857e-14  5.26890590e-07
atom      9.6841325637    -0.0000000395    -1.7137140904   Mg  0.0 0.0   -1.64304928e-06  1.12403634e-13 -5.26894082e-07
atom     11.9139857073    -0.0000000395     4.8714969262   Mg  0.0 0.0   -1.24066377e-06  1.14154193e-13  2.13475072e-07
atom      1.6213770904    -0.0000000395     7.8484784850   Si  0.0 0.0    2.22490544e-07 -9.26946756e-14 -3.83469716e-08
atom      5.2132359815    -0.0000000395     1.2331450184   Si  0.0 0.0    1.71131303e-07 -8.56024762e-15 -2.60697093e-07
atom      6.0281883472    -0.0000000395     6.0702892239   Al  0.0 0.0    9.35197811e-08  2.71876590e-14 -3.54222800e-07
atom      7.9805165429     3.8146087643     2.5907849406   Al  0.0 0.0   -9.35201717e-08  3.70064042e-14  3.54219279e-07
atom      8.7954689085     3.8146087642     7.4279291461   Si  0.0 0.0   -1.71131481e-07  7.02632449e-14  2.60693856e-07
atom     12.3873277996     3.8146087643     0.8125956791   Si  0.0 0.0   -2.22490383e-07  1.21806429e-13  3.83460397e-08
atom     13.9691435552     3.8146087642     8.8191520840   Mg  0.0 0.0   -4.81569174e-14  1.21269071e-13 -3.84236748e-12
atom     16.0429998058    -0.0000000395    -0.0882483410   Mg  0.0 0.0    1.24066314e-06  9.43512152e-14 -2.13483520e-07
atom     18.2728529498    -0.0000000396     6.4969626746   Mg  0.0 0.0    1.64304668e-06  5.10579042e-14  5.26890227e-07
atom     23.6324131862     3.8146087643    -5.5915396719   Mg  0.0 0.0   -1.64304734e-06 -1.04642077e-13 -5.26887399e-07
atom     25.8622663301     3.8146087642     0.9936713440   Mg  0.0 0.0   -1.24066281e-06 -1.10607462e-13  2.13485179e-07
atom     15.5696577135     3.8146087642     3.9706529059   Si  0.0 0.0    2.22489700e-07  9.24728413e-14 -3.83535686e-08
atom     19.1615166044     3.8146087643    -2.6446805618   Si  0.0 0.0    1.71131987e-07  1.06734595e-14 -2.60697242e-07
atom     19.9764689700     3.8146087642     2.1924636434   Al  0.0 0.0    9.35208932e-08 -4.77141633e-14 -3.54221561e-07
atom     21.9287971660    -0.0000000395    -1.2870406408   Al  0.0 0.0   -9.35206623e-08 -1.67604402e-14  3.54225180e-07
atom     22.7437495315    -0.0000000395     3.5501035645   Si  0.0 0.0   -1.71131584e-07 -7.21977347e-14  2.60700443e-07
atom     26.3356084226    -0.0000000395    -3.0652299028   Si  0.0 0.0   -2.22490342e-07 -1.21896296e-13  3.83542194e-08
energy -2.928223459106286e+02
charge 0.0000
end
