begin
comment uuid: 0ddf0613-5ee2-4dff-a653-2b1dd6ccb077
lattice     27.8626436108    -0.0000000000    -7.8999691914
lattice      0.0000000000     7.5717526759     0.0000000001
lattice     -0.0617983909    -0.0000000001    12.9376929852
atom     -0.0552988280    -0.0000000392    12.8307143078   Mg  0.0 0.0    6.42762031e-07 -2.18440263e-15 -8.48270494e-08
atom      2.1556949601     3.7858762988     3.9089504254   Mg  0.0 0.0    5.95360930e-08 -3.75016799e-15 -3.41782354e-07
atom      4.4146170768     3.7858762987    10.1953879159   Al  0.0 0.0   -4.92251732e-07  5.52848771e-15  4.26237179e-07
atom      9.6295077952    -0.0000000392    -1.7794826800   Mg  0.0 0.0    6.52992347e-07  7.67702840e-15  1.82216979e-07
atom     11.7867464080    -0.0000000392     4.7678772079   Mg  0.0 0.0    4.01575550e-07  1.10527148e-14  5.70221839e-07
atom      1.7411743681    -0.0000000392     8.0105937838   Si  0.0 0.0   -1.16392954e-06  1.10300081e-16 -5.94931345e-07
atom      5.1117913529    -0.0000000392     0.9527612729   Si  0.0 0.0   -1.76111690e-07 -1.87512313e-15  2.72771839e-07
atom      6.0074786053    -0.0000000392     5.9405830449   Al  0.0 0.0   -2.54046735e-08  1.70688340e-14  1.62459154e-07
atom      7.9557374154     3.7858762988     2.5246384401   Al  0.0 0.0    2.97626047e-07  9.03611740e-16 -1.41555761e-07
atom      8.7412064668     3.7858762987     7.4452505120   Si  0.0 0.0   -8.64705287e-07 -1.53578876e-14  7.84920844e-07
atom     12.3531187884     3.7858762988     0.7702536137   Si  0.0 0.0    1.41082545e-06  6.06897076e-15  1.01765158e-06
atom     13.8790931752     3.7858762987     8.8527997820   Mg  0.0 0.0   -1.98863215e-07  7.89977582e-15  1.92378244e-07
atom     16.0133624715    -0.0000000392    -0.0600400785   Mg  0.0 0.0    3.40929919e-08 -7.87448571e-16  1.01667032e-07
atom     18.2230367373    -0.0000000392     6.5171482202   Mg  0.0 0.0   -3.90470081e-08  3.91938556e-16 -4.93776467e-07
atom     23.5755501841     3.7858762988    -5.6306260856   Mg  0.0 0.0    3.86425045e-07 -6.23365608e-15 -4.54446785e-07
atom     25.7847440808     3.7858762987     0.8737667003   Mg  0.0 0.0   -5.02405772e-07  1.43817933e-15  2.06155754e-07
atom     15.4704101913     3.7858762987     3.9978096644   Si  0.0 0.0   -8.47497169e-07  6.74963971e-15 -7.84133734e-07
atom     19.0995496819     3.7858762988    -2.6735868594   Si  0.0 0.0    4.73886909e-07  3.34218233e-15  3.75676469e-07
atom     19.8623514484     3.7858762987     2.1752502940   Al  0.0 0.0   -4.22312675e-07  3.16345177e-15 -3.87520185e-07
atom     21.9363772598    -0.0000000392    -1.2962990197   Al  0.0 0.0    1.77180965e-07 -1.62683358e-14 -3.91034289e-07
atom     22.6643147971    -0.0000000392     3.5510353363   Si  0.0 0.0   -4.55671421e-07 -1.86364911e-14 -1.10850927e-06
atom     26.3457627576    -0.0000000392    -3.0751480178   Si  0.0 0.0    6.51296752e-07 -6.38599646e-15  4.90160328e-07
energy -2.957488108904467e+02
charge 0.0000
end
