begin
comment uuid: d0dc4e30-e6d6-4620-8877-255d426671bb parent_uuid: a92eb12b-a1c1-421e-9fbe-b522f1045a85 trajectory_step: final_scf
lattice     27.1667702582    -0.0000000002    -9.2465286874
lattice      0.0000000001     7.6808299395     0.0000000000
lattice     -0.3466636328     0.0000000000    13.0644210677
atom     -0.3043777029    -0.0000001750    12.9018440750   Mg  0.0 0.0   -5.43010892e-13 -4.48525458e-13  7.97866351e-12
atom      2.0271065381     3.8404147947     3.9877050990   Mg  0.0 0.0    1.57294391e-07 -3.62380950e-13 -1.88224135e-07
atom      4.0015441108     3.8404147947    10.6031152985   Mg  0.0 0.0    1.91841327e-06 -3.10414412e-13  1.48641109e-07
atom      9.3197492447    -0.0000001752    -2.4871125550   Mg  0.0 0.0   -1.91840944e-06  3.15295376e-13 -1.48650094e-07
atom     11.2941868181    -0.0000001752     4.1282976435   Mg  0.0 0.0   -1.57295042e-07  3.65759009e-13  1.88222067e-07
atom      1.3938217118    -0.0000001750     8.0418830696   Si  0.0 0.0   -5.03845220e-08 -4.15748161e-13  3.26371869e-07
atom      5.1924069145    -0.0000001751     1.4427691734   Si  0.0 0.0    3.40617609e-07 -7.39004635e-14 -3.20794768e-09
atom      5.4928278345    -0.0000001751     6.1424058569   Si  0.0 0.0   -7.18901436e-07 -1.69427110e-14 -1.60779989e-07
atom      7.8284655216     3.8404147946     1.9735968865   Si  0.0 0.0    7.18900422e-07  2.64427925e-14  1.60771963e-07
atom      8.1288864416     3.8404147946     6.6732335699   Si  0.0 0.0   -3.40618162e-07  8.30222506e-14  3.19987930e-09
atom     11.9274716441     3.8404147945     0.0741196729   Si  0.0 0.0    5.03852584e-08  4.17733634e-13 -3.26373752e-07
atom     13.2790074261     3.8404147945     8.2785797348   Mg  0.0 0.0    4.63383637e-13  4.48364677e-13 -7.95824852e-12
atom     15.6104916673    -0.0000001753    -0.6355592415   Mg  0.0 0.0    1.57294274e-07  3.60973221e-13 -1.88238211e-07
atom     17.5849292405    -0.0000001753     5.9798509560   Mg  0.0 0.0    1.91840983e-06  3.08806945e-13  1.48638231e-07
atom     22.9031343743     3.8404147945    -7.1103769025   Mg  0.0 0.0   -1.91841237e-06 -3.14154044e-13 -1.48630403e-07
atom     24.8775719468     3.8404147945    -0.4949667042   Mg  0.0 0.0   -1.57292733e-07 -3.64356250e-13  1.88241217e-07
atom     14.9772068416     3.8404147945     3.4186187290   Si  0.0 0.0   -5.03878882e-08  4.17243012e-13  3.26357908e-07
atom     18.7757920431     3.8404147945    -3.1804951696   Si  0.0 0.0    3.40620199e-07  7.15855059e-14 -3.20869834e-09
atom     19.0762129636     3.8404147945     1.5191415137   Si  0.0 0.0   -7.18900719e-07  1.63585926e-14 -1.60780075e-07
atom     21.4118506506    -0.0000001752    -2.6496674603   Si  0.0 0.0    7.18901079e-07 -2.55193996e-14  1.60788630e-07
atom     21.7122715712    -0.0000001752     2.0499692231   Si  0.0 0.0   -3.40620198e-07 -8.06097536e-14  3.21661151e-09
atom     25.5108567729    -0.0000001752    -4.5491446745   Si  0.0 0.0    5.03862470e-08 -4.19411443e-13 -3.26356202e-07
energy -2.365805095512455e+02
charge 0.0000
end
