begin
comment uuid: 2de31ede-4cd9-4681-ab6d-28c194209012 parent_uuid: 46939af9-eee4-4d42-a067-25e919f9bf55 trajectory_step: final_scf
lattice     13.8083230453    -0.0000000005    -0.0000000000
lattice     -6.9041615230    11.9583584228    -0.0000000001
lattice     -0.0000000000     0.0000000001    21.7927464170
atom      3.6212156913     8.1502272658     1.7737014347   Mg  0.0 0.0    2.15848869e-07  8.23199528e-08  3.96356134e-07
atom     -1.9647502982    11.0193097515     1.7737014437   Mg  0.0 0.0   -1.79200253e-07  1.45758295e-07  3.96379855e-07
atom     -1.6564656521     4.7471800818     1.7737014201   Mg  0.0 0.0   -3.66213079e-08 -2.28114568e-07  3.96337320e-07
atom      2.8870296793     3.3581739885     5.4481866958   Mg  0.0 0.0    3.46526595e-07  1.76751538e-07  2.11713807e-14
atom      9.4565441482     0.8211542347     5.4481866958   Mg  0.0 0.0   -3.26309259e-07  2.11711585e-07  1.97128920e-14
atom      8.3689105040     7.7790304536     5.4481866958   Mg  0.0 0.0   -2.01694069e-08 -3.88500529e-07  2.50570573e-14
atom      3.6212156913     8.1502272658     9.1226719568   Mg  0.0 0.0    2.15848720e-07  8.23197658e-08 -3.96356058e-07
atom     -1.9647502982    11.0193097515     9.1226719478   Mg  0.0 0.0   -1.79200027e-07  1.45758239e-07 -3.96379768e-07
atom     -1.6564656521     4.7471800818     9.1226719714   Mg  0.0 0.0   -3.66213875e-08 -2.28114309e-07 -3.96337268e-07
atom      3.2829456577     3.8081313581    12.6700746631   Mg  0.0 0.0   -2.15826695e-07 -8.21811024e-08  3.96493588e-07
atom      8.8689116251     0.9390488449    12.6700746721   Mg  0.0 0.0    1.79068988e-07 -1.45808735e-07  3.96517304e-07
atom      8.5606270139     7.2111785093    12.6700746485   Mg  0.0 0.0    3.67305212e-08  2.28026149e-07  3.96474834e-07
atom      4.0171317154     8.6001846753    16.3445599043   Mg  0.0 0.0   -3.46187238e-07 -1.76330849e-07 -1.85288549e-14
atom     -2.5523828786    11.1372043815    16.3445599043   Mg  0.0 0.0    3.25775297e-07 -2.11628007e-07 -2.06595300e-14
atom     -1.4647491307     4.1793280781    16.3445599043   Mg  0.0 0.0    2.03640006e-08  3.87996464e-07 -1.85165092e-14
atom      3.2829456576     3.8081313582    20.0190451454   Mg  0.0 0.0   -2.15826858e-07 -8.21812937e-08 -3.96493643e-07
atom      8.8689116251     0.9390488449    20.0190451365   Mg  0.0 0.0    1.79069230e-07 -1.45808788e-07 -3.96517367e-07
atom      8.5606270139     7.2111785093    20.0190451601   Mg  0.0 0.0    3.67304361e-08  2.28026406e-07 -3.96474865e-07
atom     -0.0000000706     0.0000000716     2.2455762170   Si  0.0 0.0    2.04196335e-11 -2.52248859e-11  9.39037341e-07
atom      6.9041614360     3.9861195625     1.9977776027   Si  0.0 0.0    5.04233981e-12 -7.32679985e-12  1.05392572e-06
atom     -0.0000000788     7.9722390238     5.4481866958   Si  0.0 0.0    7.33686718e-12 -2.83277735e-11  1.06231041e-13
atom     -0.0000000706     0.0000000716     8.6507971746   Si  0.0 0.0    2.02314824e-11 -2.50092000e-11 -9.39039028e-07
atom     -0.0000001059     0.0000001104    13.1419492337   Si  0.0 0.0   -2.02210968e-11  2.49121905e-11  9.37692438e-07
atom      6.9041614360     3.9861195626     8.8985957888   Si  0.0 0.0    5.04661363e-12 -7.32218490e-12 -1.05392559e-06
atom     -0.0000000901     7.9722390413    12.8941508333   Si  0.0 0.0   -5.09458318e-12  7.32188992e-12  1.05407314e-06
atom     -0.0000001059     0.0000001104    19.5471705749   Si  0.0 0.0   -2.04113563e-11  2.51362195e-11 -9.37690855e-07
atom      6.9041614247     3.9861195800    16.3445599043   Si  0.0 0.0   -7.48013676e-12  2.83006287e-11 -9.32248120e-14
atom     -0.0000000901     7.9722390413    19.7949689753   Si  0.0 0.0   -5.09460045e-12  7.32792876e-12 -1.05407325e-06
energy -3.597997207218910e+02
charge 0.0000
end
