begin
comment uuid: d7dac1cb-ee87-4461-ab4a-7b9936f14816 parent_uuid: 4c3843d7-8355-4b7b-b4e8-830f92b1b176 trajectory_step: final_scf
lattice     27.8965612459    -0.0000000001    -7.7556511608
lattice      0.0000000000     7.6292176075     0.0000000001
lattice     -0.0186984026    -0.0000000001    12.8550555829
atom      0.0208629321    -0.0000000395    12.6969776629   Mg  0.0 0.0    6.36787785e-13 -1.21464152e-13  3.93659051e-12
atom      2.0947191828     3.8146087643     3.7895772379   Mg  0.0 0.0    1.24066320e-06 -9.77150742e-14 -2.13475941e-07
atom      4.3245723263     3.8146087642    10.3747882549   Mg  0.0 0.0    1.64305000e-06 -5.88432362e-14  5.26890589e-07
atom      9.6841325637    -0.0000000395    -1.7137140904   Mg  0.0 0.0   -1.64304928e-06  1.12156562e-13 -5.26894083e-07
atom     11.9139857073    -0.0000000395     4.8714969262   Mg  0.0 0.0   -1.24066377e-06  1.14055938e-13  2.13475073e-07
atom      1.6213770904    -0.0000000395     7.8484784850   Si  0.0 0.0    2.22490543e-07 -9.23972679e-14 -3.83469733e-08
atom      5.2132359815    -0.0000000395     1.2331450184   Si  0.0 0.0    1.71131304e-07 -8.71620477e-15 -2.60697092e-07
atom      6.0281883472    -0.0000000395     6.0702892239   Al  0.0 0.0    9.35197803e-08  2.71475815e-14 -3.54222799e-07
atom      7.9805165429     3.8146087643     2.5907849406   Al  0.0 0.0   -9.35201732e-08  3.71877639e-14  3.54219280e-07
atom      8.7954689085     3.8146087642     7.4279291461   Si  0.0 0.0   -1.71131481e-07  7.08727696e-14  2.60693855e-07
atom     12.3873277996     3.8146087643     0.8125956791   Si  0.0 0.0   -2.22490386e-07  1.21951380e-13  3.83460380e-08
atom     13.9691435552     3.8146087642     8.8191520840   Mg  0.0 0.0   -4.68843907e-14  1.21339856e-13 -3.84225301e-12
atom     16.0429998058    -0.0000000395    -0.0882483410   Mg  0.0 0.0    1.24066314e-06  9.43925953e-14 -2.13483521e-07
atom     18.2728529498    -0.0000000396     6.4969626746   Mg  0.0 0.0    1.64304668e-06  5.11707136e-14  5.26890228e-07
atom     23.6324131862     3.8146087643    -5.5915396719   Mg  0.0 0.0   -1.64304734e-06 -1.04618327e-13 -5.26887399e-07
atom     25.8622663301     3.8146087642     0.9936713440   Mg  0.0 0.0   -1.24066281e-06 -1.11183926e-13  2.13485179e-07
atom     15.5696577135     3.8146087642     3.9706529059   Si  0.0 0.0    2.22489701e-07  9.25351055e-14 -3.83535645e-08
atom     19.1615166044     3.8146087643    -2.6446805618   Si  0.0 0.0    1.71131987e-07  1.06173242e-14 -2.60697245e-07
atom     19.9764689700     3.8146087642     2.1924636434   Al  0.0 0.0    9.35208937e-08 -4.78450554e-14 -3.54221563e-07
atom     21.9287971660    -0.0000000395    -1.2870406408   Al  0.0 0.0   -9.35206618e-08 -1.64317260e-14  3.54225180e-07
atom     22.7437495315    -0.0000000395     3.5501035645   Si  0.0 0.0   -1.71131583e-07 -7.22465828e-14  2.60700445e-07
atom     26.3356084226    -0.0000000395    -3.0652299028   Si  0.0 0.0   -2.22490342e-07 -1.21739158e-13  3.83542198e-08
energy -2.928223459106286e+02
charge 0.0000
end
