begin
comment uuid: 2de31ede-4cd9-4681-ab6d-28c194209012 parent_uuid: 46939af9-eee4-4d42-a067-25e919f9bf55 trajectory_step: final_scf
lattice     13.5489774015     0.0000000013     0.0000000000
lattice     -6.7744886995    11.7337586240     0.0000000000
lattice      0.0000000000     0.0000000002    23.2039878050
atom      3.4644320000     7.9674720000     1.9296760000   Mg  0.0 0.0    2.99789634e-03  1.83206367e-03 -8.22674944e-04
atom     -1.8577610000    10.7503090000     1.9296760000   Mg  0.0 0.0   -3.08553129e-03  1.68021922e-03 -8.22684551e-04
atom     -1.6066720000     4.7497360000     1.9296760000   Mg  0.0 0.0    8.76901131e-05 -3.51225180e-03 -8.22677087e-04
atom      2.8362080000     3.2179160000     5.8009970000   Mg  0.0 0.0    1.68746678e-03 -1.59595720e-03  1.97827991e-10
atom      9.3440770000     0.8472700000     5.8009970000   Mg  0.0 0.0    5.38392551e-04  2.25937085e-03  1.97828934e-10
atom      8.1431820000     7.6685730000     5.8009970000   Mg  0.0 0.0   -2.22589378e-03 -6.63420432e-04  1.97660705e-10
atom      3.4644320000     7.9674720000     9.6723180000   Mg  0.0 0.0    2.99789537e-03  1.83206281e-03  8.22678517e-04
atom     -1.8577610000    10.7503090000     9.6723180000   Mg  0.0 0.0   -3.08553006e-03  1.68021881e-03  8.22688126e-04
atom     -1.6066720000     4.7497360000     9.6723180000   Mg  0.0 0.0    8.76898515e-05 -3.51225052e-03  8.22680664e-04
atom      3.3100560000     3.7662870000    13.5316700000   Mg  0.0 0.0   -2.99786826e-03 -1.83206916e-03 -8.22680610e-04
atom      8.6322490000     0.9834500000    13.5316700000   Mg  0.0 0.0    3.08556537e-03 -1.68023567e-03 -8.22682909e-04
atom      8.3811600000     6.9840220000    13.5316700000   Mg  0.0 0.0   -8.76466824e-05  3.51230461e-03 -8.22680479e-04
atom      3.9382810000     8.5158430000    17.4029910000   Mg  0.0 0.0   -1.68747859e-03  1.59596184e-03 -1.97826757e-10
atom     -2.5695880000    10.8864890000    17.4029910000   Mg  0.0 0.0   -5.38409627e-04 -2.25938839e-03 -1.97827249e-10
atom     -1.3686930000     4.0651860000    17.4029910000   Mg  0.0 0.0    2.22588146e-03  6.63416286e-04 -1.97659507e-10
atom      3.3100560000     3.7662870000    21.2743120000   Mg  0.0 0.0   -2.99786924e-03 -1.83207002e-03  8.22677036e-04
atom      8.6322490000     0.9834500000    21.2743120000   Mg  0.0 0.0    3.08556661e-03 -1.68023608e-03  8.22679334e-04
atom      8.3811600000     6.9840220000    21.2743120000   Mg  0.0 0.0   -8.76469441e-05  3.51230589e-03  8.22676902e-04
atom      0.0000000000    -0.0000000000     2.3551790000   Si  0.0 0.0   -8.25283836e-09 -4.16430947e-09 -1.13128897e-02
atom      6.7744890000     3.9112530000     2.0393950000   Si  0.0 0.0   -3.48056358e-08 -6.06866273e-09  3.07846369e-03
atom     -0.0000000000     7.8225060000     5.8009970000   Si  0.0 0.0   -2.64968538e-09 -1.50394152e-08  7.91029557e-10
atom      0.0000000000    -0.0000000000     9.2468150000   Si  0.0 0.0   -8.25283917e-09 -4.16425857e-09  1.13128955e-02
atom      0.0000000000    -0.0000000000    13.9571730000   Si  0.0 0.0   -5.79292345e-09 -2.14365083e-09 -1.13128983e-02
atom      6.7744890000     3.9112530000     9.5625990000   Si  0.0 0.0   -3.48057056e-08 -6.06482638e-09 -3.07845716e-03
atom      0.0000000000     7.8225060000    13.6413890000   Si  0.0 0.0   -1.71847693e-08 -1.74574773e-09  3.07844977e-03
atom      0.0000000000    -0.0000000000    20.8488090000   Si  0.0 0.0   -5.79292335e-09 -2.14360154e-09  1.13128925e-02
atom      6.7744890000     3.9112530000    17.4029910000   Si  0.0 0.0   -3.52505615e-08 -1.44482369e-09 -7.91026353e-10
atom     -0.0000000000     7.8225060000    21.1645930000   Si  0.0 0.0   -1.71848454e-08 -1.74191363e-09 -3.07845630e-03
energy -3.597828106097043e+02
charge 0.0000
end
