begin
comment uuid: d0dc4e30-e6d6-4620-8877-255d426671bb parent_uuid: a92eb12b-a1c1-421e-9fbe-b522f1045a85 trajectory_step: final_scf
lattice     27.2516500553    -0.0000000002    -9.1676842883
lattice      0.0000000001     7.6430446754     0.0000000000
lattice     -0.3128999128     0.0000000000    13.0545417837
atom     -0.2708807208    -0.0000001742    12.8921890778   Mg  0.0 0.0   -1.06797509e-12 -1.25753288e-13  4.20769477e-12
atom      1.9981087240     3.8215221635     3.9091567029   Mg  0.0 0.0   -2.72483335e-07 -9.55266845e-14 -8.06389658e-07
atom      4.0106011077     3.8215221635    10.6206497090   Mg  0.0 0.0   -8.26833301e-07 -8.54736942e-14 -3.71608545e-07
atom      9.3863623913    -0.0000001743    -2.4746554790   Mg  0.0 0.0    8.26831223e-07  8.84606551e-14  3.71608318e-07
atom     11.3988547748    -0.0000001743     4.2368375273   Mg  0.0 0.0    2.72483724e-07  9.66685426e-14  8.06385530e-07
atom      1.4095297162    -0.0000001742     8.0358937863   Si  0.0 0.0    5.71138642e-08 -1.15501961e-13 -1.13901535e-06
atom      5.2190304489    -0.0000001743     1.4401558685   Si  0.0 0.0    1.57930048e-06 -2.89720635e-14  1.18645018e-07
atom      5.5052497517    -0.0000001743     6.1493790087   Si  0.0 0.0    1.18079303e-06  9.65387905e-15 -2.85619732e-07
atom      7.8917137471     3.8215221634     1.9966152216   Si  0.0 0.0   -1.18079174e-06 -5.60727033e-15  2.85616368e-07
atom      8.1779330500     3.8215221634     6.7058383617   Si  0.0 0.0   -1.57929999e-06  3.29444216e-14 -1.18647922e-07
atom     11.9874337825     3.8215221634     0.1101004436   Si  0.0 0.0   -5.71117290e-08  1.17077604e-13  1.13901398e-06
atom     13.3549443070     3.8215221634     8.3083469358   Mg  0.0 0.0   -1.29332487e-12  1.25815516e-13 -5.25313242e-12
atom     15.6239337518    -0.0000001744    -0.6746854388   Mg  0.0 0.0   -2.72483664e-07  9.72296109e-14 -8.06399750e-07
atom     17.6364261359    -0.0000001744     6.0368075656   Mg  0.0 0.0   -8.26836186e-07  8.47753153e-14 -3.71610935e-07
atom     23.0121874190     3.8215221633    -7.0584976252   Mg  0.0 0.0    8.26830772e-07 -8.79103112e-14  3.71618136e-07
atom     25.0246798023     3.8215221633    -0.3470046198   Mg  0.0 0.0    2.72484751e-07 -9.85559030e-14  8.06398048e-07
atom     15.0353547442     3.8215221633     3.4520516441   Si  0.0 0.0    5.71125299e-08  1.12992297e-13 -1.13902366e-06
atom     18.8448554761     3.8215221633    -3.1436862748   Si  0.0 0.0    1.57930256e-06  2.83544981e-14  1.18642418e-07
atom     19.1310747794     3.8215221633     1.5655368653   Si  0.0 0.0    1.18079308e-06 -8.79295917e-15 -2.85621971e-07
atom     21.5175387747    -0.0000001744    -2.5872269245   Si  0.0 0.0   -1.18079095e-06  4.45841636e-15  2.85625604e-07
atom     21.8037580781    -0.0000001744     2.1219962156   Si  0.0 0.0   -1.57930149e-06 -3.23641054e-14 -1.18638696e-07
atom     25.6132588100    -0.0000001744    -4.4737417028   Si  0.0 0.0   -5.71112785e-08 -1.14688952e-13  1.13902384e-06
energy -2.365799405546134e+02
charge 0.0000
end
