begin
comment uuid: 214987d9-9043-440d-af0a-812ec59364b7 parent_uuid: 00284ee1-6af0-439a-857f-64d2dfa5a7e3 trajectory_step: final_scf
lattice     27.5573265688     0.0000000001    -7.8066460909
lattice     -0.0000000000     7.6738247159    -0.0000000000
lattice     -0.1138120834     0.0000000000    12.5995385560
atom     -0.0736406487     0.0000000235    12.4443133371   Al  0.0 0.0   -3.65178602e-14  2.15292997e-13 -3.20824467e-12
atom      2.0108348414     3.8369123815     3.6056908907   Mg  0.0 0.0    2.83538816e-07  1.62415999e-13  6.12573943e-07
atom      4.1689647055     3.8369123815    10.1383186493   Mg  0.0 0.0   -6.09389448e-07  1.41622247e-13  4.97388293e-07
atom      9.5762293644     0.0000000236    -1.7525535765   Mg  0.0 0.0    6.09391250e-07 -1.58340375e-13 -4.97394253e-07
atom     11.7343592292     0.0000000236     4.7800741818   Mg  0.0 0.0   -2.83539852e-07 -1.65482628e-13 -6.12579303e-07
atom      1.5068311421     0.0000000235     7.7725290899   Si  0.0 0.0    1.42414796e-06  1.98020305e-13  4.37845821e-07
atom      5.0415439665     0.0000000236     1.1280329640   Si  0.0 0.0    1.55907454e-06  7.54272564e-14  4.87769054e-07
atom      5.8536334989     0.0000000236     5.9121412581   Al  0.0 0.0   -1.01134698e-07 -1.16043314e-14 -8.57380604e-07
atom      7.8915605716     3.8369123815     2.4736238148   Al  0.0 0.0    1.01134305e-07 -5.72763256e-15  8.57374909e-07
atom      8.7036501039     3.8369123816     7.2577321088   Si  0.0 0.0   -1.55907406e-06 -9.27172063e-14 -4.87774728e-07
atom     12.2383629281     3.8369123816     0.6132359822   Si  0.0 0.0   -1.42414558e-06 -2.09444582e-13 -4.37847962e-07
atom     13.7050226357     3.8369123816     8.5409902907   Al  0.0 0.0    5.82394366e-15 -2.14193202e-13  1.98396545e-12
atom     15.7894981256     0.0000000236    -0.2976321563   Mg  0.0 0.0    2.83540354e-07 -1.77523550e-13  6.12583002e-07
atom     17.9476279903     0.0000000237     6.2349956023   Mg  0.0 0.0   -6.09391545e-07 -1.01734206e-13  4.97397845e-07
atom     23.3548926496     3.8369123816    -5.6558766226   Mg  0.0 0.0    6.09386682e-07  1.18391351e-13 -4.97389625e-07
atom     25.5130225135     3.8369123816     0.8767511367   Mg  0.0 0.0   -2.83539223e-07  1.80572343e-13 -6.12580945e-07
atom     15.2854944266     3.8369123816     3.8692060433   Si  0.0 0.0    1.42414644e-06 -1.48766568e-13  4.37851300e-07
atom     18.8202072510     3.8369123816    -2.7752900830   Si  0.0 0.0    1.55907416e-06 -5.07745720e-14  4.87778047e-07
atom     19.6322967833     3.8369123816     2.0088182111   Al  0.0 0.0   -1.01134222e-07  5.90061825e-16 -8.57371760e-07
atom     21.6702238558     0.0000000236    -1.4296992315   Al  0.0 0.0    1.01135782e-07  1.68907410e-14  8.57380394e-07
atom     22.4823133883     0.0000000237     3.3544090627   Si  0.0 0.0   -1.55907365e-06  6.71703222e-14 -4.87770026e-07
atom     26.0170262128     0.0000000236    -3.2900870626   Si  0.0 0.0   -1.42414797e-06  1.59767177e-13 -4.37852178e-07
energy -2.986864421963667e+02
charge 0.0000
end
