begin
comment uuid: 214987d9-9043-440d-af0a-812ec59364b7 parent_uuid: 00284ee1-6af0-439a-857f-64d2dfa5a7e3 trajectory_step: final_scf
lattice     27.6044193688     0.0000000001    -7.7688524970
lattice     -0.0000000000     7.6711600761    -0.0000000000
lattice     -0.0977148592     0.0000000000    12.5967190191
atom     -0.0576612500     0.0000000235    12.4415793798   Al  0.0 0.0   -2.98844942e-12  3.43919967e-13 -7.30256163e-12
atom      2.0075794450     3.8355800615     3.6075618901   Mg  0.0 0.0    7.44947230e-07  2.53456731e-13 -9.13574365e-07
atom      4.1750910421     3.8355800616    10.1511427506   Mg  0.0 0.0    3.03174520e-07  2.20803269e-13  6.93532526e-07
atom      9.6095110011     0.0000000236    -1.7491292603   Mg  0.0 0.0   -3.03177708e-07 -2.42364223e-13 -6.93530417e-07
atom     11.7770225983     0.0000000236     4.7944516010   Mg  0.0 0.0   -7.44948551e-07 -2.55544827e-13  9.13559012e-07
atom      1.5310714549     0.0000000235     7.7710108424   Si  0.0 0.0   -4.35274229e-07  3.00135081e-13  1.72682366e-07
atom      5.0899523078     0.0000000235     1.1636399320   Si  0.0 0.0    1.72680274e-06  1.20744156e-13 -5.63093185e-07
atom      5.9069101385     0.0000000236     5.9416995835   Al  0.0 0.0   -1.15616857e-06 -4.05110968e-14 -1.52647223e-06
atom      7.8776919045     3.8355800616     2.4603139069   Al  0.0 0.0    1.15617138e-06  2.09946566e-14  1.52647256e-06
atom      8.6946497353     3.8355800616     7.2383735584   Si  0.0 0.0   -1.72680052e-06 -1.41266636e-13  5.63093575e-07
atom     12.2535305880     3.8355800617     0.6310026478   Si  0.0 0.0    4.35277484e-07 -3.16824567e-13 -1.72685709e-07
atom     13.7445484343     3.8355800617     8.5571531296   Al  0.0 0.0   -2.37981532e-12 -3.42715484e-13  1.02040379e-12
atom     15.8097891291     0.0000000237    -0.2768643606   Mg  0.0 0.0    7.44949258e-07 -2.75969724e-13 -9.13562007e-07
atom     17.9773007261     0.0000000237     6.2667165007   Mg  0.0 0.0    3.03175971e-07 -1.63153050e-13  6.93540833e-07
atom     23.4117206864     3.8355800616    -5.6335555089   Mg  0.0 0.0   -3.03183225e-07  1.84570433e-13 -6.93528729e-07
atom     25.5792322827     3.8355800616     0.9100253540   Mg  0.0 0.0   -7.44948702e-07  2.77939700e-13  9.13552284e-07
atom     15.3332811392     3.8355800617     3.8865845922   Si  0.0 0.0   -4.35273888e-07 -2.20185122e-13  1.72691330e-07
atom     18.8921619923     3.8355800617    -2.7207863180   Si  0.0 0.0    1.72680173e-06 -9.58893346e-14 -5.63084767e-07
atom     19.7091198228     3.8355800617     2.0572733337   Al  0.0 0.0   -1.15616844e-06  2.89413085e-14 -1.52646444e-06
atom     21.6799015889     0.0000000236    -1.4241123419   Al  0.0 0.0    1.15617196e-06 -8.72054894e-15  1.52647527e-06
atom     22.4968594194     0.0000000236     3.3539473099   Si  0.0 0.0   -1.72679900e-06  1.15473177e-13  5.63094815e-07
atom     26.0557402727     0.0000000236    -3.2534235993   Si  0.0 0.0    4.35275919e-07  2.36591480e-13 -1.72692440e-07
energy -2.986850788807897e+02
charge 0.0000
end
