begin
comment uuid: d0dc4e30-e6d6-4620-8877-255d426671bb parent_uuid: a92eb12b-a1c1-421e-9fbe-b522f1045a85 trajectory_step: final_scf
lattice     27.0372728256    -0.0000000004    -9.2050815968
lattice      0.0000000000     7.7008127029     0.0000000000
lattice     -0.3186709916     0.0000000000    13.0832555996
atom     -0.2768640000     0.0000000000    12.9205290000   Mg  0.0 0.0   -5.73952991e-07 -7.76897460e-09 -1.91797612e-07
atom      2.0199660000     3.8504060000     4.0026660000   Mg  0.0 0.0    6.16700327e-04  1.52799455e-08 -1.38083523e-04
atom      3.9686720000     3.8504060000    10.6186570000   Mg  0.0 0.0    1.35287483e-03  1.28004924e-08  2.38504123e-04
atom      9.3149460000     0.0000000000    -2.4634590000   Mg  0.0 0.0   -1.35457267e-03 -1.28018337e-08 -2.38451662e-04
atom     11.2635890000    -0.0000000000     4.1526170000   Mg  0.0 0.0   -6.18525771e-04 -1.52740839e-08  1.37890484e-04
atom      1.3932490000     0.0000000000     8.0700190000   Si  0.0 0.0    2.83541789e-04 -1.47077115e-08 -1.14042172e-03
atom      5.1601760000     0.0000000000     1.4496550000   Si  0.0 0.0    9.69496285e-04 -1.85940017e-08  1.07422234e-03
atom      5.4930890000     0.0000000000     6.1785890000   Si  0.0 0.0    4.29767762e-05 -1.72577039e-08 -8.54340054e-04
atom      7.7903930000     3.8504060000     1.9766580000   Si  0.0 0.0   -4.18742782e-05  1.72578446e-08  8.54997594e-04
atom      8.1233200000     3.8504060000     6.7055930000   Si  0.0 0.0   -9.68192235e-04  1.85936489e-08 -1.07471649e-03
atom     11.8902300000     3.8504060000     0.0852310000   Si  0.0 0.0   -2.81783335e-04  1.47131488e-08  1.14058438e-03
atom     13.2417730000     3.8504060000     8.3179880000   Mg  0.0 0.0   -5.99751749e-07  7.77353359e-09 -1.68327473e-07
atom     15.5386020000    -0.0000000000    -0.5998740000   Mg  0.0 0.0    6.16707988e-04 -1.52739603e-08 -1.38100262e-04
atom     17.4873080000     0.0000000000     6.0161160000   Mg  0.0 0.0    1.35289736e-03 -1.28008334e-08  2.38506644e-04
atom     22.8335830000     3.8504060000    -7.0660000000   Mg  0.0 0.0   -1.35458791e-03  1.28002044e-08 -2.38446879e-04
atom     24.7822260000     3.8504060000    -0.4499240000   Mg  0.0 0.0   -6.18543925e-04  1.52655696e-08  1.37885369e-04
atom     14.9118860000     3.8504060000     3.4674780000   Si  0.0 0.0    2.83497725e-04  1.47131654e-08 -1.14043097e-03
atom     18.6788130000     3.8504060000    -3.1528860000   Si  0.0 0.0    9.69455265e-04  1.85938749e-08  1.07422726e-03
atom     19.0117260000     3.8504060000     1.5760480000   Si  0.0 0.0    4.29753001e-05  1.72576131e-08 -8.54341787e-04
atom     21.3090290000    -0.0000000000    -2.6258830000   Si  0.0 0.0   -4.17966770e-05 -1.72576928e-08  8.54985581e-04
atom     21.6419570000     0.0000000000     2.1030520000   Si  0.0 0.0   -9.68215581e-04 -1.85938402e-08 -1.07471983e-03
atom     25.4088670000     0.0000000000    -4.5173100000   Si  0.0 0.0   -2.81857557e-04 -1.47184053e-08  1.14060953e-03
energy -2.365801939521796e+02
charge 0.0000
end
