begin
comment uuid: 4c3843d7-8355-4b7b-b4e8-830f92b1b176 trajectory_step: 0 
lattice 27.8865489262 0.0000000000 -7.8743459541
lattice 0.0000000000 7.6567598738 -0.0000000000
lattice -0.0662564134 -0.0000000000 12.8803228974
atom   -0.026163    -0.000000   12.721789 Mg  0.0   0.0  0.0000003250  -0.0000000000  -0.0000000350
atom   2.081277    3.828380   3.840174 Mg  0.0   0.0  0.0004346400  0.0000000000  0.0003103650
atom   4.254682    3.828380   10.418468 Mg  0.0   0.0  0.0000319000  0.0000000000  -0.0002568050
atom   9.702522    -0.000000   -1.792388 Mg  0.0   0.0  -0.0000312650  -0.0000000000  0.0002568650
atom   11.875925    0.000000   4.785910 Mg  0.0   0.0  -0.0004339050  -0.0000000000  -0.0003103700
atom   1.570942    -0.000000   7.884877 Si  0.0   0.0  0.0006261100  -0.0000000000  -0.0002826600
atom   5.264241    -0.000000   1.241422 Si  0.0   0.0  -0.0011165500  -0.0000000000  -0.0000400950
atom   5.951581    -0.000000   6.073876 Al  0.0   0.0  0.0037298500  -0.0000000000  0.0005963900
atom   8.005621    3.828380   2.552204 Al  0.0   0.0  -0.0037291250  0.0000000000  -0.0005964950
atom   8.692953    3.828380   7.384658 Si  0.0   0.0  0.0011130150  0.0000000000  0.0000403350
atom   12.386261    3.828380   0.741204 Si  0.0   0.0  -0.0006249900  0.0000000000  0.0002825100
atom   13.917111    3.828380   8.784616 Mg  0.0   0.0  0.0000003250  -0.0000000000  -0.0000000350
atom   16.024551    0.000000   -0.096998 Mg  0.0   0.0  0.0004346400  -0.0000000000  0.0003103650
atom   18.197956    0.000000   6.481295 Mg  0.0   0.0  0.0000319000  0.0000000000  -0.0002568100
atom   23.645797    3.828380   -5.729562 Mg  0.0   0.0  -0.0000312650  0.0000000000  0.0002568650
atom   25.819199    3.828380   0.848736 Mg  0.0   0.0  -0.0004339000  0.0000000000  -0.0003103700
atom   15.514216    3.828380   3.947705 Si  0.0   0.0  0.0006261100  0.0000000000  -0.0002826650
atom   19.207515    3.828380   -2.695751 Si  0.0   0.0  -0.0011165550  -0.0000000000  -0.0000400900
atom   19.894856    3.828380   2.136703 Al  0.0   0.0  0.0037298500  0.0000000000  0.0005963900
atom   21.948895    0.000000   -1.384969 Al  0.0   0.0  -0.0037291300  -0.0000000000  -0.0005964950
atom   22.636227    -0.000000   3.447485 Si  0.0   0.0  0.0011130100  -0.0000000000  0.0000403400
atom   26.329535    0.000000   -3.195969 Si  0.0   0.0  -0.0006249900  -0.0000000000  0.0002825050
energy -292.821367170000030
charge 0.000000000000000
end
begin
comment uuid: 4c3843d7-8355-4b7b-b4e8-830f92b1b176 trajectory_step: 1 
lattice 27.9031048394 0.0000000000 -7.8697699124
lattice 0.0000000000 7.6569756239 -0.0000000000
lattice -0.0654035667 -0.0000000000 12.8759952488
atom   -0.025296    -0.000000   12.717517 Mg  0.0   0.0  0.0000002600  0.0000000000  -0.0000000650
atom   2.083802    3.828488   3.839914 Mg  0.0   0.0  0.0003913700  -0.0000000000  0.0003686600
atom   4.258101    3.828488   10.414534 Mg  0.0   0.0  0.0000358400  -0.0000000000  -0.0003050850
atom   9.708263    -0.000000   -1.790382 Mg  0.0   0.0  -0.0000352250  0.0000000000  0.0003051900
atom   11.882559    -0.000000   4.784243 Mg  0.0   0.0  -0.0003905950  0.0000000000  -0.0003686550
atom   1.574188    -0.000000   7.881378 Si  0.0   0.0  0.0007188100  -0.0000000000  -0.0004117300
atom   5.264839    -0.000000   1.241235 Si  0.0   0.0  -0.0010983200  0.0000000000  -0.0000572250
atom   5.963832    -0.000000   6.073773 Al  0.0   0.0  0.0032364200  0.0000000000  0.0006226450
atom   8.002529    3.828488   2.550379 Al  0.0   0.0  -0.0032358000  -0.0000000000  -0.0006228500
atom   8.701505    3.828488   7.382917 Si  0.0   0.0  0.0010951750  -0.0000000000  0.0000574800
atom   12.392175    3.828488   0.742775 Si  0.0   0.0  -0.0007179300  -0.0000000000  0.0004116250
atom   13.926256    3.828488   8.782633 Mg  0.0   0.0  0.0000002600  0.0000000000  -0.0000000700
atom   16.035355    0.000000   -0.094971 Mg  0.0   0.0  0.0003913700  0.0000000000  0.0003686600
atom   18.209653    0.000000   6.479650 Mg  0.0   0.0  0.0000358400  -0.0000000000  -0.0003050850
atom   23.659815    3.828488   -5.725268 Mg  0.0   0.0  -0.0000352250  -0.0000000000  0.0003051950
atom   25.834111    3.828488   0.849357 Mg  0.0   0.0  -0.0003905950  -0.0000000000  -0.0003686500
atom   15.525741    3.828488   3.946494 Si  0.0   0.0  0.0007188050  -0.0000000000  -0.0004117300
atom   19.216391    3.828488   -2.693649 Si  0.0   0.0  -0.0010983200  0.0000000000  -0.0000572250
atom   19.915385    3.828488   2.138888 Al  0.0   0.0  0.0032364200  -0.0000000000  0.0006226450
atom   21.954082    0.000000   -1.384506 Al  0.0   0.0  -0.0032358000  -0.0000000000  -0.0006228450
atom   22.653057    -0.000000   3.448032 Si  0.0   0.0  0.0010951750  0.0000000000  0.0000574800
atom   26.343727    0.000000   -3.192110 Si  0.0   0.0  -0.0007179350  0.0000000000  0.0004116250
energy -292.821513855000092
charge 0.000000000000000
end
begin
comment uuid: 4c3843d7-8355-4b7b-b4e8-830f92b1b176 trajectory_step: 2 
lattice 27.9243779721 0.0000000000 -7.8612414839
lattice 0.0000000000 7.6573465847 -0.0000000000
lattice -0.0636435797 -0.0000000000 12.8684486294
atom   -0.023525    -0.000000   12.710069 Mg  0.0   0.0  0.0000001900  0.0000000000  -0.0000000900
atom   2.087515    3.828673   3.839618 Mg  0.0   0.0  0.0003418250  -0.0000000000  0.0004226800
atom   4.263140    3.828673   10.407659 Mg  0.0   0.0  0.0000395000  -0.0000000000  -0.0003511850
atom   9.715643    -0.000000   -1.786592 Mg  0.0   0.0  -0.0000389150  0.0000000000  0.0003513400
atom   11.891266    -0.000000   4.781452 Mg  0.0   0.0  -0.0003410300  0.0000000000  -0.0004226550
atom   1.579680    -0.000000   7.875050 Si  0.0   0.0  0.0007795950  0.0000000000  -0.0005129500
atom   5.264744    -0.000000   1.240972 Si  0.0   0.0  -0.0010695850  0.0000000000  -0.0000728900
atom   5.981693    -0.000000   6.073630 Al  0.0   0.0  0.0027381400  0.0000000000  0.0006259400
atom   7.997088    3.828673   2.547435 Al  0.0   0.0  -0.0027376350  -0.0000000000  -0.0006262300
atom   8.714004    3.828673   7.380096 Si  0.0   0.0  0.0010669000  -0.0000000000  0.0000731500
atom   12.399102    3.828673   0.746018 Si  0.0   0.0  -0.0007789900  -0.0000000000  0.0005128900
atom   13.938664    3.828673   8.779448 Mg  0.0   0.0  0.0000001900  0.0000000000  -0.0000000950
atom   16.049704    0.000000   -0.091002 Mg  0.0   0.0  0.0003418250  0.0000000000  0.0004226750
atom   18.225329    0.000000   6.477038 Mg  0.0   0.0  0.0000395000  -0.0000000000  -0.0003511850
atom   23.677832    3.828673   -5.717213 Mg  0.0   0.0  -0.0000389150  -0.0000000000  0.0003513450
atom   25.853455    3.828673   0.850831 Mg  0.0   0.0  -0.0003410300  -0.0000000000  -0.0004226500
atom   15.541869    3.828673   3.944429 Si  0.0   0.0  0.0007795900  -0.0000000000  -0.0005129550
atom   19.226933    3.828673   -2.689649 Si  0.0   0.0  -0.0010695850  0.0000000000  -0.0000728900
atom   19.943882    3.828673   2.143009 Al  0.0   0.0  0.0027381400  -0.0000000000  0.0006259400
atom   21.959277    0.000000   -1.383186 Al  0.0   0.0  -0.0027376300  0.0000000000  -0.0006262300
atom   22.676193    -0.000000   3.449475 Si  0.0   0.0  0.0010669000  0.0000000000  0.0000731500
atom   26.361291    0.000000   -3.184603 Si  0.0   0.0  -0.0007789900  0.0000000000  0.0005128900
energy -292.821657125000058
charge 0.000000000000000
end
begin
comment uuid: 4c3843d7-8355-4b7b-b4e8-830f92b1b176 trajectory_step: 3 
lattice 27.9512967371 0.0000000000 -7.8462763213
lattice 0.0000000000 7.6581392190 -0.0000000000
lattice -0.0603559797 -0.0000000000 12.8558148163
atom   -0.020236    -0.000000   12.697600 Mg  0.0   0.0  0.0000000800  0.0000000000  -0.0000001150
atom   2.092948    3.829070   3.839414 Mg  0.0   0.0  0.0002648950  -0.0000000000  0.0004872650
atom   4.270557    3.829070   10.396041 Mg  0.0   0.0  0.0000443250  -0.0000000000  -0.0004095900
atom   9.724977    -0.000000   -1.779793 Mg  0.0   0.0  -0.0000437950  0.0000000000  0.0004098100
atom   11.902586    -0.000000   4.776837 Mg  0.0   0.0  -0.0002641000  0.0000000000  -0.0004872150
atom   1.588745    -0.000000   7.864172 Si  0.0   0.0  0.0008128000  0.0000000000  -0.0006048350
atom   5.263147    -0.000000   1.240597 Si  0.0   0.0  -0.0010108650  0.0000000000  -0.0000899750
atom   6.007753    -0.000000   6.073456 Al  0.0   0.0  0.0020565000  0.0000000000  0.0005943450
atom   7.987778    3.829070   2.542788 Al  0.0   0.0  -0.0020561900  -0.0000000000  -0.0005947350
atom   8.732331    3.829070   7.375653 Si  0.0   0.0  0.0010089500  -0.0000000000  0.0000902150
atom   12.406789    3.829070   0.752076 Si  0.0   0.0  -0.0008125950  -0.0000000000  0.0006048300
atom   13.955412    3.829070   8.774462 Mg  0.0   0.0  0.0000000800  0.0000000000  -0.0000001200
atom   16.068596    -0.000000   -0.083724 Mg  0.0   0.0  0.0002648950  0.0000000000  0.0004872650
atom   18.246205    0.000000   6.472903 Mg  0.0   0.0  0.0000443250  -0.0000000000  -0.0004095900
atom   23.700626    3.829070   -5.702931 Mg  0.0   0.0  -0.0000437950  -0.0000000000  0.0004098100
atom   25.878235    3.829070   0.853699 Mg  0.0   0.0  -0.0002641050  -0.0000000000  -0.0004872150
atom   15.564393    3.829070   3.941034 Si  0.0   0.0  0.0008128000  -0.0000000000  -0.0006048350
atom   19.238796    3.829070   -2.682541 Si  0.0   0.0  -0.0010108650  0.0000000000  -0.0000899750
atom   19.983402    3.829070   2.150317 Al  0.0   0.0  0.0020565000  -0.0000000000  0.0005943450
atom   21.963426    -0.000000   -1.380351 Al  0.0   0.0  -0.0020561850  0.0000000000  -0.0005947300
atom   22.707979    -0.000000   3.452514 Si  0.0   0.0  0.0010089500  0.0000000000  0.0000902150
atom   26.382437    0.000000   -3.171063 Si  0.0   0.0  -0.0008125950  0.0000000000  0.0006048350
energy -292.821841405000100
charge 0.000000000000000
end
begin
comment uuid: 4c3843d7-8355-4b7b-b4e8-830f92b1b176 trajectory_step: 4 
lattice 27.9830419383 0.0000000000 -7.8204679253
lattice 0.0000000000 7.6600366854 -0.0000000000
lattice -0.0543966207 -0.0000000000 12.8349026950
atom   -0.014299    -0.000000   12.676962 Mg  0.0   0.0  -0.0000001150  0.0000000000  -0.0000001350
atom   2.100780    3.830018   3.839703 Mg  0.0   0.0  0.0001460100  -0.0000000000  0.0005581850
atom   4.281369    3.830018   10.376457 Mg  0.0   0.0  0.0000512400  -0.0000000000  -0.0004815450
atom   9.735956    -0.000000   -1.767663 Mg  0.0   0.0  -0.0000508550  0.0000000000  0.0004818250
atom   11.916548    -0.000000   4.769092 Mg  0.0   0.0  -0.0001453200  0.0000000000  -0.0005581050
atom   1.603649    -0.000000   7.845715 Si  0.0   0.0  0.0007853950  0.0000000000  -0.0006595400
atom   5.258131    -0.000000   1.240059 Si  0.0   0.0  -0.0008965600  0.0000000000  -0.0001038400
atom   6.045537    -0.000000   6.073272 Al  0.0   0.0  0.0011266550  0.0000000000  0.0004982950
atom   7.971783    3.830018   2.535511 Al  0.0   0.0  -0.0011266950  -0.0000000000  -0.0004987850
atom   8.759108    3.830018   7.368737 Si  0.0   0.0  0.0008959900  -0.0000000000  0.0001040100
atom   12.413673    3.830018   0.763075 Si  0.0   0.0  -0.0007857400  -0.0000000000  0.0006596300
atom   13.977222    3.830018   8.766729 Mg  0.0   0.0  -0.0000001150  0.0000000000  -0.0000001350
atom   16.092301    -0.000000   -0.070531 Mg  0.0   0.0  0.0001460100  0.0000000000  0.0005581850
atom   18.272890    0.000000   6.466223 Mg  0.0   0.0  0.0000512400  -0.0000000000  -0.0004815450
atom   23.727477    3.830018   -5.677897 Mg  0.0   0.0  -0.0000508550  -0.0000000000  0.0004818250
atom   25.908069    3.830018   0.858858 Mg  0.0   0.0  -0.0001453200  -0.0000000000  -0.0005581050
atom   15.595170    3.830018   3.935482 Si  0.0   0.0  0.0007853950  0.0000000000  -0.0006595400
atom   19.249652    3.830018   -2.670175 Si  0.0   0.0  -0.0008965600  -0.0000000000  -0.0001038400
atom   20.037058    3.830018   2.163038 Al  0.0   0.0  0.0011266550  -0.0000000000  0.0004982950
atom   21.963304    -0.000000   -1.374723 Al  0.0   0.0  -0.0011266950  0.0000000000  -0.0004987850
atom   22.750629    -0.000000   3.458503 Si  0.0   0.0  0.0008959950  0.0000000000  0.0001040100
atom   26.405194    0.000000   -3.147159 Si  0.0   0.0  -0.0007857400  0.0000000000  0.0006596350
energy -292.822053240000116
charge 0.000000000000000
end
begin
comment uuid: 4c3843d7-8355-4b7b-b4e8-830f92b1b176 trajectory_step: 5 
lattice 27.9883694504 0.0000000000 -7.8045784901
lattice 0.0000000000 7.6621290979 -0.0000000000
lattice -0.0504551925 -0.0000000000 12.8228304915
atom   -0.010396    -0.000000   12.665050 Mg  0.0   0.0  -0.0000004450  0.0000000000  -0.0000001150
atom   2.104086    3.831065   3.840762 Mg  0.0   0.0  -0.0000375850  -0.0000000000  0.0006144050
atom   4.286145    3.831065   10.364506 Mg  0.0   0.0  0.0000624750  -0.0000000000  -0.0005606300
atom   9.737714    -0.000000   -1.759517 Mg  0.0   0.0  -0.0000624400  0.0000000000  0.0005609400
atom   11.919777    -0.000000   4.764227 Mg  0.0   0.0  0.0000379000  0.0000000000  -0.0006142900
atom   1.612228    -0.000000   7.834549 Si  0.0   0.0  0.0006243600  0.0000000000  -0.0006044350
atom   5.252533    -0.000000   1.239817 Si  0.0   0.0  -0.0006716650  0.0000000000  -0.0001010050
atom   6.062243    -0.000000   6.073265 Al  0.0   0.0  -0.0001144250  0.0000000000  0.0002796250
atom   7.961607    3.831065   2.531708 Al  0.0   0.0  0.0001137650  -0.0000000000  -0.0002801650
atom   8.771229    3.831065   7.365174 Si  0.0   0.0  0.0006735000  -0.0000000000  0.0001009650
atom   12.411623    3.831065   0.770436 Si  0.0   0.0  -0.0006254450  -0.0000000000  0.0006047000
atom   13.983789    3.831065   8.762761 Mg  0.0   0.0  -0.0000004450  0.0000000000  -0.0000001150
atom   16.098270    -0.000000   -0.061527 Mg  0.0   0.0  -0.0000375850  0.0000000000  0.0006144050
atom   18.280329    0.000000   6.462217 Mg  0.0   0.0  0.0000624750  -0.0000000000  -0.0005606300
atom   23.731898    3.831065   -5.661806 Mg  0.0   0.0  -0.0000624450  -0.0000000000  0.0005609400
atom   25.913962    3.831065   0.861938 Mg  0.0   0.0  0.0000379000  -0.0000000000  -0.0006142850
atom   15.606413    3.831065   3.932260 Si  0.0   0.0  0.0006243650  0.0000000000  -0.0006044350
atom   19.246718    3.831065   -2.662473 Si  0.0   0.0  -0.0006716650  0.0000000000  -0.0001010050
atom   20.056428    3.831065   2.170976 Al  0.0   0.0  -0.0001144250  -0.0000000000  0.0002796250
atom   21.955792    -0.000000   -1.370581 Al  0.0   0.0  0.0001137650  0.0000000000  -0.0002801650
atom   22.765414    -0.000000   3.462885 Si  0.0   0.0  0.0006735000  0.0000000000  0.0001009650
atom   26.405808    -0.000000   -3.131853 Si  0.0   0.0  -0.0006254450  0.0000000000  0.0006047050
energy -292.822233345000029
charge 0.000000000000000
end
begin
comment uuid: 4c3843d7-8355-4b7b-b4e8-830f92b1b176 trajectory_step: 6 
lattice 27.9782902333 0.0000000000 -7.7941872036
lattice 0.0000000000 7.6647854821 -0.0000000000
lattice -0.0476361595 -0.0000000000 12.8156304006
atom   -0.007625    -0.000000   12.657946 Mg  0.0   0.0  -0.0000005450  0.0000000000  -0.0000000500
atom   2.104773    3.832393   3.842590 Mg  0.0   0.0  -0.0001282300  -0.0000000000  0.0005832000
atom   4.287510    3.832393   10.356393 Mg  0.0   0.0  0.0000691700  -0.0000000000  -0.0005596900
atom   9.734036    -0.000000   -1.753212 Mg  0.0   0.0  -0.0000693150  0.0000000000  0.0005599450
atom   11.916779    -0.000000   4.760590 Mg  0.0   0.0  0.0001282800  0.0000000000  -0.0005830800
atom   1.617412    -0.000000   7.827338 Si  0.0   0.0  0.0004334250  0.0000000000  -0.0004354250
atom   5.246123    -0.000000   1.239721 Si  0.0   0.0  -0.0004920150  0.0000000000  -0.0000762300
atom   6.067451    -0.000000   6.073337 Al  0.0   0.0  -0.0005580600  0.0000000000  0.0001011300
atom   7.954083    3.832393   2.529824 Al  0.0   0.0  0.0005572100  -0.0000000000  -0.0001015300
atom   8.775330    3.832393   7.363459 Si  0.0   0.0  0.0004949250  -0.0000000000  0.0000759700
atom   12.404122    3.832393   0.775838 Si  0.0   0.0  -0.0004348500  -0.0000000000  0.0004357550
atom   13.981520    3.832393   8.760853 Mg  0.0   0.0  -0.0000005450  0.0000000000  -0.0000000500
atom   16.093918    -0.000000   -0.054504 Mg  0.0   0.0  -0.0001282300  0.0000000000  0.0005832000
atom   18.276655    0.000000   6.459299 Mg  0.0   0.0  0.0000691700  -0.0000000000  -0.0005596900
atom   23.723181    3.832393   -5.650306 Mg  0.0   0.0  -0.0000693150  -0.0000000000  0.0005599500
atom   25.905924    3.832393   0.863496 Mg  0.0   0.0  0.0001282800  -0.0000000000  -0.0005830750
atom   15.606557    3.832393   3.930244 Si  0.0   0.0  0.0004334300  0.0000000000  -0.0004354250
atom   19.235268    3.832393   -2.657372 Si  0.0   0.0  -0.0004920150  0.0000000000  -0.0000762300
atom   20.056597    3.832393   2.176243 Al  0.0   0.0  -0.0005580600  -0.0000000000  0.0001011300
atom   21.943228    -0.000000   -1.367270 Al  0.0   0.0  0.0005572100  0.0000000000  -0.0001015250
atom   22.764476    -0.000000   3.466365 Si  0.0   0.0  0.0004949250  0.0000000000  0.0000759700
atom   26.393267    -0.000000   -3.121256 Si  0.0   0.0  -0.0004348450  0.0000000000  0.0004357600
energy -292.822279165000054
charge 0.000000000000000
end
begin
comment uuid: 4c3843d7-8355-4b7b-b4e8-830f92b1b176 trajectory_step: 7 
lattice 27.9591072058 0.0000000000 -7.7875003245
lattice -0.0000000000 7.6681167159 -0.0000000000
lattice -0.0456333503 -0.0000000000 12.8115159320
atom   -0.005675    -0.000000   12.653888 Mg  0.0   0.0  -0.0000004750  0.0000000000  0.0000000500
atom   2.103808    3.834058   3.845161 Mg  0.0   0.0  -0.0001655450  -0.0000000000  0.0004975400
atom   4.286780    3.834058   10.350380 Mg  0.0   0.0  0.0000736600  -0.0000000000  -0.0005058950
atom   9.727078    -0.000000   -1.747856 Mg  0.0   0.0  -0.0000738300  0.0000000000  0.0005060350
atom   11.910057    -0.000000   4.757361 Mg  0.0   0.0  0.0001654200  0.0000000000  -0.0004974350
atom   1.620520    -0.000000   7.822664 Si  0.0   0.0  0.0002277750  0.0000000000  -0.0002033800
atom   5.239003    -0.000000   1.239683 Si  0.0   0.0  -0.0003245200  0.0000000000  -0.0000397100
atom   6.066170    -0.000000   6.073386 Al  0.0   0.0  -0.0005683650  0.0000000000  -0.0000555100
atom   7.947673    3.834058   2.529115 Al  0.0   0.0  0.0005676250  -0.0000000000  0.0000553900
atom   8.774773    3.834058   7.362837 Si  0.0   0.0  0.0003275850  -0.0000000000  0.0000392300
atom   12.393318    3.834058   0.779855 Si  0.0   0.0  -0.0002293350  -0.0000000000  0.0002036750
atom   13.973879    3.834058   8.760138 Mg  0.0   0.0  -0.0000004750  0.0000000000  0.0000000500
atom   16.083361    -0.000000   -0.048589 Mg  0.0   0.0  -0.0001655450  0.0000000000  0.0004975400
atom   18.266333    0.000000   6.456630 Mg  0.0   0.0  0.0000736600  -0.0000000000  -0.0005058950
atom   23.706631    3.834058   -5.641606 Mg  0.0   0.0  -0.0000738300  -0.0000000000  0.0005060400
atom   25.889610    3.834058   0.863611 Mg  0.0   0.0  0.0001654200  -0.0000000000  -0.0004974350
atom   15.600074    3.834058   3.928914 Si  0.0   0.0  0.0002277750  -0.0000000000  -0.0002033800
atom   19.218556    3.834058   -2.654067 Si  0.0   0.0  -0.0003245200  -0.0000000000  -0.0000397100
atom   20.045723    3.834058   2.179636 Al  0.0   0.0  -0.0005683600  -0.0000000000  -0.0000555100
atom   21.927226    -0.000000   -1.364635 Al  0.0   0.0  0.0005676250  0.0000000000  0.0000553900
atom   22.754327    -0.000000   3.469087 Si  0.0   0.0  0.0003275900  0.0000000000  0.0000392300
atom   26.372872    -0.000000   -3.113895 Si  0.0   0.0  -0.0002293350  0.0000000000  0.0002036800
energy -292.822309560000065
charge 0.000000000000000
end
begin
comment uuid: 4c3843d7-8355-4b7b-b4e8-830f92b1b176 trajectory_step: 8 
lattice 27.9308750395 -0.0000000000 -7.7849696694
lattice -0.0000000000 7.6726759542 -0.0000000000
lattice -0.0446509024 -0.0000000000 12.8105090859
atom   -0.004747    -0.000000   12.652897 Mg  0.0   0.0  -0.0000002900  0.0000000000  0.0000001750
atom   2.101066    3.836338   3.848975 Mg  0.0   0.0  -0.0001698500  -0.0000000000  0.0003770700
atom   4.283897    3.836338   10.345852 Mg  0.0   0.0  0.0000772300  -0.0000000000  -0.0004161050
atom   9.716724    0.000000   -1.743038 Mg  0.0   0.0  -0.0000773450  0.0000000000  0.0004160950
atom   11.899562    -0.000000   4.753837 Mg  0.0   0.0  0.0001696000  0.0000000000  -0.0003769950
atom   1.621607    -0.000000   7.820584 Si  0.0   0.0  0.0000208800  0.0000000000  0.0000534900
atom   5.230644    -0.000000   1.239633 Si  0.0   0.0  -0.0001610350  0.0000000000  0.0000024900
atom   6.059290    -0.000000   6.073241 Al  0.0   0.0  -0.0003403750  0.0000000000  -0.0001935850
atom   7.941312    3.836338   2.529548 Al  0.0   0.0  0.0003398900  -0.0000000000  0.0001938200
atom   8.769916    3.836338   7.363173 Si  0.0   0.0  0.0001637100  -0.0000000000  -0.0000031550
atom   12.378984    3.836338   0.782226 Si  0.0   0.0  -0.0000224150  -0.0000000000  -0.0000533050
atom   13.960691    3.836338   8.760413 Mg  0.0   0.0  -0.0000002900  0.0000000000  0.0000001750
atom   16.066504    -0.000000   -0.043510 Mg  0.0   0.0  -0.0001698500  0.0000000000  0.0003770700
atom   18.249334    0.000000   6.453367 Mg  0.0   0.0  0.0000772250  -0.0000000000  -0.0004161050
atom   23.682162    3.836338   -5.635523 Mg  0.0   0.0  -0.0000773450  -0.0000000000  0.0004160950
atom   25.865000    3.836338   0.861352 Mg  0.0   0.0  0.0001696000  -0.0000000000  -0.0003769950
atom   15.587045    3.836338   3.928100 Si  0.0   0.0  0.0000208800  0.0000000000  0.0000534900
atom   19.196082    3.836338   -2.652852 Si  0.0   0.0  -0.0001610350  -0.0000000000  0.0000024900
atom   20.024727    3.836338   2.180756 Al  0.0   0.0  -0.0003403750  -0.0000000000  -0.0001935850
atom   21.906750    -0.000000   -1.362937 Al  0.0   0.0  0.0003398900  0.0000000000  0.0001938200
atom   22.735354    -0.000000   3.470688 Si  0.0   0.0  0.0001637150  0.0000000000  -0.0000031550
atom   26.344422    -0.000000   -3.110260 Si  0.0   0.0  -0.0000224150  0.0000000000  -0.0000533000
energy -292.822337010000126
charge 0.000000000000000
end
begin
comment uuid: 4c3843d7-8355-4b7b-b4e8-830f92b1b176 trajectory_step: 9 
lattice 27.9183752684 -0.0000000000 -7.7882107217
lattice -0.0000000000 7.6750254734 -0.0000000000
lattice -0.0454966758 -0.0000000000 12.8126920881
atom   -0.005601    -0.000000   12.655052 Mg  0.0   0.0  0.0000000200  0.0000000000  0.0000003150
atom   2.099008    3.837513   3.851185 Mg  0.0   0.0  -0.0001414300  -0.0000000000  0.0002164300
atom   4.281583    3.837513   10.345416 Mg  0.0   0.0  0.0000807350  -0.0000000000  -0.0002830050
atom   9.711925    0.000000   -1.742099 Mg  0.0   0.0  -0.0000807250  0.0000000000  0.0002827700
atom   11.894508    -0.000000   4.752130 Mg  0.0   0.0  0.0001410900  0.0000000000  -0.0002163850
atom   1.620300    -0.000000   7.822215 Si  0.0   0.0  -0.0001778550  0.0000000000  0.0003179700
atom   5.227488    -0.000000   1.239523 Si  0.0   0.0  0.0000046900  0.0000000000  0.0000485300
atom   6.054526    0.000000   6.072835 Al  0.0   0.0  0.0000830750  0.0000000000  -0.0003062300
atom   7.938962    3.837513   2.530459 Al  0.0   0.0  -0.0000832150  -0.0000000000  0.0003068800
atom   8.765974    3.837513   7.363783 Si  0.0   0.0  -0.0000029800  -0.0000000000  -0.0000493000
atom   12.373172    3.837513   0.781099 Si  0.0   0.0  0.0001765900  -0.0000000000  -0.0003179650
atom   13.953586    3.837513   8.760946 Mg  0.0   0.0  0.0000000200  0.0000000000  0.0000003150
atom   16.058195    -0.000000   -0.042920 Mg  0.0   0.0  -0.0001414300  0.0000000000  0.0002164250
atom   18.240771    -0.000000   6.451311 Mg  0.0   0.0  0.0000807350  -0.0000000000  -0.0002830050
atom   23.671113    3.837513   -5.636205 Mg  0.0   0.0  -0.0000807250  -0.0000000000  0.0002827700
atom   25.853695    3.837513   0.858025 Mg  0.0   0.0  0.0001410900  -0.0000000000  -0.0002163850
atom   15.579488    3.837513   3.928110 Si  0.0   0.0  -0.0001778550  -0.0000000000  0.0003179650
atom   19.186675    3.837513   -2.654582 Si  0.0   0.0  0.0000046900  0.0000000000  0.0000485300
atom   20.013714    3.837513   2.178729 Al  0.0   0.0  0.0000830750  -0.0000000000  -0.0003062300
atom   21.898150    -0.000000   -1.363646 Al  0.0   0.0  -0.0000832150  0.0000000000  0.0003068800
atom   22.725161    -0.000000   3.469678 Si  0.0   0.0  -0.0000029800  0.0000000000  -0.0000493000
atom   26.332360    -0.000000   -3.113007 Si  0.0   0.0  0.0001765900  0.0000000000  -0.0003179650
energy -292.822357770000053
charge 0.000000000000000
end
begin
comment uuid: 4c3843d7-8355-4b7b-b4e8-830f92b1b176 trajectory_step: 10 
lattice 27.9061325605 -0.0000000000 -7.7956770183
lattice -0.0000000000 7.6781038183 -0.0000000000
lattice -0.0477343232 -0.0000000000 12.8168900013
atom   -0.007831    -0.000000   12.659193 Mg  0.0   0.0  0.0000001950  0.0000000000  0.0000003450
atom   2.096090    3.839052   3.854370 Mg  0.0   0.0  -0.0001114800  -0.0000000000  0.0001481850
atom   4.278340    3.839052   10.345339 Mg  0.0   0.0  0.0000827250  -0.0000000000  -0.0002158250
atom   9.706827    0.000000   -1.741676 Mg  0.0   0.0  -0.0000826300  0.0000000000  0.0002154800
atom   11.889080    -0.000000   4.749293 Mg  0.0   0.0  0.0001111550  0.0000000000  -0.0001481550
atom   1.617600    -0.000000   7.825902 Si  0.0   0.0  -0.0001951550  0.0000000000  0.0003548000
atom   5.224145    -0.000000   1.239209 Si  0.0   0.0  0.0000438150  0.0000000000  0.0000573850
atom   6.049564    0.000000   6.071814 Al  0.0   0.0  0.0002645450  -0.0000000000  -0.0002968950
atom   7.935579    3.839052   2.531831 Al  0.0   0.0  -0.0002645600  0.0000000000  0.0002976500
atom   8.760991    3.839052   7.364440 Si  0.0   0.0  -0.0000427950  -0.0000000000  -0.0000580800
atom   12.367519    3.839052   0.777760 Si  0.0   0.0  0.0001941900  -0.0000000000  -0.0003548950
atom   13.945235    3.839052   8.761355 Mg  0.0   0.0  0.0000001950  0.0000000000  0.0000003450
atom   16.049157    -0.000000   -0.043468 Mg  0.0   0.0  -0.0001114800  0.0000000000  0.0001481850
atom   18.231406    -0.000000   6.447500 Mg  0.0   0.0  0.0000827200  -0.0000000000  -0.0002158250
atom   23.659893    3.839052   -5.639514 Mg  0.0   0.0  -0.0000826300  -0.0000000000  0.0002154800
atom   25.842147    3.839052   0.851455 Mg  0.0   0.0  0.0001111550  -0.0000000000  -0.0001481500
atom   15.570667    3.839052   3.928063 Si  0.0   0.0  -0.0001951550  -0.0000000000  0.0003548000
atom   19.177211    3.839052   -2.658630 Si  0.0   0.0  0.0000438200  -0.0000000000  0.0000573850
atom   20.002631    3.839052   2.173976 Al  0.0   0.0  0.0002645450  -0.0000000000  -0.0002968950
atom   21.888645    -0.000000   -1.366008 Al  0.0   0.0  -0.0002645600  0.0000000000  0.0002976500
atom   22.714057    -0.000000   3.466601 Si  0.0   0.0  -0.0000427900  0.0000000000  -0.0000580800
atom   26.320585    -0.000000   -3.120079 Si  0.0   0.0  0.0001941850  0.0000000000  -0.0003548950
energy -292.822365025000067
charge 0.000000000000000
end
begin
comment uuid: 4c3843d7-8355-4b7b-b4e8-830f92b1b176 trajectory_step: 11 
lattice 27.8979869301 -0.0000000000 -7.8054913638
lattice -0.0000000000 7.6812004521 -0.0000000000
lattice -0.0509765055 -0.0000000000 12.8214362553
atom   -0.011047    -0.000000   12.663676 Mg  0.0   0.0  0.0000003900  0.0000000000  0.0000003300
atom   2.093062    3.840600   3.858001 Mg  0.0   0.0  -0.0000689050  0.0000000000  0.0000764550
atom   4.275119    3.840600   10.344579 Mg  0.0   0.0  0.0000862750  0.0000000000  -0.0001333200
atom   9.702784    0.000000   -1.741411 Mg  0.0   0.0  -0.0000861000  -0.0000000000  0.0001328500
atom   11.884842    -0.000000   4.745171 Mg  0.0   0.0  0.0000686200  -0.0000000000  -0.0000764250
atom   1.614531    0.000000   7.830234 Si  0.0   0.0  -0.0001373250  0.0000000000  0.0002979450
atom   5.220985    0.000000   1.238632 Si  0.0   0.0  0.0000584600  -0.0000000000  0.0000517100
atom   6.047086    0.000000   6.070145 Al  0.0   0.0  0.0003697400  -0.0000000000  -0.0002237850
atom   7.930791    3.840600   2.533013 Al  0.0   0.0  -0.0003697050  0.0000000000  0.0002245450
atom   8.756902    3.840600   7.364517 Si  0.0   0.0  -0.0000583100  0.0000000000  -0.0000521650
atom   12.363313    3.840600   0.772935 Si  0.0   0.0  0.0001368550  -0.0000000000  -0.0002981350
atom   13.937946    3.840600   8.760931 Mg  0.0   0.0  0.0000003900  0.0000000000  0.0000003300
atom   16.042055    -0.000000   -0.044745 Mg  0.0   0.0  -0.0000689050  0.0000000000  0.0000764550
atom   18.224112    -0.000000   6.441834 Mg  0.0   0.0  0.0000862750  -0.0000000000  -0.0001333200
atom   23.651778    3.840600   -5.644157 Mg  0.0   0.0  -0.0000861000  0.0000000000  0.0001328500
atom   25.833836    3.840600   0.842425 Mg  0.0   0.0  0.0000686200  -0.0000000000  -0.0000764250
atom   15.563524    3.840600   3.927488 Si  0.0   0.0  -0.0001373250  0.0000000000  0.0002979400
atom   19.169979    3.840600   -2.664113 Si  0.0   0.0  0.0000584600  0.0000000000  0.0000517050
atom   19.996079    3.840600   2.167399 Al  0.0   0.0  0.0003697400  0.0000000000  -0.0002237850
atom   21.879785    -0.000000   -1.369733 Al  0.0   0.0  -0.0003697050  0.0000000000  0.0002245450
atom   22.705896    -0.000000   3.461771 Si  0.0   0.0  -0.0000583100  -0.0000000000  -0.0000521600
atom   26.312306    -0.000000   -3.129811 Si  0.0   0.0  0.0001368550  -0.0000000000  -0.0002981350
energy -292.822373825000057
charge 0.000000000000000
end
begin
comment uuid: 4c3843d7-8355-4b7b-b4e8-830f92b1b176 trajectory_step: 12 
lattice 27.8978566164 -0.0000000000 -7.8111838917
lattice -0.0000000000 7.6822696591 -0.0000000000
lattice -0.0531462059 -0.0000000000 12.8231045433
atom   -0.013190    -0.000000   12.665320 Mg  0.0   0.0  0.0000005350  -0.0000000000  0.0000002500
atom   2.091726    3.841135   3.859879 Mg  0.0   0.0  -0.0000293750  0.0000000000  0.0000173100
atom   4.273900    3.841135   10.343143 Mg  0.0   0.0  0.0000906650  0.0000000000  -0.0000522450
atom   9.701819    0.000000   -1.741211 Mg  0.0   0.0  -0.0000904600  -0.0000000000  0.0000516800
atom   11.883991    0.000000   4.742061 Mg  0.0   0.0  0.0000291450  -0.0000000000  -0.0000172550