begin
comment uuid: d0dc4e30-e6d6-4620-8877-255d426671bb parent_uuid: a92eb12b-a1c1-421e-9fbe-b522f1045a85 trajectory_step: final_scf
lattice     27.2529482260    -0.0000000002    -9.1249195117
lattice      0.0000000001     7.6529650603     0.0000000000
lattice     -0.3025485896     0.0000000000    13.0241175202
atom     -0.2606460453    -0.0000001744    12.8621733671   Mg  0.0 0.0   -2.17507922e-11 -3.68276098e-13  5.05883568e-12
atom      2.0479033274     3.8264823557     3.9811766117   Mg  0.0 0.0   -1.01773074e-08 -3.08853342e-13  7.84167722e-07
atom      4.0325581573     3.8264823557    10.5758501366   Mg  0.0 0.0   -1.03073730e-07 -2.65723098e-13  7.27123168e-07
atom      9.3751724557    -0.0000001746    -2.4380806780   Mg  0.0 0.0    1.03015351e-07  2.74550321e-13 -7.27083086e-07
atom     11.3598272783    -0.0000001746     4.1565928553   Mg  0.0 0.0    1.01954599e-08  3.15097745e-13 -7.84213914e-07
atom      1.4070734307    -0.0000001744     8.0324661037   Si  0.0 0.0   -1.09147585e-06 -3.55589321e-13  1.35171707e-06
atom      5.2036551477    -0.0000001745     1.4542583915   Si  0.0 0.0   -8.67359868e-07 -8.39547061e-14 -4.08107623e-07
atom      5.5263151111    -0.0000001745     6.1804015655   Si  0.0 0.0   -1.27432652e-06  1.56011198e-14  6.04497059e-07
atom      7.8814154945     3.8264823556     1.9573678984   Si  0.0 0.0    1.27435163e-06  1.42927557e-15 -6.04506983e-07
atom      8.2040754594     3.8264823556     6.6835110719   Si  0.0 0.0    8.67368793e-07  1.00317765e-13  4.08103726e-07
atom     12.0006571743     3.8264823555     0.1053033600   Si  0.0 0.0    1.09150460e-06  3.59167879e-13 -1.35172708e-06
atom     13.3658280674     3.8264823555     8.2997136170   Mg  0.0 0.0   -2.05269413e-11  3.67941599e-13 -1.95289566e-11
atom     15.6743774401    -0.0000001746    -0.5812831381   Mg  0.0 0.0   -1.01758486e-08  3.10362245e-13  7.84143414e-07
atom     17.6590322711    -0.0000001746     6.0133903830   Mg  0.0 0.0   -1.03078524e-07  2.56503781e-13  7.27117137e-07
atom     23.0016465689     3.8264823556    -7.0005404393   Mg  0.0 0.0    1.03013004e-07 -2.65495483e-13 -7.27056373e-07
atom     24.9863013910     3.8264823556    -0.4058669078   Mg  0.0 0.0    1.01973009e-08 -3.16628658e-13 -7.84181827e-07
atom     15.0335475444     3.8264823555     3.4700063529   Si  0.0 0.0   -1.09147962e-06  3.49934826e-13  1.35169617e-06
atom     18.8301292596     3.8264823555    -3.1082013626   Si  0.0 0.0   -8.67354893e-07  8.11436458e-14 -4.08111584e-07
atom     19.1527892240     3.8264823555     1.6179418110   Si  0.0 0.0   -1.27432585e-06 -1.04356298e-14  6.04494934e-07
atom     21.5078896071    -0.0000001746    -2.6050918621   Si  0.0 0.0    1.27435309e-06 -6.51722040e-15 -6.04483250e-07
atom     21.8305495731    -0.0000001746     2.1210513113   Si  0.0 0.0    8.67365907e-07 -9.74558007e-14  4.08127166e-07
atom     25.6271312870    -0.0000001746    -4.4571564016   Si  0.0 0.0    1.09150515e-06 -3.53369399e-13 -1.35170137e-06
energy -2.365794515243012e+02
charge 0.0000
end
