begin
comment uuid: 214987d9-9043-440d-af0a-812ec59364b7 parent_uuid: 00284ee1-6af0-439a-857f-64d2dfa5a7e3 trajectory_step: final_scf
lattice     27.4886069307     0.0000000001    -7.4313442926
lattice     -0.0000000000     7.8089257868    -0.0000000000
lattice     -0.0007703614     0.0000000000    12.3970738385
atom      0.0380102704     0.0000000240    12.2446953869   Al  0.0 0.0    1.95139747e-10  1.77493601e-13 -8.30808623e-10
atom      1.9982105053     3.9044629173     3.6115339081   Mg  0.0 0.0    3.91428514e-07  1.68361500e-13  3.09518802e-07
atom      4.2117960471     3.9044629174    10.0109639787   Mg  0.0 0.0   -6.16234961e-07  1.23445321e-13 -1.97795855e-08
atom      9.6092983239     0.0000000240    -1.6343192033   Mg  0.0 0.0    6.16131568e-07 -1.32705811e-13  1.98821801e-08
atom     11.8228838648     0.0000000241     4.7651108679   Mg  0.0 0.0   -3.91302144e-07 -1.72035687e-13 -3.09540743e-07
atom      1.6303222437     0.0000000239     7.6346232076   Si  0.0 0.0    8.50845188e-07  1.77498293e-13  1.03758907e-06
atom      5.0530431609     0.0000000240     1.1835479938   Si  0.0 0.0   -2.57826749e-07  7.50530117e-14 -4.67180694e-07
atom      6.0662487895     0.0000000240     5.9169006460   Al  0.0 0.0   -8.79243952e-07 -2.76389412e-14  1.54724411e-06
atom      7.7548455742     3.9044629174     2.4597441300   Al  0.0 0.0    8.80123531e-07  1.45693321e-14 -1.54721594e-06
atom      8.7680512103     3.9044629174     7.1930967852   Si  0.0 0.0    2.57766389e-07 -8.70298357e-14  4.66827808e-07
atom     12.1907721351     3.9044629175     0.7420215594   Si  0.0 0.0   -8.51879626e-07 -1.81476153e-13 -1.03654959e-06
atom     13.7823137357     3.9044629175     8.5290232397   Al  0.0 0.0    1.96961261e-10 -1.77475650e-13 -8.37139257e-10
atom     15.7425139703     0.0000000241    -0.1041382402   Mg  0.0 0.0    3.91432782e-07 -1.68743229e-13  3.09528061e-07
atom     17.9560995130     0.0000000241     6.2952918300   Mg  0.0 0.0   -6.16238137e-07 -1.24855115e-13 -1.97671346e-08
atom     23.3536017903     3.9044629174    -5.3499913512   Mg  0.0 0.0    6.16126599e-07  1.33969738e-13  1.98896182e-08
atom     25.5671873299     3.9044629175     1.0494387215   Mg  0.0 0.0   -3.91303783e-07  1.72401513e-13 -3.09539332e-07
atom     15.3746257093     3.9044629175     3.9189510598   Si  0.0 0.0    8.50835010e-07 -1.79252664e-13  1.03760173e-06
atom     18.7973466262     3.9044629175    -2.5321241550   Si  0.0 0.0   -2.57825408e-07 -7.26033326e-14 -4.67167427e-07
atom     19.8105522548     3.9044629175     2.2012284972   Al  0.0 0.0   -8.79236932e-07  2.85272714e-14  1.54725317e-06
atom     21.4991490394     0.0000000241    -1.2559280182   Al  0.0 0.0    8.80118608e-07 -1.54360620e-14 -1.54720261e-06
atom     22.5123546755     0.0000000241     3.4774246372   Si  0.0 0.0    2.57765453e-07  8.46399794e-14  4.66835339e-07
atom     25.9350756007     0.0000000240    -2.9736505863   Si  0.0 0.0   -8.51874055e-07  1.83306074e-13 -1.03655888e-06
energy -2.986846497067886e+02
charge 0.0000
end
