begin
comment uuid: d7dac1cb-ee87-4461-ab4a-7b9936f14816 parent_uuid: 4c3843d7-8355-4b7b-b4e8-830f92b1b176 trajectory_step: final_scf
lattice     28.0732796026    -0.0000000001    -7.7840443621
lattice      0.0000000000     7.6695971706     0.0000000001
lattice     -0.0448760967    -0.0000000001    12.8094576077
atom     -0.0047658761    -0.0000000396    12.6518615525   Mg  0.0 0.0   -8.05910388e-13 -7.23823575e-13  8.24057028e-12
atom      2.0947577872     3.8347985457     3.8643886811   Mg  0.0 0.0   -8.13037809e-07 -5.91323739e-13  6.07545917e-07
atom      4.3334217360     3.8347985456    10.3263911600   Mg  0.0 0.0   -1.42000065e-06 -3.62743994e-13  8.46490267e-07
atom      9.7385624089    -0.0000000398    -1.7241478355   Mg  0.0 0.0    1.41998899e-06  5.41328899e-13 -8.46518296e-07
atom     11.9772263600    -0.0000000399     4.7378546408   Mg  0.0 0.0    8.13004712e-07  6.83084076e-13 -6.07550493e-07
atom      1.6383145704    -0.0000000396     7.8157671014   Si  0.0 0.0    2.09285873e-07 -6.75413794e-13 -3.89877494e-07
atom      5.2393880944    -0.0000000397     1.2453430546   Si  0.0 0.0    2.00317199e-07 -5.19761522e-14 -3.40933029e-07
atom      6.1021713904    -0.0000000397     6.0719000685   Al  0.0 0.0    5.28127379e-07  1.29432986e-13 -1.31076243e-07
atom      7.9698127553     3.8347985456     2.5303432568   Al  0.0 0.0   -5.28109674e-07  1.32628564e-13  1.31041748e-07
atom      8.8325960512     3.8347985455     7.3569002701   Si  0.0 0.0   -2.00305346e-07  3.04618971e-13  3.40909433e-07
atom     12.4336695744     3.8347985455     0.7864762198   Si  0.0 0.0   -2.09262814e-07  7.33838750e-13  3.89875731e-07
atom     14.0318739253     3.8347985454     8.7598393755   Mg  0.0 0.0   -9.81189210e-13  7.23819645e-13 -1.21514342e-11
atom     16.1313975881    -0.0000000398    -0.0276334976   Mg  0.0 0.0   -8.13035691e-07  6.04295109e-13  6.07535002e-07
atom     18.3700615396    -0.0000000398     6.4343689762   Mg  0.0 0.0   -1.42001317e-06  3.53655722e-13  8.46506147e-07
atom     23.7752022108     3.8347985457    -5.6161700225   Mg  0.0 0.0    1.41998479e-06 -5.32071775e-13 -8.46485580e-07
atom     26.0138661605     3.8347985457     0.8458324536   Mg  0.0 0.0    8.13008670e-07 -6.96006861e-13 -6.07518488e-07
atom     15.6749543723     3.8347985455     3.9237449230   Si  0.0 0.0    2.09282478e-07  6.63899520e-13 -3.89890666e-07
atom     19.2760278955     3.8347985456    -2.6466791296   Si  0.0 0.0    2.00318265e-07  1.86764093e-14 -3.40914584e-07
atom     20.1388111908     3.8347985456     2.1798778836   Al  0.0 0.0    5.28131992e-07 -1.13192919e-13 -1.31054216e-07
atom     22.0064525568    -0.0000000397    -1.3616789303   Al  0.0 0.0   -5.28110591e-07 -1.48948751e-13  1.31074795e-07
atom     22.8692358527    -0.0000000397     3.4648780829   Si  0.0 0.0   -2.00306194e-07 -2.71380848e-13  3.40943367e-07
atom     26.4703093763    -0.0000000396    -3.1055459662   Si  0.0 0.0   -2.09266629e-07 -7.22445759e-13  3.89900593e-07
energy -2.928225310044802e+02
charge 0.0000
end
