begin
comment uuid: 2de31ede-4cd9-4681-ab6d-28c194209012 parent_uuid: 46939af9-eee4-4d42-a067-25e919f9bf55 trajectory_step: final_scf
lattice     13.6293977131     0.0000000034    -0.0000000000
lattice     -6.8146988534    11.8034046555    -0.0000000001
lattice     -0.0000000000     0.0000000001    23.1623753622
atom      3.4723418325     8.0225857465     1.8467795096   Mg  0.0 0.0   -3.85642915e-07 -4.28825752e-07  3.65884549e-07
atom     -1.8692351665    10.7992482273     1.8467795129   Mg  0.0 0.0    5.64187632e-07 -1.19557267e-07  3.65875168e-07
atom     -1.6031069154     4.7849756040     1.8467795067   Mg  0.0 0.0   -1.78560357e-07  5.48400744e-07  3.65892031e-07
atom      2.8293982824     3.2389465144     5.7905939379   Mg  0.0 0.0   -4.64696472e-07  1.88292908e-07 -2.87792188e-15
atom      9.4096885594     0.8308577385     5.7905939379   Mg  0.0 0.0    6.92762261e-08 -4.96571659e-07  3.42865884e-15
atom      8.2050094774     7.7336006656     5.7905939379   Mg  0.0 0.0    3.95400536e-07  3.08306167e-07  4.01780716e-15
atom      3.4723418325     8.0225857465     9.7344083661   Mg  0.0 0.0   -3.85642906e-07 -4.28825753e-07 -3.65884529e-07
atom     -1.8692351665    10.7992482274     9.7344083628   Mg  0.0 0.0    5.64187623e-07 -1.19557266e-07 -3.65875127e-07
atom     -1.6031069154     4.7849756040     9.7344083690   Mg  0.0 0.0   -1.78560354e-07  5.48400750e-07 -3.65892044e-07
atom      3.3423568529     3.7808190912    13.4279671908   Mg  0.0 0.0    3.85643066e-07  4.28825356e-07  3.65884279e-07
atom      8.6839338519     1.0041566103    13.4279671941   Mg  0.0 0.0   -5.64187331e-07  1.19557382e-07  3.65874901e-07
atom      8.4178056009     7.0184292337    13.4279671878   Mg  0.0 0.0    1.78560035e-07 -5.48400579e-07  3.65891761e-07
atom      3.9853004032     8.5644583235    17.3717816190   Mg  0.0 0.0    4.64695627e-07 -1.88293744e-07  2.77693299e-15
atom     -2.5949898742    10.9725470993    17.3717816190   Mg  0.0 0.0   -6.92750115e-08  4.96571294e-07 -3.38080141e-15
atom     -1.3903107919     4.0698041719    17.3717816190   Mg  0.0 0.0   -3.95400736e-07 -3.08304958e-07 -3.94884195e-15
atom      3.3423568529     3.7808190913    21.3155960472   Mg  0.0 0.0    3.85643073e-07  4.28825353e-07 -3.65884269e-07
atom      8.6839338519     1.0041566103    21.3155960439   Mg  0.0 0.0   -5.64187335e-07  1.19557381e-07 -3.65874912e-07
atom      8.4178056009     7.0184292337    21.3155960501   Mg  0.0 0.0    1.78560036e-07 -5.48400569e-07 -3.65891716e-07
atom     -0.0000000836     0.0000000866     2.3314792707   Si  0.0 0.0   -9.14326717e-12  1.08775488e-11  1.07984144e-06
atom      6.8146987720     3.9344683075     2.1231326552   Si  0.0 0.0   -3.98710844e-12  5.17606724e-12  6.56230355e-07
atom     -0.0000000832     7.8689365234     5.7905939379   Si  0.0 0.0   -4.83225549e-12  1.29489561e-11  7.27087320e-15
atom     -0.0000000836     0.0000000866     9.2497086050   Si  0.0 0.0   -9.14307907e-12  1.08841448e-11 -1.07984151e-06
atom     -0.0000000906     0.0000000956    13.9126669515   Si  0.0 0.0    9.14247939e-12 -1.09258463e-11  1.07984326e-06
atom      6.8146987720     3.9344683075     9.4580552205   Si  0.0 0.0   -3.98571896e-12  5.18299695e-12 -6.56230346e-07
atom     -0.0000000865     7.8689365302    13.7043203364   Si  0.0 0.0    3.84375628e-12 -4.99594096e-12  6.56229896e-07
atom     -0.0000000906     0.0000000956    20.8308962865   Si  0.0 0.0    9.14113485e-12 -1.09186608e-11 -1.07984332e-06
atom      6.8146987687     3.9344683143    17.3717816190   Si  0.0 0.0    4.68038538e-12 -1.30277748e-11  7.48199209e-15
atom     -0.0000000865     7.8689365303    21.0392429015   Si  0.0 0.0    3.84610100e-12 -4.98827960e-12 -6.56229880e-07
energy -3.597496346436577e+02
charge 0.0000
end
