begin
comment /DB2/ElasticDeformation/Al/e4/001/out.runner
lattice      7.6666820000     0.0038330000     0.0000000000
lattice      0.0038330000     7.6666820000     0.0000000000
lattice      0.0000000000     0.0000000000     7.6666820000
atom      7.6695430000     7.6695430000     0.0000000000   Al  0.0 0.0       0.0000003450     0.0000003450     0.0000000000
atom      3.8342810000     3.8342810000     0.0000000000   Al  0.0 0.0      -0.0000003600    -0.0000003600     0.0000000000
atom      3.8362140000     7.6676110000     3.8333090000   Al  0.0 0.0      -0.0000007800     0.0000007900     0.0000000000
atom      7.6676110000     3.8362140000     3.8333090000   Al  0.0 0.0       0.0000007900    -0.0000007800     0.0000000000
energy -10.0862598
charge 0.0000
end
begin
comment /DB2/ElasticDeformation/Al/e4/002/out.runner
lattice      7.6666820000     0.0076670000     0.0000000000
lattice      0.0076670000     7.6666820000     0.0000000000
lattice      0.0000000000     0.0000000000     7.6666820000
atom      7.6724240000     7.6724240000     0.0000000000   Al  0.0 0.0      -0.0000002350    -0.0000002350     0.0000000000
atom      3.8352340000     3.8352340000     0.0000000000   Al  0.0 0.0       0.0000002250     0.0000002250     0.0000000000
atom      3.8390800000     7.6685790000     3.8333090000   Al  0.0 0.0       0.0000001300    -0.0000001150     0.0000000000
atom      7.6685790000     3.8390800000     3.8333090000   Al  0.0 0.0      -0.0000001150     0.0000001300     0.0000000000
energy -10.0862591
charge 0.0000
end
begin
comment /DB2/ElasticDeformation/Al/e1/001/out.runner
lattice      7.6743490000     0.0000000000     0.0000000000
lattice      0.0000000000     7.6666820000     0.0000000000
lattice      0.0000000000     0.0000000000     7.6666820000
atom      7.6724280000     0.0000000000     0.0000000000   Al  0.0 0.0      -0.0000010900     0.0000000000     0.0000000000
atom      3.8352290000     3.8333090000     0.0000000000   Al  0.0 0.0       0.0000010700     0.0000000000     0.0000000000
atom      3.8352290000     0.0000000000     3.8333090000   Al  0.0 0.0       0.0000010700     0.0000000000     0.0000000000
atom      7.6724300000     3.8333090000     3.8333090000   Al  0.0 0.0      -0.0000010450     0.0000000000     0.0000000000
energy -10.0862488
charge 0.0000
end
begin
comment /DB2/ElasticDeformation/Al/e1/002/out.runner
lattice      7.6820150000     0.0000000000     0.0000000000
lattice      0.0000000000     7.6666820000     0.0000000000
lattice      0.0000000000     0.0000000000     7.6666820000
atom      7.6781980000     0.0000000000     0.0000000000   Al  0.0 0.0      -0.0000018500     0.0000000000     0.0000000000
atom      3.8371260000     3.8333090000     0.0000000000   Al  0.0 0.0       0.0000018300     0.0000000000     0.0000000000
atom      3.8371260000     0.0000000000     3.8333090000   Al  0.0 0.0       0.0000018300     0.0000000000     0.0000000000
atom      7.6781990000     3.8333090000     3.8333090000   Al  0.0 0.0      -0.0000018050     0.0000000000     0.0000000000
energy -10.0862359
charge 0.0000
end
begin
comment /DB2/ElasticDeformation/Mg4Al3Si4/e5/001/out.runner
lattice     27.4003860000     0.0000000000    -8.1513980000
lattice      0.0000000000     7.7886700000     0.0000000000
lattice      0.0137000000     0.0000000000    12.5541920000
atom      0.0523870000     0.0000000000    12.3981390000   Al  0.0 0.0      -0.0000014250     0.0000000000    -0.0000052200
atom      2.0139670000     3.8943350000     3.6125280000   Mg  0.0 0.0      -0.0000056300     0.0000000000    -0.0000013050
atom      4.2503250000     3.8943350000    10.0495710000   Mg  0.0 0.0       0.0000005950     0.0000000000    -0.0000004600
atom      9.5409470000     0.0000000000    -1.8847540000   Mg  0.0 0.0      -0.0000005950     0.0000000000     0.0000004900
atom     11.7773350000     0.0000000000     4.5524220000   Mg  0.0 0.0       0.0000055850     0.0000000000     0.0000012950
atom      1.6283950000     0.0000000000     7.7206370000   Si  0.0 0.0      -0.0000005550     0.0000000000     0.0000001800
atom      5.0390400000     0.0000000000     1.0887450000   Si  0.0 0.0       0.0000010750     0.0000000000     0.0000017000
atom      6.0194110000     0.0000000000     5.8509370000   Al  0.0 0.0       0.0000027250     0.0000000000    -0.0000032150
atom      7.7717650000     3.8943350000     2.3138630000   Al  0.0 0.0      -0.0000028950     0.0000000000     0.0000030600
atom      8.7520140000     3.8943350000     7.0760300000   Si  0.0 0.0      -0.0000010850     0.0000000000    -0.0000016100
atom     12.1627370000     3.8943350000     0.4442610000   Si  0.0 0.0       0.0000005750     0.0000000000    -0.0000001150
atom     13.7525050000     3.8943350000     8.3209800000   Al  0.0 0.0       0.0000017050     0.0000000000     0.0000052300
atom     15.7138240000     0.0000000000    -0.4648060000   Mg  0.0 0.0       0.0000002050     0.0000000000     0.0000077850
atom     17.9499600000     0.0000000000     5.9732410000   Mg  0.0 0.0       0.0000053750     0.0000000000     0.0000043650
atom     23.2417000000     3.8943350000    -5.9598170000   Mg  0.0 0.0      -0.0000052850     0.0000000000    -0.0000043350
atom     25.4778640000     3.8943350000     0.4783620000   Mg  0.0 0.0      -0.0000001850     0.0000000000    -0.0000077650
atom     15.3283410000     3.8943350000     3.6436220000   Si  0.0 0.0       0.0000048900     0.0000000000     0.0000030900
atom     18.7394930000     3.8943350000    -2.9873480000   Si  0.0 0.0      -0.0000080800     0.0000000000    -0.0000046650
atom     19.7197620000     3.8943350000     1.7749640000   Al  0.0 0.0      -0.0000080550     0.0000000000    -0.0000006300
atom     21.4718000000     0.0000000000    -1.7615560000   Al  0.0 0.0       0.0000078800     0.0000000000     0.0000004900
atom     22.4519490000     0.0000000000     3.0007320000   Si  0.0 0.0       0.0000080450     0.0000000000     0.0000046650
atom     25.8631770000     0.0000000000    -3.6301180000   Si  0.0 0.0      -0.0000048700     0.0000000000    -0.0000030200
energy -562.153005
charge 0.0000
end
begin
comment /DB2/ElasticDeformation/Mg4Al3Si4/e5/002/out.runner
lattice     27.4003860000     0.0000000000    -8.1451190000
lattice      0.0000000000     7.7886700000     0.0000000000
lattice      0.0274000000     0.0000000000    12.5501130000
atom      0.0660540000     0.0000000000    12.3922370000   Al  0.0 0.0      -0.0000013100     0.0000000000    -0.0000016650
atom      2.0192230000     3.8943350000     3.6093370000   Mg  0.0 0.0      -0.0000022000     0.0000000000    -0.0000040650
atom      4.2612790000     3.8943350000    10.0454550000   Mg  0.0 0.0      -0.0000039650     0.0000000000    -0.0000024700
atom      9.5436970000     0.0000000000    -1.8847200000   Mg  0.0 0.0       0.0000038600     0.0000000000     0.0000024950
atom     11.7857740000     0.0000000000     4.5515310000   Mg  0.0 0.0       0.0000022300     0.0000000000     0.0000040150
atom      1.6369060000     0.0000000000     7.7155740000   Si  0.0 0.0       0.0000024950     0.0000000000    -0.0000048250
atom      5.0426330000     0.0000000000     1.0869870000   Si  0.0 0.0      -0.0000009350     0.0000000000    -0.0000016450
atom      6.0285230000     0.0000000000     5.8485030000   Al  0.0 0.0      -0.0000007200     0.0000000000    -0.0000011750
atom      7.7763490000     3.8943350000     2.3122170000   Al  0.0 0.0       0.0000007450     0.0000000000     0.0000012200
atom      8.7621240000     3.8943350000     7.0737170000   Si  0.0 0.0       0.0000009450     0.0000000000     0.0000016800
atom     12.1679250000     3.8943350000     0.4452410000   Si  0.0 0.0      -0.0000025000     0.0000000000     0.0000048300
atom     13.7662490000     3.8943350000     8.3187200000   Al  0.0 0.0       0.0000012600     0.0000000000     0.0000016450
atom     15.7192640000     0.0000000000    -0.4641690000   Mg  0.0 0.0       0.0000012400     0.0000000000    -0.0000019700
atom     17.9611800000     0.0000000000     5.9725700000   Mg  0.0 0.0      -0.0000032200     0.0000000000    -0.0000025350
atom     23.2441790000     3.8943350000    -5.9569440000   Mg  0.0 0.0       0.0000032450     0.0000000000     0.0000025150
atom     25.4861190000     3.8943350000     0.4799210000   Mg  0.0 0.0      -0.0000011550     0.0000000000     0.0000019700
atom     15.3370090000     3.8943350000     3.6420380000   Si  0.0 0.0      -0.0000017350     0.0000000000     0.0000042800
atom     18.7429830000     3.8943350000    -2.9859680000   Si  0.0 0.0      -0.0000022550     0.0000000000     0.0000015000
atom     19.7286960000     3.8943350000     1.7756400000   Al  0.0 0.0       0.0000043850     0.0000000000     0.0000025700
atom     21.4765630000     0.0000000000    -1.7600290000   Al  0.0 0.0      -0.0000043750     0.0000000000    -0.0000025650
atom     22.4621610000     0.0000000000     3.0015610000   Si  0.0 0.0       0.0000022400     0.0000000000    -0.0000014950
atom     25.8682070000     0.0000000000    -3.6263390000   Si  0.0 0.0       0.0000017200     0.0000000000    -0.0000043250
energy -562.152998
charge 0.0000
end
begin
comment /DB2/ElasticDeformation/Mg4Al3Si4/e2/001/out.runner
lattice     27.4003860000     0.0000000000    -8.1576770000
lattice      0.0000000000     7.7964590000     0.0000000000
lattice      0.0000000000     0.0000000000    12.5582710000
atom      0.0386760000     7.7953830000    12.4030370000   Al  0.0 0.0      -0.0000003950    -0.0000206700     0.0000003950
atom      2.0081240000     3.8961530000     3.6147820000   Mg  0.0 0.0      -0.0000086500     0.0000097550     0.0000008450
atom      4.2387970000     3.8961970000    10.0533050000   Mg  0.0 0.0      -0.0000083350     0.0000025500    -0.0000020050
atom      9.5387490000     7.7945940000    -1.8843920000   Mg  0.0 0.0       0.0000086000    -0.0000025700     0.0000020550
atom     11.7694610000     7.7946370000     4.5542230000   Mg  0.0 0.0       0.0000091500    -0.0000097600    -0.0000004200
atom      1.6198670000     7.7944960000     7.7252390000   Si  0.0 0.0       0.0000015550    -0.0000043950    -0.0000072750
atom      5.0360850000     7.7942740000     1.0904600000   Si  0.0 0.0      -0.0000000650     0.0000132100     0.0000022600
atom      6.0111740000     7.7945010000     5.8532010000   Al  0.0 0.0       0.0000029450     0.0000083800     0.0000086400
atom      7.7663110000     3.8962940000     2.3157280000   Al  0.0 0.0      -0.0000032650    -0.0000083200    -0.0000097250
atom      8.7412920000     3.8965230000     7.0784290000   Si  0.0 0.0      -0.0000003250    -0.0000131850    -0.0000029000
atom     12.1575500000     3.8963000000     0.4436920000   Si  0.0 0.0      -0.0000012000     0.0000043550     0.0000081400
atom     13.7388700000     3.8954110000     8.3241990000   Al  0.0 0.0      -0.0000003950     0.0000206200     0.0000003900
atom     15.7083180000     7.7946370000    -0.4640550000   Mg  0.0 0.0      -0.0000086750    -0.0000097650     0.0000008300
atom     17.9389900000     7.7945950000     5.9744660000   Mg  0.0 0.0      -0.0000083450    -0.0000025850    -0.0000019850
atom     23.2389430000     3.8961970000    -5.9632300000   Mg  0.0 0.0       0.0000085800     0.0000025500     0.0000020500
atom     25.4696530000     3.8961540000     0.4753850000   Mg  0.0 0.0       0.0000091600     0.0000097550    -0.0000004300
atom     15.3200600000     3.8963000000     3.6464010000   Si  0.0 0.0       0.0000015650     0.0000043600    -0.0000072750
atom     18.7362780000     3.8965230000    -2.9883790000   Si  0.0 0.0      -0.0000000650    -0.0000131750     0.0000022600
atom     19.7113670000     3.8962940000     1.7743630000   Al  0.0 0.0       0.0000029450    -0.0000083250     0.0000086350
atom     21.4665040000     7.7945010000    -1.7631110000   Al  0.0 0.0      -0.0000032650     0.0000083750    -0.0000097250
atom     22.4414850000     7.7942740000     2.9995900000   Si  0.0 0.0      -0.0000003250     0.0000132250    -0.0000029000
atom     25.8577430000     7.7944960000    -3.6351470000   Si  0.0 0.0      -0.0000012050    -0.0000043900     0.0000081450
energy -562.153006
charge 0.0000
end
begin
comment /DB2/ElasticDeformation/Mg4Al3Si4/e2/002/out.runner
lattice     27.4003860000     0.0000000000    -8.1576770000
lattice      0.0000000000     7.8042470000     0.0000000000
lattice      0.0000000000     0.0000000000    12.5582710000
atom      0.0386590000     7.8007360000    12.4030540000   Al  0.0 0.0      -0.0000001400    -0.0000036550     0.0000001250
atom      2.0072760000     3.8984580000     3.6144770000   Mg  0.0 0.0       0.0000034350    -0.0000042800     0.0000006200
atom      4.2377940000     3.8982800000    10.0531690000   Mg  0.0 0.0       0.0000027900     0.0000005000     0.0000003350
atom      9.5397690000     7.8002950000    -1.8842590000   Mg  0.0 0.0      -0.0000025050    -0.0000004950    -0.0000005650
atom     11.7703250000     7.8001150000     4.5545510000   Mg  0.0 0.0      -0.0000034050     0.0000042650    -0.0000003550
atom      1.6201690000     7.8003910000     7.7253290000   Si  0.0 0.0      -0.0000016250     0.0000042100    -0.0000006450
atom      5.0366560000     7.8004090000     1.0907560000   Si  0.0 0.0      -0.0000014100    -0.0000027100    -0.0000021800
atom      6.0122320000     7.8004400000     5.8535810000   Al  0.0 0.0      -0.0000011300    -0.0000045350    -0.0000025200
atom      7.7652450000     3.8981480000     2.3153090000   Al  0.0 0.0       0.0000010600     0.0000045650     0.0000022950
atom      8.7407040000     3.8981840000     7.0781020000   Si  0.0 0.0       0.0000012900     0.0000027350     0.0000019950
atom     12.1572600000     3.8981930000     0.4436370000   Si  0.0 0.0       0.0000016600    -0.0000042300     0.0000008950
atom     13.7388520000     3.8978380000     8.3242150000   Al  0.0 0.0      -0.0000001400     0.0000036000     0.0000001200
atom     15.7074690000     7.8001140000    -0.4643610000   Mg  0.0 0.0       0.0000034650     0.0000042650     0.0000006100
atom     17.9379870000     7.8002950000     5.9743310000   Mg  0.0 0.0       0.0000027750    -0.0000005000     0.0000003400
atom     23.2399610000     3.8982800000    -5.9630980000   Mg  0.0 0.0      -0.0000025350     0.0000005050    -0.0000005550
atom     25.4705170000     3.8984590000     0.4757120000   Mg  0.0 0.0      -0.0000034500    -0.0000042800    -0.0000003700
atom     15.3203630000     3.8981930000     3.6464910000   Si  0.0 0.0      -0.0000016300    -0.0000042300    -0.0000006450
atom     18.7368490000     3.8981830000    -2.9880830000   Si  0.0 0.0      -0.0000014100     0.0000027300    -0.0000021800
atom     19.7124250000     3.8981480000     1.7747430000   Al  0.0 0.0      -0.0000011300     0.0000045700    -0.0000025150
atom     21.4654380000     7.8004400000    -1.7635290000   Al  0.0 0.0       0.0000010650    -0.0000045350     0.0000022950
atom     22.4408970000     7.8004100000     2.9992640000   Si  0.0 0.0       0.0000012950    -0.0000027100     0.0000020000
atom     25.8574520000     7.8003920000    -3.6352020000   Si  0.0 0.0       0.0000016650     0.0000042150     0.0000008950
energy -562.152996
charge 0.0000
end
begin
comment /DB2/ElasticDeformation/Mg4Al3Si4/e3/001/out.runner
lattice     27.4003860000     0.0000000000    -8.1576770000
lattice      0.0000000000     7.7886700000     0.0000000000
lattice      0.0000000000     0.0000000000    12.5708290000
atom      0.0386590000     0.0000000000    12.4156100000   Al  0.0 0.0      -0.0000002050     0.0000000000     0.0000001100
atom      2.0079120000     3.8943350000     3.6184260000   Mg  0.0 0.0      -0.0000007900     0.0000000000     0.0000020450
atom      4.2390440000     3.8943350000    10.0655390000   Mg  0.0 0.0       0.0000000250     0.0000000000    -0.0000004150
atom      9.5385140000     0.0000000000    -1.8840850000   Mg  0.0 0.0       0.0000002300     0.0000000000     0.0000003300
atom     11.7696710000     0.0000000000     4.5631170000   Mg  0.0 0.0       0.0000008000     0.0000000000    -0.0000019800
atom      1.6191290000     0.0000000000     7.7328180000   Si  0.0 0.0      -0.0000030000     0.0000000000    -0.0000032150
atom      5.0363560000     0.0000000000     1.0934560000   Si  0.0 0.0      -0.0000070800     0.0000000000     0.0000022950
atom      6.0095260000     0.0000000000     5.8592330000   Al  0.0 0.0       0.0000100100     0.0000000000     0.0000065950
atom      7.7679540000     3.8943350000     2.3222250000   Al  0.0 0.0      -0.0000100300     0.0000000000    -0.0000067450
atom      8.7410210000     3.8943350000     7.0879880000   Si  0.0 0.0       0.0000069400     0.0000000000    -0.0000025400
atom     12.1583010000     3.8943350000     0.4487270000   Si  0.0 0.0       0.0000030400     0.0000000000     0.0000035100
atom     13.7388520000     3.8943350000     8.3367710000   Al  0.0 0.0      -0.0000002050     0.0000000000     0.0000001050
atom     15.7081050000     0.0000000000    -0.4604130000   Mg  0.0 0.0      -0.0000007050     0.0000000000     0.0000021250
atom     17.9392380000     0.0000000000     5.9867000000   Mg  0.0 0.0       0.0000000650     0.0000000000    -0.0000004750
atom     23.2387070000     3.8943350000    -5.9629230000   Mg  0.0 0.0       0.0000003100     0.0000000000     0.0000003000
atom     25.4698650000     3.8943350000     0.4842800000   Mg  0.0 0.0       0.0000007500     0.0000000000    -0.0000019300
atom     15.3193220000     3.8943350000     3.6539790000   Si  0.0 0.0      -0.0000029950     0.0000000000    -0.0000031900
atom     18.7365490000     3.8943350000    -2.9853830000   Si  0.0 0.0      -0.0000070900     0.0000000000     0.0000022950
atom     19.7097190000     3.8943350000     1.7803940000   Al  0.0 0.0       0.0000100000     0.0000000000     0.0000065950
atom     21.4681470000     0.0000000000    -1.7566130000   Al  0.0 0.0      -0.0000100300     0.0000000000    -0.0000067500
atom     22.4412140000     0.0000000000     3.0091500000   Si  0.0 0.0       0.0000069250     0.0000000000    -0.0000025500
atom     25.8584940000     0.0000000000    -3.6301110000   Si  0.0 0.0       0.0000030300     0.0000000000     0.0000034900
energy -562.153005
charge 0.0000
end
begin
comment /DB2/ElasticDeformation/Mg4Al3Si4/e3/002/out.runner
lattice     27.4003860000     0.0000000000    -8.1576770000
lattice      0.0000000000     7.7886700000     0.0000000000
lattice      0.0000000000     0.0000000000    12.5833870000
atom      0.0386570000     0.0000000000    12.4281690000   Al  0.0 0.0      -0.0000001650     0.0000000000     0.0000001000
atom      2.0072830000     3.8943350000     3.6218080000   Mg  0.0 0.0       0.0000070150     0.0000000000     0.0000064500
atom      4.2387060000     3.8943350000    10.0776710000   Mg  0.0 0.0       0.0000030550     0.0000000000    -0.0000017700
atom      9.5388560000     0.0000000000    -1.8836600000   Mg  0.0 0.0      -0.0000027350     0.0000000000     0.0000016250
atom     11.7702990000     0.0000000000     4.5722910000   Mg  0.0 0.0      -0.0000069850     0.0000000000    -0.0000062900
atom      1.6184270000     0.0000000000     7.7407540000   Si  0.0 0.0       0.0000051850     0.0000000000    -0.0000028150
atom      5.0372420000     0.0000000000     1.0966120000   Si  0.0 0.0      -0.0000138000     0.0000000000     0.0000112400
atom      6.0087070000     0.0000000000     5.8654430000   Al  0.0 0.0       0.0000125050     0.0000000000     0.0000077450
atom      7.7687720000     3.8943350000     2.3285720000   Al  0.0 0.0      -0.0000125650     0.0000000000    -0.0000078800
atom      8.7401360000     3.8943350000     7.0973880000   Si  0.0 0.0       0.0000136100     0.0000000000    -0.0000115200
atom     12.1590030000     3.8943350000     0.4533540000   Si  0.0 0.0      -0.0000051200     0.0000000000     0.0000031100
atom     13.7388510000     3.8943350000     8.3493300000   Al  0.0 0.0      -0.0000001650     0.0000000000     0.0000001000
atom     15.7074760000     0.0000000000    -0.4570300000   Mg  0.0 0.0       0.0000070100     0.0000000000     0.0000064450
atom     17.9388990000     0.0000000000     5.9988320000   Mg  0.0 0.0       0.0000030500     0.0000000000    -0.0000017700
atom     23.2390490000     3.8943350000    -5.9624990000   Mg  0.0 0.0      -0.0000027300     0.0000000000     0.0000016250
atom     25.4704910000     3.8943350000     0.4934520000   Mg  0.0 0.0      -0.0000069850     0.0000000000    -0.0000062950
atom     15.3186200000     3.8943350000     3.6619150000   Si  0.0 0.0       0.0000051850     0.0000000000    -0.0000028200
atom     18.7374350000     3.8943350000    -2.9822270000   Si  0.0 0.0      -0.0000137950     0.0000000000     0.0000112400
atom     19.7089000000     3.8943350000     1.7866050000   Al  0.0 0.0       0.0000125100     0.0000000000     0.0000077450
atom     21.4689650000     0.0000000000    -1.7502660000   Al  0.0 0.0      -0.0000125650     0.0000000000    -0.0000078800
atom     22.4403290000     0.0000000000     3.0185490000   Si  0.0 0.0       0.0000136100     0.0000000000    -0.0000115100
atom     25.8591960000     0.0000000000    -3.6254850000   Si  0.0 0.0      -0.0000051200     0.0000000000     0.0000031150
energy -562.152992
charge 0.0000
end
begin
comment /DB2/ElasticDeformation/Mg4Al3Si4/e4/001/out.runner
lattice     27.4003860000     0.0000000000    -8.1576770000
lattice      0.0000000000     7.7886700000     0.0062790000
lattice      0.0000000000     0.0038940000    12.5582710000
atom      0.0381970000     0.0038990000    12.4016020000   Al  0.0 0.0       0.0000034600    -0.0000001200     0.0000039500
atom      2.0083830000     3.8951890000     3.6161850000   Mg  0.0 0.0       0.0000032000    -0.0000037450     0.0000119000
atom      4.2396190000     3.8982510000    10.0550530000   Mg  0.0 0.0      -0.0000063150     0.0000128650    -0.0000053400
atom      9.5379070000     7.7886480000    -1.8798570000   Mg  0.0 0.0       0.0000067650    -0.0000128800     0.0000052350
atom     11.7692020000     0.0030400000     4.5528240000   Mg  0.0 0.0      -0.0000028300     0.0000037600    -0.0000117600
atom      1.6196060000     0.0047910000     7.7237840000   Si  0.0 0.0       0.0000056850    -0.0000023850    -0.0000098050
atom      5.0352780000     7.7893830000     1.0949550000   Si  0.0 0.0       0.0000082450     0.0000103100     0.0000114200
atom      6.0101570000     0.0030310000     5.8515480000   Al  0.0 0.0       0.0000072350    -0.0000003400     0.0000011300
atom      7.7673230000     3.8951980000     2.3173640000   Al  0.0 0.0      -0.0000074800     0.0000003400    -0.0000022050
atom      8.7420800000     3.8975160000     7.0801960000   Si  0.0 0.0      -0.0000079850    -0.0000103050    -0.0000108100
atom     12.1578230000     3.8934380000     0.4451610000   Si  0.0 0.0      -0.0000059000     0.0000023850     0.0000101450
atom     13.7393380000     3.8982240000     8.3256460000   Al  0.0 0.0      -0.0000044600     0.0000001200    -0.0000033500
atom     15.7088350000     7.7895300000    -0.4592120000   Mg  0.0 0.0      -0.0000166850    -0.0000041000     0.0000027700
atom     17.9393090000     0.0039190000     5.9730540000   Mg  0.0 0.0      -0.0000008150     0.0000125050    -0.0000012250
atom     23.2386540000     3.8943110000    -5.9618180000   Mg  0.0 0.0       0.0000009600    -0.0000125250     0.0000009800
atom     25.4691520000     3.8973690000     0.4768280000   Mg  0.0 0.0       0.0000167950     0.0000041150    -0.0000023250
atom     15.3200010000     3.8991210000     3.6472770000   Si  0.0 0.0      -0.0000054650    -0.0000020400     0.0000097850
atom     18.7359340000     3.8950460000    -2.9868120000   Si  0.0 0.0      -0.0000071750     0.0000107900    -0.0000120250
atom     19.7107370000     3.8973590000     1.7759550000   Al  0.0 0.0      -0.0000071600     0.0000001550     0.0000002550
atom     21.4671320000     7.7895400000    -1.7584380000   Al  0.0 0.0       0.0000069950    -0.0000001600    -0.0000013500
atom     22.4418170000     0.0031830000     2.9980090000   Si  0.0 0.0       0.0000076500    -0.0000107900     0.0000122800
atom     25.8578130000     7.7877780000    -3.6297210000   Si  0.0 0.0       0.0000052750     0.0000020400    -0.0000096600
energy -562.153007
charge 0.0000
end
begin
comment /DB2/ElasticDeformation/Mg4Al3Si4/e4/002/out.runner
lattice     27.4003860000     0.0000000000    -8.1576770000
lattice      0.0000000000     7.7886700000     0.0125580000
lattice      0.0000000000     0.0077890000    12.5582710000
atom      0.0385720000     0.0077890000    12.3999170000   Al  0.0 0.0       0.0000007350    -0.0000000350     0.0000028350
atom      2.0082610000     3.8958920000     3.6182170000   Mg  0.0 0.0       0.0000021600    -0.0000024300    -0.0000012300
atom      4.2392470000     3.9032010000    10.0566110000   Mg  0.0 0.0       0.0000016400    -0.0000008450    -0.0000006950
atom      9.5383150000     7.7875940000    -1.8751480000   Mg  0.0 0.0      -0.0000015450     0.0000008450     0.0000006950
atom     11.7693370000     0.0062330000     4.5508060000   Mg  0.0 0.0      -0.0000021000     0.0000024350     0.0000012350
atom      1.6197810000     0.0099740000     7.7219250000   Si  0.0 0.0      -0.0000008550     0.0000081050    -0.0000031250
atom      5.0354160000     0.0022740000     1.0872520000   Si  0.0 0.0       0.0000008650    -0.0000008750     0.0000020450
atom      6.0104860000     0.0056670000     5.8501170000   Al  0.0 0.0      -0.0000027550    -0.0000003200    -0.0000026000
atom      7.7669970000     3.8964560000     2.3187750000   Al  0.0 0.0       0.0000025500     0.0000003200     0.0000023800
atom      8.7419430000     3.8998490000     7.0816200000   Si  0.0 0.0      -0.0000008150     0.0000008700    -0.0000018750
atom     12.1576480000     3.8921500000     0.4470320000   Si  0.0 0.0       0.0000008800    -0.0000081000     0.0000032500
atom     13.7389320000     3.9021240000     8.3273460000   Al  0.0 0.0      -0.0000006750     0.0000000400    -0.0000028500
atom     15.7086560000     7.7902280000    -0.4545300000   Mg  0.0 0.0       0.0000000450    -0.0000025550     0.0000008850
atom     17.9394930000     0.0088750000     5.9713500000   Mg  0.0 0.0      -0.0000002150    -0.0000013650     0.0000031550
atom     23.2384550000     3.8932490000    -5.9601180000   Mg  0.0 0.0       0.0000003150     0.0000013650    -0.0000032200
atom     25.4693310000     3.9005670000     0.4784350000   Mg  0.0 0.0      -0.0000000850     0.0000025500    -0.0000008250
atom     15.3198270000     3.9043100000     3.6491960000   Si  0.0 0.0       0.0000025100     0.0000082750     0.0000003550
atom     18.7357980000     3.8966020000    -2.9853350000   Si  0.0 0.0      -0.0000031250    -0.0000002000    -0.0000025600
atom     19.7104530000     3.8999980000     1.7774620000   Al  0.0 0.0       0.0000051500     0.0000001650     0.0000021700
atom     21.4674160000     7.7907950000    -1.7536880000   Al  0.0 0.0      -0.0000053100    -0.0000001650    -0.0000023050
atom     22.4419470000     7.7941910000     3.0090900000   Si  0.0 0.0       0.0000032200     0.0000002000     0.0000026650
atom     25.8579890000     7.7864850000    -3.6253560000   Si  0.0 0.0      -0.0000025850    -0.0000082750    -0.0000003800
energy -562.153003
charge 0.0000
end
begin
comment /DB2/ElasticDeformation/Mg4Al3Si4/e1/001/out.runner
lattice     27.4277870000     0.0000000000    -8.1576770000
lattice      0.0000000000     7.7886700000     0.0000000000
lattice      0.0000000000     0.0000000000    12.5582710000
atom      0.0319480000     0.0000000000    12.4035510000   Al  0.0 0.0       0.0000000100     0.0000000000     0.0000002000
atom      2.0038600000     3.8943350000     3.6152210000   Mg  0.0 0.0      -0.0000064100     0.0000000000    -0.0000065350
atom      4.2370340000     3.8943350000    10.0532940000   Mg  0.0 0.0      -0.0000061900     0.0000000000    -0.0000009650
atom      9.5405330000     0.0000000000    -1.8843940000   Mg  0.0 0.0       0.0000063150     0.0000000000     0.0000009000
atom     11.7737420000     0.0000000000     4.5538050000   Mg  0.0 0.0       0.0000063600     0.0000000000     0.0000066500
atom      1.6143680000     0.0000000000     7.7247400000   Si  0.0 0.0       0.0000033600     0.0000000000     0.0000048600
atom      5.0342390000     0.0000000000     1.0907860000   Si  0.0 0.0       0.0000041600     0.0000000000    -0.0000001300
atom      6.0086330000     0.0000000000     5.8541020000   Al  0.0 0.0      -0.0000018700     0.0000000000    -0.0000009900
atom      7.7688440000     3.8943350000     2.3147810000   Al  0.0 0.0       0.0000017650     0.0000000000     0.0000008950
atom      8.7431220000     3.8943350000     7.0780730000   Si  0.0 0.0      -0.0000042250     0.0000000000     0.0000000500
atom     12.1630630000     3.8943350000     0.4442320000   Si  0.0 0.0      -0.0000033700     0.0000000000    -0.0000047150
atom     13.7455530000     3.8943350000     8.3237230000   Al  0.0 0.0       0.0000000150     0.0000000000    -0.0000001500
atom     15.7173510000     0.0000000000    -0.4652500000   Mg  0.0 0.0       0.0000059200     0.0000000000     0.0000087200
atom     17.9505820000     0.0000000000     5.9740160000   Mg  0.0 0.0      -0.0000026350     0.0000000000    -0.0000004550
atom     23.2547730000     3.8943350000    -5.9627880000   Mg  0.0 0.0       0.0000027300     0.0000000000     0.0000003550
atom     25.4880340000     3.8943350000     0.4766010000   Mg  0.0 0.0      -0.0000058750     0.0000000000    -0.0000085900
atom     15.3279280000     3.8943350000     3.6450700000   Si  0.0 0.0       0.0000089450     0.0000000000     0.0000048100
atom     18.7481760000     3.8943350000    -2.9883790000   Si  0.0 0.0       0.0000084700     0.0000000000    -0.0000012600
atom     19.7223480000     3.8943350000     1.7750170000   Al  0.0 0.0       0.0000029650     0.0000000000     0.0000016350
atom     21.4829130000     0.0000000000    -1.7638060000   Al  0.0 0.0      -0.0000029950     0.0000000000    -0.0000017250