begin
comment uuid: ee24fa64-70cf-414f-a96b-0d13d25a2bd7 
lattice 7.6414150755 0.0000000000 0.0000000000
lattice 0.0000000000 7.5959751379 0.0000000000
lattice 0.0000000000 0.0000000000 7.5959751379
atom   0.000000    0.000000   0.000000 Al  0.0   0.0  -0.0000000050  -0.0000000050  0.0000000000
atom   0.000000    3.797988   3.797988 Al  0.0   0.0  0.0000000050  -0.0000000050  0.0000000000
atom   3.820708    0.000000   3.797988 Al  0.0   0.0  0.0000000000  0.0000000050  -0.0000000050
atom   3.820708    3.797988   0.000000 Al  0.0   0.0  -0.0000000000  0.0000000000  0.0000000000
energy -79.005495820000007
charge 0.000000000000000
end
begin
comment uuid: 5b00aee3-dfeb-4254-af9e-b35b7000a038 
lattice 7.6490948896 0.0000000000 0.0000000000
lattice 0.0000000000 7.6036092838 0.0000000000
lattice 0.0000000000 0.0000000000 7.6036092838
atom   0.000000    0.000000   0.000000 Al  0.0   0.0  -0.0000000050  -0.0000000050  0.0000000000
atom   0.000000    3.801805   3.801805 Al  0.0   0.0  0.0000000050  -0.0000000050  0.0000000000
atom   3.824547    0.000000   3.801805 Al  0.0   0.0  0.0000000000  0.0000000050  -0.0000000050
atom   3.824547    3.801805   0.000000 Al  0.0   0.0  -0.0000000000  0.0000000000  0.0000000000
energy -79.005521880000003
charge 0.000000000000000
end
begin
comment uuid: 7029c325-2b67-4411-8030-44660456effc 
lattice 7.6567747037 0.0000000000 0.0000000000
lattice 0.0000000000 7.6112434296 0.0000000000
lattice 0.0000000000 0.0000000000 7.6112434296
atom   0.000000    0.000000   0.000000 Al  0.0   0.0  -0.0000000050  -0.0000000050  0.0000000000
atom   0.000000    3.805622   3.805622 Al  0.0   0.0  0.0000000050  -0.0000000050  0.0000000000
atom   3.828387    0.000000   3.805622 Al  0.0   0.0  0.0000000000  0.0000000050  -0.0000000050
atom   3.828387    3.805622   0.000000 Al  0.0   0.0  -0.0000000000  0.0000000000  0.0000000000
energy -79.005537039999993
charge 0.000000000000000
end
begin
comment uuid: 38d8e1b6-7a82-48a7-81b3-05622e70ef10 
lattice 7.6644545179 0.0000000000 0.0000000000
lattice 0.0000000000 7.6188775755 0.0000000000
lattice 0.0000000000 0.0000000000 7.6188775755
atom   0.000000    0.000000   0.000000 Al  0.0   0.0  -0.0000000050  -0.0000000050  0.0000000000
atom   0.000000    3.809439   3.809439 Al  0.0   0.0  0.0000000050  -0.0000000050  0.0000000050
atom   3.832227    0.000000   3.809439 Al  0.0   0.0  0.0000000000  0.0000000050  -0.0000000050
atom   3.832227    3.809439   0.000000 Al  0.0   0.0  -0.0000000000  0.0000000000  0.0000000000
energy -79.005541390000005
charge 0.000000000000000
end
begin
comment uuid: 7483720b-e65c-4af3-bef0-b12b96045b53 
lattice 7.6721343320 0.0000000000 0.0000000000
lattice 0.0000000000 7.6265117214 0.0000000000
lattice 0.0000000000 0.0000000000 7.6265117214
atom   0.000000    0.000000   0.000000 Al  0.0   0.0  -0.0000000050  -0.0000000050  0.0000000000
atom   0.000000    3.813256   3.813256 Al  0.0   0.0  0.0000000050  -0.0000000050  0.0000000050
atom   3.836067    0.000000   3.813256 Al  0.0   0.0  0.0000000000  0.0000000050  -0.0000000050
atom   3.836067    3.813256   0.000000 Al  0.0   0.0  -0.0000000000  0.0000000000  0.0000000000
energy -79.005535084999991
charge 0.000000000000000
end
begin
comment uuid: bb7654bf-ce82-417c-b7cb-fc246afc05f6 
lattice 7.6874939603 0.0000000000 0.0000000000
lattice 0.0000000000 7.6417800131 0.0000000000
lattice 0.0000000000 0.0000000000 7.6417800131
atom   0.000000    0.000000   0.000000 Al  0.0   0.0  -0.0000000050  -0.0000000050  0.0000000000
atom   0.000000    3.820890   3.820890 Al  0.0   0.0  0.0000000050  -0.0000000000  0.0000000050
atom   3.843747    0.000000   3.820890 Al  0.0   0.0  0.0000000000  0.0000000050  -0.0000000050
atom   3.843747    3.820890   0.000000 Al  0.0   0.0  -0.0000000000  0.0000000000  0.0000000000
energy -79.005490859999995
charge 0.000000000000000
end
begin
comment uuid: f472c24e-220b-4c25-aaae-4819f3679a2f 
lattice 7.6951737745 0.0000000000 0.0000000000
lattice 0.0000000000 7.6494141590 0.0000000000
lattice 0.0000000000 0.0000000000 7.6494141590
atom   0.000000    0.000000   0.000000 Al  0.0   0.0  -0.0000000050  -0.0000000050  0.0000000000
atom   0.000000    3.824707   3.824707 Al  0.0   0.0  0.0000000050  -0.0000000000  0.0000000050
atom   3.847587    0.000000   3.824707 Al  0.0   0.0  0.0000000000  0.0000000050  -0.0000000050
atom   3.847587    3.824707   0.000000 Al  0.0   0.0  -0.0000000000  0.0000000000  0.0000000000
energy -79.005453215000003
charge 0.000000000000000
end
begin
comment uuid: bb2af466-57ae-47a4-a8f2-682029e69ce9 
lattice 7.7028535886 0.0000000000 0.0000000000
lattice 0.0000000000 7.6570483049 0.0000000000
lattice 0.0000000000 0.0000000000 7.6570483049
atom   0.000000    0.000000   0.000000 Al  0.0   0.0  -0.0000000050  -0.0000000050  0.0000000000
atom   0.000000    3.828524   3.828524 Al  0.0   0.0  0.0000000000  -0.0000000000  0.0000000050
atom   3.851427    0.000000   3.828524 Al  0.0   0.0  0.0000000000  0.0000000050  -0.0000000050
atom   3.851427    3.828524   0.000000 Al  0.0   0.0  0.0000000000  0.0000000000  0.0000000000
energy -79.005405359999997
charge 0.000000000000000
end
begin
comment uuid: 1bfa28c3-3a5c-4f2f-b56a-0da09f905a57 
lattice 7.7105334028 0.0000000000 0.0000000000
lattice 0.0000000000 7.6646824507 0.0000000000
lattice 0.0000000000 0.0000000000 7.6646824507
atom   0.000000    0.000000   0.000000 Al  0.0   0.0  -0.0000000050  -0.0000000050  0.0000000000
atom   0.000000    3.832341   3.832341 Al  0.0   0.0  0.0000000000  -0.0000000000  0.0000000050
atom   3.855267    0.000000   3.832341 Al  0.0   0.0  0.0000000000  0.0000000100  -0.0000000050
atom   3.855267    3.832341   0.000000 Al  0.0   0.0  -0.0000000000  0.0000000000  0.0000000000
energy -79.005347395000001
charge 0.000000000000000
end
begin
comment uuid: 8701aa27-1536-41fd-a0eb-d27c3672a469 
lattice 7.7182132169 0.0000000000 0.0000000000
lattice 0.0000000000 7.6723165966 0.0000000000
lattice 0.0000000000 0.0000000000 7.6723165966
atom   0.000000    0.000000   0.000000 Al  0.0   0.0  -0.0000000000  -0.0000000050  0.0000000000
atom   0.000000    3.836158   3.836158 Al  0.0   0.0  0.0000000000  -0.0000000050  0.0000000050
atom   3.859107    0.000000   3.836158 Al  0.0   0.0  0.0000000000  0.0000000100  -0.0000000050
atom   3.859107    3.836158   0.000000 Al  0.0   0.0  -0.0000000000  -0.0000000000  0.0000000000
energy -79.005279444999985
charge 0.000000000000000
end
begin
comment uuid: b4333c1c-6ef4-4f51-be59-9555959b3919 
lattice 7.5731529277 0.0000000000 0.0000000000
lattice 0.0000000000 7.5959751379 0.0000000000
lattice 0.0000000000 0.0000000000 7.5959751379
atom   0.000000    0.000000   0.000000 Al  0.0   0.0  -0.0000000050  -0.0000000050  0.0000000000
atom   0.000000    3.797988   3.797988 Al  0.0   0.0  0.0000000050  -0.0000000050  0.0000000000
atom   3.786576    0.000000   3.797988 Al  0.0   0.0  -0.0000000000  0.0000000050  -0.0000000050
atom   3.786576    3.797988   0.000000 Al  0.0   0.0  0.0000000000  0.0000000000  0.0000000000
energy -79.005360205000002
charge 0.000000000000000
end
begin
comment uuid: 080037d1-71d7-4e77-a81d-9b6558d0434c 
lattice 7.5807641367 0.0000000000 0.0000000000
lattice 0.0000000000 7.6036092838 0.0000000000
lattice 0.0000000000 0.0000000000 7.6036092838
atom   0.000000    0.000000   0.000000 Al  0.0   0.0  -0.0000000050  -0.0000000050  0.0000000000
atom   0.000000    3.801805   3.801805 Al  0.0   0.0  0.0000000050  -0.0000000050  0.0000000000
atom   3.790382    0.000000   3.801805 Al  0.0   0.0  -0.0000000000  0.0000000050  -0.0000000050
atom   3.790382    3.801805   0.000000 Al  0.0   0.0  -0.0000000000  0.0000000000  0.0000000000
energy -79.005419185000008
charge 0.000000000000000
end
begin
comment uuid: 8ea56804-ff66-49fc-bc4e-a30516113721 
lattice 7.5883753456 0.0000000000 0.0000000000
lattice 0.0000000000 7.6112434296 0.0000000000
lattice 0.0000000000 0.0000000000 7.6112434296
atom   0.000000    0.000000   0.000000 Al  0.0   0.0  -0.0000000050  -0.0000000050  0.0000000000
atom   0.000000    3.805622   3.805622 Al  0.0   0.0  0.0000000050  -0.0000000050  0.0000000000
atom   3.794188    0.000000   3.805622 Al  0.0   0.0  -0.0000000000  0.0000000050  -0.0000000050
atom   3.794188    3.805622   0.000000 Al  0.0   0.0  -0.0000000000  0.0000000000  0.0000000000
energy -79.005466944999995
charge 0.000000000000000
end
begin
comment uuid: 19c1f846-7e34-48b5-9c45-e72146718fee 
lattice 7.5959865546 0.0000000000 0.0000000000
lattice 0.0000000000 7.6188775755 0.0000000000
lattice 0.0000000000 0.0000000000 7.6188775755
atom   0.000000    0.000000   0.000000 Al  0.0   0.0  -0.0000000050  -0.0000000050  0.0000000000
atom   0.000000    3.809439   3.809439 Al  0.0   0.0  0.0000000050  -0.0000000050  0.0000000000
atom   3.797993    0.000000   3.809439 Al  0.0   0.0  -0.0000000000  0.0000000050  -0.0000000050
atom   3.797993    3.809439   0.000000 Al  0.0   0.0  -0.0000000000  0.0000000000  0.0000000000
energy -79.005503634999997
charge 0.000000000000000
end
begin
comment uuid: 69e568ad-110d-4740-ad2d-508f369a30a9 
lattice 7.6035977636 0.0000000000 0.0000000000
lattice 0.0000000000 7.6265117214 0.0000000000
lattice 0.0000000000 0.0000000000 7.6265117214
atom   0.000000    0.000000   0.000000 Al  0.0   0.0  -0.0000000050  -0.0000000050  0.0000000000
atom   0.000000    3.813256   3.813256 Al  0.0   0.0  0.0000000050  -0.0000000050  0.0000000000
atom   3.801799    0.000000   3.813256 Al  0.0   0.0  0.0000000000  0.0000000050  -0.0000000050
atom   3.801799    3.813256   0.000000 Al  0.0   0.0  -0.0000000000  0.0000000000  0.0000000000
energy -79.005529350000003
charge 0.000000000000000
end
begin
comment uuid: ce975e22-beff-4ae9-9f3c-a975bd894ede 
lattice 7.6188201815 0.0000000000 0.0000000000
lattice 0.0000000000 7.6417800131 0.0000000000
lattice 0.0000000000 0.0000000000 7.6417800131
atom   0.000000    0.000000   0.000000 Al  0.0   0.0  -0.0000000050  -0.0000000050  0.0000000000
atom   0.000000    3.820890   3.820890 Al  0.0   0.0  0.0000000050  -0.0000000050  0.0000000050
atom   3.809410    0.000000   3.820890 Al  0.0   0.0  0.0000000000  0.0000000050  -0.0000000050
atom   3.809410    3.820890   0.000000 Al  0.0   0.0  -0.0000000000  0.0000000000  0.0000000000
energy -79.005548340000004
charge 0.000000000000000
end
begin
comment uuid: 6f78af27-d89a-42c7-87af-64e135c068d2 
lattice 7.6264313905 0.0000000000 0.0000000000
lattice 0.0000000000 7.6494141590 0.0000000000
lattice 0.0000000000 0.0000000000 7.6494141590
atom   0.000000    0.000000   0.000000 Al  0.0   0.0  -0.0000000050  -0.0000000050  0.0000000000
atom   0.000000    3.824707   3.824707 Al  0.0   0.0  0.0000000050  -0.0000000000  0.0000000050
atom   3.813216    0.000000   3.824707 Al  0.0   0.0  0.0000000000  0.0000000050  -0.0000000050
atom   3.813216    3.824707   0.000000 Al  0.0   0.0  -0.0000000000  0.0000000000  0.0000000000
energy -79.005541869999988
charge 0.000000000000000
end
begin
comment uuid: b63582aa-5cd8-4ac9-89ec-3a911805de99 
lattice 7.6340425995 0.0000000000 0.0000000000
lattice 0.0000000000 7.6570483049 0.0000000000
lattice 0.0000000000 0.0000000000 7.6570483049
atom   0.000000    0.000000   0.000000 Al  0.0   0.0  -0.0000000050  -0.0000000050  0.0000000000
atom   0.000000    3.828524   3.828524 Al  0.0   0.0  0.0000000050  -0.0000000000  0.0000000050
atom   3.817021    0.000000   3.828524 Al  0.0   0.0  0.0000000000  0.0000000050  -0.0000000050
atom   3.817021    3.828524   0.000000 Al  0.0   0.0  -0.0000000000  0.0000000000  0.0000000000
energy -79.005524885000000
charge 0.000000000000000
end
begin
comment uuid: 6568a756-e7c4-4465-9552-83e168367162 
lattice 7.6416538084 0.0000000000 0.0000000000
lattice 0.0000000000 7.6646824507 0.0000000000
lattice 0.0000000000 0.0000000000 7.6646824507
atom   0.000000    0.000000   0.000000 Al  0.0   0.0  -0.0000000050  -0.0000000050  0.0000000000
atom   0.000000    3.832341   3.832341 Al  0.0   0.0  0.0000000050  -0.0000000000  0.0000000050
atom   3.820827    0.000000   3.832341 Al  0.0   0.0  0.0000000000  0.0000000050  -0.0000000050
atom   3.820827    3.832341   0.000000 Al  0.0   0.0  -0.0000000000  0.0000000000  0.0000000000
energy -79.005497524999996
charge 0.000000000000000
end
begin
comment uuid: afc4a87e-2b98-4c0b-b274-eea1958c6e18 
lattice 7.6492650174 0.0000000000 0.0000000000
lattice 0.0000000000 7.6723165966 0.0000000000
lattice 0.0000000000 0.0000000000 7.6723165966
atom   0.000000    0.000000   0.000000 Al  0.0   0.0  -0.0000000050  -0.0000000050  0.0000000000
atom   0.000000    3.836158   3.836158 Al  0.0   0.0  0.0000000000  -0.0000000000  0.0000000050
atom   3.824633    0.000000   3.836158 Al  0.0   0.0  0.0000000000  0.0000000050  -0.0000000050
atom   3.824633    3.836158   0.000000 Al  0.0   0.0  -0.0000000000  0.0000000000  0.0000000000
energy -79.005459904999995
charge 0.000000000000000
end
begin
comment uuid: c7a7f42c-5361-4ca9-83c0-94fa95266a82 
lattice 7.5273009244 0.0000000000 0.0000000000
lattice 0.0000000000 7.5959751379 0.0000000000
lattice 0.0000000000 0.0000000000 7.5959751379
atom   0.000000    0.000000   0.000000 Al  0.0   0.0  -0.0000000050  -0.0000000050  0.0000000000
atom   0.000000    3.797988   3.797988 Al  0.0   0.0  0.0000000050  -0.0000000050  0.0000000000
atom   3.763650    0.000000   3.797988 Al  0.0   0.0  -0.0000000000  0.0000000050  -0.0000000050
atom   3.763650    3.797988   0.000000 Al  0.0   0.0  0.0000000000  0.0000000000  0.0000000000
energy -79.005187754999994
charge 0.000000000000000
end
begin
comment uuid: a6c7c508-417e-48db-add2-8435e53cd7b5 
lattice 7.5348660510 0.0000000000 0.0000000000
lattice 0.0000000000 7.6036092838 0.0000000000
lattice 0.0000000000 0.0000000000 7.6036092838
atom   0.000000    0.000000   0.000000 Al  0.0   0.0  -0.0000000050  -0.0000000050  0.0000000000
atom   0.000000    3.801805   3.801805 Al  0.0   0.0  0.0000000050  -0.0000000050  0.0000000000
atom   3.767433    0.000000   3.801805 Al  0.0   0.0  -0.0000000000  0.0000000050  -0.0000000050
atom   3.767433    3.801805   0.000000 Al  0.0   0.0  0.0000000000  0.0000000000  0.0000000000
energy -79.005269720000001
charge 0.000000000000000
end
begin
comment uuid: 14b9ecb1-a993-41d0-9333-d5ff7c5450ab 
lattice 7.5424311775 0.0000000000 0.0000000000
lattice 0.0000000000 7.6112434296 0.0000000000
lattice 0.0000000000 0.0000000000 7.6112434296
atom   0.000000    0.000000   0.000000 Al  0.0   0.0  -0.0000000050  -0.0000000050  0.0000000000
atom   0.000000    3.805622   3.805622 Al  0.0   0.0  0.0000000050  -0.0000000050  0.0000000000
atom   3.771216    0.000000   3.805622 Al  0.0   0.0  -0.0000000000  0.0000000050  -0.0000000050
atom   3.771216    3.805622   0.000000 Al  0.0   0.0  0.0000000000  0.0000000000  0.0000000000
energy -79.005340275000009
charge 0.000000000000000
end
begin
comment uuid: ea8aa9d7-c71b-4ea3-bd36-cecf3e81129a 
lattice 7.5499963041 0.0000000000 0.0000000000
lattice 0.0000000000 7.6188775755 0.0000000000
lattice 0.0000000000 0.0000000000 7.6188775755
atom   0.000000    0.000000   0.000000 Al  0.0   0.0  -0.0000000050  -0.0000000050  0.0000000000
atom   0.000000    3.809439   3.809439 Al  0.0   0.0  0.0000000050  -0.0000000050  0.0000000000
atom   3.774998    0.000000   3.809439 Al  0.0   0.0  -0.0000000000  0.0000000050  -0.0000000050
atom   3.774998    3.809439   0.000000 Al  0.0   0.0  -0.0000000000  0.0000000000  0.0000000000
energy -79.005399560000001
charge 0.000000000000000
end
begin
comment uuid: 733fcf96-22a7-4dd8-911b-11ea14a962e4 
lattice 7.5575614306 0.0000000000 0.0000000000
lattice 0.0000000000 7.6265117214 0.0000000000
lattice 0.0000000000 0.0000000000 7.6265117214
atom   0.000000    0.000000   0.000000 Al  0.0   0.0  -0.0000000050  -0.0000000050  0.0000000000
atom   0.000000    3.813256   3.813256 Al  0.0   0.0  0.0000000050  -0.0000000050  0.0000000000
atom   3.778781    0.000000   3.813256 Al  0.0   0.0  -0.0000000000  0.0000000050  -0.0000000050
atom   3.778781    3.813256   0.000000 Al  0.0   0.0  -0.0000000000  0.0000000000  0.0000000000
energy -79.005447660000016
charge 0.000000000000000
end
begin
comment uuid: 71b2ded5-8f82-4dcf-99ac-bb993d1d87e3 
lattice 7.5726916837 0.0000000000 0.0000000000
lattice 0.0000000000 7.6417800131 0.0000000000
lattice 0.0000000000 0.0000000000 7.6417800131
atom   0.000000    0.000000   0.000000 Al  0.0   0.0  -0.0000000050  -0.0000000050  0.0000000000
atom   0.000000    3.820890   3.820890 Al  0.0   0.0  0.0000000050  -0.0000000050  0.0000000000
atom   3.786346    0.000000   3.820890 Al  0.0   0.0  -0.0000000000  0.0000000050  -0.0000000050
atom   3.786346    3.820890   0.000000 Al  0.0   0.0  -0.0000000000  0.0000000000  0.0000000000
energy -79.005509575000005
charge 0.000000000000000
end
begin
comment uuid: 7d5e32cf-b98d-4b9b-b473-6d7666c1b6f1 
lattice 7.5802568103 0.0000000000 0.0000000000
lattice 0.0000000000 7.6494141590 0.0000000000
lattice 0.0000000000 0.0000000000 7.6494141590
atom   0.000000    0.000000   0.000000 Al  0.0   0.0  -0.0000000050  -0.0000000050  0.0000000000
atom   0.000000    3.824707   3.824707 Al  0.0   0.0  0.0000000050  -0.0000000050  0.0000000000
atom   3.790128    0.000000   3.824707 Al  0.0   0.0  -0.0000000000  0.0000000050  -0.0000000050
atom   3.790128    3.824707   0.000000 Al  0.0   0.0  -0.0000000000  0.0000000000  0.0000000000
energy -79.005524899999998
charge 0.000000000000000
end
begin
comment uuid: 8e349619-912a-45f7-86ff-9764809fd1e6 
lattice 7.5878219369 0.0000000000 0.0000000000
lattice 0.0000000000 7.6570483049 0.0000000000
lattice 0.0000000000 0.0000000000 7.6570483049
atom   0.000000    0.000000   0.000000 Al  0.0   0.0  -0.0000000050  -0.0000000050  0.0000000000
atom   0.000000    3.828524   3.828524 Al  0.0   0.0  0.0000000050  -0.0000000050  0.0000000050
atom   3.793911    0.000000   3.828524 Al  0.0   0.0  0.0000000000  0.0000000050  -0.0000000050
atom   3.793911    3.828524   0.000000 Al  0.0   0.0  -0.0000000000  0.0000000000  0.0000000000
energy -79.005529545000002
charge 0.000000000000000
end
begin
comment uuid: ac5ec297-f8a5-41b9-a88e-bac29bbfcf38 
lattice 7.5953870634 0.0000000000 0.0000000000
lattice 0.0000000000 7.6646824507 0.0000000000
lattice 0.0000000000 0.0000000000 7.6646824507
atom   0.000000    0.000000   0.000000 Al  0.0   0.0  -0.0000000050  -0.0000000050  0.0000000000
atom   0.000000    3.832341   3.832341 Al  0.0   0.0  0.0000000050  -0.0000000000  0.0000000050
atom   3.797694    0.000000   3.832341 Al  0.0   0.0  0.0000000000  0.0000000050  -0.0000000050
atom   3.797694    3.832341   0.000000 Al  0.0   0.0  -0.0000000000  0.0000000050  0.0000000000
energy -79.005523620000005
charge 0.000000000000000
end
begin
comment uuid: 02582e89-fdd3-46fd-b75f-ca1cc1c69434 
lattice 7.6029521900 0.0000000000 0.0000000000
lattice 0.0000000000 7.6723165966 0.0000000000
lattice 0.0000000000 0.0000000000 7.6723165966
atom   0.000000    0.000000   0.000000 Al  0.0   0.0  -0.0000000050  -0.0000000050  0.0000000000
atom   0.000000    3.836158   3.836158 Al  0.0   0.0  0.0000000050  -0.0000000000  0.0000000050
atom   3.801476    0.000000   3.836158 Al  0.0   0.0  0.0000000000  0.0000000050  -0.0000000050
atom   3.801476    3.836158   0.000000 Al  0.0   0.0  -0.0000000000  0.0000000000  0.0000000000
energy -79.005507230000006
charge 0.000000000000000
end
begin
comment uuid: fa212eb1-c309-407b-baae-9c800a6c9660 
lattice 7.5959751379 0.0000000000 0.0000000000
lattice 0.0303839006 7.5959143699 0.0000000000
lattice 0.0000000000 0.0000000000 7.5959751379
atom   0.000000    0.000000   0.000000 Al  0.0   0.0  -0.0000000050  -0.0000000050  0.0000000000
atom   0.015192    3.797957   3.797988 Al  0.0   0.0  0.0000000050  -0.0000000050  0.0000000000
atom   3.797988    0.000000   3.797988 Al  0.0   0.0  -0.0000000000  0.0000000050  -0.0000000050
atom   3.813180    3.797957   0.000000 Al  0.0   0.0  -0.0000000000  0.0000000000  0.0000000000
energy -79.005417069999993
charge 0.000000000000000
end
begin
comment uuid: 925b5a3e-c8bc-444c-8820-ab25ab4551ad 
lattice 7.6036092838 0.0000000000 0.0000000000
lattice 0.0304144371 7.6035484547 0.0000000000
lattice 0.0000000000 0.0000000000 7.6036092838
atom   0.000000    0.000000   0.000000 Al  0.0   0.0  -0.0000000050  -0.0000000050  0.0000000000
atom   0.015207    3.801774   3.801805 Al  0.0   0.0  0.0000000050  -0.0000000050  0.0000000000
atom   3.801805    0.000000   3.801805 Al  0.0   0.0  0.0000000000  0.0000000050  -0.0000000050
atom   3.817012    3.801774   0.000000 Al  0.0   0.0  -0.0000000000  0.0000000000  0.0000000000
energy -79.005464950000004
charge 0.000000000000000
end
begin
comment uuid: 63b2a2e0-326e-40cb-8374-9788d340f686 
lattice 7.6112434296 0.0000000000 0.0000000000
lattice 0.0304449737 7.6111825395 0.0000000000
lattice 0.0000000000 0.0000000000 7.6112434296
atom   0.000000    0.000000   0.000000 Al  0.0   0.0  -0.0000000050  -0.0000000050  0.0000000000
atom   0.015222    3.805591   3.805622 Al  0.0   0.0  0.0000000050  -0.0000000050  0.0000000000
atom   3.805622    0.000000   3.805622 Al  0.0   0.0  -0.0000000000  0.0000000050  -0.0000000050
atom   3.820844    3.805591   0.000000 Al  0.0   0.0  -0.0000000000  0.0000000000  0.0000000000
energy -79.005501730000006
charge 0.000000000000000
end
begin
comment uuid: d77f75f2-2ab5-428b-aa0b-43f34227e3ea 
lattice 7.6188775755 0.0000000000 0.0000000000
lattice 0.0304755103 7.6188166243 0.0000000000
lattice 0.0000000000 0.0000000000 7.6188775755
atom   0.000000    0.000000   0.000000 Al  0.0   0.0  -0.0000000050  -0.0000000050  0.0000000000
atom   0.015238    3.809408   3.809439 Al  0.0   0.0  0.0000000050  -0.0000000050  0.0000000000
atom   3.809439    0.000000   3.809439 Al  0.0   0.0  0.0000000000  0.0000000050  -0.0000000050
atom   3.824677    3.809408   0.000000 Al  0.0   0.0  -0.0000000000  0.0000000000  0.0000000000
energy -79.005527504999989
charge 0.000000000000000
end
begin
comment uuid: 2ab98841-b7d4-429c-9da5-1fd20f96926b 
lattice 7.6265117214 0.0000000000 0.0000000000
lattice 0.0305060469 7.6264507090 0.0000000000
lattice 0.0000000000 0.0000000000 7.6265117214
atom   0.000000    0.000000   0.000000 Al  0.0   0.0  -0.0000000050  -0.0000000050  0.0000000000
atom   0.015253    3.813225   3.813256 Al  0.0   0.0  0.0000000050  -0.0000000050  0.0000000000
atom   3.813256    0.000000   3.813256 Al  0.0   0.0  0.0000000000  0.0000000050  -0.0000000050
atom   3.828509    3.813225   0.000000 Al  0.0   0.0  -0.0000000000  0.0000000000  0.0000000000
energy -79.005542434999995
charge 0.000000000000000
end
begin
comment uuid: 4df9f852-e981-4658-bcea-defb81b6313f 
lattice 7.6417800131 0.0000000000 0.0000000000
lattice 0.0305671201 7.6417188786 0.0000000000
lattice 0.0000000000 0.0000000000 7.6417800131
atom   0.000000    0.000000   0.000000 Al  0.0   0.0  -0.0000000050  -0.0000000050  0.0000000000
atom   0.015284    3.820859   3.820890 Al  0.0   0.0  0.0000000050  -0.0000000050  0.0000000050
atom   3.820890    0.000000   3.820890 Al  0.0   0.0  0.0000000000  0.0000000050  -0.0000000050
atom   3.836174    3.820859   0.000000 Al  0.0   0.0  -0.0000000000  0.0000000000  0.0000000000
energy -79.005540115000002
charge 0.000000000000000
end
begin
comment uuid: f77ed01d-dc55-4ba6-8e4b-fcd121db0015 
lattice 7.6494141590 0.0000000000 0.0000000000
lattice 0.0305976566 7.6493529634 0.0000000000
lattice 0.0000000000 0.0000000000 7.6494141590
atom   0.000000    0.000000   0.000000 Al  0.0   0.0  -0.0000000050  -0.0000000050  0.0000000000
atom   0.015299    3.824676   3.824707 Al  0.0   0.0  0.0000000050  -0.0000000000  0.0000000050
atom   3.824707    0.000000   3.824707 Al  0.0   0.0  0.0000000000  0.0000000050  -0.0000000050
atom   3.840006    3.824676   0.000000 Al  0.0   0.0  -0.0000000000  0.0000000000  0.0000000000
energy -79.005523130000000
charge 0.000000000000000
end
begin
comment uuid: 5a5b96c5-c41d-475c-a661-1f2605fec23d 
lattice 7.6570483049 0.0000000000 0.0000000000
lattice 0.0306281932 7.6569870482 0.0000000000
lattice 0.0000000000 0.0000000000 7.6570483049
atom   0.000000    0.000000   0.000000 Al  0.0   0.0  -0.0000000050  -0.0000000050  0.0000000000
atom   0.015314    3.828494   3.828524 Al  0.0   0.0  0.0000000050  -0.0000000000  0.0000000050
atom   3.828524    0.000000   3.828524 Al  0.0   0.0  0.0000000000  0.0000000050  -0.0000000050
atom   3.843838    3.828494   0.000000 Al  0.0   0.0  -0.0000000000  0.0000000000  0.0000000000
energy -79.005495754999998
charge 0.000000000000000
end
begin
comment uuid: bcdf878c-0cc9-4aef-a25b-efedde21ac9b 
lattice 7.6646824507 0.0000000000 0.0000000000
lattice 0.0306587298 7.6646211330 0.0000000000
lattice 0.0000000000 0.0000000000 7.6646824507
atom   0.000000    0.000000   0.000000 Al  0.0   0.0  -0.0000000050  -0.0000000050  0.0000000000
atom   0.015329    3.832311   3.832341 Al  0.0   0.0  0.0000000000  -0.0000000000  0.0000000050
atom   3.832341    0.000000   3.832341 Al  0.0   0.0  0.0000000000  0.0000000050  -0.0000000050
atom   3.847671    3.832311   0.000000 Al  0.0   0.0  0.0000000000  0.0000000000  0.0000000000
energy -79.005458070000017
charge 0.000000000000000
end
begin
comment uuid: 2206fde4-c048-497c-ae7f-ac842392cda5 
lattice 7.6723165966 0.0000000000 0.0000000000
lattice 0.0306892664 7.6722552178 0.0000000000
lattice 0.0000000000 0.0000000000 7.6723165966
atom   0.000000    0.000000   0.000000 Al  0.0   0.0  -0.0000000000  -0.0000000050  0.0000000000
atom   0.015345    3.836128   3.836158 Al  0.0   0.0  0.0000000000  -0.0000000000  0.0000000050
atom   3.836158    0.000000   3.836158 Al  0.0   0.0  0.0000000000  0.0000000050  -0.0000000050
atom   3.851503    3.836128   0.000000 Al  0.0   0.0  0.0000000000  0.0000000000  0.0000000000
energy -79.005410225000006
charge 0.000000000000000
end
begin
comment uuid: 8e31e3e9-59d7-4016-8c17-9b9ba48cc090 
lattice 7.6715588417 0.0000000000 0.0000000000
lattice 0.0000000000 7.5959751379 0.0000000000
lattice 0.0000000000 0.0000000000 7.5959751379
atom   0.000000    0.000000   0.000000 Al  0.0   0.0  -0.0000000050  -0.0000000050  0.0000000000
atom   0.000000    3.797988   3.797988 Al  0.0   0.0  0.0000000050  -0.0000000050  0.0000000000
atom   3.835779    0.000000   3.797988 Al  0.0   0.0  0.0000000000  0.0000000050  -0.0000000050
atom   3.835779    3.797988   0.000000 Al  0.0   0.0  -0.0000000000  0.0000000000  0.0000000000
energy -79.005510865000019
charge 0.000000000000000
end
begin
comment uuid: 5e5ba22f-3377-4eac-9e5c-6dae7efd693e 
lattice 7.6792689511 0.0000000000 0.0000000000
lattice 0.0000000000 7.6036092838 0.0000000000
lattice 0.0000000000 0.0000000000 7.6036092838
atom   0.000000    0.000000   0.000000 Al  0.0   0.0  -0.0000000050  -0.0000000050  0.0000000000
atom   0.000000    3.801805   3.801805 Al  0.0   0.0  0.0000000050  -0.0000000050  0.0000000000
atom   3.839634    0.000000   3.801805 Al  0.0   0.0  0.0000000000  0.0000000050  -0.0000000050
atom   3.839634    3.801805   0.000000 Al  0.0   0.0  -0.0000000000  0.0000000000  0.0000000000
energy -79.005522894999999
charge 0.000000000000000
end
begin
comment uuid: 58f433e6-5f44-45a2-9c55-595457cee8c8 
lattice 7.6869790605 0.0000000000 0.0000000000
lattice 0.0000000000 7.6112434296 0.0000000000
lattice 0.0000000000 0.0000000000 7.6112434296
atom   0.000000    0.000000   0.000000 Al  0.0   0.0  -0.0000000050  -0.0000000050  0.0000000000
atom   0.000000    3.805622   3.805622 Al  0.0   0.0  0.0000000050  -0.0000000050  0.0000000050
atom   3.843490    0.000000   3.805622 Al  0.0   0.0  0.0000000000  0.0000000050  -0.0000000050
atom   3.843490    3.805622   0.000000 Al  0.0   0.0  -0.0000000000  0.0000000000  0.0000000000
energy -79.005524159999993
charge 0.000000000000000
end
begin
comment uuid: d59d7a2d-0009-4fdf-b1d3-9ba0ec60daaf 
lattice 7.6946891699 0.0000000000 0.0000000000
lattice 0.0000000000 7.6188775755 0.0000000000
lattice 0.0000000000 0.0000000000 7.6188775755
atom   0.000000    0.000000   0.000000 Al  0.0   0.0  -0.0000000050  -0.0000000050  0.0000000000
atom   0.000000    3.809439   3.809439 Al  0.0   0.0  0.0000000050  -0.0000000050  0.0000000050
atom   3.847345    0.000000   3.809439 Al  0.0   0.0  0.0000000000  0.0000000050  -0.0000000050
atom   3.847345    3.809439   0.000000 Al  0.0   0.0  -0.0000000000  0.0000000050  0.0000000000
energy -79.005514739999995
charge 0.000000000000000
end
begin
comment uuid: c85d53ca-5346-40a1-9ed8-c0eb14e65b0e 
lattice 7.7023992793 0.0000000000 0.0000000000
lattice 0.0000000000 7.6265117214 0.0000000000
lattice 0.0000000000 0.0000000000 7.6265117214
atom   0.000000    0.000000   0.000000 Al  0.0   0.0  -0.0000000050  -0.0000000050  0.0000000000
atom   0.000000    3.813256   3.813256 Al  0.0   0.0  0.0000000050  -0.0000000000  0.0000000050
atom   3.851200    0.000000   3.813256 Al  0.0   0.0  0.0000000000  0.0000000050  -0.0000000050
atom   3.851200    3.813256   0.000000 Al  0.0   0.0  -0.0000000000  0.0000000050  0.0000000000
energy -79.005494760000005
charge 0.000000000000000
end
begin
comment uuid: 9b385700-3cf9-498c-8e05-43febde860d0 
lattice 7.7178194980 0.0000000000 0.0000000000
lattice 0.0000000000 7.6417800131 0.0000000000
lattice 0.0000000000 0.0000000000 7.6417800131
atom   0.000000    0.000000   0.000000 Al  0.0   0.0  -0.0000000050  -0.0000000050  0.0000000000
atom   0.000000    3.820890   3.820890 Al  0.0   0.0  0.0000000000  -0.0000000000  0.0000000050
atom   3.858910    0.000000   3.820890 Al  0.0   0.0  0.0000000000  0.0000000050  -0.0000000050
atom   3.858910    3.820890   0.000000 Al  0.0   0.0  0.0000000000  0.0000000000  0.0000000000
energy -79.005423629999996
charge 0.000000000000000
end
begin
comment uuid: aac51816-52c8-47d2-a395-b92b939d8221 
lattice 7.7255296074 0.0000000000 0.0000000000
lattice 0.0000000000 7.6494141590 0.0000000000
lattice 0.0000000000 0.0000000000 7.6494141590
atom   0.000000    0.000000   0.000000 Al  0.0   0.0  -0.0000000050  -0.0000000050  0.0000000000
atom   0.000000    3.824707   3.824707 Al  0.0   0.0  0.0000000000  -0.0000000000  0.0000000050
atom   3.862765    0.000000   3.824707 Al  0.0   0.0  0.0000000000  0.0000000050  -0.0000000050