begin
comment uuid: dc9e7831-56e9-44cd-9b2a-96e65f49883f 
lattice 8.4792805268 0.0000000000 12.7189207901
lattice 0.0000000000 4.2396402634 0.0000000000
lattice -6.3594603951 0.0000000000 2.1198201317
atom   0.000000    0.000000   0.000000 Mg  0.0   0.0  0.0839618300  -0.0000005500  0.1069649800
atom   -1.621931    2.119819   1.746748 Mg  0.0   0.0  0.4223834900  0.0000031800  0.0687762100
atom   1.855704    2.119819   1.793640 Mg  0.0   0.0  -0.1157532850  0.0000020200  -0.0151215650
atom   2.480478    0.000000   4.600642 Mg  0.0   0.0  0.4426747050  -0.0000022350  -0.1524698800
atom   5.905411    0.000000   4.598096 Mg  0.0   0.0  -0.2554315850  -0.0000032600  0.2205852000
atom   4.239638    2.119819   6.359457 Mg  0.0   0.0  0.0839613300  0.0000005500  0.1069633650
atom   2.617708    0.000000   8.106205 Mg  0.0   0.0  0.4223829250  -0.0000031800  0.0687813250
atom   6.095342    0.000000   8.153098 Mg  0.0   0.0  -0.1157479650  -0.0000020200  -0.0151188100
atom   -1.759160    2.119819   -1.758815 Mg  0.0   0.0  0.4426662300  0.0000022350  -0.1524731450
atom   1.665773    2.119819   -1.761362 Mg  0.0   0.0  -0.2554298700  0.0000032600  0.2205828150
atom   2.763764    0.000000   -0.143988 Si  0.0   0.0  -0.9117115450  -0.0000024050  0.9430973700
atom   0.121369    0.000000   3.041809 Si  0.0   0.0  0.9282383700  -0.0000038950  -0.9899065850
atom   4.347215    0.000000   1.901217 Si  0.0   0.0  -1.0591680050  -0.0000044450  0.1793550550
atom   0.161657    2.119819   4.502507 Si  0.0   0.0  0.6839138450  0.0000046700  -0.6026630450
atom   4.431346    2.119819   3.347301 Si  0.0   0.0  -1.2348322400  0.0000040000  0.9097648300
atom   1.685453    2.119819   6.339777 Si  0.0   0.0  1.0157259000  0.0000025350  -0.6683786300
atom   7.003403    2.119819   6.215470 Si  0.0   0.0  -0.9117025850  0.0000024050  0.9431075200
atom   4.361007    2.119819   9.401267 Si  0.0   0.0  0.9282417000  0.0000038950  -0.9899104900
atom   0.107577    2.119819   -4.458240 Si  0.0   0.0  -1.0591831000  0.0000044450  0.1793445850
atom   4.401296    0.000000   10.861965 Si  0.0   0.0  0.6839324400  -0.0000046700  -0.6026594750
atom   0.191708    0.000000   -3.012157 Si  0.0   0.0  -1.2348375350  -0.0000040000  0.9097685000
atom   -2.554185    0.000000   -0.019680 Si  0.0   0.0  1.0157149550  -0.0000025350  -0.6683901400
energy -196.521016924999998
charge 0.000000000000000
end
begin
comment uuid: 732d10ef-767c-4729-affd-4c24f9e05fb5 
lattice 9.2766088946 0.0000000000 13.9149133418
lattice 0.0000000000 4.6383044473 0.0000000000
lattice -6.9574566709 0.0000000000 2.3191522236
atom   0.000000    0.000000   0.000000 Mg  0.0   0.0  0.1585849050  -0.0000007150  0.0708492600
atom   -1.774445    2.319151   1.910999 Mg  0.0   0.0  0.2390391400  0.0000023050  0.0812924050
atom   2.030200    2.319151   1.962301 Mg  0.0   0.0  -0.0567019300  0.0000014000  -0.0211732950
atom   2.713724    0.000000   5.033252 Mg  0.0   0.0  0.2963771250  -0.0000016400  -0.1206761400
atom   6.460712    0.000000   5.030466 Mg  0.0   0.0  -0.1093433050  -0.0000023750  0.1044640650
atom   4.638302    2.319151   6.957453 Mg  0.0   0.0  0.1585847250  0.0000007150  0.0708487900
atom   2.863857    0.000000   8.868452 Mg  0.0   0.0  0.2390384150  -0.0000023050  0.0812950000
atom   6.668503    0.000000   8.919754 Mg  0.0   0.0  -0.0566974600  -0.0000014000  -0.0211710200
atom   -1.924579    2.319151   -1.924201 Mg  0.0   0.0  0.2963711350  0.0000016400  -0.1206789250
atom   1.822410    2.319151   -1.926987 Mg  0.0   0.0  -0.1093425550  0.0000023750  0.1044619200
atom   3.023648    0.000000   -0.157527 Si  0.0   0.0  -0.6520424350  -0.0000017450  0.7628442250
atom   0.132782    0.000000   3.327839 Si  0.0   0.0  0.7039176250  -0.0000029150  -0.7720933250
atom   4.755995    0.000000   2.079993 Si  0.0   0.0  -0.7489340700  -0.0000031400  0.2140696550
atom   0.176858    2.319151   4.925889 Si  0.0   0.0  0.4725587300  0.0000032550  -0.5638529350
atom   4.848037    2.319151   3.662056 Si  0.0   0.0  -0.9592293450  0.0000030450  0.7211377000
atom   1.843940    2.319151   6.935923 Si  0.0   0.0  0.6557738150  0.0000017900  -0.4768613400
atom   7.661950    2.319151   6.799926 Si  0.0   0.0  -0.6520352750  0.0000017450  0.7628526650
atom   4.771084    2.319151   10.285292 Si  0.0   0.0  0.7039220650  0.0000029150  -0.7720956300
atom   0.117693    2.319151   -4.877460 Si  0.0   0.0  -0.7489453400  0.0000031400  0.2140631700
atom   4.815161    0.000000   11.883343 Si  0.0   0.0  0.4725727850  -0.0000032550  -0.5638449600
atom   0.209735    0.000000   -3.295398 Si  0.0   0.0  -0.9592326700  -0.0000030450  0.7211407150
atom   -2.794362    0.000000   -0.021531 Si  0.0   0.0  0.6557639300  -0.0000017900  -0.4768719950
energy -211.560731169999997
charge 0.000000000000000
end
begin
comment uuid: feb4383f-08e4-4ee9-93fe-5b685538a3bf 
lattice 10.0892705002 0.0000000000 15.1339057503
lattice 0.0000000000 5.0446352501 0.0000000000
lattice -7.5669528751 0.0000000000 2.5223176250
atom   0.000000    0.000000   0.000000 Mg  0.0   0.0  0.1412879900  -0.0000005350  0.0448533400
atom   -1.929892    2.522316   2.078408 Mg  0.0   0.0  0.1387734550  0.0000015650  0.0561018600
atom   2.208053    2.522316   2.134205 Mg  0.0   0.0  -0.0269117150  0.0000009600  -0.0151972250
atom   2.951455    0.000000   5.474182 Mg  0.0   0.0  0.1966341300  -0.0000011350  -0.0873121800
atom   7.026692    0.000000   5.471152 Mg  0.0   0.0  -0.0394753900  -0.0000016250  0.0556450800
atom   5.044633    2.522316   7.566949 Mg  0.0   0.0  0.1412878050  0.0000005350  0.0448531800
atom   3.114741    0.000000   9.645358 Mg  0.0   0.0  0.1387731050  -0.0000015650  0.0561034950
atom   7.252686    0.000000   9.701154 Mg  0.0   0.0  -0.0269086450  -0.0000009600  -0.0151954650
atom   -2.093178    2.522316   -2.092768 Mg  0.0   0.0  0.1966299500  0.0000011350  -0.0873144150
atom   1.982059    2.522316   -2.095797 Mg  0.0   0.0  -0.0394749800  0.0000016250  0.0556437250
atom   3.288530    0.000000   -0.171327 Si  0.0   0.0  -0.4595352750  -0.0000012300  0.5853301450
atom   0.144414    0.000000   3.619368 Si  0.0   0.0  0.5190586300  -0.0000020950  -0.5717118300
atom   5.172636    0.000000   2.262208 Si  0.0   0.0  -0.5218571250  -0.0000021200  0.1822350950
atom   0.192352    2.522316   5.357414 Si  0.0   0.0  0.3308568300  0.0000021700  -0.4507458550
atom   5.272741    2.522316   3.982864 Si  0.0   0.0  -0.7208597150  0.0000022050  0.5371142950
atom   2.005476    2.522316   7.543532 Si  0.0   0.0  0.4420283350  0.0000012400  -0.3363125850
atom   8.333163    2.522316   7.395622 Si  0.0   0.0  -0.4595300700  0.0000012300  0.5853365100
atom   5.189047    2.522316   11.186317 Si  0.0   0.0  0.5190622400  0.0000020950  -0.5717132550
atom   0.128003    2.522316   -5.304742 Si  0.0   0.0  -0.5218648100  0.0000021200  0.1822302300
atom   5.236985    0.000000   12.924363 Si  0.0   0.0  0.3308673300  -0.0000021700  -0.4507389500
atom   0.228108    0.000000   -3.584085 Si  0.0   0.0  -0.7208624500  -0.0000022050  0.5371164600
atom   -3.039157    0.000000   -0.023417 Si  0.0   0.0  0.4420203550  -0.0000012400  -0.3363216600
energy -221.358917129999980
charge 0.000000000000000
end
begin
comment uuid: 6b0a6d27-c0fb-4b8c-9089-1ebb8bde8c2d 
lattice 10.9019321058 0.0000000000 16.3528981587
lattice 0.0000000000 5.4509660529 0.0000000000
lattice -8.1764490794 0.0000000000 2.7254830265
atom   0.000000    0.000000   0.000000 Mg  0.0   0.0  0.1154478200  -0.0000003750  0.0275523300
atom   -2.085339    2.725482   2.245818 Mg  0.0   0.0  0.0843279950  0.0000010600  0.0356341050
atom   2.385905    2.725482   2.306109 Mg  0.0   0.0  -0.0107649100  0.0000006550  -0.0096647650
atom   3.189186    0.000000   5.915111 Mg  0.0   0.0  0.1271970550  -0.0000007750  -0.0598663050
atom   7.592672    0.000000   5.911837 Mg  0.0   0.0  -0.0107022200  -0.0000011100  0.0329709000
atom   5.450964    2.725482   8.176445 Mg  0.0   0.0  0.1154475150  0.0000003750  0.0275524650
atom   3.365624    0.000000   10.422263 Mg  0.0   0.0  0.0843271100  -0.0000010600  0.0356349200
atom   7.836869    0.000000   10.482554 Mg  0.0   0.0  -0.0107629550  -0.0000006550  -0.0096636900
atom   -2.261778    2.725482   -2.261334 Mg  0.0   0.0  0.1271940650  0.0000007750  -0.0598681850
atom   2.141708    2.725482   -2.264608 Mg  0.0   0.0  -0.0107025100  0.0000011100  0.0329697350
atom   3.553411    0.000000   -0.185127 Si  0.0   0.0  -0.3126244850  -0.0000008650  0.4292798300
atom   0.156046    0.000000   3.910898 Si  0.0   0.0  0.3705514650  -0.0000014750  -0.4045866850
atom   5.589277    0.000000   2.444422 Si  0.0   0.0  -0.3608007250  -0.0000014100  0.1315781550
atom   0.207845    2.725482   5.788938 Si  0.0   0.0  0.2329870000  0.0000014350  -0.3303351650
atom   5.697445    2.725482   4.303672 Si  0.0   0.0  -0.5257135100  0.0000015650  0.3791280300
atom   2.167011    2.725482   8.151142 Si  0.0   0.0  0.2901001450  0.0000008600  -0.2316724150
atom   9.004375    2.725482   7.991318 Si  0.0   0.0  -0.3126156550  0.0000008650  0.4292866650
atom   5.607009    2.725482   12.087343 Si  0.0   0.0  0.3705482800  0.0000014750  -0.4046111650
atom   0.138313    2.725482   -5.732023 Si  0.0   0.0  -0.3608065250  0.0000014100  0.1315796350
atom   5.658809    0.000000   13.965383 Si  0.0   0.0  0.2329914850  -0.0000014350  -0.3303283450
atom   0.246482    0.000000   -3.872773 Si  0.0   0.0  -0.5257241050  -0.0000015650  0.3791073300
atom   -3.283953    0.000000   -0.025303 Si  0.0   0.0  0.2900976650  -0.0000008600  -0.2316773700
energy -227.553177615000010
charge 0.000000000000000
end
begin
comment uuid: 92ebe112-8063-4210-991b-d84b3dc376aa 
lattice 11.6992604736 0.0000000000 17.5488907104
lattice 0.0000000000 5.8496302368 0.0000000000
lattice -8.7744453552 0.0000000000 2.9248151184
atom   0.000000    0.000000   0.000000 Mg  0.0   0.0  0.0908661550  -0.0000002600  0.0167081350
atom   -2.237854    2.924814   2.410069 Mg  0.0   0.0  0.0527567550  0.0000007200  0.0224994200
atom   2.560401    2.924814   2.474769 Mg  0.0   0.0  -0.0032478000  0.0000004450  -0.0063147200
atom   3.422432    0.000000   6.347721 Mg  0.0   0.0  0.0824284000  -0.0000005300  -0.0402830150
atom   8.147973    0.000000   6.344208 Mg  0.0   0.0  0.0004872850  -0.0000007600  0.0210991100
atom   5.849628    2.924814   8.774441 Mg  0.0   0.0  0.0908661750  0.0000002600  0.0167078950
atom   3.611774    0.000000   11.184511 Mg  0.0   0.0  0.0527566650  -0.0000007200  0.0225003650
atom   8.410029    0.000000   11.249211 Mg  0.0   0.0  -0.0032465750  -0.0000004450  -0.0063140400
atom   -2.427196    2.924814   -2.426720 Mg  0.0   0.0  0.0824261100  0.0000005300  -0.0402841250
atom   2.298345    2.924814   -2.430233 Mg  0.0   0.0  0.0004877450  0.0000007600  0.0210990350
atom   3.813295    0.000000   -0.198667 Si  0.0   0.0  -0.2096254200  -0.0000006050  0.3094260100
atom   0.167458    0.000000   4.196927 Si  0.0   0.0  0.2552176650  -0.0000010250  -0.2758122050
atom   5.998057    0.000000   2.623198 Si  0.0   0.0  -0.2506957100  -0.0000009400  0.0859670300
atom   0.223046    2.924814   6.212320 Si  0.0   0.0  0.1664216300  0.0000009450  -0.2305456200
atom   6.114136    2.924814   4.618427 Si  0.0   0.0  -0.3722257200  0.0000010950  0.2564651200
atom   2.325498    2.924814   8.747288 Si  0.0   0.0  0.1876212250  0.0000006000  -0.1592101350
atom   9.662923    2.924814   8.575775 Si  0.0   0.0  -0.2096352000  0.0000006050  0.3094018300
atom   6.017086    2.924814   12.971368 Si  0.0   0.0  0.2552181150  0.0000010250  -0.2758220450
atom   0.148429    2.924814   -6.151243 Si  0.0   0.0  -0.2506954400  0.0000009350  0.0859859700
atom   6.072674    0.000000   14.986761 Si  0.0   0.0  0.1664333650  -0.0000009450  -0.2305228150
atom   0.264508    0.000000   -4.156014 Si  0.0   0.0  -0.3722321900  -0.0000010950  0.2564594850
atom   -3.524129    0.000000   -0.027154 Si  0.0   0.0  0.1876167700  -0.0000006000  -0.1592106950
energy -231.375180379999989
charge 0.000000000000000
end
begin
comment uuid: dddbbab8-acc6-458f-ab87-8250ce671b9d 
lattice 6.7557709251 0.0000000000 0.0000000000
lattice -3.3778854625 5.8506692433 0.0000000000
lattice 0.0000000000 0.0000000000 11.4800862573
atom   1.807169    4.066215   0.956674 Mg  0.0   0.0  1.0194745400  -0.4301439050  0.2490363700
atom   -1.047144    5.382616   0.956674 Mg  0.0   0.0  -0.1372219300  1.0979625100  0.2490364200
atom   -0.760024    2.252508   0.956674 Mg  0.0   0.0  -0.8822524850  -0.6678189150  0.2490364650
atom   1.570717    1.784454   2.870022 Mg  0.0   0.0  -1.5498898850  -0.0266356300  0.0005337250
atom   4.425030    0.468054   2.870022 Mg  0.0   0.0  0.7980107850  -1.3289235300  0.0005341450
atom   4.137910    3.598162   2.870022 Mg  0.0   0.0  0.7518780100  1.3555617050  0.0005337050
atom   1.807169    4.066215   4.783369 Mg  0.0   0.0  1.0216128200  -0.4279800800  -0.2827996700
atom   -1.047144    5.382616   4.783369 Mg  0.0   0.0  -0.1401652900  1.0987324050  -0.2827994150
atom   -0.760024    2.252508   4.783369 Mg  0.0   0.0  -0.8814476350  -0.6707526850  -0.2827996250
atom   1.570717    1.784454   6.696717 Mg  0.0   0.0  -1.0214419050  0.4280335550  0.2826791800
atom   4.425030    0.468054   6.696717 Mg  0.0   0.0  0.1400330950  -1.0986116450  0.2826792450
atom   4.137910    3.598162   6.696717 Mg  0.0   0.0  0.8814090200  0.6705777650  0.2826791900
atom   1.807169    4.066215   8.610065 Mg  0.0   0.0  1.5500629600  0.0267957750  -0.0005917000
atom   -1.047144    5.382616   8.610065 Mg  0.0   0.0  -0.7982372500  1.3289958650  -0.0005917250
atom   -0.760024    2.252508   8.610065 Mg  0.0   0.0  -0.7518255600  -1.3557919200  -0.0005917150
atom   1.570717    1.784454   10.523412 Mg  0.0   0.0  -1.0193670100  0.4302532150  -0.2488526050
atom   4.425030    0.468054   10.523412 Mg  0.0   0.0  0.1370733450  -1.0979245250  -0.2488526400
atom   4.137910    3.598162   10.523412 Mg  0.0   0.0  0.8822938500  0.6676710300  -0.2488525950
atom   0.000000    0.000000   0.956674 Si  0.0   0.0  0.0000000350  -0.0000001300  2.7502458600
atom   3.377885    1.950223   0.956674 Si  0.0   0.0  0.0000000050  -0.0000000300  0.0936451450
atom   0.000000    3.900446   2.870022 Si  0.0   0.0  0.0000000800  -0.0000001450  -0.0006874100
atom   0.000000    0.000000   4.783369 Si  0.0   0.0  0.0000000700  -0.0000001350  -2.7475425400
atom   0.000000    0.000000   6.696717 Si  0.0   0.0  0.0000000750  -0.0000001050  2.7475360800
atom   3.377885    1.950223   4.783369 Si  0.0   0.0  0.0000000150  -0.0000000400  -0.0893312800
atom   0.000000    3.900446   6.696717 Si  0.0   0.0  0.0000000600  -0.0000001000  0.0893616700
atom   0.000000    0.000000   10.523412 Si  0.0   0.0  0.0000000800  -0.0000001000  -2.7502268600
atom   3.377885    1.950223   8.610065 Si  0.0   0.0  0.0000000600  -0.0000001000  0.0006523650
atom   0.000000    3.900446   10.523412 Si  0.0   0.0  0.0000000550  -0.0000001050  -0.0936697900
energy -297.143254305000028
charge 0.000000000000000
end
begin
comment uuid: e964886d-ce00-4db8-affa-53d000c27a56 
lattice 7.4718826431 0.0000000000 0.0000000000
lattice -3.7359413216 6.4708401830 0.0000000000
lattice 0.0000000000 0.0000000000 12.6969754006
atom   1.998729    4.497234   1.058081 Mg  0.0   0.0  0.0174612650  0.0645185600  0.1009789900
atom   -1.158142    5.953173   1.058081 Mg  0.0   0.0  -0.0646053450  -0.0171373850  0.1009789900
atom   -0.840587    2.491273   1.058081 Mg  0.0   0.0  0.0471440800  -0.0473811800  0.1009789900
atom   1.737213    1.973606   3.174244 Mg  0.0   0.0  -0.3586169900  -0.3804517400  -0.0000008550
atom   4.894083    0.517667   3.174244 Mg  0.0   0.0  0.5087893650  -0.1203455550  -0.0000008550
atom   4.576528    3.979567   3.174244 Mg  0.0   0.0  -0.1501723750  0.5007972950  -0.0000008550
atom   1.998729    4.497234   5.290406 Mg  0.0   0.0  0.0174669450  0.0645241500  -0.1009756550
atom   -1.158142    5.953173   5.290406 Mg  0.0   0.0  -0.0646130250  -0.0171352600  -0.1009756550
atom   -0.840587    2.491273   5.290406 Mg  0.0   0.0  0.0471460800  -0.0473888850  -0.1009756550
atom   1.737213    1.973606   7.406569 Mg  0.0   0.0  -0.0174669400  -0.0645241550  0.1009756550
atom   4.894083    0.517667   7.406569 Mg  0.0   0.0  0.0646130250  0.0171352600  0.1009756550
atom   4.576528    3.979567   7.406569 Mg  0.0   0.0  -0.0471460850  0.0473888900  0.1009756550
atom   1.998729    4.497234   9.522732 Mg  0.0   0.0  0.3586170000  0.3804517400  0.0000008550
atom   -1.158142    5.953173   9.522732 Mg  0.0   0.0  -0.5087893750  0.1203455600  0.0000008500
atom   -0.840587    2.491273   9.522732 Mg  0.0   0.0  0.1501723750  -0.5007972950  0.0000008550
atom   1.737213    1.973606   11.638894 Mg  0.0   0.0  -0.0174612650  -0.0645185650  -0.1009789900
atom   4.894083    0.517667   11.638894 Mg  0.0   0.0  0.0646053500  0.0171373850  -0.1009789850
atom   4.576528    3.979567   11.638894 Mg  0.0   0.0  -0.0471440850  0.0473811800  -0.1009789900
atom   0.000000    0.000000   1.058081 Si  0.0   0.0  0.0000000000  -0.0000000000  2.3149537050
atom   3.735941    2.156947   1.058081 Si  0.0   0.0  0.0000000000  0.0000000000  0.0000613850
atom   0.000000    4.313893   3.174244 Si  0.0   0.0  -0.0000000000  0.0000000000  -0.0000135200
atom   0.000000    0.000000   5.290406 Si  0.0   0.0  0.0000000050  -0.0000000050  -2.3152407700
atom   0.000000    0.000000   7.406569 Si  0.0   0.0  0.0000000050  -0.0000000050  2.3152407700
atom   3.735941    2.156947   5.290406 Si  0.0   0.0  -0.0000000000  0.0000000000  -0.0000360500
atom   0.000000    4.313893   7.406569 Si  0.0   0.0  -0.0000000050  0.0000000000  0.0000360450
atom   0.000000    0.000000   11.638894 Si  0.0   0.0  0.0000000000  -0.0000000000  -2.3149537000
atom   3.735941    2.156947   9.522732 Si  0.0   0.0  -0.0000000000  0.0000000000  0.0000135200
atom   0.000000    4.313893   11.638894 Si  0.0   0.0  -0.0000000000  0.0000000000  -0.0000613850
energy -319.123059870000020
charge 0.000000000000000
end
begin
comment uuid: f44dcc8d-5cbe-4d6d-9e47-e621695323db 
lattice 8.1744828193 0.0000000000 0.0000000000
lattice -4.0872414097 7.0793097843 0.0000000000
lattice 0.0000000000 0.0000000000 13.8909043713
atom   2.186674    4.920120   1.157575 Mg  0.0   0.0  -0.0575262500  0.0022031950  0.0441248350
atom   -1.267045    6.512965   1.157575 Mg  0.0   0.0  0.0268551050  -0.0509207950  0.0441248350
atom   -0.919629    2.725534   1.157575 Mg  0.0   0.0  0.0306711500  0.0487176000  0.0441248350
atom   1.900567    2.159189   3.472726 Mg  0.0   0.0  -0.2011383800  -0.2700587200  -0.0000000050
atom   5.354286    0.566345   3.472726 Mg  0.0   0.0  0.3344469000  -0.0391615850  -0.0000000050
atom   5.006871    4.353776   3.472726 Mg  0.0   0.0  -0.1333085250  0.3092203050  -0.0000000050
atom   2.186674    4.920120   5.787877 Mg  0.0   0.0  -0.0575262500  0.0022032000  -0.0441248350
atom   -1.267045    6.512965   5.787877 Mg  0.0   0.0  0.0268551000  -0.0509207950  -0.0441248400
atom   -0.919629    2.725534   5.787877 Mg  0.0   0.0  0.0306711500  0.0487175950  -0.0441248400
atom   1.900567    2.159189   8.103028 Mg  0.0   0.0  0.0575262550  -0.0022031950  0.0441248600
atom   5.354286    0.566345   8.103028 Mg  0.0   0.0  -0.0268551050  0.0509207950  0.0441248600
atom   5.006871    4.353776   8.103028 Mg  0.0   0.0  -0.0306711500  -0.0487176050  0.0441248600
atom   2.186674    4.920120   10.418178 Mg  0.0   0.0  0.2011383700  0.2700587100  0.0000000050
atom   -1.267045    6.512965   10.418178 Mg  0.0   0.0  -0.3344468850  0.0391615800  0.0000000050
atom   -0.919629    2.725534   10.418178 Mg  0.0   0.0  0.1333085200  -0.3092202900  0.0000000050
atom   1.900567    2.159189   12.733329 Mg  0.0   0.0  0.0575262600  -0.0022031900  -0.0441248600
atom   5.354286    0.566345   12.733329 Mg  0.0   0.0  -0.0268551100  0.0509208000  -0.0441248600
atom   5.006871    4.353776   12.733329 Mg  0.0   0.0  -0.0306711500  -0.0487176050  -0.0441248600
atom   0.000000    0.000000   1.157575 Si  0.0   0.0  -0.0000000000  -0.0000000000  1.7577661950
atom   4.087241    2.359770   1.157575 Si  0.0   0.0  0.0000000000  0.0000000000  0.0083699650
atom   0.000000    4.719540   3.472726 Si  0.0   0.0  -0.0000000000  0.0000000000  -0.0000000050
atom   0.000000    0.000000   5.787877 Si  0.0   0.0  -0.0000000000  -0.0000000000  -1.7577662000
atom   0.000000    0.000000   8.103028 Si  0.0   0.0  -0.0000000000  0.0000000000  1.7577662100
atom   4.087241    2.359770   5.787877 Si  0.0   0.0  0.0000000000  -0.0000000000  -0.0083699700
atom   0.000000    4.719540   8.103028 Si  0.0   0.0  -0.0000000000  -0.0000000000  0.0083700000
atom   0.000000    0.000000   12.733329 Si  0.0   0.0  0.0000000000  -0.0000000000  -1.7577662050
atom   4.087241    2.359770   10.418178 Si  0.0   0.0  0.0000000000  0.0000000000  0.0000000100
atom   0.000000    4.719540   12.733329 Si  0.0   0.0  -0.0000000000  -0.0000000000  -0.0083699950
energy -334.581958154999995
charge 0.000000000000000
end
begin
comment uuid: 9abe1d45-c9ab-4e1c-93ef-cbcfc2fa82ce 
lattice 8.8905945374 0.0000000000 0.0000000000
lattice -4.4452972687 7.6994807241 0.0000000000
lattice 0.0000000000 0.0000000000 15.1077935146
atom   2.378234    5.351139   1.258983 Mg  0.0   0.0  -0.0621888200  -0.0252881950  0.0167385000
atom   -1.378042    7.083522   1.258983 Mg  0.0   0.0  0.0529946300  -0.0412130000  0.0167385000
atom   -1.000192    2.964300   1.258983 Mg  0.0   0.0  0.0091941900  0.0665011950  0.0167385000
atom   2.067063    2.348342   3.776948 Mg  0.0   0.0  -0.1272776750  -0.1832766600  -0.0000000000
atom   5.823339    0.615958   3.776948 Mg  0.0   0.0  0.2223610800  -0.0185873700  -0.0000000000
atom   5.445489    4.735181   3.776948 Mg  0.0   0.0  -0.0950834100  0.2018640300  -0.0000000000
atom   2.378234    5.351139   6.294914 Mg  0.0   0.0  -0.0621888200  -0.0252881950  -0.0167385050
atom   -1.378042    7.083522   6.294914 Mg  0.0   0.0  0.0529946300  -0.0412130000  -0.0167385050
atom   -1.000192    2.964300   6.294914 Mg  0.0   0.0  0.0091941900  0.0665011950  -0.0167385050
atom   2.067063    2.348342   8.812880 Mg  0.0   0.0  0.0621888250  0.0252881950  0.0167385150
atom   5.823339    0.615958   8.812880 Mg  0.0   0.0  -0.0529946300  0.0412130000  0.0167385150
atom   5.445489    4.735181   8.812880 Mg  0.0   0.0  -0.0091941900  -0.0665012000  0.0167385150
atom   2.378234    5.351139   11.330845 Mg  0.0   0.0  0.1272776700  0.1832766500  0.0000000000
atom   -1.378042    7.083522   11.330845 Mg  0.0   0.0  -0.2223610700  0.0185873700  0.0000000000
atom   -1.000192    2.964300   11.330845 Mg  0.0   0.0  0.0950834000  -0.2018640200  0.0000000000
atom   2.067063    2.348342   13.848811 Mg  0.0   0.0  0.0621888250  0.0252881950  -0.0167385150
atom   5.823339    0.615958   13.848811 Mg  0.0   0.0  -0.0529946350  0.0412130000  -0.0167385100
atom   5.445489    4.735181   13.848811 Mg  0.0   0.0  -0.0091941900  -0.0665012000  -0.0167385150
atom   0.000000    0.000000   1.258983 Si  0.0   0.0  0.0000000000  -0.0000000000  1.2993535150
atom   4.445297    2.566494   1.258983 Si  0.0   0.0  0.0000000000  -0.0000000000  0.0083600500
atom   0.000000    5.132987   3.776948 Si  0.0   0.0  0.0000000000  -0.0000000000  -0.0000000000
atom   0.000000    0.000000   6.294914 Si  0.0   0.0  -0.0000000000  -0.0000000000  -1.2993535150
atom   0.000000    0.000000   8.812880 Si  0.0   0.0  0.0000000000  -0.0000000000  1.2993535200
atom   4.445297    2.566494   6.294914 Si  0.0   0.0  -0.0000000000  0.0000000000  -0.0083600500
atom   0.000000    5.132987   8.812880 Si  0.0   0.0  0.0000000000  0.0000000000  0.0083600650
atom   0.000000    0.000000   13.848811 Si  0.0   0.0  0.0000000000  -0.0000000000  -1.2993535200
atom   4.445297    2.566494   11.330845 Si  0.0   0.0  -0.0000000000  0.0000000000  0.0000000050
atom   0.000000    5.132987   13.848811 Si  0.0   0.0  -0.0000000000  0.0000000000  -0.0083600650
energy -344.538397574999976
charge 0.000000000000000
end
begin
comment uuid: 86946957-f382-4ea9-a4ae-96961eef214b 
lattice 9.6067062554 0.0000000000 0.0000000000
lattice -4.8033531277 8.3196516639 0.0000000000
lattice 0.0000000000 0.0000000000 16.3246826579
atom   2.569794    5.782158   1.360390 Mg  0.0   0.0  -0.0563580150  -0.0356399150  0.0049811250
atom   -1.489039    7.654080   1.360390 Mg  0.0   0.0  0.0590440800  -0.0309875100  0.0049811250
atom   -1.080754    3.203066   1.360390 Mg  0.0   0.0  -0.0026860650  0.0666274250  0.0049811250
atom   2.233559    2.537494   4.081171 Mg  0.0   0.0  -0.0827657300  -0.1229626650  -0.0000000000
atom   6.292393    0.665572   4.081171 Mg  0.0   0.0  0.1478716550  -0.0101958900  -0.0000000000
atom   5.884108    5.116586   4.081171 Mg  0.0   0.0  -0.0651059250  0.1331585550  0.0000000000
atom   2.569794    5.782158   6.801951 Mg  0.0   0.0  -0.0563580100  -0.0356399150  -0.0049811200
atom   -1.489039    7.654080   6.801951 Mg  0.0   0.0  0.0590440750  -0.0309875150  -0.0049811200
atom   -1.080754    3.203066   6.801951 Mg  0.0   0.0  -0.0026860650  0.0666274300  -0.0049811200
atom   2.233559    2.537494   9.522732 Mg  0.0   0.0  0.0563580100  0.0356399200  0.0049811150
atom   6.292393    0.665572   9.522732 Mg  0.0   0.0  -0.0590440800  0.0309875100  0.0049811150
atom   5.884108    5.116586   9.522732 Mg  0.0   0.0  0.0026860700  -0.0666274250  0.0049811150
atom   2.569794    5.782158   12.243512 Mg  0.0   0.0  0.0827657250  0.1229626600  -0.0000000000
atom   -1.489039    7.654080   12.243512 Mg  0.0   0.0  -0.1478716500  0.0101958900  -0.0000000000
atom   -1.080754    3.203066   12.243512 Mg  0.0   0.0  0.0651059250  -0.1331585500  -0.0000000000
atom   2.233559    2.537494   14.964292 Mg  0.0   0.0  0.0563580050  0.0356399200  -0.0049811150
atom   6.292393    0.665572   14.964292 Mg  0.0   0.0  -0.0590440750  0.0309875100  -0.0049811150
atom   5.884108    5.116586   14.964292 Mg  0.0   0.0  0.0026860700  -0.0666274250  -0.0049811150
atom   0.000000    0.000000   1.360390 Si  0.0   0.0  -0.0000000000  0.0000000000  0.9422165450
atom   4.803353    2.773217   1.360390 Si  0.0   0.0  -0.0000000000  -0.0000000000  0.0036019800
atom   0.000000    5.546434   4.081171 Si  0.0   0.0  0.0000000000  0.0000000000  -0.0000000000
atom   0.000000    0.000000   6.801951 Si  0.0   0.0  0.0000000000  -0.0000000000  -0.9422165450
atom   0.000000    0.000000   9.522732 Si  0.0   0.0  0.0000000000  -0.0000000000  0.9422165350
atom   4.803353    2.773217   6.801951 Si  0.0   0.0  -0.0000000000  -0.0000000000  -0.0036019750
atom   0.000000    5.546434   9.522732 Si  0.0   0.0  -0.0000000050  -0.0000000000  0.0036019700
atom   0.000000    0.000000   14.964292 Si  0.0   0.0  -0.0000000000  0.0000000000  -0.9422165350
atom   4.803353    2.773217   12.243512 Si  0.0   0.0  0.0000000000  0.0000000050  -0.0000000050
atom   0.000000    5.546434   14.964292 Si  0.0   0.0  0.0000000050  -0.0000000000  -0.0036019700
energy -350.789429224999992
charge 0.000000000000000
end
begin
comment uuid: 36381798-b900-490a-9747-acbf5035785d 
lattice 10.3093064317 0.0000000000 0.0000000000
lattice -5.1546532158 8.9281212652 0.0000000000
lattice 0.0000000000 0.0000000000 17.5186116286
atom   2.757739    6.205044   1.459884 Mg  0.0   0.0  -0.0475429450  -0.0362826050  0.0006697600
atom   -1.597942    8.213872   1.459884 Mg  0.0   0.0  0.0551931300  -0.0230320950  0.0006697600
atom   -1.159797    3.437327   1.459884 Mg  0.0   0.0  -0.0076501850  0.0593147050  0.0006697600
atom   2.396914    2.723077   4.379653 Mg  0.0   0.0  -0.0546663850  -0.0821219500  0.0000000000
atom   6.752596    0.714250   4.379653 Mg  0.0   0.0  0.0984528900  -0.0062815000  0.0000000000
atom   6.314450    5.490795   4.379653 Mg  0.0   0.0  -0.0437865050  0.0884034550  0.0000000000
atom   2.757739    6.205044   7.299422 Mg  0.0   0.0  -0.0475429500  -0.0362826050  -0.0006697600
atom   -1.597942    8.213872   7.299422 Mg  0.0   0.0  0.0551931300  -0.0230321000  -0.0006697600
atom   -1.159797    3.437327   7.299422 Mg  0.0   0.0  -0.0076501850  0.0593147000  -0.0006697600
atom   2.396914    2.723077   10.219190 Mg  0.0   0.0  0.0475429450  0.0362826050  0.0006697600
atom   6.752596    0.714250   10.219190 Mg  0.0   0.0  -0.0551931300  0.0230321000  0.0006697600
atom   6.314450    5.490795   10.219190 Mg  0.0   0.0  0.0076501800  -0.0593147050  0.0006697600
atom   2.757739    6.205044   13.138959 Mg  0.0   0.0  0.0546663850  0.0821219450  0.0000000000
atom   -1.597942    8.213872   13.138959 Mg  0.0   0.0  -0.0984528800  0.0062815050  0.0000000000
atom   -1.159797    3.437327   13.138959 Mg  0.0   0.0  0.0437865000  -0.0884034500  0.0000000000
atom   2.396914    2.723077   16.058727 Mg  0.0   0.0  0.0475429500  0.0362826050  -0.0006697600
atom   6.752596    0.714250   16.058727 Mg  0.0   0.0  -0.0551931300  0.0230321000  -0.0006697600
atom   6.314450    5.490795   16.058727 Mg  0.0   0.0  0.0076501800  -0.0593147050  -0.0006697600
atom   0.000000    0.000000   1.459884 Si  0.0   0.0  0.0000000000  0.0000000000  0.6778620800
atom   5.154653    2.976040   1.459884 Si  0.0   0.0  0.0000000000  -0.0000000000  0.0000494100
atom   0.000000    5.952081   4.379653 Si  0.0   0.0  0.0000000000  -0.0000000000  0.0000000000
atom   0.000000    0.000000   7.299422 Si  0.0   0.0  -0.0000000000  0.0000000000  -0.6778620800
atom   0.000000    0.000000   10.219190 Si  0.0   0.0  -0.0000000050  0.0000000050  0.6778620800
atom   5.154653    2.976040   7.299422 Si  0.0   0.0  -0.0000000000  -0.0000000000  -0.0000494100
atom   0.000000    5.952081   10.219190 Si  0.0   0.0  0.0000000050  -0.0000000000  0.0000494150
atom   0.000000    0.000000   16.058727 Si  0.0   0.0  -0.0000000000  0.0000000000  -0.6778620800
atom   5.154653    2.976040   13.138959 Si  0.0   0.0  0.0000000000  0.0000000000  0.0000000000
atom   0.000000    5.952081   16.058727 Si  0.0   0.0  0.0000000000  -0.0000000000  -0.0000494200
energy -354.630344900000011
charge 0.000000000000000
end
begin
comment uuid: 96132117-5ef1-46a7-b760-80b7db7a28b7 
lattice 7.6666189211 0.0000000000 11.4999283817
lattice 0.0000000000 3.8333094606 0.0000000000