begin
comment uuid: bb6f6e6e-9501-49f8-8dd1-5a61b4daad21 
lattice 7.2524385739 0.0000000000 0.0000000000
lattice 0.0000000000 7.2524385739 0.0000000000
lattice 0.0000000000 0.0000000000 7.2524385739
atom   0.000000    0.000000   0.000000 Al  0.0   0.0  -0.0000000000  0.0000000050  0.0000000000
atom   0.000000    3.626219   3.626219 Al  0.0   0.0  -0.0000000000  -0.0000000000  -0.0000000000
atom   3.626219    0.000000   3.626219 Al  0.0   0.0  0.0000000000  -0.0000000050  0.0000000000
atom   3.626219    3.626219   0.000000 Al  0.0   0.0  0.0000000000  -0.0000000000  -0.0000000000
energy -78.989633925000007
charge 0.000000000000000
end
begin
comment uuid: a18f7411-0840-4bf4-a186-623585a7241b 
lattice 7.3135117408 0.0000000000 0.0000000000
lattice 0.0000000000 7.3135117408 0.0000000000
lattice 0.0000000000 0.0000000000 7.3135117408
atom   0.000000    0.000000   0.000000 Al  0.0   0.0  -0.0000000050  0.0000000050  0.0000000000
atom   0.000000    3.656756   3.656756 Al  0.0   0.0  0.0000000050  -0.0000000100  0.0000000000
atom   3.656756    0.000000   3.656756 Al  0.0   0.0  -0.0000000000  0.0000000050  -0.0000000050
atom   3.656756    3.656756   0.000000 Al  0.0   0.0  -0.0000000000  -0.0000000000  0.0000000000
energy -78.994659740000003
charge 0.000000000000000
end
begin
comment uuid: 05894ef5-448f-4f93-bd9b-7012008dfb8e 
lattice 7.3745849078 0.0000000000 0.0000000000
lattice 0.0000000000 7.3745849078 0.0000000000
lattice 0.0000000000 0.0000000000 7.3745849078
atom   0.000000    0.000000   0.000000 Al  0.0   0.0  -0.0000000000  0.0000000000  0.0000000000
atom   0.000000    3.687292   3.687292 Al  0.0   0.0  0.0000000000  -0.0000000050  0.0000000000
atom   3.687292    0.000000   3.687292 Al  0.0   0.0  0.0000000000  0.0000000050  -0.0000000050
atom   3.687292    3.687292   0.000000 Al  0.0   0.0  0.0000000000  -0.0000000000  0.0000000000
energy -78.998632779999994
charge 0.000000000000000
end
begin
comment uuid: fd07c0b5-5705-41d6-aa6f-b4d874ac2866 
lattice 7.4356580747 0.0000000000 0.0000000000
lattice 0.0000000000 7.4356580747 0.0000000000
lattice 0.0000000000 0.0000000000 7.4356580747
atom   0.000000    0.000000   0.000000 Al  0.0   0.0  -0.0000000050  -0.0000000000  -0.0000000000
atom   0.000000    3.717829   3.717829 Al  0.0   0.0  0.0000000000  -0.0000000000  0.0000000000
atom   3.717829    0.000000   3.717829 Al  0.0   0.0  0.0000000000  0.0000000000  -0.0000000000
atom   3.717829    3.717829   0.000000 Al  0.0   0.0  0.0000000000  0.0000000000  -0.0000000000
energy -79.001633455000004
charge 0.000000000000000
end
begin
comment uuid: e2f02611-3799-4ab3-bd11-602870714b49 
lattice 7.4967312416 0.0000000000 0.0000000000
lattice 0.0000000000 7.4967312416 0.0000000000
lattice 0.0000000000 0.0000000000 7.4967312416
atom   0.000000    0.000000   0.000000 Al  0.0   0.0  -0.0000000050  -0.0000000050  -0.0000000000
atom   0.000000    3.748366   3.748366 Al  0.0   0.0  0.0000000000  -0.0000000000  0.0000000000
atom   3.748366    0.000000   3.748366 Al  0.0   0.0  0.0000000000  0.0000000050  -0.0000000000
atom   3.748366    3.748366   0.000000 Al  0.0   0.0  0.0000000000  0.0000000000  -0.0000000000
energy -79.003737450000017
charge 0.000000000000000
end
begin
comment uuid: 94cfa519-47c5-434d-b597-75b96c4db940 
lattice 7.5501702627 0.0000000000 0.0000000000
lattice 0.0000000000 7.5501702627 0.0000000000
lattice 0.0000000000 0.0000000000 7.5501702627
atom   0.000000    0.000000   0.000000 Al  0.0   0.0  -0.0000000050  -0.0000000050  0.0000000000
atom   0.000000    3.775085   3.775085 Al  0.0   0.0  0.0000000050  -0.0000000050  0.0000000000
atom   3.775085    0.000000   3.775085 Al  0.0   0.0  0.0000000000  0.0000000050  -0.0000000050
atom   3.775085    3.775085   0.000000 Al  0.0   0.0  0.0000000000  0.0000000000  0.0000000000
energy -79.004898824999998
charge 0.000000000000000
end
begin
comment uuid: 6249257a-0e8a-403c-9027-143156a24f59 
lattice 7.6112434296 0.0000000000 0.0000000000
lattice 0.0000000000 7.6112434296 0.0000000000
lattice 0.0000000000 0.0000000000 7.6112434296
atom   0.000000    0.000000   0.000000 Al  0.0   0.0  -0.0000000050  -0.0000000050  0.0000000000
atom   0.000000    3.805622   3.805622 Al  0.0   0.0  0.0000000050  -0.0000000050  0.0000000000
atom   3.805622    0.000000   3.805622 Al  0.0   0.0  0.0000000000  0.0000000050  -0.0000000050
atom   3.805622    3.805622   0.000000 Al  0.0   0.0  -0.0000000000  0.0000000000  0.0000000000
energy -79.005506089999997
charge 0.000000000000000
end
begin
comment uuid: f6dcc42a-1d25-42ad-b609-68570e30ccc9 
lattice 7.6723165966 0.0000000000 0.0000000000
lattice 0.0000000000 7.6723165966 0.0000000000
lattice 0.0000000000 0.0000000000 7.6723165966
atom   0.000000    0.000000   0.000000 Al  0.0   0.0  -0.0000000050  -0.0000000050  0.0000000000
atom   0.000000    3.836158   3.836158 Al  0.0   0.0  0.0000000000  -0.0000000000  0.0000000050
atom   3.836158    0.000000   3.836158 Al  0.0   0.0  0.0000000000  0.0000000050  -0.0000000050
atom   3.836158    3.836158   0.000000 Al  0.0   0.0  -0.0000000000  0.0000000000  0.0000000000
energy -79.005413884999996
charge 0.000000000000000
end
begin
comment uuid: 5f37c680-fdee-4330-a20d-c13274f89b60 
lattice 7.7333897635 0.0000000000 0.0000000000
lattice 0.0000000000 7.7333897635 0.0000000000
lattice 0.0000000000 0.0000000000 7.7333897635
atom   0.000000    0.000000   0.000000 Al  0.0   0.0  -0.0000000050  0.0000000050  0.0000000000
atom   0.000000    3.866695   3.866695 Al  0.0   0.0  0.0000000050  -0.0000000050  0.0000000000
atom   3.866695    0.000000   3.866695 Al  0.0   0.0  -0.0000000000  0.0000000050  -0.0000000050
atom   3.866695    3.866695   0.000000 Al  0.0   0.0  -0.0000000000  -0.0000000000  0.0000000000
energy -79.004677860000001
charge 0.000000000000000
end
begin
comment uuid: da280725-dcdc-4958-b8ef-a58c1d8a01b9 
lattice 7.7944629305 0.0000000000 0.0000000000
lattice 0.0000000000 7.7944629305 0.0000000000
lattice 0.0000000000 0.0000000000 7.7944629305
atom   0.000000    0.000000   0.000000 Al  0.0   0.0  -0.0000000050  0.0000000050  0.0000000050
atom   0.000000    3.897231   3.897231 Al  0.0   0.0  0.0000000100  -0.0000000100  0.0000000000
atom   3.897231    0.000000   3.897231 Al  0.0   0.0  -0.0000000000  0.0000000100  -0.0000000050
atom   3.897231    3.897231   0.000000 Al  0.0   0.0  -0.0000000050  -0.0000000050  0.0000000000
energy -79.003354139999999
charge 0.000000000000000
end
begin
comment uuid: bf375279-7210-4bb4-a2b4-65a2df7f6b35 
lattice 7.8555360974 0.0000000000 0.0000000000
lattice 0.0000000000 7.8555360974 0.0000000000
lattice 0.0000000000 0.0000000000 7.8555360974
atom   0.000000    0.000000   0.000000 Al  0.0   0.0  0.0000000000  0.0000000000  0.0000000000
atom   0.000000    3.927768   3.927768 Al  0.0   0.0  0.0000000050  -0.0000000100  0.0000000050
atom   3.927768    0.000000   3.927768 Al  0.0   0.0  -0.0000000050  0.0000000150  -0.0000000050
atom   3.927768    3.927768   0.000000 Al  0.0   0.0  -0.0000000050  -0.0000000050  0.0000000000
energy -79.001495449999993
charge 0.000000000000000
end
begin
comment uuid: 6b116b0c-67b5-4287-8e85-f987dc96437b 
lattice 7.9166092643 0.0000000000 0.0000000000
lattice 0.0000000000 7.9166092643 0.0000000000
lattice 0.0000000000 0.0000000000 7.9166092643
atom   0.000000    0.000000   0.000000 Al  0.0   0.0  0.0000000000  -0.0000000000  -0.0000000000
atom   0.000000    3.958305   3.958305 Al  0.0   0.0  0.0000000000  -0.0000000000  -0.0000000000
atom   3.958305    0.000000   3.958305 Al  0.0   0.0  -0.0000000000  -0.0000000050  0.0000000050
atom   3.958305    3.958305   0.000000 Al  0.0   0.0  -0.0000000000  0.0000000050  -0.0000000000
energy -78.999151275000003
charge 0.000000000000000
end
begin
comment uuid: d0614e31-41e1-49e3-844b-3b6c801e754d 
lattice 7.9776824313 0.0000000000 0.0000000000
lattice 0.0000000000 7.9776824313 0.0000000000
lattice 0.0000000000 0.0000000000 7.9776824313
atom   0.000000    0.000000   0.000000 Al  0.0   0.0  -0.0000000050  -0.0000000050  0.0000000000
atom   0.000000    3.988841   3.988841 Al  0.0   0.0  0.0000000050  -0.0000000000  0.0000000000
atom   3.988841    0.000000   3.988841 Al  0.0   0.0  0.0000000000  0.0000000050  -0.0000000050
atom   3.988841    3.988841   0.000000 Al  0.0   0.0  0.0000000000  0.0000000000  0.0000000000
energy -78.996364834999994
charge 0.000000000000000
end
begin
comment uuid: 31d1cfe0-b102-43aa-8651-9b47a6598497 
lattice 8.0387555982 0.0000000000 0.0000000000
lattice 0.0000000000 8.0387555982 0.0000000000
lattice 0.0000000000 0.0000000000 8.0387555982
atom   0.000000    0.000000   0.000000 Al  0.0   0.0  0.0000000050  -0.0000000000  -0.0000000050
atom   0.000000    4.019378   4.019378 Al  0.0   0.0  -0.0000000000  -0.0000000000  0.0000000000
atom   4.019378    0.000000   4.019378 Al  0.0   0.0  -0.0000000000  0.0000000050  0.0000000000
atom   4.019378    4.019378   0.000000 Al  0.0   0.0  -0.0000000000  -0.0000000000  -0.0000000000
energy -78.993186960000003
charge 0.000000000000000
end
begin
comment uuid: 0172b596-065d-464d-ae65-28700017c0ad 
lattice 8.0998287652 0.0000000000 0.0000000000
lattice 0.0000000000 8.0998287652 0.0000000000
lattice 0.0000000000 0.0000000000 8.0998287652
atom   0.000000    0.000000   0.000000 Al  0.0   0.0  0.0000000000  0.0000000000  0.0000000000
atom   0.000000    4.049914   4.049914 Al  0.0   0.0  0.0000000050  -0.0000000050  0.0000000000
atom   4.049914    0.000000   4.049914 Al  0.0   0.0  -0.0000000000  0.0000000050  -0.0000000000
atom   4.049914    4.049914   0.000000 Al  0.0   0.0  -0.0000000000  -0.0000000050  0.0000000000
energy -78.989654920000007
charge 0.000000000000000
end
begin
comment uuid: 4cc548ae-5d0c-4155-ba14-a5370e6d6a20 
lattice 8.1532677862 0.0000000000 0.0000000000
lattice 0.0000000000 8.1532677862 0.0000000000
lattice 0.0000000000 0.0000000000 8.1532677862
atom   0.000000    0.000000   0.000000 Al  0.0   0.0  -0.0000000050  -0.0000000100  0.0000000000
atom   0.000000    4.076634   4.076634 Al  0.0   0.0  -0.0000000000  0.0000000050  0.0000000050
atom   4.076634    0.000000   4.076634 Al  0.0   0.0  0.0000000000  0.0000000000  -0.0000000000
atom   4.076634    4.076634   0.000000 Al  0.0   0.0  0.0000000050  0.0000000050  -0.0000000050
energy -78.986303739999997
charge 0.000000000000000
end
begin
comment uuid: cfd00548-51f7-4748-adb4-c6f37aaa8d2a 
lattice 8.2143409532 0.0000000000 0.0000000000
lattice 0.0000000000 8.2143409532 0.0000000000
lattice 0.0000000000 0.0000000000 8.2143409532
atom   0.000000    0.000000   0.000000 Al  0.0   0.0  -0.0000000000  0.0000000000  0.0000000000
atom   0.000000    4.107170   4.107170 Al  0.0   0.0  0.0000000000  -0.0000000050  -0.0000000000
atom   4.107170    0.000000   4.107170 Al  0.0   0.0  0.0000000000  0.0000000000  -0.0000000050
atom   4.107170    4.107170   0.000000 Al  0.0   0.0  -0.0000000000  -0.0000000000  0.0000000050
energy -78.982207424999999
charge 0.000000000000000
end
begin
comment uuid: e954251f-8201-496c-9a86-a9e84555afd8 
lattice 8.2754141201 0.0000000000 0.0000000000
lattice 0.0000000000 8.2754141201 0.0000000000
lattice 0.0000000000 0.0000000000 8.2754141201
atom   0.000000    0.000000   0.000000 Al  0.0   0.0  -0.0000000000  -0.0000000000  0.0000000000
atom   0.000000    4.137707   4.137707 Al  0.0   0.0  0.0000000000  -0.0000000000  0.0000000000
atom   4.137707    0.000000   4.137707 Al  0.0   0.0  -0.0000000000  0.0000000000  -0.0000000000
atom   4.137707    4.137707   0.000000 Al  0.0   0.0  0.0000000000  0.0000000000  -0.0000000000
energy -78.977857874999998
charge 0.000000000000000
end
begin
comment uuid: 462f6aca-1f05-4f12-9758-ee4fc6382931 
lattice 8.3364872870 0.0000000000 0.0000000000
lattice 0.0000000000 8.3364872870 0.0000000000
lattice 0.0000000000 0.0000000000 8.3364872870
atom   0.000000    0.000000   0.000000 Al  0.0   0.0  -0.0000000000  -0.0000000000  0.0000000000
atom   0.000000    4.168244   4.168244 Al  0.0   0.0  0.0000000000  0.0000000000  0.0000000000
atom   4.168244    0.000000   4.168244 Al  0.0   0.0  -0.0000000000  0.0000000000  -0.0000000000
atom   4.168244    4.168244   0.000000 Al  0.0   0.0  0.0000000000  0.0000000000  -0.0000000000
energy -78.973284504999995
charge 0.000000000000000
end
begin
comment uuid: 81b6627f-cfc6-40c9-a473-1bfb1007815c 
lattice 8.3975604540 0.0000000000 0.0000000000
lattice 0.0000000000 8.3975604540 0.0000000000
lattice 0.0000000000 0.0000000000 8.3975604540
atom   0.000000    0.000000   0.000000 Al  0.0   0.0  -0.0000000000  -0.0000000000  0.0000000000
atom   0.000000    4.198780   4.198780 Al  0.0   0.0  -0.0000000000  0.0000000000  0.0000000000
atom   4.198780    0.000000   4.198780 Al  0.0   0.0  0.0000000000  0.0000000000  -0.0000000000
atom   4.198780    4.198780   0.000000 Al  0.0   0.0  0.0000000000  -0.0000000000  -0.0000000000
energy -78.968513654999995
charge 0.000000000000000
end
begin
comment uuid: 07103429-0b65-4944-a369-cae06e879f28 
lattice 15.2682917345 0.0000000000 0.0000000000
lattice 0.0000000000 15.2682917345 0.0000000000
lattice 0.0000000000 0.0000000000 15.2682917345
atom   0.000000    0.000000   0.000000 Al  0.0   0.0  0.0000000100  -0.0000000050  0.0000000100
atom   0.000000    3.817073   3.817073 Al  0.0   0.0  0.0000000150  -0.0000000000  -0.0000000050
atom   3.817073    0.000000   3.817073 Al  0.0   0.0  -0.0000000100  0.0000000050  -0.0000000200
atom   3.817073    3.817073   0.000000 Al  0.0   0.0  -0.0000000050  0.0000000050  0.0000000100
atom   0.000000    0.000000   7.634146 Al  0.0   0.0  0.0000000050  -0.0000000050  -0.0000000100
atom   0.000000    3.817073   11.451219 Al  0.0   0.0  0.0000000100  0.0000000050  0.0000000100
atom   3.817073    0.000000   11.451219 Al  0.0   0.0  -0.0000000100  -0.0000000000  0.0000000100
atom   3.817073    3.817073   7.634146 Al  0.0   0.0  -0.0000000050  0.0000000200  0.0000000000
atom   0.000000    7.634146   0.000000 Al  0.0   0.0  0.0000000100  0.0000000050  0.0000000050
atom   0.000000    11.451219   3.817073 Al  0.0   0.0  0.0000000000  0.0000000050  -0.0000000050
atom   3.817073    7.634146   3.817073 Al  0.0   0.0  -0.0000000050  -0.0000000050  -0.0000000050
atom   3.817073    11.451219   0.000000 Al  0.0   0.0  -0.0000000050  -0.0000000100  0.0000000050
atom   0.000000    7.634146   7.634146 Al  0.0   0.0  0.0000000150  0.0000000050  -0.0000000050
atom   0.000000    11.451219   11.451219 Al  0.0   0.0  -0.0000000000  -0.0000000050  0.0000000050
atom   3.817073    7.634146   11.451219 Al  0.0   0.0  0.0000000100  -0.0000000000  0.0000000000
atom   3.817073    11.451219   7.634146 Al  0.0   0.0  0.0000000000  -0.0000000100  0.0000000000
atom   7.634146    0.000000   0.000000 Al  0.0   0.0  -0.0000000100  -0.0000000000  0.0000000050
atom   7.634146    3.817073   3.817073 Al  0.0   0.0  -0.0000000050  0.0000000100  -0.0000000050
atom   11.451219    0.000000   3.817073 Al  0.0   0.0  0.0000000100  -0.0000000100  0.0000000050
atom   11.451219    3.817073   0.000000 Al  0.0   0.0  -0.0000000050  0.0000000150  0.0000000000
atom   7.634146    0.000000   7.634146 Al  0.0   0.0  0.0000000050  -0.0000000100  -0.0000000050
atom   7.634146    3.817073   11.451219 Al  0.0   0.0  0.0000000100  0.0000000200  -0.0000000050
atom   11.451219    0.000000   11.451219 Al  0.0   0.0  -0.0000000000  -0.0000000000  0.0000000050
atom   11.451219    3.817073   7.634146 Al  0.0   0.0  -0.0000000100  0.0000000000  0.0000000050
atom   7.634146    7.634146   0.000000 Al  0.0   0.0  -0.0000000000  0.0000000050  -0.0000000000
atom   7.634146    11.451219   3.817073 Al  0.0   0.0  0.0000000050  -0.0000000100  0.0000000050
atom   11.451219    7.634146   3.817073 Al  0.0   0.0  -0.0000000100  0.0000000050  -0.0000000150
atom   11.451219    11.451219   0.000000 Al  0.0   0.0  -0.0000000000  -0.0000000150  -0.0000000000
atom   7.634146    7.634146   7.634146 Al  0.0   0.0  -0.0000000100  0.0000000050  0.0000000050
atom   7.634146    11.451219   11.451219 Al  0.0   0.0  -0.0000000000  -0.0000000100  0.0000000000
atom   11.451219    7.634146   11.451219 Al  0.0   0.0  -0.0000000100  0.0000000000  0.0000000100
atom   11.451219    11.451219   7.634146 Al  0.0   0.0  -0.0000000050  -0.0000000050  -0.0000000100
energy -632.044405374999997
charge 0.000000000000000
end
begin
comment uuid: 71a9e222-2ca2-4852-b53c-8a83bc867270 
lattice 15.2682917345 0.0000000000 0.0000000000
lattice 0.0000000000 15.2682917345 0.0000000000
lattice 0.0000000000 0.0000000000 15.2682917345
atom   0.142677    0.036587   0.068133 Al  0.0   0.0  -0.0049667100  -0.0005267100  -0.0073388500
atom   0.052368    3.809932   3.672873 Al  0.0   0.0  -0.0034258550  -0.0028277050  0.0090537700
atom   3.732224    -0.058072   3.779395 Al  0.0   0.0  0.0068842800  0.0035444500  0.0064850400
atom   3.774473    3.953863   0.046155 Al  0.0   0.0  0.0050715250  -0.0086040350  -0.0073388700
atom   -0.235887    -0.046868   7.674786 Al  0.0   0.0  0.0074547350  0.0045711400  -0.0022122350
atom   -0.011859    3.781857   11.330497 Al  0.0   0.0  -0.0007931400  -0.0001547350  0.0063614700
atom   3.884022    -0.118475   11.309935 Al  0.0   0.0  -0.0010923000  0.0063319850  0.0076542000
atom   3.791215    3.690879   7.620669 Al  0.0   0.0  0.0017613100  -0.0023493650  -0.0057362750
atom   0.051608    7.676472   0.180555 Al  0.0   0.0  -0.0045703850  0.0051749000  -0.0112102650
atom   -0.048765    11.579437   3.828852 Al  0.0   0.0  0.0000866550  -0.0068239250  0.0012734850
atom   3.865476    7.536249   3.736743 Al  0.0   0.0  0.0022213650  0.0079988300  0.0049866100
atom   3.923903    11.519768   0.056220 Al  0.0   0.0  -0.0002175400  -0.0060585650  -0.0027159850
atom   0.076936    7.530960   7.556388 Al  0.0   0.0  -0.0021041750  0.0048803200  0.0008799100
atom   0.076893    11.516187   11.478868 Al  0.0   0.0  -0.0033319050  -0.0077576950  0.0038984900
atom   3.837767    7.400591   11.348178 Al  0.0   0.0  -0.0013394200  0.0107877600  0.0045880150
atom   3.712003    11.490336   7.643351 Al  0.0   0.0  0.0041323850  -0.0051565550  -0.0032430550
atom   7.718562    0.052209   0.230215 Al  0.0   0.0  -0.0077082950  0.0024522150  -0.0106629150
atom   7.737009    3.886250   3.719006 Al  0.0   0.0  -0.0055459850  -0.0037532400  0.0061445900
atom   11.386707    0.020114   3.852789 Al  0.0   0.0  0.0062890750  0.0041406700  0.0014544550
atom   11.495514    3.827584   -0.018635 Al  0.0   0.0  0.0028656500  -0.0005023200  -0.0034430150
atom   7.765855    -0.129688   7.672013 Al  0.0   0.0  -0.0068948250  0.0060924600  -0.0024342000
atom   7.613774    3.776993   11.343740 Al  0.0   0.0  0.0009953550  -0.0041281750  0.0052450950
atom   11.458697    -0.048431   11.550879 Al  0.0   0.0  -0.0000911100  0.0032659550  0.0019483500
atom   11.398069    3.858353   7.649017 Al  0.0   0.0  0.0015490950  -0.0035037700  -0.0018297750
atom   7.778000    7.532418   -0.066218 Al  0.0   0.0  -0.0037356450  0.0062245850  0.0000044600
atom   7.781745    11.466574   3.872419 Al  0.0   0.0  -0.0085310750  -0.0056379300  0.0016594400
atom   11.502313    7.539163   3.896634 Al  0.0   0.0  0.0001854500  0.0064801650  -0.0017344250
atom   11.340418    11.595491   0.139106 Al  0.0   0.0  0.0086666700  -0.0081363850  -0.0057525250
atom   7.562995    7.578826   7.578576 Al  0.0   0.0  -0.0004654550  0.0041041750  0.0002782350
atom   7.665427    11.484907   11.519867 Al  0.0   0.0  -0.0027681350  -0.0045256850  0.0000728000
atom   11.374317    7.617920   11.328485 Al  0.0   0.0  0.0066005950  0.0025584150  0.0054290050
atom   11.427299    11.497979   7.726762 Al  0.0   0.0  0.0028178100  -0.0081612150  -0.0017650350
energy -632.026860130000046
charge 0.000000000000000
end
begin
comment uuid: f5e490ca-d8b6-42e8-859c-f7efc05e7109 
lattice 15.2682917345 0.0000000000 0.0000000000
lattice 0.0000000000 15.2682917345 0.0000000000
lattice 0.0000000000 0.0000000000 15.2682917345
atom   -0.012344    0.003477   0.027278 Al  0.0   0.0  -0.0015275300  -0.0032862150  -0.0055272700
atom   0.126476    3.935943   3.820908 Al  0.0   0.0  -0.0081509150  0.0013573900  0.0004950950
atom   3.657061    0.147139   3.724966 Al  0.0   0.0  0.0064818350  -0.0084119850  0.0075195450
atom   3.775264    3.702688   -0.019581 Al  0.0   0.0  0.0051023250  0.0080038600  -0.0050011550
atom   -0.022640    -0.100048   7.678635 Al  0.0   0.0  0.0011819200  0.0086246800  -0.0050149600
atom   0.012222    3.857577   11.405216 Al  0.0   0.0  0.0018647800  -0.0040543000  0.0025912600
atom   3.869336    -0.081514   11.512850 Al  0.0   0.0  -0.0005173100  0.0071700200  -0.0044053700
atom   3.810028    3.865712   7.682024 Al  0.0   0.0  -0.0011927200  -0.0061428850  -0.0005844550
atom   0.060659    7.744238   -0.167370 Al  0.0   0.0  0.0014667550  -0.0030135350  0.0075496050
atom   -0.055686    11.428285   3.956454 Al  0.0   0.0  0.0010995250  0.0003014250  -0.0059251150
atom   3.808057    7.639932   3.802850 Al  0.0   0.0  -0.0013303400  0.0034420600  -0.0012131800
atom   3.852850    11.521024   -0.152299 Al  0.0   0.0  -0.0041042650  -0.0049504100  0.0075824450
atom   -0.096763    7.626564   7.687995 Al  0.0   0.0  0.0002243900  -0.0011709950  -0.0052021900
atom   -0.009725    11.453966   11.159273 Al  0.0   0.0  -0.0045877150  0.0011436600  0.0132180650
atom   3.834940    7.701724   11.295363 Al  0.0   0.0  0.0019449850  -0.0059740100  0.0091577400
atom   3.828314    11.438510   7.780283 Al  0.0   0.0  0.0019260300  0.0023933300  -0.0116729450
atom   7.672614    -0.090392   0.073493 Al  0.0   0.0  0.0000605050  0.0026179550  -0.0024419250
atom   7.583099    3.823246   3.878036 Al  0.0   0.0  -0.0009116900  -0.0027597550  -0.0028345150
atom   11.541632    0.219862   3.699037 Al  0.0   0.0  -0.0019950000  -0.0103040300  0.0085721850
atom   11.409686    3.707539   0.090776 Al  0.0   0.0  0.0020690750  0.0089556350  -0.0052173300
atom   7.740346    -0.102278   7.648791 Al  0.0   0.0  -0.0099495950  0.0056461700  -0.0037618600
atom   7.794550    3.727627   11.310784 Al  0.0   0.0  -0.0103166000  0.0038212550  0.0104197000
atom   11.475275    0.123189   11.349334 Al  0.0   0.0  0.0024543550  -0.0078065950  0.0070995150
atom   11.344134    3.830272   7.664958 Al  0.0   0.0  0.0089047550  0.0002599300  -0.0056852700
atom   7.659113    7.633603   0.068468 Al  0.0   0.0  -0.0028193350  -0.0026605950  -0.0039709700
atom   7.505140    11.481290   3.885060 Al  0.0   0.0  0.0008309500  0.0008094850  -0.0039525700
atom   11.339324    7.663903   3.917989 Al  0.0   0.0  0.0048029150  -0.0003205750  -0.0046259200
atom   11.491584    11.371568   -0.054926 Al  0.0   0.0  0.0000890400  0.0046861950  0.0024890450
atom   7.576036    7.506154   7.601448 Al  0.0   0.0  0.0021088250  0.0066365350  0.0031605500
atom   7.639964    11.434730   11.466884 Al  0.0   0.0  0.0043337200  -0.0025787500  0.0009707100
atom   11.558830    7.546869   11.575835 Al  0.0   0.0  -0.0070658850  0.0033194350  -0.0047855850
atom   11.231161    11.526709   7.587426 Al  0.0   0.0  0.0075222200  -0.0057543750  0.0009971300
energy -632.025071990000015
charge 0.000000000000000
end
begin
comment uuid: 65a74166-6cef-4f1d-b042-5748073d28c4 
lattice 15.2682917345 0.0000000000 0.0000000000
lattice 0.0000000000 15.2682917345 0.0000000000
lattice 0.0000000000 0.0000000000 15.2682917345
atom   0.108505    -0.082009   -0.032817 Al  0.0   0.0  -0.0030678050  0.0042644700  0.0039948150
atom   -0.026010    3.734886   3.661393 Al  0.0   0.0  -0.0010819600  0.0016100900  0.0073626650
atom   3.877151    -0.026275   3.808014 Al  0.0   0.0  -0.0064609200  0.0012303450  -0.0017723300
atom   3.747870    3.820018   -0.053920 Al  0.0   0.0  0.0044952200  -0.0010577700  0.0049020700
atom   -0.084192    -0.050387   7.744490 Al  0.0   0.0  0.0032636750  0.0013229600  -0.0074870200
atom   0.035964    3.751750   11.444813 Al  0.0   0.0  -0.0045035800  0.0071725800  -0.0013483650
atom   3.780391    0.082177   11.538747 Al  0.0   0.0  0.0040260250  -0.0051880050  -0.0040708000
atom   3.789886    3.786744   7.560009 Al  0.0   0.0  -0.0026570250  0.0025329150  0.0005033150
atom   0.063673    7.611037   0.124326 Al  0.0   0.0  -0.0037500350  -0.0017260450  -0.0035698150
atom   -0.115111    11.526186   3.774752 Al  0.0   0.0  0.0052907650  -0.0007734650  0.0045143600
atom   3.942806    7.743967   3.846039 Al  0.0   0.0  -0.0058059100  -0.0044592700  0.0042213200
atom   3.870369    11.342349   0.100617 Al  0.0   0.0  -0.0048953450  0.0075537200  -0.0046862150
atom   0.010568    7.719355   7.512858 Al  0.0   0.0  0.0013242150  -0.0045100450  0.0053461800
atom   -0.069161    11.577012   11.541113 Al  0.0   0.0  0.0075656600  -0.0087287500  -0.0078991750
atom   3.821078    7.545212   11.574032 Al  0.0   0.0  -0.0049618900  0.0054181150  -0.0080893300
atom   3.816785    11.504181   7.671630 Al  0.0   0.0  -0.0033846150  -0.0041085600  0.0014087750
atom   7.709178    -0.034594   -0.066721 Al  0.0   0.0  -0.0030357350  -0.0008545500  -0.0005229000
atom   7.532161    3.834611   3.737437 Al  0.0   0.0  0.0028708300  0.0004022800  0.0009999100
atom   11.341542    0.017335   3.804785 Al  0.0   0.0  0.0039805450  0.0001628100  -0.0000645350
atom   11.364462    3.697018   -0.054692 Al  0.0   0.0  0.0023712750  0.0082954350  0.0003824250
atom   7.494181    -0.092290   7.540770 Al  0.0   0.0  0.0054611050  0.0045951600  0.0071374900
atom   7.527438    3.881229   11.383480 Al  0.0   0.0  0.0040413450  -0.0031185900  0.0024221000
atom   11.492703    0.057239   11.442464 Al  0.0   0.0  -0.0070044900  -0.0046156500  -0.0001223700
atom   11.357213    3.686195   7.701345 Al  0.0   0.0  0.0030771950  0.0041465000  -0.0042727800
atom   7.533516    7.767499   0.040849 Al  0.0   0.0  0.0109679750  -0.0072662950  -0.0011280450
atom   7.604008    11.552631   3.783462 Al  0.0   0.0  0.0042596750  -0.0041339600  -0.0003653900
atom   11.370161    7.623021   3.951950 Al  0.0   0.0  0.0022541000  -0.0032449550  -0.0089716800
atom   11.719075    11.399821   -0.080192 Al  0.0   0.0  -0.0149080250  0.0003976950  0.0046488500
atom   7.755421    7.622304   7.668935 Al  0.0   0.0  -0.0088691750  -0.0003150650  -0.0007749500
atom   7.524727    11.393492   11.482463 Al  0.0   0.0  0.0041836800  0.0045718750  -0.0014941550
atom   11.440092    7.715530   11.395073 Al  0.0   0.0  0.0032927900  -0.0050103250  0.0041724600
atom   11.371011    11.398138   7.554343 Al  0.0   0.0  0.0016604300  0.0054343500  0.0046231100
energy -632.028050705000055
charge 0.000000000000000
end
begin
comment uuid: 9d4f7008-586a-4212-8f39-237489939a60 
lattice 15.2682917345 0.0000000000 0.0000000000
lattice 0.0000000000 15.2682917345 0.0000000000
lattice 0.0000000000 0.0000000000 15.2682917345
atom   -0.021440    -0.099007   -0.007504 Al  0.0   0.0  0.0049333300  0.0033482150  -0.0000684200
atom   0.012827    3.777110   3.708483 Al  0.0   0.0  0.0032699850  0.0012332700  0.0075900450
atom   3.972096    -0.044832   3.579831 Al  0.0   0.0  -0.0064075050  0.0012283550  0.0086743550
atom   3.833578    3.817870   0.041388 Al  0.0   0.0  0.0018527600  0.0004659900  -0.0033257500
atom   0.053246    0.053107   7.735553 Al  0.0   0.0  -0.0060201100  -0.0030351150  -0.0105811700
atom   0.133928    3.785247   11.374749 Al  0.0   0.0  -0.0079700000  0.0010583800  0.0070611100
atom   3.695491    -0.158536   11.263160 Al  0.0   0.0  0.0098363650  0.0073390250  0.0122607550
atom   3.787300    3.799285   7.713740 Al  0.0   0.0  0.0018026650  0.0015533050  -0.0102837900
atom   0.041961    7.588979   0.120439 Al  0.0   0.0  -0.0017056800  0.0019534450  -0.0033642350
atom   -0.080314    11.484902   3.827459 Al  0.0   0.0  0.0028001450  0.0004494300  0.0024047800
atom   3.953803    7.816637   3.870879 Al  0.0   0.0  -0.0048887500  -0.0069116400  -0.0024447300
atom   3.874783    11.449332   -0.122217 Al  0.0   0.0  -0.0006145000  -0.0002296450  0.0044283050
atom   -0.051333    7.671589   7.672346 Al  0.0   0.0  0.0010071650  -0.0015171150  -0.0055823200
atom   0.004205    11.458385   11.543568 Al  0.0   0.0  -0.0030972150  -0.0033927550  -0.0024018450
atom   3.694292    7.650825   11.401581 Al  0.0   0.0  0.0042394300  -0.0009938850  0.0016697400
atom   3.788481    11.564988   7.637710 Al  0.0   0.0  0.0012385800  -0.0051398150  -0.0051910250
atom   7.795458    0.126242   -0.003131 Al  0.0   0.0  -0.0099270150  -0.0057104450  -0.0063065500
atom   7.749337    3.688918   3.893462 Al  0.0   0.0  -0.0084345850  0.0098352850  -0.0033135600
atom   11.391872    0.107379   3.717673 Al  0.0   0.0  0.0077822350  -0.0094830300  0.0084665350
atom   11.516733    3.662166   0.030129 Al  0.0   0.0  0.0008722100  0.0123910500  -0.0066088650
atom   7.683240    0.037172   7.664817 Al  0.0   0.0  -0.0030075900  -0.0054344050  -0.0005364750
atom   7.570438    3.791464   11.364789 Al  0.0   0.0  0.0026471800  0.0006951450  0.0041013650
atom   11.466080    -0.064361   11.552784 Al  0.0   0.0  -0.0005610900  0.0027456900  -0.0058597450
atom   11.428100    3.674981   7.571905 Al  0.0   0.0  0.0047524400  0.0067633400  0.0051821800
atom   7.663541    7.589650   -0.120097 Al  0.0   0.0  0.0006211750  -0.0022675000  0.0039841600
atom   7.682263    11.500467   3.753318 Al  0.0   0.0  0.0004075850  -0.0008592800  0.0028584700
atom   11.382910    7.645127   3.827177 Al  0.0   0.0  0.0020804200  -0.0009649650  0.0000422650
atom   11.433367    11.510546   0.035725 Al  0.0   0.0  0.0003274800  -0.0063631050  -0.0012100250
atom   7.587402    7.597717   7.606286 Al  0.0   0.0  0.0025598000  0.0019064900  0.0018578200
atom   7.589951    11.342190   11.476159 Al  0.0   0.0  0.0021932450  0.0040390500  -0.0021187550
atom   11.543112    7.643159   11.409573 Al  0.0   0.0  -0.0029912500  -0.0044767000  0.0035635850
atom   11.424622    11.499810   7.745468 Al  0.0   0.0  0.0004011050  -0.0002260650  -0.0049482050
energy -632.027842910000004
charge 0.000000000000000
end
begin
comment uuid: 948d6d2e-0e6a-4969-9749-8e94cf9c72de 
lattice 15.2682917345 0.0000000000 0.0000000000
lattice 0.0000000000 15.2682917345 0.0000000000
lattice 0.0000000000 0.0000000000 15.2682917345