begin
comment 4 atoms, species Al4
lattice      7.6367056677    -0.3818352834    -0.0000000000
lattice     -0.3818352834     7.6367056677    -0.0000000000
lattice     -0.0000000000    -0.0000000000     7.6558452809
atom      0.0000000000     0.0000000000     0.0000000000   Al  0.0 0.0   -2.84421336e-13 -2.32656073e-13  6.01225929e-14
atom     -0.1909176417     3.8183528338     3.8279226404   Al  0.0 0.0   -1.82028944e-13  7.10589962e-14 -6.05255272e-14
atom      3.8183528338    -0.1909176417     3.8279226404   Al  0.0 0.0    1.81929260e-13 -7.11071096e-14 -6.04744209e-14
atom      3.6274351922     3.6274351922    -0.0000000000   Al  0.0 0.0    2.84501990e-13  2.32518148e-13  6.03271991e-14
energy -7.900254906315165e+01
charge 0.0000
end
begin
comment 4 atoms, species Al4
lattice      7.6367056677    -0.2969829982    -0.0000000000
lattice     -0.2969829982     7.6367056677    -0.0000000000
lattice     -0.0000000000    -0.0000000000     7.6482724996
atom      0.0000000000     0.0000000000     0.0000000000   Al  0.0 0.0    8.83067372e-14 -1.78540685e-13 -9.90456916e-14
atom     -0.1484914991     3.8183528338     3.8241362498   Al  0.0 0.0    2.09832913e-13  2.59474276e-13  9.89079836e-14
atom      3.8183528338    -0.1484914991     3.8241362498   Al  0.0 0.0   -2.09732340e-13 -2.59440409e-13  9.89537539e-14
atom      3.6698613348     3.6698613348    -0.0000000000   Al  0.0 0.0   -8.83066713e-14  1.78427787e-13 -9.91088069e-14
energy -7.900377267234097e+01
charge 0.0000
end
begin
comment 4 atoms, species Al4
lattice      7.6367056677    -0.2121307130    -0.0000000000
lattice     -0.2121307130     7.6367056677    -0.0000000000
lattice     -0.0000000000    -0.0000000000     7.6426027377
atom      0.0000000000     0.0000000000     0.0000000000   Al  0.0 0.0   -1.63584101e-13 -1.71438118e-13 -1.89559377e-13
atom     -0.1060653565     3.8183528338     3.8213013689   Al  0.0 0.0   -8.34038656e-14  1.23073325e-13  1.89533502e-13
atom      3.8183528338    -0.1060653565     3.8213013689   Al  0.0 0.0    8.33373869e-14 -1.22966235e-13  1.89509938e-13
atom      3.7122874773     3.7122874773    -0.0000000000   Al  0.0 0.0    1.63631710e-13  1.71432948e-13 -1.89790786e-13
energy -7.900465527799049e+01
charge 0.0000
end
begin
comment 4 atoms, species Al4
lattice      7.6367056677    -0.1272784278    -0.0000000000
lattice     -0.1272784278     7.6367056677    -0.0000000000
lattice     -0.0000000000    -0.0000000000     7.6388275642
atom      0.0000000000     0.0000000000     0.0000000000   Al  0.0 0.0   -3.93752749e-14  1.32168894e-13  3.67887991e-14
atom     -0.0636392139     3.8183528338     3.8194137821   Al  0.0 0.0   -9.34910060e-14 -1.47906736e-13 -3.67437784e-14
atom      3.8183528338    -0.0636392139     3.8194137821   Al  0.0 0.0    9.35005169e-14  1.47959144e-13 -3.67804121e-14
atom      3.7547136199     3.7547136199    -0.0000000000   Al  0.0 0.0    3.93499513e-14 -1.32392706e-13  3.66468254e-14
energy -7.900522955828087e+01
charge 0.0000
end
begin
comment 4 atoms, species Al4
lattice      7.6367056677    -0.0424261426    -0.0000000000
lattice     -0.0424261426     7.6367056677    -0.0000000000
lattice     -0.0000000000    -0.0000000000     7.6369413758
atom      0.0000000000     0.0000000000     0.0000000000   Al  0.0 0.0   -7.49177092e-14  1.09396231e-13  1.49358429e-13
atom     -0.0212130713     3.8183528338     3.8184706879   Al  0.0 0.0   -8.34358348e-14 -1.15532680e-13 -1.49464789e-13
atom      3.8183528338    -0.0212130713     3.8184706879   Al  0.0 0.0    8.33525453e-14  1.15448302e-13 -1.49370346e-13
atom      3.7971397625     3.7971397625    -0.0000000000   Al  0.0 0.0    7.49112332e-14 -1.09414226e-13  1.49400025e-13
energy -7.900551289224363e+01
charge 0.0000
end
begin
comment 4 atoms, species Al4
lattice      7.6367056677     0.0424261426    -0.0000000000
lattice      0.0424261426     7.6367056677    -0.0000000000
lattice     -0.0000000000    -0.0000000000     7.6369413758
atom      0.0000000000     0.0000000000     0.0000000000   Al  0.0 0.0   -8.32128281e-14  1.15615007e-13  1.49288139e-13
atom      0.0212130713     3.8183528338     3.8184706879   Al  0.0 0.0   -7.48526784e-14 -1.09248462e-13 -1.49043154e-13
atom      3.8183528338     0.0212130713     3.8184706879   Al  0.0 0.0    7.49903415e-14  1.09147312e-13 -1.49387551e-13
atom      3.8395659051     3.8395659051    -0.0000000000   Al  0.0 0.0    8.31454233e-14 -1.15529777e-13  1.49257276e-13
energy -7.900551289224363e+01
charge 0.0000
end
begin
comment 4 atoms, species Al4
lattice      7.6367056677     0.1272784278    -0.0000000000
lattice      0.1272784278     7.6367056677    -0.0000000000
lattice     -0.0000000000    -0.0000000000     7.6388275642
atom      0.0000000000     0.0000000000     0.0000000000   Al  0.0 0.0   -9.34754822e-14  1.47882230e-13  3.67514467e-14
atom      0.0636392139     3.8183528338     3.8194137821   Al  0.0 0.0   -3.93845929e-14 -1.32192836e-13 -3.67885273e-14
atom      3.8183528338     0.0636392139     3.8194137821   Al  0.0 0.0    3.93311646e-14  1.32374106e-13 -3.67594471e-14
atom      3.8819920477     3.8819920477    -0.0000000000   Al  0.0 0.0    9.35961963e-14 -1.47999251e-13  3.67788900e-14
energy -7.900522955828087e+01
charge 0.0000
end
begin
comment 4 atoms, species Al4
lattice      7.6367056677     0.2121307130    -0.0000000000
lattice      0.2121307130     7.6367056677    -0.0000000000
lattice     -0.0000000000    -0.0000000000     7.6426027377
atom      0.0000000000     0.0000000000     0.0000000000   Al  0.0 0.0   -8.33808695e-14 -1.23006996e-13 -1.89289690e-13
atom      0.1060653565     3.8183528338     3.8213013689   Al  0.0 0.0   -1.63591977e-13  1.71371753e-13  1.89594182e-13
atom      3.8183528338     0.1060653565     3.8213013689   Al  0.0 0.0    1.63585371e-13 -1.71483845e-13  1.89318029e-13
atom      3.9244181903     3.9244181903    -0.0000000000   Al  0.0 0.0    8.34565117e-14  1.22966439e-13 -1.89624271e-13
energy -7.900465527799049e+01
charge 0.0000
end
begin
comment 4 atoms, species Al4
lattice      7.6367056677     0.2969829982    -0.0000000000
lattice      0.2969829982     7.6367056677    -0.0000000000
lattice     -0.0000000000    -0.0000000000     7.6482724996
atom      0.0000000000     0.0000000000     0.0000000000   Al  0.0 0.0    2.09814209e-13 -2.59465584e-13 -9.90763956e-14
atom      0.1484914991     3.8183528338     3.8241362498   Al  0.0 0.0    8.83821296e-14  1.78379946e-13  9.90041356e-14
atom      3.8183528338     0.1484914991     3.8241362498   Al  0.0 0.0   -8.83484508e-14 -1.78440351e-13  9.89089800e-14
atom      3.9668443329     3.9668443329    -0.0000000000   Al  0.0 0.0   -2.09865006e-13  2.59521677e-13 -9.90586415e-14
energy -7.900377267234097e+01
charge 0.0000
end
begin
comment 4 atoms, species Al4
lattice      7.6367056677     0.3818352834    -0.0000000000
lattice      0.3818352834     7.6367056677    -0.0000000000
lattice     -0.0000000000    -0.0000000000     7.6558452809
atom      0.0000000000     0.0000000000     0.0000000000   Al  0.0 0.0   -1.82068108e-13 -7.12052504e-14  6.02310698e-14
atom      0.1909176417     3.8183528338     3.8279226404   Al  0.0 0.0   -2.84354088e-13  2.32575736e-13 -6.04930768e-14
atom      3.8183528338     0.1909176417     3.8279226404   Al  0.0 0.0    2.84359287e-13 -2.32358154e-13 -6.05733583e-14
atom      4.0092704755     4.0092704755    -0.0000000000   Al  0.0 0.0    1.82140501e-13  7.11949538e-14  6.03571620e-14
energy -7.900254906315165e+01
charge 0.0000
end
