begin
comment uuid: d7dac1cb-ee87-4461-ab4a-7b9936f14816 parent_uuid: 4c3843d7-8355-4b7b-b4e8-830f92b1b176 trajectory_step: final_scf
lattice     27.9034359104    -0.0000000015    -7.8194272980
lattice     -0.0000000012    23.0334364860     0.0000000000
lattice     -0.1123719256    -0.0000000004    25.6518779922
atom     -0.0161710000     0.0000000000    12.6681120000   Mg  0.0 0.0    0.00000000e+00  0.00000000e+00  0.00000000e+00
atom      2.0894050000     3.8389060000     3.8613850000   Mg  0.0 0.0    0.00000000e+00  0.00000000e+00  0.00000000e+00
atom      4.2769530000     3.8389060000    10.3430660000   Mg  0.0 0.0    0.00000000e+00  0.00000000e+00  0.00000000e+00
atom      9.6986060000     0.0000000000    -1.7425290000   Mg  0.0 0.0    0.00000000e+00  0.00000000e+00  0.00000000e+00
atom     11.8861370000     0.0000000000     4.7391860000   Mg  0.0 0.0    0.00000000e+00  0.00000000e+00  0.00000000e+00
atom      1.6135760000     0.0000000000     7.8328790000   Si  0.0 0.0    0.00000000e+00  0.00000000e+00  0.00000000e+00
atom      5.2178020000     0.0000000000     1.2374370000   Si  0.0 0.0    0.00000000e+00  0.00000000e+00  0.00000000e+00
atom      6.0502260000     0.0000000000     6.0678970000   Al  0.0 0.0    0.00000000e+00  0.00000000e+00  0.00000000e+00
atom      7.9252920000     3.8389060000     2.5326650000   Al  0.0 0.0    0.00000000e+00  0.00000000e+00  0.00000000e+00
atom      8.7577440000     3.8389060000     7.3631170000   Si  0.0 0.0    0.00000000e+00  0.00000000e+00  0.00000000e+00
atom     12.3619050000     3.8389060000     0.7676710000   Si  0.0 0.0    0.00000000e+00  0.00000000e+00  0.00000000e+00
atom     13.9355470000     3.8389060000     8.7583980000   Mg  0.0 0.0    0.00000000e+00  0.00000000e+00  0.00000000e+00
atom     16.0411230000     0.0000000000    -0.0483290000   Mg  0.0 0.0    0.00000000e+00  0.00000000e+00  0.00000000e+00
atom     18.2286710000     0.0000000000     6.4333530000   Mg  0.0 0.0    0.00000000e+00  0.00000000e+00  0.00000000e+00
atom     23.6503240000     3.8389060000    -5.6522430000   Mg  0.0 0.0    0.00000000e+00  0.00000000e+00  0.00000000e+00
atom     25.8378550000     3.8389060000     0.8294720000   Mg  0.0 0.0    0.00000000e+00  0.00000000e+00  0.00000000e+00
atom     15.5652940000     3.8389060000     3.9231650000   Si  0.0 0.0    0.00000000e+00  0.00000000e+00  0.00000000e+00
atom     19.1695200000     3.8389060000    -2.6722770000   Si  0.0 0.0    0.00000000e+00  0.00000000e+00  0.00000000e+00
atom     20.0019440000     3.8389060000     2.1581840000   Al  0.0 0.0    0.00000000e+00  0.00000000e+00  0.00000000e+00
atom     21.8770100000     0.0000000000    -1.3770490000   Al  0.0 0.0    0.00000000e+00  0.00000000e+00  0.00000000e+00
atom     22.7094620000     0.0000000000     3.4534030000   Si  0.0 0.0    0.00000000e+00  0.00000000e+00  0.00000000e+00
atom     26.3136230000     0.0000000000    -3.1420430000   Si  0.0 0.0    0.00000000e+00  0.00000000e+00  0.00000000e+00
atom     -0.0723569628    -0.0000000002    25.4940509961   Mg  0.0 0.0    0.00000000e+00  0.00000000e+00  0.00000000e+00
atom      2.0332190372     3.8389059998    16.6873239961   Mg  0.0 0.0    0.00000000e+00  0.00000000e+00  0.00000000e+00
atom      4.2207670372     3.8389059998    23.1690049961   Mg  0.0 0.0    0.00000000e+00  0.00000000e+00  0.00000000e+00
atom      9.6424200372    -0.0000000002    11.0834099961   Mg  0.0 0.0    0.00000000e+00  0.00000000e+00  0.00000000e+00
atom     11.8299510372    -0.0000000002    17.5651249961   Mg  0.0 0.0    0.00000000e+00  0.00000000e+00  0.00000000e+00
atom      1.5573900372    -0.0000000002    20.6588179961   Si  0.0 0.0    0.00000000e+00  0.00000000e+00  0.00000000e+00
atom      5.1616160372    -0.0000000002    14.0633759961   Si  0.0 0.0    0.00000000e+00  0.00000000e+00  0.00000000e+00
atom      5.9940400372    -0.0000000002    18.8938359961   Al  0.0 0.0    0.00000000e+00  0.00000000e+00  0.00000000e+00
atom      7.8691060372     3.8389059998    15.3586039961   Al  0.0 0.0    0.00000000e+00  0.00000000e+00  0.00000000e+00
atom      8.7015580372     3.8389059998    20.1890559961   Si  0.0 0.0    0.00000000e+00  0.00000000e+00  0.00000000e+00
atom     12.3057190372     3.8389059998    13.5936099961   Si  0.0 0.0    0.00000000e+00  0.00000000e+00  0.00000000e+00
atom     13.8793610372     3.8389059998    21.5843369961   Mg  0.0 0.0    0.00000000e+00  0.00000000e+00  0.00000000e+00
atom     15.9849370372    -0.0000000002    12.7776099961   Mg  0.0 0.0    0.00000000e+00  0.00000000e+00  0.00000000e+00
atom     18.1724850372    -0.0000000002    19.2592919961   Mg  0.0 0.0    0.00000000e+00  0.00000000e+00  0.00000000e+00
atom     23.5941380372     3.8389059998     7.1736959961   Mg  0.0 0.0    0.00000000e+00  0.00000000e+00  0.00000000e+00
atom     25.7816690372     3.8389059998    13.6554109961   Mg  0.0 0.0    0.00000000e+00  0.00000000e+00  0.00000000e+00
atom     15.5091080372     3.8389059998    16.7491039961   Si  0.0 0.0    0.00000000e+00  0.00000000e+00  0.00000000e+00
atom     19.1133340372     3.8389059998    10.1536619961   Si  0.0 0.0    0.00000000e+00  0.00000000e+00  0.00000000e+00
atom     19.9457580372     3.8389059998    14.9841229961   Al  0.0 0.0    0.00000000e+00  0.00000000e+00  0.00000000e+00
atom     21.8208240372    -0.0000000002    11.4488899961   Al  0.0 0.0    0.00000000e+00  0.00000000e+00  0.00000000e+00
atom     22.6532760372    -0.0000000002    16.2793419961   Si  0.0 0.0    0.00000000e+00  0.00000000e+00  0.00000000e+00
atom     26.2574370372    -0.0000000002     9.6838959961   Si  0.0 0.0    0.00000000e+00  0.00000000e+00  0.00000000e+00
atom     -0.0161710004     7.6778121620    12.6681120000   Mg  0.0 0.0    0.00000000e+00  0.00000000e+00  0.00000000e+00
atom      2.0894049996    11.5167181620     3.8613850000   Mg  0.0 0.0    0.00000000e+00  0.00000000e+00  0.00000000e+00
atom      4.2769529996    11.5167181620    10.3430660000   Mg  0.0 0.0    0.00000000e+00  0.00000000e+00  0.00000000e+00
atom      9.6986059996     7.6778121620    -1.7425290000   Mg  0.0 0.0    0.00000000e+00  0.00000000e+00  0.00000000e+00
atom     11.8861369996     7.6778121620     4.7391860000   Mg  0.0 0.0    0.00000000e+00  0.00000000e+00  0.00000000e+00
atom      1.6135759996     7.6778121620     7.8328790000   Si  0.0 0.0    0.00000000e+00  0.00000000e+00  0.00000000e+00
atom      5.2178019996     7.6778121620     1.2374370000   Si  0.0 0.0    0.00000000e+00  0.00000000e+00  0.00000000e+00
atom      6.0502259996     7.6778121620     6.0678970000   Al  0.0 0.0    0.00000000e+00  0.00000000e+00  0.00000000e+00
atom      7.9252919996    11.5167181620     2.5326650000   Al  0.0 0.0    0.00000000e+00  0.00000000e+00  0.00000000e+00
atom      8.7577439996    11.5167181620     7.3631170000   Si  0.0 0.0    0.00000000e+00  0.00000000e+00  0.00000000e+00
atom     12.3619049996    11.5167181620     0.7676710000   Si  0.0 0.0    0.00000000e+00  0.00000000e+00  0.00000000e+00
atom     13.9355469996    11.5167181620     8.7583980000   Mg  0.0 0.0    0.00000000e+00  0.00000000e+00  0.00000000e+00
atom     16.0411229996     7.6778121620    -0.0483290000   Mg  0.0 0.0    0.00000000e+00  0.00000000e+00  0.00000000e+00
atom     18.2286709996     7.6778121620     6.4333530000   Mg  0.0 0.0    0.00000000e+00  0.00000000e+00  0.00000000e+00
atom     23.6503239996    11.5167181620    -5.6522430000   Mg  0.0 0.0    0.00000000e+00  0.00000000e+00  0.00000000e+00
atom     25.8378549996    11.5167181620     0.8294720000   Mg  0.0 0.0    0.00000000e+00  0.00000000e+00  0.00000000e+00
atom     15.5652939996    11.5167181620     3.9231650000   Si  0.0 0.0    0.00000000e+00  0.00000000e+00  0.00000000e+00
atom     19.1695199996    11.5167181620    -2.6722770000   Si  0.0 0.0    0.00000000e+00  0.00000000e+00  0.00000000e+00
atom     20.0019439996    11.5167181620     2.1581840000   Al  0.0 0.0    0.00000000e+00  0.00000000e+00  0.00000000e+00
atom     21.8770099996     7.6778121620    -1.3770490000   Al  0.0 0.0    0.00000000e+00  0.00000000e+00  0.00000000e+00
atom     22.7094619996     7.6778121620     3.4534030000   Si  0.0 0.0    0.00000000e+00  0.00000000e+00  0.00000000e+00
atom     26.3136229996     7.6778121620    -3.1420430000   Si  0.0 0.0    0.00000000e+00  0.00000000e+00  0.00000000e+00
atom     -0.0723569632     7.6778121618    25.4940509961   Mg  0.0 0.0    0.00000000e+00  0.00000000e+00  0.00000000e+00
atom      2.0332190368    11.5167181618    16.6873239961   Mg  0.0 0.0    0.00000000e+00  0.00000000e+00  0.00000000e+00
atom      4.2207670368    11.5167181618    23.1690049961   Mg  0.0 0.0    0.00000000e+00  0.00000000e+00  0.00000000e+00
atom      9.6424200368     7.6778121618    11.0834099961   Mg  0.0 0.0    0.00000000e+00  0.00000000e+00  0.00000000e+00
atom     11.8299510368     7.6778121618    17.5651249961   Mg  0.0 0.0    0.00000000e+00  0.00000000e+00  0.00000000e+00
atom      1.5573900368     7.6778121618    20.6588179961   Si  0.0 0.0    0.00000000e+00  0.00000000e+00  0.00000000e+00
atom      5.1616160368     7.6778121618    14.0633759961   Si  0.0 0.0    0.00000000e+00  0.00000000e+00  0.00000000e+00
atom      5.9940400368     7.6778121618    18.8938359961   Al  0.0 0.0    0.00000000e+00  0.00000000e+00  0.00000000e+00
atom      7.8691060368    11.5167181618    15.3586039961   Al  0.0 0.0    0.00000000e+00  0.00000000e+00  0.00000000e+00
atom      8.7015580368    11.5167181618    20.1890559961   Si  0.0 0.0    0.00000000e+00  0.00000000e+00  0.00000000e+00
atom     12.3057190368    11.5167181618    13.5936099961   Si  0.0 0.0    0.00000000e+00  0.00000000e+00  0.00000000e+00
atom     13.8793610368    11.5167181618    21.5843369961   Mg  0.0 0.0    0.00000000e+00  0.00000000e+00  0.00000000e+00
atom     15.9849370368     7.6778121618    12.7776099961   Mg  0.0 0.0    0.00000000e+00  0.00000000e+00  0.00000000e+00
atom     18.1724850368     7.6778121618    19.2592919961   Mg  0.0 0.0    0.00000000e+00  0.00000000e+00  0.00000000e+00
atom     23.5941380368    11.5167181618     7.1736959961   Mg  0.0 0.0    0.00000000e+00  0.00000000e+00  0.00000000e+00
atom     25.7816690368    11.5167181618    13.6554109961   Mg  0.0 0.0    0.00000000e+00  0.00000000e+00  0.00000000e+00
atom     15.5091080368    11.5167181618    16.7491039961   Si  0.0 0.0    0.00000000e+00  0.00000000e+00  0.00000000e+00
atom     19.1133340368    11.5167181618    10.1536619961   Si  0.0 0.0    0.00000000e+00  0.00000000e+00  0.00000000e+00
atom     19.9457580368    11.5167181618    14.9841229961   Al  0.0 0.0    0.00000000e+00  0.00000000e+00  0.00000000e+00
atom     21.8208240368     7.6778121618    11.4488899961   Al  0.0 0.0    0.00000000e+00  0.00000000e+00  0.00000000e+00
atom     22.6532760368     7.6778121618    16.2793419961   Si  0.0 0.0    0.00000000e+00  0.00000000e+00  0.00000000e+00
atom     26.2574370368     7.6778121618     9.6838959961   Si  0.0 0.0    0.00000000e+00  0.00000000e+00  0.00000000e+00
atom     -0.0161710008    15.3556243240    12.6681120000   Mg  0.0 0.0    0.00000000e+00  0.00000000e+00  0.00000000e+00
atom      2.0894049992    19.1945303240     3.8613850000   Mg  0.0 0.0    0.00000000e+00  0.00000000e+00  0.00000000e+00
atom      4.2769529992    19.1945303240    10.3430660000   Mg  0.0 0.0    0.00000000e+00  0.00000000e+00  0.00000000e+00
atom      9.6986059992    15.3556243240    -1.7425290000   Mg  0.0 0.0    0.00000000e+00  0.00000000e+00  0.00000000e+00
atom     11.8861369992    15.3556243240     4.7391860000   Mg  0.0 0.0    0.00000000e+00  0.00000000e+00  0.00000000e+00
atom      1.6135759992    15.3556243240     7.8328790000   Si  0.0 0.0    0.00000000e+00  0.00000000e+00  0.00000000e+00
atom      5.2178019992    15.3556243240     1.2374370000   Si  0.0 0.0    0.00000000e+00  0.00000000e+00  0.00000000e+00
atom      6.0502259992    15.3556243240     6.0678970000   Al  0.0 0.0    0.00000000e+00  0.00000000e+00  0.00000000e+00
atom      7.9252919992    19.1945303240     2.5326650000   Al  0.0 0.0    0.00000000e+00  0.00000000e+00  0.00000000e+00
atom      8.7577439992    19.1945303240     7.3631170000   Si  0.0 0.0    0.00000000e+00  0.00000000e+00  0.00000000e+00
atom     12.3619049992    19.1945303240     0.7676710000   Si  0.0 0.0    0.00000000e+00  0.00000000e+00  0.00000000e+00
atom     13.9355469992    19.1945303240     8.7583980000   Mg  0.0 0.0    0.00000000e+00  0.00000000e+00  0.00000000e+00
atom     16.0411229992    15.3556243240    -0.0483290000   Mg  0.0 0.0    0.00000000e+00  0.00000000e+00  0.00000000e+00
atom     18.2286709992    15.3556243240     6.4333530000   Mg  0.0 0.0    0.00000000e+00  0.00000000e+00  0.00000000e+00
atom     23.6503239992    19.1945303240    -5.6522430000   Mg  0.0 0.0    0.00000000e+00  0.00000000e+00  0.00000000e+00
atom     25.8378549992    19.1945303240     0.8294720000   Mg  0.0 0.0    0.00000000e+00  0.00000000e+00  0.00000000e+00
atom     15.5652939992    19.1945303240     3.9231650000   Si  0.0 0.0    0.00000000e+00  0.00000000e+00  0.00000000e+00
atom     19.1695199992    19.1945303240    -2.6722770000   Si  0.0 0.0    0.00000000e+00  0.00000000e+00  0.00000000e+00
atom     20.0019439992    19.1945303240     2.1581840000   Al  0.0 0.0    0.00000000e+00  0.00000000e+00  0.00000000e+00
atom     21.8770099992    15.3556243240    -1.3770490000   Al  0.0 0.0    0.00000000e+00  0.00000000e+00  0.00000000e+00
atom     22.7094619992    15.3556243240     3.4534030000   Si  0.0 0.0    0.00000000e+00  0.00000000e+00  0.00000000e+00
atom     26.3136229992    15.3556243240    -3.1420430000   Si  0.0 0.0    0.00000000e+00  0.00000000e+00  0.00000000e+00
atom     -0.0723569636    15.3556243238    25.4940509961   Mg  0.0 0.0    0.00000000e+00  0.00000000e+00  0.00000000e+00
atom      2.0332190364    19.1945303238    16.6873239961   Mg  0.0 0.0    0.00000000e+00  0.00000000e+00  0.00000000e+00
atom      4.2207670364    19.1945303238    23.1690049961   Mg  0.0 0.0    0.00000000e+00  0.00000000e+00  0.00000000e+00
atom      9.6424200364    15.3556243238    11.0834099961   Mg  0.0 0.0    0.00000000e+00  0.00000000e+00  0.00000000e+00
atom     11.8299510364    15.3556243238    17.5651249961   Mg  0.0 0.0    0.00000000e+00  0.00000000e+00  0.00000000e+00
atom      1.5573900364    15.3556243238    20.6588179961   Si  0.0 0.0    0.00000000e+00  0.00000000e+00  0.00000000e+00
atom      5.1616160364    15.3556243238    14.0633759961   Si  0.0 0.0    0.00000000e+00  0.00000000e+00  0.00000000e+00
atom      5.9940400364    15.3556243238    18.8938359961   Al  0.0 0.0    0.00000000e+00  0.00000000e+00  0.00000000e+00
atom      7.8691060364    19.1945303238    15.3586039961   Al  0.0 0.0    0.00000000e+00  0.00000000e+00  0.00000000e+00
atom      8.7015580364    19.1945303238    20.1890559961   Si  0.0 0.0    0.00000000e+00  0.00000000e+00  0.00000000e+00
atom     12.3057190364    19.1945303238    13.5936099961   Si  0.0 0.0    0.00000000e+00  0.00000000e+00  0.00000000e+00
atom     13.8793610364    19.1945303238    21.5843369961   Mg  0.0 0.0    0.00000000e+00  0.00000000e+00  0.00000000e+00
atom     15.9849370364    15.3556243238    12.7776099961   Mg  0.0 0.0    0.00000000e+00  0.00000000e+00  0.00000000e+00
atom     18.1724850364    15.3556243238    19.2592919961   Mg  0.0 0.0    0.00000000e+00  0.00000000e+00  0.00000000e+00
atom     23.5941380364    19.1945303238     7.1736959961   Mg  0.0 0.0    0.00000000e+00  0.00000000e+00  0.00000000e+00
atom     25.7816690364    19.1945303238    13.6554109961   Mg  0.0 0.0    0.00000000e+00  0.00000000e+00  0.00000000e+00
atom     15.5091080364    19.1945303238    16.7491039961   Si  0.0 0.0    0.00000000e+00  0.00000000e+00  0.00000000e+00
atom     19.1133340364    19.1945303238    10.1536619961   Si  0.0 0.0    0.00000000e+00  0.00000000e+00  0.00000000e+00
atom     19.9457580364    19.1945303238    14.9841229961   Al  0.0 0.0    0.00000000e+00  0.00000000e+00  0.00000000e+00
atom     21.8208240364    15.3556243238    11.4488899961   Al  0.0 0.0    0.00000000e+00  0.00000000e+00  0.00000000e+00
atom     22.6532760364    15.3556243238    16.2793419961   Si  0.0 0.0    0.00000000e+00  0.00000000e+00  0.00000000e+00
atom     26.2574370364    15.3556243238     9.6838959961   Si  0.0 0.0    0.00000000e+00  0.00000000e+00  0.00000000e+00
energy 0.000000000000000e+00
charge 0.0000
end
begin
comment uuid: d7dac1cb-ee87-4461-ab4a-7b9936f14816 parent_uuid: 4c3843d7-8355-4b7b-b4e8-830f92b1b176 trajectory_step: final_scf
lattice     27.9034359104    -0.0000000015    -7.8194272980
lattice     -0.0000000012    23.0334364860     0.0000000000
lattice     -0.1123719256    -0.0000000004    25.6518779922
atom     -0.0161710000     0.0000000000    12.6681120000   Mg  0.0 0.0    0.00000000e+00  0.00000000e+00  0.00000000e+00
atom      2.0894050000     3.8389060000     3.8613850000   Mg  0.0 0.0    0.00000000e+00  0.00000000e+00  0.00000000e+00
atom      4.2769530000     3.8389060000    10.3430660000   Mg  0.0 0.0    0.00000000e+00  0.00000000e+00  0.00000000e+00
atom      9.6986060000     0.0000000000    -1.7425290000   Mg  0.0 0.0    0.00000000e+00  0.00000000e+00  0.00000000e+00
atom     11.8861370000     0.0000000000     4.7391860000   Mg  0.0 0.0    0.00000000e+00  0.00000000e+00  0.00000000e+00
atom      1.6135760000     0.0000000000     7.8328790000   Si  0.0 0.0    0.00000000e+00  0.00000000e+00  0.00000000e+00
atom      5.2178020000     0.0000000000     1.2374370000   Si  0.0 0.0    0.00000000e+00  0.00000000e+00  0.00000000e+00
atom      6.0502260000     0.0000000000     6.0678970000   Al  0.0 0.0    0.00000000e+00  0.00000000e+00  0.00000000e+00
atom      7.9252920000     3.8389060000     2.5326650000   Al  0.0 0.0    0.00000000e+00  0.00000000e+00  0.00000000e+00
atom      8.7577440000     3.8389060000     7.3631170000   Si  0.0 0.0    0.00000000e+00  0.00000000e+00  0.00000000e+00
atom     12.3619050000     3.8389060000     0.7676710000   Si  0.0 0.0    0.00000000e+00  0.00000000e+00  0.00000000e+00
atom     13.9355470000     3.8389060000     8.7583980000   Mg  0.0 0.0    0.00000000e+00  0.00000000e+00  0.00000000e+00
atom     16.0411230000     0.0000000000    -0.0483290000   Mg  0.0 0.0    0.00000000e+00  0.00000000e+00  0.00000000e+00
atom     18.2286710000     0.0000000000     6.4333530000   Mg  0.0 0.0    0.00000000e+00  0.00000000e+00  0.00000000e+00
atom     23.6503240000     3.8389060000    -5.6522430000   Mg  0.0 0.0    0.00000000e+00  0.00000000e+00  0.00000000e+00
atom     25.8378550000     3.8389060000     0.8294720000   Mg  0.0 0.0    0.00000000e+00  0.00000000e+00  0.00000000e+00
atom     15.5652940000     3.8389060000     3.9231650000   Si  0.0 0.0    0.00000000e+00  0.00000000e+00  0.00000000e+00
atom     19.1695200000     3.8389060000    -2.6722770000   Si  0.0 0.0    0.00000000e+00  0.00000000e+00  0.00000000e+00
atom     20.0019440000     3.8389060000     2.1581840000   Al  0.0 0.0    0.00000000e+00  0.00000000e+00  0.00000000e+00
atom     21.8770100000     0.0000000000    -1.3770490000   Al  0.0 0.0    0.00000000e+00  0.00000000e+00  0.00000000e+00
atom     22.7094620000     0.0000000000     3.4534030000   Si  0.0 0.0    0.00000000e+00  0.00000000e+00  0.00000000e+00
atom     26.3136230000     0.0000000000    -3.1420430000   Si  0.0 0.0    0.00000000e+00  0.00000000e+00  0.00000000e+00
atom     -0.0723569628    -0.0000000002    25.4940509961   Mg  0.0 0.0    0.00000000e+00  0.00000000e+00  0.00000000e+00
atom      2.0332190372     3.8389059998    16.6873239961   Mg  0.0 0.0    0.00000000e+00  0.00000000e+00  0.00000000e+00
atom      4.2207670372     3.8389059998    23.1690049961   Mg  0.0 0.0    0.00000000e+00  0.00000000e+00  0.00000000e+00
atom      9.6424200372    -0.0000000002    11.0834099961   Mg  0.0 0.0    0.00000000e+00  0.00000000e+00  0.00000000e+00
atom     11.8299510372    -0.0000000002    17.5651249961   Mg  0.0 0.0    0.00000000e+00  0.00000000e+00  0.00000000e+00
atom      1.5573900372    -0.0000000002    20.6588179961   Si  0.0 0.0    0.00000000e+00  0.00000000e+00  0.00000000e+00
atom      5.1616160372    -0.0000000002    14.0633759961   Si  0.0 0.0    0.00000000e+00  0.00000000e+00  0.00000000e+00
atom      5.9940400372    -0.0000000002    18.8938359961   Al  0.0 0.0    0.00000000e+00  0.00000000e+00  0.00000000e+00
atom      7.8691060372     3.8389059998    15.3586039961   Al  0.0 0.0    0.00000000e+00  0.00000000e+00  0.00000000e+00
atom      8.7015580372     3.8389059998    20.1890559961   Si  0.0 0.0    0.00000000e+00  0.00000000e+00  0.00000000e+00
atom     12.3057190372     3.8389059998    13.5936099961   Si  0.0 0.0    0.00000000e+00  0.00000000e+00  0.00000000e+00
atom     13.8793610372     3.8389059998    21.5843369961   Mg  0.0 0.0    0.00000000e+00  0.00000000e+00  0.00000000e+00
atom     15.9849370372    -0.0000000002    12.7776099961   Mg  0.0 0.0    0.00000000e+00  0.00000000e+00  0.00000000e+00
atom     18.1724850372    -0.0000000002    19.2592919961   Mg  0.0 0.0    0.00000000e+00  0.00000000e+00  0.00000000e+00
atom     23.5941380372     3.8389059998     7.1736959961   Mg  0.0 0.0    0.00000000e+00  0.00000000e+00  0.00000000e+00
atom     25.7816690372     3.8389059998    13.6554109961   Mg  0.0 0.0    0.00000000e+00  0.00000000e+00  0.00000000e+00
atom     15.5091080372     3.8389059998    16.7491039961   Si  0.0 0.0    0.00000000e+00  0.00000000e+00  0.00000000e+00
atom     19.1133340372     3.8389059998    10.1536619961   Si  0.0 0.0    0.00000000e+00  0.00000000e+00  0.00000000e+00
atom     19.9457580372     3.8389059998    14.9841229961   Al  0.0 0.0    0.00000000e+00  0.00000000e+00  0.00000000e+00
atom     21.8208240372    -0.0000000002    11.4488899961   Al  0.0 0.0    0.00000000e+00  0.00000000e+00  0.00000000e+00
atom     22.6532760372    -0.0000000002    16.2793419961   Si  0.0 0.0    0.00000000e+00  0.00000000e+00  0.00000000e+00
atom     26.2574370372    -0.0000000002     9.6838959961   Si  0.0 0.0    0.00000000e+00  0.00000000e+00  0.00000000e+00
atom     -0.0161710004     7.6778121620    12.6681120000   Mg  0.0 0.0    0.00000000e+00  0.00000000e+00  0.00000000e+00
atom      2.0894049996    11.5167181620     3.8613850000   Mg  0.0 0.0    0.00000000e+00  0.00000000e+00  0.00000000e+00
atom      4.2769529996    11.5167181620    10.3430660000   Mg  0.0 0.0    0.00000000e+00  0.00000000e+00  0.00000000e+00
atom      9.6986059996     7.6778121620    -1.7425290000   Mg  0.0 0.0    0.00000000e+00  0.00000000e+00  0.00000000e+00
atom     11.8861369996     7.6778121620     4.7391860000   Mg  0.0 0.0    0.00000000e+00  0.00000000e+00  0.00000000e+00
atom      1.6135759996     7.6778121620     7.8328790000   Si  0.0 0.0    0.00000000e+00  0.00000000e+00  0.00000000e+00
atom      5.2178019996     7.6778121620     1.2374370000   Si  0.0 0.0    0.00000000e+00  0.00000000e+00  0.00000000e+00
atom      6.0502259996     7.6778121620     6.0678970000   Al  0.0 0.0    0.00000000e+00  0.00000000e+00  0.00000000e+00
atom      7.9252919996    11.5167181620     2.5326650000   Al  0.0 0.0    0.00000000e+00  0.00000000e+00  0.00000000e+00
atom      8.7577439996    11.5167181620     7.3631170000   Si  0.0 0.0    0.00000000e+00  0.00000000e+00  0.00000000e+00
atom     12.3619049996    11.5167181620     0.7676710000   Si  0.0 0.0    0.00000000e+00  0.00000000e+00  0.00000000e+00
atom     13.9355469996    11.5167181620     8.7583980000   Mg  0.0 0.0    0.00000000e+00  0.00000000e+00  0.00000000e+00
atom     16.0411229996     7.6778121620    -0.0483290000   Mg  0.0 0.0    0.00000000e+00  0.00000000e+00  0.00000000e+00
atom     18.2286709996     7.6778121620     6.4333530000   Mg  0.0 0.0    0.00000000e+00  0.00000000e+00  0.00000000e+00
atom     23.6503239996    11.5167181620    -5.6522430000   Mg  0.0 0.0    0.00000000e+00  0.00000000e+00  0.00000000e+00
atom     25.8378549996    11.5167181620     0.8294720000   Mg  0.0 0.0    0.00000000e+00  0.00000000e+00  0.00000000e+00
atom     15.5652939996    11.5167181620     3.9231650000   Si  0.0 0.0    0.00000000e+00  0.00000000e+00  0.00000000e+00
atom     19.1695199996    11.5167181620    -2.6722770000   Si  0.0 0.0    0.00000000e+00  0.00000000e+00  0.00000000e+00
atom     20.0019439996    11.5167181620     2.1581840000   Al  0.0 0.0    0.00000000e+00  0.00000000e+00  0.00000000e+00
atom     21.8770099996     7.6778121620    -1.3770490000   Al  0.0 0.0    0.00000000e+00  0.00000000e+00  0.00000000e+00
atom     22.7094619996     7.6778121620     3.4534030000   Si  0.0 0.0    0.00000000e+00  0.00000000e+00  0.00000000e+00
atom     26.3136229996     7.6778121620    -3.1420430000   Si  0.0 0.0    0.00000000e+00  0.00000000e+00  0.00000000e+00
atom     -0.0723569632     7.6778121618    25.4940509961   Mg  0.0 0.0    0.00000000e+00  0.00000000e+00  0.00000000e+00
atom      2.0332190368    11.5167181618    16.6873239961   Mg  0.0 0.0    0.00000000e+00  0.00000000e+00  0.00000000e+00
atom      4.2207670368    11.5167181618    23.1690049961   Mg  0.0 0.0    0.00000000e+00  0.00000000e+00  0.00000000e+00
atom      9.6424200368     7.6778121618    11.0834099961   Mg  0.0 0.0    0.00000000e+00  0.00000000e+00  0.00000000e+00
atom     11.8299510368     7.6778121618    17.5651249961   Mg  0.0 0.0    0.00000000e+00  0.00000000e+00  0.00000000e+00
atom      1.5573900368     7.6778121618    20.6588179961   Si  0.0 0.0    0.00000000e+00  0.00000000e+00  0.00000000e+00
atom      5.1616160368     7.6778121618    14.0633759961   Si  0.0 0.0    0.00000000e+00  0.00000000e+00  0.00000000e+00
atom      5.9940400368     7.6778121618    18.8938359961   Al  0.0 0.0    0.00000000e+00  0.00000000e+00  0.00000000e+00
atom      7.8691060368    11.5167181618    15.3586039961   Al  0.0 0.0    0.00000000e+00  0.00000000e+00  0.00000000e+00
atom      8.7015580368    11.5167181618    20.1890559961   Si  0.0 0.0    0.00000000e+00  0.00000000e+00  0.00000000e+00
atom     12.3057190368    11.5167181618    13.5936099961   Si  0.0 0.0    0.00000000e+00  0.00000000e+00  0.00000000e+00
atom     13.8793610368    11.5167181618    21.5843369961   Mg  0.0 0.0    0.00000000e+00  0.00000000e+00  0.00000000e+00
atom     15.9849370368     7.6778121618    12.7776099961   Mg  0.0 0.0    0.00000000e+00  0.00000000e+00  0.00000000e+00
atom     18.1724850368     7.6778121618    19.2592919961   Mg  0.0 0.0    0.00000000e+00  0.00000000e+00  0.00000000e+00
atom     23.5941380368    11.5167181618     7.1736959961   Mg  0.0 0.0    0.00000000e+00  0.00000000e+00  0.00000000e+00
atom     25.7816690368    11.5167181618    13.6554109961   Mg  0.0 0.0    0.00000000e+00  0.00000000e+00  0.00000000e+00
atom     15.5091080368    11.5167181618    16.7491039961   Si  0.0 0.0    0.00000000e+00  0.00000000e+00  0.00000000e+00
atom     19.1133340368    11.5167181618    10.1536619961   Si  0.0 0.0    0.00000000e+00  0.00000000e+00  0.00000000e+00
atom     19.9457580368    11.5167181618    14.9841229961   Al  0.0 0.0    0.00000000e+00  0.00000000e+00  0.00000000e+00
atom     21.8208240368     7.6778121618    11.4488899961   Al  0.0 0.0    0.00000000e+00  0.00000000e+00  0.00000000e+00
atom     22.6532760368     7.6778121618    16.2793419961   Si  0.0 0.0    0.00000000e+00  0.00000000e+00  0.00000000e+00
atom     26.2574370368     7.6778121618     9.6838959961   Si  0.0 0.0    0.00000000e+00  0.00000000e+00  0.00000000e+00
atom     -0.0161710008    15.3556243240    12.6681120000   Mg  0.0 0.0    0.00000000e+00  0.00000000e+00  0.00000000e+00
atom      2.0894049992    19.1945303240     3.8613850000   Mg  0.0 0.0    0.00000000e+00  0.00000000e+00  0.00000000e+00
atom      4.2769529992    19.1945303240    10.3430660000   Mg  0.0 0.0    0.00000000e+00  0.00000000e+00  0.00000000e+00
atom      9.6986059992    15.3556243240    -1.7425290000   Mg  0.0 0.0    0.00000000e+00  0.00000000e+00  0.00000000e+00
atom     11.8861369992    15.3556243240     4.7391860000   Mg  0.0 0.0    0.00000000e+00  0.00000000e+00  0.00000000e+00
atom      1.6135759992    15.3556243240     7.8328790000   Si  0.0 0.0    0.00000000e+00  0.00000000e+00  0.00000000e+00
atom      5.2178019992    15.3556243240     1.2374370000   Si  0.0 0.0    0.00000000e+00  0.00000000e+00  0.00000000e+00
atom      6.0502259992    15.3556243240     6.0678970000   Al  0.0 0.0    0.00000000e+00  0.00000000e+00  0.00000000e+00
atom      7.9252919992    19.1945303240     2.5326650000   Al  0.0 0.0    0.00000000e+00  0.00000000e+00  0.00000000e+00
atom      8.7577439992    19.1945303240     7.3631170000   Si  0.0 0.0    0.00000000e+00  0.00000000e+00  0.00000000e+00
atom     12.3619049992    19.1945303240     0.7676710000   Si  0.0 0.0    0.00000000e+00  0.00000000e+00  0.00000000e+00
atom     13.9355469992    19.1945303240     8.7583980000   Mg  0.0 0.0    0.00000000e+00  0.00000000e+00  0.00000000e+00
atom     16.0411229992    15.3556243240    -0.0483290000   Mg  0.0 0.0    0.00000000e+00  0.00000000e+00  0.00000000e+00
atom     18.2286709992    15.3556243240     6.4333530000   Mg  0.0 0.0    0.00000000e+00  0.00000000e+00  0.00000000e+00
atom     23.6503239992    19.1945303240    -5.6522430000   Mg  0.0 0.0    0.00000000e+00  0.00000000e+00  0.00000000e+00
atom     25.8378549992    19.1945303240     0.8294720000   Mg  0.0 0.0    0.00000000e+00  0.00000000e+00  0.00000000e+00
atom     15.5652939992    19.1945303240     3.9231650000   Si  0.0 0.0    0.00000000e+00  0.00000000e+00  0.00000000e+00
atom     19.1695199992    19.1945303240    -2.6722770000   Si  0.0 0.0    0.00000000e+00  0.00000000e+00  0.00000000e+00
atom     20.0019439992    19.1945303240     2.1581840000   Al  0.0 0.0    0.00000000e+00  0.00000000e+00  0.00000000e+00
atom     21.8770099992    15.3556243240    -1.3770490000   Al  0.0 0.0    0.00000000e+00  0.00000000e+00  0.00000000e+00
atom     22.7094619992    15.3556243240     3.4534030000   Si  0.0 0.0    0.00000000e+00  0.00000000e+00  0.00000000e+00
atom     26.3136229992    15.3556243240    -3.1420430000   Si  0.0 0.0    0.00000000e+00  0.00000000e+00  0.00000000e+00