begin
comment uuid: d0dc4e30-e6d6-4620-8877-255d426671bb parent_uuid: a92eb12b-a1c1-421e-9fbe-b522f1045a85 trajectory_step: final_scf
lattice     27.0372728256    -0.0000000004    -9.2050815968
lattice      0.0000000000    23.1024381087     0.0000000000
lattice     -0.6373419832     0.0000000000    26.1665111992
atom     -0.2768640000     0.0000000000    12.9205290000   Mg  0.0 0.0    0.00000000e+00  0.00000000e+00  0.00000000e+00
atom      2.0199660000     3.8504060000     4.0026660000   Mg  0.0 0.0    0.00000000e+00  0.00000000e+00  0.00000000e+00
atom      3.9686720000     3.8504060000    10.6186570000   Mg  0.0 0.0    0.00000000e+00  0.00000000e+00  0.00000000e+00
atom      9.3149460000     0.0000000000    -2.4634590000   Mg  0.0 0.0    0.00000000e+00  0.00000000e+00  0.00000000e+00
atom     11.2635890000     0.0000000000     4.1526170000   Mg  0.0 0.0    0.00000000e+00  0.00000000e+00  0.00000000e+00
atom      1.3932490000     0.0000000000     8.0700190000   Si  0.0 0.0    0.00000000e+00  0.00000000e+00  0.00000000e+00
atom      5.1601760000     0.0000000000     1.4496550000   Si  0.0 0.0    0.00000000e+00  0.00000000e+00  0.00000000e+00
atom      5.4930890000     0.0000000000     6.1785890000   Si  0.0 0.0    0.00000000e+00  0.00000000e+00  0.00000000e+00
atom      7.7903930000     3.8504060000     1.9766580000   Si  0.0 0.0    0.00000000e+00  0.00000000e+00  0.00000000e+00
atom      8.1233200000     3.8504060000     6.7055930000   Si  0.0 0.0    0.00000000e+00  0.00000000e+00  0.00000000e+00
atom     11.8902300000     3.8504060000     0.0852310000   Si  0.0 0.0    0.00000000e+00  0.00000000e+00  0.00000000e+00
atom     13.2417730000     3.8504060000     8.3179880000   Mg  0.0 0.0    0.00000000e+00  0.00000000e+00  0.00000000e+00
atom     15.5386020000     0.0000000000    -0.5998740000   Mg  0.0 0.0    0.00000000e+00  0.00000000e+00  0.00000000e+00
atom     17.4873080000     0.0000000000     6.0161160000   Mg  0.0 0.0    0.00000000e+00  0.00000000e+00  0.00000000e+00
atom     22.8335830000     3.8504060000    -7.0660000000   Mg  0.0 0.0    0.00000000e+00  0.00000000e+00  0.00000000e+00
atom     24.7822260000     3.8504060000    -0.4499240000   Mg  0.0 0.0    0.00000000e+00  0.00000000e+00  0.00000000e+00
atom     14.9118860000     3.8504060000     3.4674780000   Si  0.0 0.0    0.00000000e+00  0.00000000e+00  0.00000000e+00
atom     18.6788130000     3.8504060000    -3.1528860000   Si  0.0 0.0    0.00000000e+00  0.00000000e+00  0.00000000e+00
atom     19.0117260000     3.8504060000     1.5760480000   Si  0.0 0.0    0.00000000e+00  0.00000000e+00  0.00000000e+00
atom     21.3090290000     0.0000000000    -2.6258830000   Si  0.0 0.0    0.00000000e+00  0.00000000e+00  0.00000000e+00
atom     21.6419570000     0.0000000000     2.1030520000   Si  0.0 0.0    0.00000000e+00  0.00000000e+00  0.00000000e+00
atom     25.4088670000     0.0000000000    -4.5173100000   Si  0.0 0.0    0.00000000e+00  0.00000000e+00  0.00000000e+00
atom     -0.5955349916     0.0000000000    26.0037845996   Mg  0.0 0.0    0.00000000e+00  0.00000000e+00  0.00000000e+00
atom      1.7012950084     3.8504060000    17.0859215996   Mg  0.0 0.0    0.00000000e+00  0.00000000e+00  0.00000000e+00
atom      3.6500010084     3.8504060000    23.7019125996   Mg  0.0 0.0    0.00000000e+00  0.00000000e+00  0.00000000e+00
atom      8.9962750084     0.0000000000    10.6197965996   Mg  0.0 0.0    0.00000000e+00  0.00000000e+00  0.00000000e+00
atom     10.9449180084     0.0000000000    17.2358725996   Mg  0.0 0.0    0.00000000e+00  0.00000000e+00  0.00000000e+00
atom      1.0745780084     0.0000000000    21.1532745996   Si  0.0 0.0    0.00000000e+00  0.00000000e+00  0.00000000e+00
atom      4.8415050084     0.0000000000    14.5329105996   Si  0.0 0.0    0.00000000e+00  0.00000000e+00  0.00000000e+00
atom      5.1744180084     0.0000000000    19.2618445996   Si  0.0 0.0    0.00000000e+00  0.00000000e+00  0.00000000e+00
atom      7.4717220084     3.8504060000    15.0599135996   Si  0.0 0.0    0.00000000e+00  0.00000000e+00  0.00000000e+00
atom      7.8046490084     3.8504060000    19.7888485996   Si  0.0 0.0    0.00000000e+00  0.00000000e+00  0.00000000e+00
atom     11.5715590084     3.8504060000    13.1684865996   Si  0.0 0.0    0.00000000e+00  0.00000000e+00  0.00000000e+00
atom     12.9231020084     3.8504060000    21.4012435996   Mg  0.0 0.0    0.00000000e+00  0.00000000e+00  0.00000000e+00
atom     15.2199310084     0.0000000000    12.4833815996   Mg  0.0 0.0    0.00000000e+00  0.00000000e+00  0.00000000e+00
atom     17.1686370084     0.0000000000    19.0993715996   Mg  0.0 0.0    0.00000000e+00  0.00000000e+00  0.00000000e+00
atom     22.5149120084     3.8504060000     6.0172555996   Mg  0.0 0.0    0.00000000e+00  0.00000000e+00  0.00000000e+00
atom     24.4635550084     3.8504060000    12.6333315996   Mg  0.0 0.0    0.00000000e+00  0.00000000e+00  0.00000000e+00
atom     14.5932150084     3.8504060000    16.5507335996   Si  0.0 0.0    0.00000000e+00  0.00000000e+00  0.00000000e+00
atom     18.3601420084     3.8504060000     9.9303695996   Si  0.0 0.0    0.00000000e+00  0.00000000e+00  0.00000000e+00
atom     18.6930550084     3.8504060000    14.6593035996   Si  0.0 0.0    0.00000000e+00  0.00000000e+00  0.00000000e+00
atom     20.9903580084     0.0000000000    10.4573725996   Si  0.0 0.0    0.00000000e+00  0.00000000e+00  0.00000000e+00
atom     21.3232860084     0.0000000000    15.1863075996   Si  0.0 0.0    0.00000000e+00  0.00000000e+00  0.00000000e+00
atom     25.0901960084     0.0000000000     8.5659455996   Si  0.0 0.0    0.00000000e+00  0.00000000e+00  0.00000000e+00
atom     -0.2768640000     7.7008127029    12.9205290000   Mg  0.0 0.0    0.00000000e+00  0.00000000e+00  0.00000000e+00
atom      2.0199660000    11.5512187029     4.0026660000   Mg  0.0 0.0    0.00000000e+00  0.00000000e+00  0.00000000e+00
atom      3.9686720000    11.5512187029    10.6186570000   Mg  0.0 0.0    0.00000000e+00  0.00000000e+00  0.00000000e+00
atom      9.3149460000     7.7008127029    -2.4634590000   Mg  0.0 0.0    0.00000000e+00  0.00000000e+00  0.00000000e+00
atom     11.2635890000     7.7008127029     4.1526170000   Mg  0.0 0.0    0.00000000e+00  0.00000000e+00  0.00000000e+00
atom      1.3932490000     7.7008127029     8.0700190000   Si  0.0 0.0    0.00000000e+00  0.00000000e+00  0.00000000e+00
atom      5.1601760000     7.7008127029     1.4496550000   Si  0.0 0.0    0.00000000e+00  0.00000000e+00  0.00000000e+00
atom      5.4930890000     7.7008127029     6.1785890000   Si  0.0 0.0    0.00000000e+00  0.00000000e+00  0.00000000e+00
atom      7.7903930000    11.5512187029     1.9766580000   Si  0.0 0.0    0.00000000e+00  0.00000000e+00  0.00000000e+00
atom      8.1233200000    11.5512187029     6.7055930000   Si  0.0 0.0    0.00000000e+00  0.00000000e+00  0.00000000e+00
atom     11.8902300000    11.5512187029     0.0852310000   Si  0.0 0.0    0.00000000e+00  0.00000000e+00  0.00000000e+00
atom     13.2417730000    11.5512187029     8.3179880000   Mg  0.0 0.0    0.00000000e+00  0.00000000e+00  0.00000000e+00
atom     15.5386020000     7.7008127029    -0.5998740000   Mg  0.0 0.0    0.00000000e+00  0.00000000e+00  0.00000000e+00
atom     17.4873080000     7.7008127029     6.0161160000   Mg  0.0 0.0    0.00000000e+00  0.00000000e+00  0.00000000e+00
atom     22.8335830000    11.5512187029    -7.0660000000   Mg  0.0 0.0    0.00000000e+00  0.00000000e+00  0.00000000e+00
atom     24.7822260000    11.5512187029    -0.4499240000   Mg  0.0 0.0    0.00000000e+00  0.00000000e+00  0.00000000e+00
atom     14.9118860000    11.5512187029     3.4674780000   Si  0.0 0.0    0.00000000e+00  0.00000000e+00  0.00000000e+00
atom     18.6788130000    11.5512187029    -3.1528860000   Si  0.0 0.0    0.00000000e+00  0.00000000e+00  0.00000000e+00
atom     19.0117260000    11.5512187029     1.5760480000   Si  0.0 0.0    0.00000000e+00  0.00000000e+00  0.00000000e+00
atom     21.3090290000     7.7008127029    -2.6258830000   Si  0.0 0.0    0.00000000e+00  0.00000000e+00  0.00000000e+00
atom     21.6419570000     7.7008127029     2.1030520000   Si  0.0 0.0    0.00000000e+00  0.00000000e+00  0.00000000e+00
atom     25.4088670000     7.7008127029    -4.5173100000   Si  0.0 0.0    0.00000000e+00  0.00000000e+00  0.00000000e+00
atom     -0.5955349916     7.7008127029    26.0037845996   Mg  0.0 0.0    0.00000000e+00  0.00000000e+00  0.00000000e+00
atom      1.7012950084    11.5512187029    17.0859215996   Mg  0.0 0.0    0.00000000e+00  0.00000000e+00  0.00000000e+00
atom      3.6500010084    11.5512187029    23.7019125996   Mg  0.0 0.0    0.00000000e+00  0.00000000e+00  0.00000000e+00
atom      8.9962750084     7.7008127029    10.6197965996   Mg  0.0 0.0    0.00000000e+00  0.00000000e+00  0.00000000e+00
atom     10.9449180084     7.7008127029    17.2358725996   Mg  0.0 0.0    0.00000000e+00  0.00000000e+00  0.00000000e+00
atom      1.0745780084     7.7008127029    21.1532745996   Si  0.0 0.0    0.00000000e+00  0.00000000e+00  0.00000000e+00
atom      4.8415050084     7.7008127029    14.5329105996   Si  0.0 0.0    0.00000000e+00  0.00000000e+00  0.00000000e+00
atom      5.1744180084     7.7008127029    19.2618445996   Si  0.0 0.0    0.00000000e+00  0.00000000e+00  0.00000000e+00
atom      7.4717220084    11.5512187029    15.0599135996   Si  0.0 0.0    0.00000000e+00  0.00000000e+00  0.00000000e+00
atom      7.8046490084    11.5512187029    19.7888485996   Si  0.0 0.0    0.00000000e+00  0.00000000e+00  0.00000000e+00
atom     11.5715590084    11.5512187029    13.1684865996   Si  0.0 0.0    0.00000000e+00  0.00000000e+00  0.00000000e+00
atom     12.9231020084    11.5512187029    21.4012435996   Mg  0.0 0.0    0.00000000e+00  0.00000000e+00  0.00000000e+00
atom     15.2199310084     7.7008127029    12.4833815996   Mg  0.0 0.0    0.00000000e+00  0.00000000e+00  0.00000000e+00
atom     17.1686370084     7.7008127029    19.0993715996   Mg  0.0 0.0    0.00000000e+00  0.00000000e+00  0.00000000e+00
atom     22.5149120084    11.5512187029     6.0172555996   Mg  0.0 0.0    0.00000000e+00  0.00000000e+00  0.00000000e+00
atom     24.4635550084    11.5512187029    12.6333315996   Mg  0.0 0.0    0.00000000e+00  0.00000000e+00  0.00000000e+00
atom     14.5932150084    11.5512187029    16.5507335996   Si  0.0 0.0    0.00000000e+00  0.00000000e+00  0.00000000e+00
atom     18.3601420084    11.5512187029     9.9303695996   Si  0.0 0.0    0.00000000e+00  0.00000000e+00  0.00000000e+00
atom     18.6930550084    11.5512187029    14.6593035996   Si  0.0 0.0    0.00000000e+00  0.00000000e+00  0.00000000e+00
atom     20.9903580084     7.7008127029    10.4573725996   Si  0.0 0.0    0.00000000e+00  0.00000000e+00  0.00000000e+00
atom     21.3232860084     7.7008127029    15.1863075996   Si  0.0 0.0    0.00000000e+00  0.00000000e+00  0.00000000e+00
atom     25.0901960084     7.7008127029     8.5659455996   Si  0.0 0.0    0.00000000e+00  0.00000000e+00  0.00000000e+00
atom     -0.2768640000    15.4016254058    12.9205290000   Mg  0.0 0.0    0.00000000e+00  0.00000000e+00  0.00000000e+00
atom      2.0199660000    19.2520314058     4.0026660000   Mg  0.0 0.0    0.00000000e+00  0.00000000e+00  0.00000000e+00
atom      3.9686720000    19.2520314058    10.6186570000   Mg  0.0 0.0    0.00000000e+00  0.00000000e+00  0.00000000e+00
atom      9.3149460000    15.4016254058    -2.4634590000   Mg  0.0 0.0    0.00000000e+00  0.00000000e+00  0.00000000e+00
atom     11.2635890000    15.4016254058     4.1526170000   Mg  0.0 0.0    0.00000000e+00  0.00000000e+00  0.00000000e+00
atom      1.3932490000    15.4016254058     8.0700190000   Si  0.0 0.0    0.00000000e+00  0.00000000e+00  0.00000000e+00
atom      5.1601760000    15.4016254058     1.4496550000   Si  0.0 0.0    0.00000000e+00  0.00000000e+00  0.00000000e+00
atom      5.4930890000    15.4016254058     6.1785890000   Si  0.0 0.0    0.00000000e+00  0.00000000e+00  0.00000000e+00
atom      7.7903930000    19.2520314058     1.9766580000   Si  0.0 0.0    0.00000000e+00  0.00000000e+00  0.00000000e+00
atom      8.1233200000    19.2520314058     6.7055930000   Si  0.0 0.0    0.00000000e+00  0.00000000e+00  0.00000000e+00
atom     11.8902300000    19.2520314058     0.0852310000   Si  0.0 0.0    0.00000000e+00  0.00000000e+00  0.00000000e+00
atom     13.2417730000    19.2520314058     8.3179880000   Mg  0.0 0.0    0.00000000e+00  0.00000000e+00  0.00000000e+00
atom     15.5386020000    15.4016254058    -0.5998740000   Mg  0.0 0.0    0.00000000e+00  0.00000000e+00  0.00000000e+00
atom     17.4873080000    15.4016254058     6.0161160000   Mg  0.0 0.0    0.00000000e+00  0.00000000e+00  0.00000000e+00
atom     22.8335830000    19.2520314058    -7.0660000000   Mg  0.0 0.0    0.00000000e+00  0.00000000e+00  0.00000000e+00
atom     24.7822260000    19.2520314058    -0.4499240000   Mg  0.0 0.0    0.00000000e+00  0.00000000e+00  0.00000000e+00
atom     14.9118860000    19.2520314058     3.4674780000   Si  0.0 0.0    0.00000000e+00  0.00000000e+00  0.00000000e+00
atom     18.6788130000    19.2520314058    -3.1528860000   Si  0.0 0.0    0.00000000e+00  0.00000000e+00  0.00000000e+00
atom     19.0117260000    19.2520314058     1.5760480000   Si  0.0 0.0    0.00000000e+00  0.00000000e+00  0.00000000e+00
atom     21.3090290000    15.4016254058    -2.6258830000   Si  0.0 0.0    0.00000000e+00  0.00000000e+00  0.00000000e+00
atom     21.6419570000    15.4016254058     2.1030520000   Si  0.0 0.0    0.00000000e+00  0.00000000e+00  0.00000000e+00
atom     25.4088670000    15.4016254058    -4.5173100000   Si  0.0 0.0    0.00000000e+00  0.00000000e+00  0.00000000e+00
atom     -0.5955349916    15.4016254058    26.0037845996   Mg  0.0 0.0    0.00000000e+00  0.00000000e+00  0.00000000e+00
atom      1.7012950084    19.2520314058    17.0859215996   Mg  0.0 0.0    0.00000000e+00  0.00000000e+00  0.00000000e+00
atom      3.6500010084    19.2520314058    23.7019125996   Mg  0.0 0.0    0.00000000e+00  0.00000000e+00  0.00000000e+00
atom      8.9962750084    15.4016254058    10.6197965996   Mg  0.0 0.0    0.00000000e+00  0.00000000e+00  0.00000000e+00
atom     10.9449180084    15.4016254058    17.2358725996   Mg  0.0 0.0    0.00000000e+00  0.00000000e+00  0.00000000e+00
atom      1.0745780084    15.4016254058    21.1532745996   Si  0.0 0.0    0.00000000e+00  0.00000000e+00  0.00000000e+00
atom      4.8415050084    15.4016254058    14.5329105996   Si  0.0 0.0    0.00000000e+00  0.00000000e+00  0.00000000e+00
atom      5.1744180084    15.4016254058    19.2618445996   Si  0.0 0.0    0.00000000e+00  0.00000000e+00  0.00000000e+00
atom      7.4717220084    19.2520314058    15.0599135996   Si  0.0 0.0    0.00000000e+00  0.00000000e+00  0.00000000e+00
atom      7.8046490084    19.2520314058    19.7888485996   Si  0.0 0.0    0.00000000e+00  0.00000000e+00  0.00000000e+00
atom     11.5715590084    19.2520314058    13.1684865996   Si  0.0 0.0    0.00000000e+00  0.00000000e+00  0.00000000e+00
atom     12.9231020084    19.2520314058    21.4012435996   Mg  0.0 0.0    0.00000000e+00  0.00000000e+00  0.00000000e+00
atom     15.2199310084    15.4016254058    12.4833815996   Mg  0.0 0.0    0.00000000e+00  0.00000000e+00  0.00000000e+00
atom     17.1686370084    15.4016254058    19.0993715996   Mg  0.0 0.0    0.00000000e+00  0.00000000e+00  0.00000000e+00
atom     22.5149120084    19.2520314058     6.0172555996   Mg  0.0 0.0    0.00000000e+00  0.00000000e+00  0.00000000e+00
atom     24.4635550084    19.2520314058    12.6333315996   Mg  0.0 0.0    0.00000000e+00  0.00000000e+00  0.00000000e+00
atom     14.5932150084    19.2520314058    16.5507335996   Si  0.0 0.0    0.00000000e+00  0.00000000e+00  0.00000000e+00
atom     18.3601420084    19.2520314058     9.9303695996   Si  0.0 0.0    0.00000000e+00  0.00000000e+00  0.00000000e+00
atom     18.6930550084    19.2520314058    14.6593035996   Si  0.0 0.0    0.00000000e+00  0.00000000e+00  0.00000000e+00
atom     20.9903580084    15.4016254058    10.4573725996   Si  0.0 0.0    0.00000000e+00  0.00000000e+00  0.00000000e+00
atom     21.3232860084    15.4016254058    15.1863075996   Si  0.0 0.0    0.00000000e+00  0.00000000e+00  0.00000000e+00
atom     25.0901960084    15.4016254058     8.5659455996   Si  0.0 0.0    0.00000000e+00  0.00000000e+00  0.00000000e+00
energy 0.000000000000000e+00
charge 0.0000
end
begin
comment uuid: d0dc4e30-e6d6-4620-8877-255d426671bb parent_uuid: a92eb12b-a1c1-421e-9fbe-b522f1045a85 trajectory_step: final_scf
lattice     27.0372728256    -0.0000000004    -9.2050815968
lattice      0.0000000000    23.1024381087     0.0000000000
lattice     -0.6373419832     0.0000000000    26.1665111992
atom     -0.2768640000     0.0000000000    12.9205290000   Mg  0.0 0.0    0.00000000e+00  0.00000000e+00  0.00000000e+00
atom      2.0199660000     3.8504060000     4.0026660000   Mg  0.0 0.0    0.00000000e+00  0.00000000e+00  0.00000000e+00
atom      3.9686720000     3.8504060000    10.6186570000   Mg  0.0 0.0    0.00000000e+00  0.00000000e+00  0.00000000e+00
atom      9.3149460000     0.0000000000    -2.4634590000   Mg  0.0 0.0    0.00000000e+00  0.00000000e+00  0.00000000e+00
atom     11.2635890000     0.0000000000     4.1526170000   Mg  0.0 0.0    0.00000000e+00  0.00000000e+00  0.00000000e+00
atom      1.3932490000     0.0000000000     8.0700190000   Si  0.0 0.0    0.00000000e+00  0.00000000e+00  0.00000000e+00
atom      5.1601760000     0.0000000000     1.4496550000   Si  0.0 0.0    0.00000000e+00  0.00000000e+00  0.00000000e+00
atom      5.4930890000     0.0000000000     6.1785890000   Si  0.0 0.0    0.00000000e+00  0.00000000e+00  0.00000000e+00
atom      7.7903930000     3.8504060000     1.9766580000   Si  0.0 0.0    0.00000000e+00  0.00000000e+00  0.00000000e+00
atom      8.1233200000     3.8504060000     6.7055930000   Si  0.0 0.0    0.00000000e+00  0.00000000e+00  0.00000000e+00
atom     11.8902300000     3.8504060000     0.0852310000   Si  0.0 0.0    0.00000000e+00  0.00000000e+00  0.00000000e+00
atom     13.2417730000     3.8504060000     8.3179880000   Mg  0.0 0.0    0.00000000e+00  0.00000000e+00  0.00000000e+00
atom     15.5386020000     0.0000000000    -0.5998740000   Mg  0.0 0.0    0.00000000e+00  0.00000000e+00  0.00000000e+00
atom     17.4873080000     0.0000000000     6.0161160000   Mg  0.0 0.0    0.00000000e+00  0.00000000e+00  0.00000000e+00
atom     22.8335830000     3.8504060000    -7.0660000000   Mg  0.0 0.0    0.00000000e+00  0.00000000e+00  0.00000000e+00
atom     24.7822260000     3.8504060000    -0.4499240000   Mg  0.0 0.0    0.00000000e+00  0.00000000e+00  0.00000000e+00
atom     14.9118860000     3.8504060000     3.4674780000   Si  0.0 0.0    0.00000000e+00  0.00000000e+00  0.00000000e+00
atom     18.6788130000     3.8504060000    -3.1528860000   Si  0.0 0.0    0.00000000e+00  0.00000000e+00  0.00000000e+00
atom     19.0117260000     3.8504060000     1.5760480000   Si  0.0 0.0    0.00000000e+00  0.00000000e+00  0.00000000e+00
atom     21.3090290000     0.0000000000    -2.6258830000   Si  0.0 0.0    0.00000000e+00  0.00000000e+00  0.00000000e+00
atom     21.6419570000     0.0000000000     2.1030520000   Si  0.0 0.0    0.00000000e+00  0.00000000e+00  0.00000000e+00
atom     25.4088670000     0.0000000000    -4.5173100000   Si  0.0 0.0    0.00000000e+00  0.00000000e+00  0.00000000e+00
atom     -0.5955349916     0.0000000000    26.0037845996   Mg  0.0 0.0    0.00000000e+00  0.00000000e+00  0.00000000e+00
atom      1.7012950084     3.8504060000    17.0859215996   Mg  0.0 0.0    0.00000000e+00  0.00000000e+00  0.00000000e+00
atom      3.6500010084     3.8504060000    23.7019125996   Mg  0.0 0.0    0.00000000e+00  0.00000000e+00  0.00000000e+00
atom      8.9962750084     0.0000000000    10.6197965996   Mg  0.0 0.0    0.00000000e+00  0.00000000e+00  0.00000000e+00
atom     10.9449180084     0.0000000000    17.2358725996   Mg  0.0 0.0    0.00000000e+00  0.00000000e+00  0.00000000e+00
atom      1.0745780084     0.0000000000    21.1532745996   Si  0.0 0.0    0.00000000e+00  0.00000000e+00  0.00000000e+00
atom      4.8415050084     0.0000000000    14.5329105996   Si  0.0 0.0    0.00000000e+00  0.00000000e+00  0.00000000e+00
atom      5.1744180084     0.0000000000    19.2618445996   Si  0.0 0.0    0.00000000e+00  0.00000000e+00  0.00000000e+00
atom      7.4717220084     3.8504060000    15.0599135996   Si  0.0 0.0    0.00000000e+00  0.00000000e+00  0.00000000e+00
atom      7.8046490084     3.8504060000    19.7888485996   Si  0.0 0.0    0.00000000e+00  0.00000000e+00  0.00000000e+00
atom     11.5715590084     3.8504060000    13.1684865996   Si  0.0 0.0    0.00000000e+00  0.00000000e+00  0.00000000e+00
atom     12.9231020084     3.8504060000    21.4012435996   Mg  0.0 0.0    0.00000000e+00  0.00000000e+00  0.00000000e+00
atom     15.2199310084     0.0000000000    12.4833815996   Mg  0.0 0.0    0.00000000e+00  0.00000000e+00  0.00000000e+00
atom     17.1686370084     0.0000000000    19.0993715996   Mg  0.0 0.0    0.00000000e+00  0.00000000e+00  0.00000000e+00
atom     22.5149120084     3.8504060000     6.0172555996   Mg  0.0 0.0    0.00000000e+00  0.00000000e+00  0.00000000e+00
atom     24.4635550084     3.8504060000    12.6333315996   Mg  0.0 0.0    0.00000000e+00  0.00000000e+00  0.00000000e+00
atom     14.5932150084     3.8504060000    16.5507335996   Si  0.0 0.0    0.00000000e+00  0.00000000e+00  0.00000000e+00
atom     18.3601420084     3.8504060000     9.9303695996   Si  0.0 0.0    0.00000000e+00  0.00000000e+00  0.00000000e+00
atom     18.6930550084     3.8504060000    14.6593035996   Si  0.0 0.0    0.00000000e+00  0.00000000e+00  0.00000000e+00
atom     20.9903580084     0.0000000000    10.4573725996   Si  0.0 0.0    0.00000000e+00  0.00000000e+00  0.00000000e+00
atom     21.3232860084     0.0000000000    15.1863075996   Si  0.0 0.0    0.00000000e+00  0.00000000e+00  0.00000000e+00
atom     25.0901960084     0.0000000000     8.5659455996   Si  0.0 0.0    0.00000000e+00  0.00000000e+00  0.00000000e+00
atom     -0.2768640000     7.7008127029    12.9205290000   Mg  0.0 0.0    0.00000000e+00  0.00000000e+00  0.00000000e+00
atom      2.0199660000    11.5512187029     4.0026660000   Mg  0.0 0.0    0.00000000e+00  0.00000000e+00  0.00000000e+00
atom      3.9686720000    11.5512187029    10.6186570000   Mg  0.0 0.0    0.00000000e+00  0.00000000e+00  0.00000000e+00
atom      9.3149460000     7.7008127029    -2.4634590000   Mg  0.0 0.0    0.00000000e+00  0.00000000e+00  0.00000000e+00
atom     11.2635890000     7.7008127029     4.1526170000   Mg  0.0 0.0    0.00000000e+00  0.00000000e+00  0.00000000e+00
atom      1.3932490000     7.7008127029     8.0700190000   Si  0.0 0.0    0.00000000e+00  0.00000000e+00  0.00000000e+00
atom      5.1601760000     7.7008127029     1.4496550000   Si  0.0 0.0    0.00000000e+00  0.00000000e+00  0.00000000e+00
atom      5.4930890000     7.7008127029     6.1785890000   Si  0.0 0.0    0.00000000e+00  0.00000000e+00  0.00000000e+00
atom      7.7903930000    11.5512187029     1.9766580000   Si  0.0 0.0    0.00000000e+00  0.00000000e+00  0.00000000e+00
atom      8.1233200000    11.5512187029     6.7055930000   Si  0.0 0.0    0.00000000e+00  0.00000000e+00  0.00000000e+00
atom     11.8902300000    11.5512187029     0.0852310000   Si  0.0 0.0    0.00000000e+00  0.00000000e+00  0.00000000e+00
atom     13.2417730000    11.5512187029     8.3179880000   Mg  0.0 0.0    0.00000000e+00  0.00000000e+00  0.00000000e+00
atom     15.5386020000     7.7008127029    -0.5998740000   Mg  0.0 0.0    0.00000000e+00  0.00000000e+00  0.00000000e+00
atom     17.4873080000     7.7008127029     6.0161160000   Mg  0.0 0.0    0.00000000e+00  0.00000000e+00  0.00000000e+00
atom     22.8335830000    11.5512187029    -7.0660000000   Mg  0.0 0.0    0.00000000e+00  0.00000000e+00  0.00000000e+00
atom     24.7822260000    11.5512187029    -0.4499240000   Mg  0.0 0.0    0.00000000e+00  0.00000000e+00  0.00000000e+00
atom     14.9118860000    11.5512187029     3.4674780000   Si  0.0 0.0    0.00000000e+00  0.00000000e+00  0.00000000e+00
atom     18.6788130000    11.5512187029    -3.1528860000   Si  0.0 0.0    0.00000000e+00  0.00000000e+00  0.00000000e+00
atom     19.0117260000    11.5512187029     1.5760480000   Si  0.0 0.0    0.00000000e+00  0.00000000e+00  0.00000000e+00
atom     21.3090290000     7.7008127029    -2.6258830000   Si  0.0 0.0    0.00000000e+00  0.00000000e+00  0.00000000e+00
atom     21.6419570000     7.7008127029     2.1030520000   Si  0.0 0.0    0.00000000e+00  0.00000000e+00  0.00000000e+00
atom     25.4088670000     7.7008127029    -4.5173100000   Si  0.0 0.0    0.00000000e+00  0.00000000e+00  0.00000000e+00
atom     -0.5955349916     7.7008127029    26.0037845996   Mg  0.0 0.0    0.00000000e+00  0.00000000e+00  0.00000000e+00
atom      1.7012950084    11.5512187029    17.0859215996   Mg  0.0 0.0    0.00000000e+00  0.00000000e+00  0.00000000e+00
atom      3.6500010084    11.5512187029    23.7019125996   Mg  0.0 0.0    0.00000000e+00  0.00000000e+00  0.00000000e+00
atom      8.9962750084     7.7008127029    10.6197965996   Mg  0.0 0.0    0.00000000e+00  0.00000000e+00  0.00000000e+00
atom     10.9449180084     7.7008127029    17.2358725996   Mg  0.0 0.0    0.00000000e+00  0.00000000e+00  0.00000000e+00
atom      1.0745780084     7.7008127029    21.1532745996   Si  0.0 0.0    0.00000000e+00  0.00000000e+00  0.00000000e+00
atom      4.8415050084     7.7008127029    14.5329105996   Si  0.0 0.0    0.00000000e+00  0.00000000e+00  0.00000000e+00
atom      5.1744180084     7.7008127029    19.2618445996   Si  0.0 0.0    0.00000000e+00  0.00000000e+00  0.00000000e+00
atom      7.4717220084    11.5512187029    15.0599135996   Si  0.0 0.0    0.00000000e+00  0.00000000e+00  0.00000000e+00
atom      7.8046490084    11.5512187029    19.7888485996   Si  0.0 0.0    0.00000000e+00  0.00000000e+00  0.00000000e+00
atom     11.5715590084    11.5512187029    13.1684865996   Si  0.0 0.0    0.00000000e+00  0.00000000e+00  0.00000000e+00
atom     12.9231020084    11.5512187029    21.4012435996   Mg  0.0 0.0    0.00000000e+00  0.00000000e+00  0.00000000e+00
atom     15.2199310084     7.7008127029    12.4833815996   Mg  0.0 0.0    0.00000000e+00  0.00000000e+00  0.00000000e+00
atom     17.1686370084     7.7008127029    19.0993715996   Mg  0.0 0.0    0.00000000e+00  0.00000000e+00  0.00000000e+00
atom     22.5149120084    11.5512187029     6.0172555996   Mg  0.0 0.0    0.00000000e+00  0.00000000e+00  0.00000000e+00
atom     24.4635550084    11.5512187029    12.6333315996   Mg  0.0 0.0    0.00000000e+00  0.00000000e+00  0.00000000e+00
atom     14.5932150084    11.5512187029    16.5507335996   Si  0.0 0.0    0.00000000e+00  0.00000000e+00  0.00000000e+00
atom     18.3601420084    11.5512187029     9.9303695996   Si  0.0 0.0    0.00000000e+00  0.00000000e+00  0.00000000e+00
atom     18.6930550084    11.5512187029    14.6593035996   Si  0.0 0.0    0.00000000e+00  0.00000000e+00  0.00000000e+00
atom     20.9903580084     7.7008127029    10.4573725996   Si  0.0 0.0    0.00000000e+00  0.00000000e+00  0.00000000e+00
atom     21.3232860084     7.7008127029    15.1863075996   Si  0.0 0.0    0.00000000e+00  0.00000000e+00  0.00000000e+00
atom     25.0901960084     7.7008127029     8.5659455996   Si  0.0 0.0    0.00000000e+00  0.00000000e+00  0.00000000e+00
atom     -0.2768640000    15.4016254058    12.9205290000   Mg  0.0 0.0    0.00000000e+00  0.00000000e+00  0.00000000e+00
atom      2.0199660000    19.2520314058     4.0026660000   Mg  0.0 0.0    0.00000000e+00  0.00000000e+00  0.00000000e+00
atom      3.9686720000    19.2520314058    10.6186570000   Mg  0.0 0.0    0.00000000e+00  0.00000000e+00  0.00000000e+00
atom      9.3149460000    15.4016254058    -2.4634590000   Mg  0.0 0.0    0.00000000e+00  0.00000000e+00  0.00000000e+00
atom     11.2635890000    15.4016254058     4.1526170000   Mg  0.0 0.0    0.00000000e+00  0.00000000e+00  0.00000000e+00
atom      1.3932490000    15.4016254058     8.0700190000   Si  0.0 0.0    0.00000000e+00  0.00000000e+00  0.00000000e+00
atom      5.1601760000    15.4016254058     1.4496550000   Si  0.0 0.0    0.00000000e+00  0.00000000e+00  0.00000000e+00
atom      5.4930890000    15.4016254058     6.1785890000   Si  0.0 0.0    0.00000000e+00  0.00000000e+00  0.00000000e+00
atom      7.7903930000    19.2520314058     1.9766580000   Si  0.0 0.0    0.00000000e+00  0.00000000e+00  0.00000000e+00
atom      8.1233200000    19.2520314058     6.7055930000   Si  0.0 0.0    0.00000000e+00  0.00000000e+00  0.00000000e+00
atom     11.8902300000    19.2520314058     0.0852310000   Si  0.0 0.0    0.00000000e+00  0.00000000e+00  0.00000000e+00
atom     13.2417730000    19.2520314058     8.3179880000   Mg  0.0 0.0    0.00000000e+00  0.00000000e+00  0.00000000e+00
atom     15.5386020000    15.4016254058    -0.5998740000   Mg  0.0 0.0    0.00000000e+00  0.00000000e+00  0.00000000e+00
atom     17.4873080000    15.4016254058     6.0161160000   Mg  0.0 0.0    0.00000000e+00  0.00000000e+00  0.00000000e+00
atom     22.8335830000    19.2520314058    -7.0660000000   Mg  0.0 0.0    0.00000000e+00  0.00000000e+00  0.00000000e+00
atom     24.7822260000    19.2520314058    -0.4499240000   Mg  0.0 0.0    0.00000000e+00  0.00000000e+00  0.00000000e+00
atom     14.9118860000    19.2520314058     3.4674780000   Si  0.0 0.0    0.00000000e+00  0.00000000e+00  0.00000000e+00
atom     18.6788130000    19.2520314058    -3.1528860000   Si  0.0 0.0    0.00000000e+00  0.00000000e+00  0.00000000e+00
atom     19.0117260000    19.2520314058     1.5760480000   Si  0.0 0.0    0.00000000e+00  0.00000000e+00  0.00000000e+00
atom     21.3090290000    15.4016254058    -2.6258830000   Si  0.0 0.0    0.00000000e+00  0.00000000e+00  0.00000000e+00
atom     21.6419570000    15.4016254058     2.1030520000   Si  0.0 0.0    0.00000000e+00  0.00000000e+00  0.00000000e+00
atom     25.4088670000    15.4016254058    -4.5173100000   Si  0.0 0.0    0.00000000e+00  0.00000000e+00  0.00000000e+00