begin
comment uuid: 214987d9-9043-440d-af0a-812ec59364b7 parent_uuid: 00284ee1-6af0-439a-857f-64d2dfa5a7e3 trajectory_step: final_scf
lattice     27.4841493030     0.0000000002    -7.8194519869
lattice     -0.0000000003    23.3986497144    -0.0000000009
lattice     -0.3015483366    -0.0000000008    24.9774527072
atom     -0.1102690000     0.0000000000    12.3347870000   Al  0.0 0.0    0.00000000e+00  0.00000000e+00  0.00000000e+00
atom      1.9583800000     3.8997750000     3.6072050000   Mg  0.0 0.0    0.00000000e+00  0.00000000e+00  0.00000000e+00
atom      4.0867740000     3.8997750000    10.0389700000   Mg  0.0 0.0    0.00000000e+00  0.00000000e+00  0.00000000e+00
atom      9.5856190000     0.0000000000    -1.7679640000   Mg  0.0 0.0    0.00000000e+00  0.00000000e+00  0.00000000e+00
atom     11.7139720000     0.0000000000     4.6639470000   Mg  0.0 0.0    0.00000000e+00  0.00000000e+00  0.00000000e+00
atom      1.5238540000     0.0000000000     7.7012450000   Si  0.0 0.0    0.00000000e+00  0.00000000e+00  0.00000000e+00
atom      5.0339660000     0.0000000000     1.1331970000   Si  0.0 0.0    0.00000000e+00  0.00000000e+00  0.00000000e+00
atom      5.9302470000     0.0000000000     5.8851170000   Al  0.0 0.0    0.00000000e+00  0.00000000e+00  0.00000000e+00
atom      7.7420020000     3.8997750000     2.3858890000   Al  0.0 0.0    0.00000000e+00  0.00000000e+00  0.00000000e+00
atom      8.6382370000     3.8997750000     7.1377640000   Si  0.0 0.0    0.00000000e+00  0.00000000e+00  0.00000000e+00
atom     12.1483510000     3.8997750000     0.5698470000   Si  0.0 0.0    0.00000000e+00  0.00000000e+00  0.00000000e+00
atom     13.6318050000     3.8997750000     8.4250610000   Al  0.0 0.0    0.00000000e+00  0.00000000e+00  0.00000000e+00
atom     15.7004540000     0.0000000000    -0.3025210000   Mg  0.0 0.0    0.00000000e+00  0.00000000e+00  0.00000000e+00
atom     17.8288490000     0.0000000000     6.1292440000   Mg  0.0 0.0    0.00000000e+00  0.00000000e+00  0.00000000e+00
atom     23.3276940000     3.8997750000    -5.6776900000   Mg  0.0 0.0    0.00000000e+00  0.00000000e+00  0.00000000e+00
atom     25.4560470000     3.8997750000     0.7542210000   Mg  0.0 0.0    0.00000000e+00  0.00000000e+00  0.00000000e+00
atom     15.2659280000     3.8997750000     3.7915190000   Si  0.0 0.0    0.00000000e+00  0.00000000e+00  0.00000000e+00
atom     18.7760400000     3.8997750000    -2.7765290000   Si  0.0 0.0    0.00000000e+00  0.00000000e+00  0.00000000e+00
atom     19.6723220000     3.8997750000     1.9753910000   Al  0.0 0.0    0.00000000e+00  0.00000000e+00  0.00000000e+00
atom     21.4840770000     0.0000000000    -1.5238370000   Al  0.0 0.0    0.00000000e+00  0.00000000e+00  0.00000000e+00
atom     22.3803110000     0.0000000000     3.2280380000   Si  0.0 0.0    0.00000000e+00  0.00000000e+00  0.00000000e+00
atom     25.8904260000     0.0000000000    -3.3398790000   Si  0.0 0.0    0.00000000e+00  0.00000000e+00  0.00000000e+00
atom     -0.2610431683    -0.0000000004    24.8235133536   Al  0.0 0.0    0.00000000e+00  0.00000000e+00  0.00000000e+00
atom      1.8076058317     3.8997749996    16.0959313536   Mg  0.0 0.0    0.00000000e+00  0.00000000e+00  0.00000000e+00
atom      3.9359998317     3.8997749996    22.5276963536   Mg  0.0 0.0    0.00000000e+00  0.00000000e+00  0.00000000e+00
atom      9.4348448317    -0.0000000004    10.7207623536   Mg  0.0 0.0    0.00000000e+00  0.00000000e+00  0.00000000e+00
atom     11.5631978317    -0.0000000004    17.1526733536   Mg  0.0 0.0    0.00000000e+00  0.00000000e+00  0.00000000e+00
atom      1.3730798317    -0.0000000004    20.1899713536   Si  0.0 0.0    0.00000000e+00  0.00000000e+00  0.00000000e+00
atom      4.8831918317    -0.0000000004    13.6219233536   Si  0.0 0.0    0.00000000e+00  0.00000000e+00  0.00000000e+00
atom      5.7794728317    -0.0000000004    18.3738433536   Al  0.0 0.0    0.00000000e+00  0.00000000e+00  0.00000000e+00
atom      7.5912278317     3.8997749996    14.8746153536   Al  0.0 0.0    0.00000000e+00  0.00000000e+00  0.00000000e+00
atom      8.4874628317     3.8997749996    19.6264903536   Si  0.0 0.0    0.00000000e+00  0.00000000e+00  0.00000000e+00
atom     11.9975768317     3.8997749996    13.0585733536   Si  0.0 0.0    0.00000000e+00  0.00000000e+00  0.00000000e+00
atom     13.4810308317     3.8997749996    20.9137873536   Al  0.0 0.0    0.00000000e+00  0.00000000e+00  0.00000000e+00
atom     15.5496798317    -0.0000000004    12.1862053536   Mg  0.0 0.0    0.00000000e+00  0.00000000e+00  0.00000000e+00
atom     17.6780748317    -0.0000000004    18.6179703536   Mg  0.0 0.0    0.00000000e+00  0.00000000e+00  0.00000000e+00
atom     23.1769198317     3.8997749996     6.8110363536   Mg  0.0 0.0    0.00000000e+00  0.00000000e+00  0.00000000e+00
atom     25.3052728317     3.8997749996    13.2429473536   Mg  0.0 0.0    0.00000000e+00  0.00000000e+00  0.00000000e+00
atom     15.1151538317     3.8997749996    16.2802453536   Si  0.0 0.0    0.00000000e+00  0.00000000e+00  0.00000000e+00
atom     18.6252658317     3.8997749996     9.7121973536   Si  0.0 0.0    0.00000000e+00  0.00000000e+00  0.00000000e+00
atom     19.5215478317     3.8997749996    14.4641173536   Al  0.0 0.0    0.00000000e+00  0.00000000e+00  0.00000000e+00
atom     21.3333028317    -0.0000000004    10.9648893536   Al  0.0 0.0    0.00000000e+00  0.00000000e+00  0.00000000e+00
atom     22.2295368317    -0.0000000004    15.7167643536   Si  0.0 0.0    0.00000000e+00  0.00000000e+00  0.00000000e+00
atom     25.7396518317    -0.0000000004     9.1488473536   Si  0.0 0.0    0.00000000e+00  0.00000000e+00  0.00000000e+00
atom     -0.1102690001     7.7995499048    12.3347869997   Al  0.0 0.0    0.00000000e+00  0.00000000e+00  0.00000000e+00
atom      1.9583799999    11.6993249048     3.6072049997   Mg  0.0 0.0    0.00000000e+00  0.00000000e+00  0.00000000e+00
atom      4.0867739999    11.6993249048    10.0389699997   Mg  0.0 0.0    0.00000000e+00  0.00000000e+00  0.00000000e+00
atom      9.5856189999     7.7995499048    -1.7679640003   Mg  0.0 0.0    0.00000000e+00  0.00000000e+00  0.00000000e+00
atom     11.7139719999     7.7995499048     4.6639469997   Mg  0.0 0.0    0.00000000e+00  0.00000000e+00  0.00000000e+00
atom      1.5238539999     7.7995499048     7.7012449997   Si  0.0 0.0    0.00000000e+00  0.00000000e+00  0.00000000e+00
atom      5.0339659999     7.7995499048     1.1331969997   Si  0.0 0.0    0.00000000e+00  0.00000000e+00  0.00000000e+00
atom      5.9302469999     7.7995499048     5.8851169997   Al  0.0 0.0    0.00000000e+00  0.00000000e+00  0.00000000e+00
atom      7.7420019999    11.6993249048     2.3858889997   Al  0.0 0.0    0.00000000e+00  0.00000000e+00  0.00000000e+00
atom      8.6382369999    11.6993249048     7.1377639997   Si  0.0 0.0    0.00000000e+00  0.00000000e+00  0.00000000e+00
atom     12.1483509999    11.6993249048     0.5698469997   Si  0.0 0.0    0.00000000e+00  0.00000000e+00  0.00000000e+00
atom     13.6318049999    11.6993249048     8.4250609997   Al  0.0 0.0    0.00000000e+00  0.00000000e+00  0.00000000e+00
atom     15.7004539999     7.7995499048    -0.3025210003   Mg  0.0 0.0    0.00000000e+00  0.00000000e+00  0.00000000e+00
atom     17.8288489999     7.7995499048     6.1292439997   Mg  0.0 0.0    0.00000000e+00  0.00000000e+00  0.00000000e+00
atom     23.3276939999    11.6993249048    -5.6776900003   Mg  0.0 0.0    0.00000000e+00  0.00000000e+00  0.00000000e+00
atom     25.4560469999    11.6993249048     0.7542209997   Mg  0.0 0.0    0.00000000e+00  0.00000000e+00  0.00000000e+00
atom     15.2659279999    11.6993249048     3.7915189997   Si  0.0 0.0    0.00000000e+00  0.00000000e+00  0.00000000e+00
atom     18.7760399999    11.6993249048    -2.7765290003   Si  0.0 0.0    0.00000000e+00  0.00000000e+00  0.00000000e+00
atom     19.6723219999    11.6993249048     1.9753909997   Al  0.0 0.0    0.00000000e+00  0.00000000e+00  0.00000000e+00
atom     21.4840769999     7.7995499048    -1.5238370003   Al  0.0 0.0    0.00000000e+00  0.00000000e+00  0.00000000e+00
atom     22.3803109999     7.7995499048     3.2280379997   Si  0.0 0.0    0.00000000e+00  0.00000000e+00  0.00000000e+00
atom     25.8904259999     7.7995499048    -3.3398790003   Si  0.0 0.0    0.00000000e+00  0.00000000e+00  0.00000000e+00
atom     -0.2610431684     7.7995499044    24.8235133533   Al  0.0 0.0    0.00000000e+00  0.00000000e+00  0.00000000e+00
atom      1.8076058316    11.6993249044    16.0959313533   Mg  0.0 0.0    0.00000000e+00  0.00000000e+00  0.00000000e+00
atom      3.9359998316    11.6993249044    22.5276963533   Mg  0.0 0.0    0.00000000e+00  0.00000000e+00  0.00000000e+00
atom      9.4348448316     7.7995499044    10.7207623533   Mg  0.0 0.0    0.00000000e+00  0.00000000e+00  0.00000000e+00
atom     11.5631978316     7.7995499044    17.1526733533   Mg  0.0 0.0    0.00000000e+00  0.00000000e+00  0.00000000e+00
atom      1.3730798316     7.7995499044    20.1899713533   Si  0.0 0.0    0.00000000e+00  0.00000000e+00  0.00000000e+00
atom      4.8831918316     7.7995499044    13.6219233533   Si  0.0 0.0    0.00000000e+00  0.00000000e+00  0.00000000e+00
atom      5.7794728316     7.7995499044    18.3738433533   Al  0.0 0.0    0.00000000e+00  0.00000000e+00  0.00000000e+00
atom      7.5912278316    11.6993249044    14.8746153533   Al  0.0 0.0    0.00000000e+00  0.00000000e+00  0.00000000e+00
atom      8.4874628316    11.6993249044    19.6264903533   Si  0.0 0.0    0.00000000e+00  0.00000000e+00  0.00000000e+00
atom     11.9975768316    11.6993249044    13.0585733533   Si  0.0 0.0    0.00000000e+00  0.00000000e+00  0.00000000e+00
atom     13.4810308316    11.6993249044    20.9137873533   Al  0.0 0.0    0.00000000e+00  0.00000000e+00  0.00000000e+00
atom     15.5496798316     7.7995499044    12.1862053533   Mg  0.0 0.0    0.00000000e+00  0.00000000e+00  0.00000000e+00
atom     17.6780748316     7.7995499044    18.6179703533   Mg  0.0 0.0    0.00000000e+00  0.00000000e+00  0.00000000e+00
atom     23.1769198316    11.6993249044     6.8110363533   Mg  0.0 0.0    0.00000000e+00  0.00000000e+00  0.00000000e+00
atom     25.3052728316    11.6993249044    13.2429473533   Mg  0.0 0.0    0.00000000e+00  0.00000000e+00  0.00000000e+00
atom     15.1151538316    11.6993249044    16.2802453533   Si  0.0 0.0    0.00000000e+00  0.00000000e+00  0.00000000e+00
atom     18.6252658316    11.6993249044     9.7121973533   Si  0.0 0.0    0.00000000e+00  0.00000000e+00  0.00000000e+00
atom     19.5215478316    11.6993249044    14.4641173533   Al  0.0 0.0    0.00000000e+00  0.00000000e+00  0.00000000e+00
atom     21.3333028316     7.7995499044    10.9648893533   Al  0.0 0.0    0.00000000e+00  0.00000000e+00  0.00000000e+00
atom     22.2295368316     7.7995499044    15.7167643533   Si  0.0 0.0    0.00000000e+00  0.00000000e+00  0.00000000e+00
atom     25.7396518316     7.7995499044     9.1488473533   Si  0.0 0.0    0.00000000e+00  0.00000000e+00  0.00000000e+00
atom     -0.1102690002    15.5990998096    12.3347869994   Al  0.0 0.0    0.00000000e+00  0.00000000e+00  0.00000000e+00
atom      1.9583799998    19.4988748096     3.6072049994   Mg  0.0 0.0    0.00000000e+00  0.00000000e+00  0.00000000e+00
atom      4.0867739998    19.4988748096    10.0389699994   Mg  0.0 0.0    0.00000000e+00  0.00000000e+00  0.00000000e+00
atom      9.5856189998    15.5990998096    -1.7679640006   Mg  0.0 0.0    0.00000000e+00  0.00000000e+00  0.00000000e+00
atom     11.7139719998    15.5990998096     4.6639469994   Mg  0.0 0.0    0.00000000e+00  0.00000000e+00  0.00000000e+00
atom      1.5238539998    15.5990998096     7.7012449994   Si  0.0 0.0    0.00000000e+00  0.00000000e+00  0.00000000e+00
atom      5.0339659998    15.5990998096     1.1331969994   Si  0.0 0.0    0.00000000e+00  0.00000000e+00  0.00000000e+00
atom      5.9302469998    15.5990998096     5.8851169994   Al  0.0 0.0    0.00000000e+00  0.00000000e+00  0.00000000e+00
atom      7.7420019998    19.4988748096     2.3858889994   Al  0.0 0.0    0.00000000e+00  0.00000000e+00  0.00000000e+00
atom      8.6382369998    19.4988748096     7.1377639994   Si  0.0 0.0    0.00000000e+00  0.00000000e+00  0.00000000e+00
atom     12.1483509998    19.4988748096     0.5698469994   Si  0.0 0.0    0.00000000e+00  0.00000000e+00  0.00000000e+00
atom     13.6318049998    19.4988748096     8.4250609994   Al  0.0 0.0    0.00000000e+00  0.00000000e+00  0.00000000e+00
atom     15.7004539998    15.5990998096    -0.3025210006   Mg  0.0 0.0    0.00000000e+00  0.00000000e+00  0.00000000e+00
atom     17.8288489998    15.5990998096     6.1292439994   Mg  0.0 0.0    0.00000000e+00  0.00000000e+00  0.00000000e+00
atom     23.3276939998    19.4988748096    -5.6776900006   Mg  0.0 0.0    0.00000000e+00  0.00000000e+00  0.00000000e+00
atom     25.4560469998    19.4988748096     0.7542209994   Mg  0.0 0.0    0.00000000e+00  0.00000000e+00  0.00000000e+00
atom     15.2659279998    19.4988748096     3.7915189994   Si  0.0 0.0    0.00000000e+00  0.00000000e+00  0.00000000e+00
atom     18.7760399998    19.4988748096    -2.7765290006   Si  0.0 0.0    0.00000000e+00  0.00000000e+00  0.00000000e+00
atom     19.6723219998    19.4988748096     1.9753909994   Al  0.0 0.0    0.00000000e+00  0.00000000e+00  0.00000000e+00
atom     21.4840769998    15.5990998096    -1.5238370006   Al  0.0 0.0    0.00000000e+00  0.00000000e+00  0.00000000e+00
atom     22.3803109998    15.5990998096     3.2280379994   Si  0.0 0.0    0.00000000e+00  0.00000000e+00  0.00000000e+00
atom     25.8904259998    15.5990998096    -3.3398790006   Si  0.0 0.0    0.00000000e+00  0.00000000e+00  0.00000000e+00
atom     -0.2610431685    15.5990998092    24.8235133530   Al  0.0 0.0    0.00000000e+00  0.00000000e+00  0.00000000e+00
atom      1.8076058315    19.4988748092    16.0959313530   Mg  0.0 0.0    0.00000000e+00  0.00000000e+00  0.00000000e+00
atom      3.9359998315    19.4988748092    22.5276963530   Mg  0.0 0.0    0.00000000e+00  0.00000000e+00  0.00000000e+00
atom      9.4348448315    15.5990998092    10.7207623530   Mg  0.0 0.0    0.00000000e+00  0.00000000e+00  0.00000000e+00
atom     11.5631978315    15.5990998092    17.1526733530   Mg  0.0 0.0    0.00000000e+00  0.00000000e+00  0.00000000e+00
atom      1.3730798315    15.5990998092    20.1899713530   Si  0.0 0.0    0.00000000e+00  0.00000000e+00  0.00000000e+00
atom      4.8831918315    15.5990998092    13.6219233530   Si  0.0 0.0    0.00000000e+00  0.00000000e+00  0.00000000e+00
atom      5.7794728315    15.5990998092    18.3738433530   Al  0.0 0.0    0.00000000e+00  0.00000000e+00  0.00000000e+00
atom      7.5912278315    19.4988748092    14.8746153530   Al  0.0 0.0    0.00000000e+00  0.00000000e+00  0.00000000e+00
atom      8.4874628315    19.4988748092    19.6264903530   Si  0.0 0.0    0.00000000e+00  0.00000000e+00  0.00000000e+00
atom     11.9975768315    19.4988748092    13.0585733530   Si  0.0 0.0    0.00000000e+00  0.00000000e+00  0.00000000e+00
atom     13.4810308315    19.4988748092    20.9137873530   Al  0.0 0.0    0.00000000e+00  0.00000000e+00  0.00000000e+00
atom     15.5496798315    15.5990998092    12.1862053530   Mg  0.0 0.0    0.00000000e+00  0.00000000e+00  0.00000000e+00
atom     17.6780748315    15.5990998092    18.6179703530   Mg  0.0 0.0    0.00000000e+00  0.00000000e+00  0.00000000e+00
atom     23.1769198315    19.4988748092     6.8110363530   Mg  0.0 0.0    0.00000000e+00  0.00000000e+00  0.00000000e+00
atom     25.3052728315    19.4988748092    13.2429473530   Mg  0.0 0.0    0.00000000e+00  0.00000000e+00  0.00000000e+00
atom     15.1151538315    19.4988748092    16.2802453530   Si  0.0 0.0    0.00000000e+00  0.00000000e+00  0.00000000e+00
atom     18.6252658315    19.4988748092     9.7121973530   Si  0.0 0.0    0.00000000e+00  0.00000000e+00  0.00000000e+00
atom     19.5215478315    19.4988748092    14.4641173530   Al  0.0 0.0    0.00000000e+00  0.00000000e+00  0.00000000e+00
atom     21.3333028315    15.5990998092    10.9648893530   Al  0.0 0.0    0.00000000e+00  0.00000000e+00  0.00000000e+00
atom     22.2295368315    15.5990998092    15.7167643530   Si  0.0 0.0    0.00000000e+00  0.00000000e+00  0.00000000e+00
atom     25.7396518315    15.5990998092     9.1488473530   Si  0.0 0.0    0.00000000e+00  0.00000000e+00  0.00000000e+00
energy 0.000000000000000e+00
charge 0.0000
end
begin
comment uuid: 214987d9-9043-440d-af0a-812ec59364b7 parent_uuid: 00284ee1-6af0-439a-857f-64d2dfa5a7e3 trajectory_step: final_scf
lattice     27.4841493030     0.0000000002    -7.8194519869
lattice     -0.0000000003    23.3986497144    -0.0000000009
lattice     -0.3015483366    -0.0000000008    24.9774527072
atom     -0.1102690000     0.0000000000    12.3347870000   Al  0.0 0.0    0.00000000e+00  0.00000000e+00  0.00000000e+00
atom      1.9583800000     3.8997750000     3.6072050000   Mg  0.0 0.0    0.00000000e+00  0.00000000e+00  0.00000000e+00
atom      4.0867740000     3.8997750000    10.0389700000   Mg  0.0 0.0    0.00000000e+00  0.00000000e+00  0.00000000e+00
atom      9.5856190000     0.0000000000    -1.7679640000   Mg  0.0 0.0    0.00000000e+00  0.00000000e+00  0.00000000e+00
atom     11.7139720000     0.0000000000     4.6639470000   Mg  0.0 0.0    0.00000000e+00  0.00000000e+00  0.00000000e+00
atom      1.5238540000     0.0000000000     7.7012450000   Si  0.0 0.0    0.00000000e+00  0.00000000e+00  0.00000000e+00
atom      5.0339660000     0.0000000000     1.1331970000   Si  0.0 0.0    0.00000000e+00  0.00000000e+00  0.00000000e+00
atom      5.9302470000     0.0000000000     5.8851170000   Al  0.0 0.0    0.00000000e+00  0.00000000e+00  0.00000000e+00
atom      7.7420020000     3.8997750000     2.3858890000   Al  0.0 0.0    0.00000000e+00  0.00000000e+00  0.00000000e+00
atom      8.6382370000     3.8997750000     7.1377640000   Si  0.0 0.0    0.00000000e+00  0.00000000e+00  0.00000000e+00
atom     12.1483510000     3.8997750000     0.5698470000   Si  0.0 0.0    0.00000000e+00  0.00000000e+00  0.00000000e+00
atom     13.6318050000     3.8997750000     8.4250610000   Al  0.0 0.0    0.00000000e+00  0.00000000e+00  0.00000000e+00
atom     15.7004540000     0.0000000000    -0.3025210000   Mg  0.0 0.0    0.00000000e+00  0.00000000e+00  0.00000000e+00
atom     17.8288490000     0.0000000000     6.1292440000   Mg  0.0 0.0    0.00000000e+00  0.00000000e+00  0.00000000e+00
atom     23.3276940000     3.8997750000    -5.6776900000   Mg  0.0 0.0    0.00000000e+00  0.00000000e+00  0.00000000e+00
atom     25.4560470000     3.8997750000     0.7542210000   Mg  0.0 0.0    0.00000000e+00  0.00000000e+00  0.00000000e+00
atom     15.2659280000     3.8997750000     3.7915190000   Si  0.0 0.0    0.00000000e+00  0.00000000e+00  0.00000000e+00
atom     18.7760400000     3.8997750000    -2.7765290000   Si  0.0 0.0    0.00000000e+00  0.00000000e+00  0.00000000e+00
atom     19.6723220000     3.8997750000     1.9753910000   Al  0.0 0.0    0.00000000e+00  0.00000000e+00  0.00000000e+00
atom     21.4840770000     0.0000000000    -1.5238370000   Al  0.0 0.0    0.00000000e+00  0.00000000e+00  0.00000000e+00
atom     22.3803110000     0.0000000000     3.2280380000   Si  0.0 0.0    0.00000000e+00  0.00000000e+00  0.00000000e+00
atom     25.8904260000     0.0000000000    -3.3398790000   Si  0.0 0.0    0.00000000e+00  0.00000000e+00  0.00000000e+00
atom     -0.2610431683    -0.0000000004    24.8235133536   Al  0.0 0.0    0.00000000e+00  0.00000000e+00  0.00000000e+00
atom      1.8076058317     3.8997749996    16.0959313536   Mg  0.0 0.0    0.00000000e+00  0.00000000e+00  0.00000000e+00
atom      3.9359998317     3.8997749996    22.5276963536   Mg  0.0 0.0    0.00000000e+00  0.00000000e+00  0.00000000e+00
atom      9.4348448317    -0.0000000004    10.7207623536   Mg  0.0 0.0    0.00000000e+00  0.00000000e+00  0.00000000e+00
atom     11.5631978317    -0.0000000004    17.1526733536   Mg  0.0 0.0    0.00000000e+00  0.00000000e+00  0.00000000e+00
atom      1.3730798317    -0.0000000004    20.1899713536   Si  0.0 0.0    0.00000000e+00  0.00000000e+00  0.00000000e+00
atom      4.8831918317    -0.0000000004    13.6219233536   Si  0.0 0.0    0.00000000e+00  0.00000000e+00  0.00000000e+00
atom      5.7794728317    -0.0000000004    18.3738433536   Al  0.0 0.0    0.00000000e+00  0.00000000e+00  0.00000000e+00
atom      7.5912278317     3.8997749996    14.8746153536   Al  0.0 0.0    0.00000000e+00  0.00000000e+00  0.00000000e+00
atom      8.4874628317     3.8997749996    19.6264903536   Si  0.0 0.0    0.00000000e+00  0.00000000e+00  0.00000000e+00
atom     11.9975768317     3.8997749996    13.0585733536   Si  0.0 0.0    0.00000000e+00  0.00000000e+00  0.00000000e+00
atom     13.4810308317     3.8997749996    20.9137873536   Al  0.0 0.0    0.00000000e+00  0.00000000e+00  0.00000000e+00
atom     15.5496798317    -0.0000000004    12.1862053536   Mg  0.0 0.0    0.00000000e+00  0.00000000e+00  0.00000000e+00
atom     17.6780748317    -0.0000000004    18.6179703536   Mg  0.0 0.0    0.00000000e+00  0.00000000e+00  0.00000000e+00
atom     23.1769198317     3.8997749996     6.8110363536   Mg  0.0 0.0    0.00000000e+00  0.00000000e+00  0.00000000e+00
atom     25.3052728317     3.8997749996    13.2429473536   Mg  0.0 0.0    0.00000000e+00  0.00000000e+00  0.00000000e+00
atom     15.1151538317     3.8997749996    16.2802453536   Si  0.0 0.0    0.00000000e+00  0.00000000e+00  0.00000000e+00
atom     18.6252658317     3.8997749996     9.7121973536   Si  0.0 0.0    0.00000000e+00  0.00000000e+00  0.00000000e+00
atom     19.5215478317     3.8997749996    14.4641173536   Al  0.0 0.0    0.00000000e+00  0.00000000e+00  0.00000000e+00
atom     21.3333028317    -0.0000000004    10.9648893536   Al  0.0 0.0    0.00000000e+00  0.00000000e+00  0.00000000e+00
atom     22.2295368317    -0.0000000004    15.7167643536   Si  0.0 0.0    0.00000000e+00  0.00000000e+00  0.00000000e+00
atom     25.7396518317    -0.0000000004     9.1488473536   Si  0.0 0.0    0.00000000e+00  0.00000000e+00  0.00000000e+00
atom     -0.1102690001     7.7995499048    12.3347869997   Al  0.0 0.0    0.00000000e+00  0.00000000e+00  0.00000000e+00
atom      1.9583799999    11.6993249048     3.6072049997   Mg  0.0 0.0    0.00000000e+00  0.00000000e+00  0.00000000e+00
atom      4.0867739999    11.6993249048    10.0389699997   Mg  0.0 0.0    0.00000000e+00  0.00000000e+00  0.00000000e+00
atom      9.5856189999     7.7995499048    -1.7679640003   Mg  0.0 0.0    0.00000000e+00  0.00000000e+00  0.00000000e+00
atom     11.7139719999     7.7995499048     4.6639469997   Mg  0.0 0.0    0.00000000e+00  0.00000000e+00  0.00000000e+00
atom      1.5238539999     7.7995499048     7.7012449997   Si  0.0 0.0    0.00000000e+00  0.00000000e+00  0.00000000e+00
atom      5.0339659999     7.7995499048     1.1331969997   Si  0.0 0.0    0.00000000e+00  0.00000000e+00  0.00000000e+00
atom      5.9302469999     7.7995499048     5.8851169997   Al  0.0 0.0    0.00000000e+00  0.00000000e+00  0.00000000e+00
atom      7.7420019999    11.6993249048     2.3858889997   Al  0.0 0.0    0.00000000e+00  0.00000000e+00  0.00000000e+00
atom      8.6382369999    11.6993249048     7.1377639997   Si  0.0 0.0    0.00000000e+00  0.00000000e+00  0.00000000e+00
atom     12.1483509999    11.6993249048     0.5698469997   Si  0.0 0.0    0.00000000e+00  0.00000000e+00  0.00000000e+00
atom     13.6318049999    11.6993249048     8.4250609997   Al  0.0 0.0    0.00000000e+00  0.00000000e+00  0.00000000e+00
atom     15.7004539999     7.7995499048    -0.3025210003   Mg  0.0 0.0    0.00000000e+00  0.00000000e+00  0.00000000e+00
atom     17.8288489999     7.7995499048     6.1292439997   Mg  0.0 0.0    0.00000000e+00  0.00000000e+00  0.00000000e+00
atom     23.3276939999    11.6993249048    -5.6776900003   Mg  0.0 0.0    0.00000000e+00  0.00000000e+00  0.00000000e+00
atom     25.4560469999    11.6993249048     0.7542209997   Mg  0.0 0.0    0.00000000e+00  0.00000000e+00  0.00000000e+00
atom     15.2659279999    11.6993249048     3.7915189997   Si  0.0 0.0    0.00000000e+00  0.00000000e+00  0.00000000e+00
atom     18.7760399999    11.6993249048    -2.7765290003   Si  0.0 0.0    0.00000000e+00  0.00000000e+00  0.00000000e+00
atom     19.6723219999    11.6993249048     1.9753909997   Al  0.0 0.0    0.00000000e+00  0.00000000e+00  0.00000000e+00
atom     21.4840769999     7.7995499048    -1.5238370003   Al  0.0 0.0    0.00000000e+00  0.00000000e+00  0.00000000e+00
atom     22.3803109999     7.7995499048     3.2280379997   Si  0.0 0.0    0.00000000e+00  0.00000000e+00  0.00000000e+00
atom     25.8904259999     7.7995499048    -3.3398790003   Si  0.0 0.0    0.00000000e+00  0.00000000e+00  0.00000000e+00
atom     -0.2610431684     7.7995499044    24.8235133533   Al  0.0 0.0    0.00000000e+00  0.00000000e+00  0.00000000e+00
atom      1.8076058316    11.6993249044    16.0959313533   Mg  0.0 0.0    0.00000000e+00  0.00000000e+00  0.00000000e+00
atom      3.9359998316    11.6993249044    22.5276963533   Mg  0.0 0.0    0.00000000e+00  0.00000000e+00  0.00000000e+00
atom      9.4348448316     7.7995499044    10.7207623533   Mg  0.0 0.0    0.00000000e+00  0.00000000e+00  0.00000000e+00
atom     11.5631978316     7.7995499044    17.1526733533   Mg  0.0 0.0    0.00000000e+00  0.00000000e+00  0.00000000e+00
atom      1.3730798316     7.7995499044    20.1899713533   Si  0.0 0.0    0.00000000e+00  0.00000000e+00  0.00000000e+00
atom      4.8831918316     7.7995499044    13.6219233533   Si  0.0 0.0    0.00000000e+00  0.00000000e+00  0.00000000e+00
atom      5.7794728316     7.7995499044    18.3738433533   Al  0.0 0.0    0.00000000e+00  0.00000000e+00  0.00000000e+00
atom      7.5912278316    11.6993249044    14.8746153533   Al  0.0 0.0    0.00000000e+00  0.00000000e+00  0.00000000e+00
atom      8.4874628316    11.6993249044    19.6264903533   Si  0.0 0.0    0.00000000e+00  0.00000000e+00  0.00000000e+00
atom     11.9975768316    11.6993249044    13.0585733533   Si  0.0 0.0    0.00000000e+00  0.00000000e+00  0.00000000e+00
atom     13.4810308316    11.6993249044    20.9137873533   Al  0.0 0.0    0.00000000e+00  0.00000000e+00  0.00000000e+00
atom     15.5496798316     7.7995499044    12.1862053533   Mg  0.0 0.0    0.00000000e+00  0.00000000e+00  0.00000000e+00
atom     17.6780748316     7.7995499044    18.6179703533   Mg  0.0 0.0    0.00000000e+00  0.00000000e+00  0.00000000e+00
atom     23.1769198316    11.6993249044     6.8110363533   Mg  0.0 0.0    0.00000000e+00  0.00000000e+00  0.00000000e+00
atom     25.3052728316    11.6993249044    13.2429473533   Mg  0.0 0.0    0.00000000e+00  0.00000000e+00  0.00000000e+00
atom     15.1151538316    11.6993249044    16.2802453533   Si  0.0 0.0    0.00000000e+00  0.00000000e+00  0.00000000e+00
atom     18.6252658316    11.6993249044     9.7121973533   Si  0.0 0.0    0.00000000e+00  0.00000000e+00  0.00000000e+00
atom     19.5215478316    11.6993249044    14.4641173533   Al  0.0 0.0    0.00000000e+00  0.00000000e+00  0.00000000e+00
atom     21.3333028316     7.7995499044    10.9648893533   Al  0.0 0.0    0.00000000e+00  0.00000000e+00  0.00000000e+00
atom     22.2295368316     7.7995499044    15.7167643533   Si  0.0 0.0    0.00000000e+00  0.00000000e+00  0.00000000e+00
atom     25.7396518316     7.7995499044     9.1488473533   Si  0.0 0.0    0.00000000e+00  0.00000000e+00  0.00000000e+00
atom     -0.1102690002    15.5990998096    12.3347869994   Al  0.0 0.0    0.00000000e+00  0.00000000e+00  0.00000000e+00
atom      1.9583799998    19.4988748096     3.6072049994   Mg  0.0 0.0    0.00000000e+00  0.00000000e+00  0.00000000e+00
atom      4.0867739998    19.4988748096    10.0389699994   Mg  0.0 0.0    0.00000000e+00  0.00000000e+00  0.00000000e+00
atom      9.5856189998    15.5990998096    -1.7679640006   Mg  0.0 0.0    0.00000000e+00  0.00000000e+00  0.00000000e+00
atom     11.7139719998    15.5990998096     4.6639469994   Mg  0.0 0.0    0.00000000e+00  0.00000000e+00  0.00000000e+00
atom      1.5238539998    15.5990998096     7.7012449994   Si  0.0 0.0    0.00000000e+00  0.00000000e+00  0.00000000e+00
atom      5.0339659998    15.5990998096     1.1331969994   Si  0.0 0.0    0.00000000e+00  0.00000000e+00  0.00000000e+00
atom      5.9302469998    15.5990998096     5.8851169994   Al  0.0 0.0    0.00000000e+00  0.00000000e+00  0.00000000e+00
atom      7.7420019998    19.4988748096     2.3858889994   Al  0.0 0.0    0.00000000e+00  0.00000000e+00  0.00000000e+00
atom      8.6382369998    19.4988748096     7.1377639994   Si  0.0 0.0    0.00000000e+00  0.00000000e+00  0.00000000e+00
atom     12.1483509998    19.4988748096     0.5698469994   Si  0.0 0.0    0.00000000e+00  0.00000000e+00  0.00000000e+00
atom     13.6318049998    19.4988748096     8.4250609994   Al  0.0 0.0    0.00000000e+00  0.00000000e+00  0.00000000e+00
atom     15.7004539998    15.5990998096    -0.3025210006   Mg  0.0 0.0    0.00000000e+00  0.00000000e+00  0.00000000e+00
atom     17.8288489998    15.5990998096     6.1292439994   Mg  0.0 0.0    0.00000000e+00  0.00000000e+00  0.00000000e+00
atom     23.3276939998    19.4988748096    -5.6776900006   Mg  0.0 0.0    0.00000000e+00  0.00000000e+00  0.00000000e+00
atom     25.4560469998    19.4988748096     0.7542209994   Mg  0.0 0.0    0.00000000e+00  0.00000000e+00  0.00000000e+00
atom     15.2659279998    19.4988748096     3.7915189994   Si  0.0 0.0    0.00000000e+00  0.00000000e+00  0.00000000e+00
atom     18.7760399998    19.4988748096    -2.7765290006   Si  0.0 0.0    0.00000000e+00  0.00000000e+00  0.00000000e+00
atom     19.6723219998    19.4988748096     1.9753909994   Al  0.0 0.0    0.00000000e+00  0.00000000e+00  0.00000000e+00
atom     21.4840769998    15.5990998096    -1.5238370006   Al  0.0 0.0    0.00000000e+00  0.00000000e+00  0.00000000e+00
atom     22.3803109998    15.5990998096     3.2280379994   Si  0.0 0.0    0.00000000e+00  0.00000000e+00  0.00000000e+00
atom     25.8904259998    15.5990998096    -3.3398790006   Si  0.0 0.0    0.00000000e+00  0.00000000e+00  0.00000000e+00