
     Program PWSCF v.6.3 starts on 22Feb2020 at  7:42:27 

     This program is part of the open-source Quantum ESPRESSO suite
     for quantum simulation of materials; please cite
         "P. Giannozzi et al., J. Phys.:Condens. Matter 21 395502 (2009);
         "P. Giannozzi et al., J. Phys.:Condens. Matter 29 465901 (2017);
          URL http://www.quantum-espresso.org", 
     in publications or presentations arising from this work. More details at
     http://www.quantum-espresso.org/quote

 *** WARNING: using old-style file format, will disappear from next version ***

     Parallel version (MPI & OpenMP), running on      36 processor cores
     Number of MPI processes:                36
     Threads/MPI process:                     1

     MPI processes distributed on     1 nodes
     K-points division:     npool     =       4
     R & G space division:  proc/nbgrp/npool/nimage =       9
     Reading input from aiida.in
Warning: card &IONS ignored
Warning: card   !PRESS_CONV_THR = 0.05                 ! JUST FOR VOLUME RELAXATIONS ignored
Warning: card / ignored

     Current dimensions of program PWSCF are:
     Max number of different atomic species (ntypx) = 10
     Max number of k-points (npk) =  40000
     Max angular momentum in pseudopotentials (lmaxx) =  3
               file Al.pbe-n-kjpaw_psl.1.0.0.UPF: wavefunction(s)  3S 3P renormalized

     Subspace diagonalization in iterative solution of the eigenvalue problem:
     one sub-group per band group will be used
     scalapack distributed-memory algorithm (size of sub-group:  2*  2 procs)

 
     Parallelization info
     --------------------
     sticks:   dense  smooth     PW     G-vecs:    dense   smooth      PW
     Min        3324    1330    347               432816   109512   14645
     Max        3325    1331    348               432821   109515   14652
     Sum       29921   11977   3125              3895379   985619  131827
 


     bravais-lattice index     =            0
     lattice parameter (alat)  =      30.6665  a.u.
     unit-cell volume          =   28839.7502 (a.u.)^3
     number of atoms/cell      =          254
     number of atomic types    =            1
     number of electrons       =       762.00
     number of Kohn-Sham states=          457
     kinetic-energy cutoff     =      40.0000  Ry
     charge density cutoff     =     400.0000  Ry
     convergence threshold     =      1.0E-12
     mixing beta               =       0.4000
     number of iterations used =            8  local-TF  mixing
     Exchange-correlation      = SLA PW PBX PBC ( 1  4  3  4 0 0)

     celldm(1)=  30.666473  celldm(2)=   0.000000  celldm(3)=   0.000000
     celldm(4)=   0.000000  celldm(5)=   0.000000  celldm(6)=   0.000000

     crystal axes: (cart. coord. in units of alat)
               a(1) = (   1.000000   0.000000   0.000000 )  
               a(2) = (   0.000000   1.000000   0.000000 )  
               a(3) = (   0.000000   0.000000   1.000000 )  

     reciprocal axes: (cart. coord. in units 2 pi/alat)
               b(1) = (  1.000000  0.000000  0.000000 )  
               b(2) = (  0.000000  1.000000  0.000000 )  
               b(3) = (  0.000000  0.000000  1.000000 )  


     PseudoPot. # 1 for Al read from file:
     /users/aglensk/Dropbox/Albert/scripts/dotfiles/scripts/potentials/quantum_espresso/pseudo_SSSPefV1.1_alalloy/Al.pbe-n-kjpaw_psl.1.0.0.UPF
     MD5 check sum: cfc449ca30b5f3223ec38ddd88ac046d
     Pseudo is Projector augmented-wave + core cor, Zval =  3.0
     Generated using "atomic" code by A. Dal Corso v.5.1
     Shape of augmentation charge: PSQ
     Using radial grid of 1135 points,  6 beta functions with: 
                l(1) =   0
                l(2) =   0
                l(3) =   1
                l(4) =   1
                l(5) =   2
                l(6) =   2
     Q(r) pseudized with 0 coefficients 


     atomic species   valence    mass     pseudopotential
        Al             3.00    26.98154     Al( 1.00)

     No symmetry found


                                    s                        frac. trans.

      isym =  1     identity                                     

 cryst.   s( 1) = (     1          0          0      )
                  (     0          1          0      )
                  (     0          0          1      )

 cart.    s( 1) = (  1.0000000  0.0000000  0.0000000 )
                  (  0.0000000  1.0000000  0.0000000 )
                  (  0.0000000  0.0000000  1.0000000 )


   Cartesian axes

     site n.     atom                  positions (alat units)
         1           Al  tau(   1) = (   0.1231057   0.0018943   0.1211529  )
         2           Al  tau(   2) = (   0.0018943   0.1231057   0.1211529  )
         3           Al  tau(   3) = (   0.0000671   0.0000671   0.2497460  )
         4           Al  tau(   4) = (   0.1249328   0.1249328   0.2497459  )
         5           Al  tau(   5) = (   0.1249449   0.0000549   0.3750984  )
         6           Al  tau(   6) = (   0.0000549   0.1249449   0.3750984  )
         7           Al  tau(   7) = (   0.9999734   0.9999734   0.5000000  )
         8           Al  tau(   8) = (   0.1250265   0.1250265   0.5000000  )
         9           Al  tau(   9) = (   0.1249449   0.0000549   0.6249016  )
        10           Al  tau(  10) = (   0.0000549   0.1249449   0.6249016  )
        11           Al  tau(  11) = (   0.0000671   0.0000671   0.7502540  )
        12           Al  tau(  12) = (   0.1249328   0.1249328   0.7502541  )
        13           Al  tau(  13) = (   0.1231057   0.0018943   0.8788471  )
        14           Al  tau(  14) = (   0.0018943   0.1231057   0.8788471  )
        15           Al  tau(  15) = (   0.0022692   0.2470638   0.0000000  )
        16           Al  tau(  16) = (   0.1249352   0.3746084   0.0000000  )
        17           Al  tau(  17) = (   0.1246934   0.2473044   0.1227372  )
        18           Al  tau(  18) = (   0.0001577   0.3747261   0.1248188  )
        19           Al  tau(  19) = (   0.0001996   0.2491582   0.2491123  )
        20           Al  tau(  20) = (   0.1249303   0.3739916   0.2490745  )
        21           Al  tau(  21) = (   0.1249302   0.2499714   0.3749902  )
        22           Al  tau(  22) = (   0.0000854   0.3749526   0.3748541  )
        23           Al  tau(  23) = (   0.9999537   0.2500711   0.5000000  )
        24           Al  tau(  24) = (   0.1250431   0.3750705   0.5000000  )
        25           Al  tau(  25) = (   0.1249302   0.2499714   0.6250098  )
        26           Al  tau(  26) = (   0.0000854   0.3749526   0.6251459  )
        27           Al  tau(  27) = (   0.0001996   0.2491582   0.7508877  )
        28           Al  tau(  28) = (   0.1249303   0.3739916   0.7509255  )
        29           Al  tau(  29) = (   0.1246934   0.2473044   0.8772628  )
        30           Al  tau(  30) = (   0.0001577   0.3747261   0.8751813  )
        31           Al  tau(  31) = (   0.0000384   0.4999605   0.0000000  )
        32           Al  tau(  32) = (   0.1249613   0.6250396   0.0000000  )
        33           Al  tau(  33) = (   0.1250299   0.5000250   0.1249738  )
        34           Al  tau(  34) = (   0.9999698   0.6249751   0.1249738  )
        35           Al  tau(  35) = (   0.0000945   0.4999043   0.2500050  )
        36           Al  tau(  36) = (   0.1249053   0.6250958   0.2500050  )
        37           Al  tau(  37) = (   0.1250166   0.4998658   0.3748814  )
        38           Al  tau(  38) = (   0.9999832   0.6251344   0.3748813  )
        39           Al  tau(  39) = (   0.0000049   0.5000183   0.5000000  )
        40           Al  tau(  40) = (   0.1249950   0.6249818   0.5000000  )
        41           Al  tau(  41) = (   0.1250166   0.4998658   0.6251186  )
        42           Al  tau(  42) = (   0.9999832   0.6251344   0.6251187  )
        43           Al  tau(  43) = (   0.0000945   0.4999043   0.7499950  )
        44           Al  tau(  44) = (   0.1249053   0.6250958   0.7499950  )
        45           Al  tau(  45) = (   0.1250299   0.5000250   0.8750262  )
        46           Al  tau(  46) = (   0.9999698   0.6249751   0.8750262  )
        47           Al  tau(  47) = (   0.0000645   0.7503916   0.0000000  )
        48           Al  tau(  48) = (   0.1227307   0.8779362   0.0000000  )
        49           Al  tau(  49) = (   0.1248421   0.7502740   0.1248188  )
        50           Al  tau(  50) = (   0.0003065   0.8776954   0.1227373  )
        51           Al  tau(  51) = (   0.0000695   0.7510085   0.2490745  )
        52           Al  tau(  52) = (   0.1248002   0.8758417   0.2491123  )
        53           Al  tau(  53) = (   0.1249145   0.7500474   0.3748542  )
        54           Al  tau(  54) = (   0.0000696   0.8750285   0.3749902  )
        55           Al  tau(  55) = (   0.9999568   0.7499296   0.5000000  )
        56           Al  tau(  56) = (   0.1250462   0.8749288   0.5000000  )
        57           Al  tau(  57) = (   0.1249145   0.7500474   0.6251459  )
        58           Al  tau(  58) = (   0.0000696   0.8750285   0.6250098  )
        59           Al  tau(  59) = (   0.0000695   0.7510085   0.7509255  )
        60           Al  tau(  60) = (   0.1248002   0.8758417   0.7508877  )
        61           Al  tau(  61) = (   0.1248421   0.7502740   0.8751812  )
        62           Al  tau(  62) = (   0.0003065   0.8776954   0.8772627  )
        63           Al  tau(  63) = (   0.2470638   0.0022692   0.0000000  )
        64           Al  tau(  64) = (   0.3746084   0.1249352   0.0000000  )
        65           Al  tau(  65) = (   0.3747261   0.0001577   0.1248188  )
        66           Al  tau(  66) = (   0.2473044   0.1246934   0.1227372  )
        67           Al  tau(  67) = (   0.2491582   0.0001996   0.2491123  )
        68           Al  tau(  68) = (   0.3739916   0.1249303   0.2490745  )
        69           Al  tau(  69) = (   0.3749526   0.0000854   0.3748541  )
        70           Al  tau(  70) = (   0.2499714   0.1249302   0.3749902  )
        71           Al  tau(  71) = (   0.2500711   0.9999537   0.5000000  )
        72           Al  tau(  72) = (   0.3750705   0.1250431   0.5000000  )
        73           Al  tau(  73) = (   0.3749526   0.0000854   0.6251459  )
        74           Al  tau(  74) = (   0.2499714   0.1249302   0.6250098  )
        75           Al  tau(  75) = (   0.2491582   0.0001996   0.7508877  )
        76           Al  tau(  76) = (   0.3739916   0.1249303   0.7509255  )
        77           Al  tau(  77) = (   0.3747261   0.0001577   0.8751813  )
        78           Al  tau(  78) = (   0.2473044   0.1246934   0.8772628  )
        79           Al  tau(  79) = (   0.2477228   0.2477228   0.0000000  )
        80           Al  tau(  80) = (   0.3740773   0.3740773   0.0000000  )
        81           Al  tau(  81) = (   0.3747479   0.2498090   0.1248799  )
        82           Al  tau(  82) = (   0.2498090   0.3747479   0.1248799  )
        83           Al  tau(  83) = (   0.2500067   0.2500067   0.2498708  )
        84           Al  tau(  84) = (   0.3751733   0.3751733   0.2501383  )
        85           Al  tau(  85) = (   0.3750246   0.2499147   0.3749303  )
        86           Al  tau(  86) = (   0.2499147   0.3750246   0.3749303  )
        87           Al  tau(  87) = (   0.2500098   0.2500098   0.5000000  )
        88           Al  tau(  88) = (   0.3749524   0.3749524   0.5000000  )
        89           Al  tau(  89) = (   0.3750246   0.2499147   0.6250697  )
        90           Al  tau(  90) = (   0.2499147   0.3750246   0.6250697  )
        91           Al  tau(  91) = (   0.2500067   0.2500067   0.7501292  )
        92           Al  tau(  92) = (   0.3751733   0.3751733   0.7498617  )
        93           Al  tau(  93) = (   0.3747479   0.2498090   0.8751202  )
        94           Al  tau(  94) = (   0.2498090   0.3747479   0.8751202  )
        95           Al  tau(  95) = (   0.2499612   0.5000377   0.0000000  )
        96           Al  tau(  96) = (   0.3748799   0.6251039   0.0000000  )
        97           Al  tau(  97) = (   0.3750112   0.4998812   0.1249121  )
        98           Al  tau(  98) = (   0.2500515   0.6250752   0.1249719  )
        99           Al  tau(  99) = (   0.2498871   0.4999330   0.2499968  )
       100           Al  tau( 100) = (   0.3750099   0.6249773   0.2499803  )
       101           Al  tau( 101) = (   0.3749505   0.5000316   0.3750036  )
       102           Al  tau( 102) = (   0.2499980   0.6249802   0.3750566  )
       103           Al  tau( 103) = (   0.2500585   0.5000408   0.5000000  )
       104           Al  tau( 104) = (   0.3750789   0.6250144   0.5000000  )
       105           Al  tau( 105) = (   0.3749505   0.5000316   0.6249964  )
       106           Al  tau( 106) = (   0.2499980   0.6249802   0.6249434  )
       107           Al  tau( 107) = (   0.2498871   0.4999330   0.7500032  )
       108           Al  tau( 108) = (   0.3750099   0.6249773   0.7500197  )
       109           Al  tau( 109) = (   0.3750112   0.4998812   0.8750879  )
       110           Al  tau( 110) = (   0.2500515   0.6250752   0.8750282  )
       111           Al  tau( 111) = (   0.2490456   0.7508601   0.0000000  )
       112           Al  tau( 112) = (   0.3741401   0.8759544   0.0000000  )
       113           Al  tau( 113) = (   0.3749986   0.7500017   0.1248149  )
       114           Al  tau( 114) = (   0.2499859   0.8750141   0.1247854  )
       115           Al  tau( 115) = (   0.2500146   0.7499447   0.2501401  )
       116           Al  tau( 116) = (   0.3750554   0.8749854   0.2501401  )
       117           Al  tau( 117) = (   0.3749593   0.7500407   0.3749962  )
       118           Al  tau( 118) = (   0.2498546   0.8751453   0.3747536  )
       119           Al  tau( 119) = (   0.2500347   0.7500104   0.5000000  )
       120           Al  tau( 120) = (   0.3749896   0.8749653   0.5000000  )
       121           Al  tau( 121) = (   0.3749593   0.7500407   0.6250038  )
       122           Al  tau( 122) = (   0.2498546   0.8751453   0.6252464  )
       123           Al  tau( 123) = (   0.2500146   0.7499447   0.7498599  )
       124           Al  tau( 124) = (   0.3750554   0.8749854   0.7498600  )
       125           Al  tau( 125) = (   0.3749986   0.7500017   0.8751851  )
       126           Al  tau( 126) = (   0.2499859   0.8750141   0.8752146  )
       127           Al  tau( 127) = (   0.4999605   0.0000384   0.0000000  )
       128           Al  tau( 128) = (   0.6250396   0.1249613   0.0000000  )
       129           Al  tau( 129) = (   0.6249751   0.9999698   0.1249738  )
       130           Al  tau( 130) = (   0.5000250   0.1250299   0.1249738  )
       131           Al  tau( 131) = (   0.4999043   0.0000945   0.2500050  )
       132           Al  tau( 132) = (   0.6250958   0.1249053   0.2500050  )
       133           Al  tau( 133) = (   0.6251344   0.9999832   0.3748813  )
       134           Al  tau( 134) = (   0.4998658   0.1250166   0.3748814  )
       135           Al  tau( 135) = (   0.5000183   0.0000049   0.5000000  )
       136           Al  tau( 136) = (   0.6249818   0.1249950   0.5000000  )
       137           Al  tau( 137) = (   0.6251344   0.9999832   0.6251187  )
       138           Al  tau( 138) = (   0.4998658   0.1250166   0.6251186  )
       139           Al  tau( 139) = (   0.4999043   0.0000945   0.7499950  )
       140           Al  tau( 140) = (   0.6250958   0.1249053   0.7499950  )
       141           Al  tau( 141) = (   0.6249751   0.9999698   0.8750262  )
       142           Al  tau( 142) = (   0.5000250   0.1250299   0.8750262  )
       143           Al  tau( 143) = (   0.5000377   0.2499612   0.0000000  )
       144           Al  tau( 144) = (   0.6251039   0.3748799   0.0000000  )
       145           Al  tau( 145) = (   0.6250752   0.2500515   0.1249719  )
       146           Al  tau( 146) = (   0.4998812   0.3750112   0.1249121  )
       147           Al  tau( 147) = (   0.4999330   0.2498871   0.2499968  )
       148           Al  tau( 148) = (   0.6249773   0.3750099   0.2499803  )
       149           Al  tau( 149) = (   0.6249802   0.2499980   0.3750566  )
       150           Al  tau( 150) = (   0.5000316   0.3749505   0.3750036  )
       151           Al  tau( 151) = (   0.5000408   0.2500585   0.5000000  )
       152           Al  tau( 152) = (   0.6250144   0.3750789   0.5000000  )
       153           Al  tau( 153) = (   0.6249802   0.2499980   0.6249434  )
       154           Al  tau( 154) = (   0.5000316   0.3749505   0.6249964  )
       155           Al  tau( 155) = (   0.4999330   0.2498871   0.7500032  )
       156           Al  tau( 156) = (   0.6249773   0.3750099   0.7500197  )
       157           Al  tau( 157) = (   0.6250752   0.2500515   0.8750282  )
       158           Al  tau( 158) = (   0.4998812   0.3750112   0.8750879  )
       159           Al  tau( 159) = (   0.4998809   0.4998809   0.0000000  )
       160           Al  tau( 160) = (   0.6251194   0.6251194   0.0000000  )
       161           Al  tau( 161) = (   0.6249824   0.5000179   0.1250219  )
       162           Al  tau( 162) = (   0.5000179   0.6249824   0.1250219  )
       163           Al  tau( 163) = (   0.5000033   0.5000033   0.2500199  )
       164           Al  tau( 164) = (   0.6249969   0.6249969   0.2500199  )
       165           Al  tau( 165) = (   0.6250047   0.4999954   0.3749554  )
       166           Al  tau( 166) = (   0.4999954   0.6250047   0.3749554  )
       167           Al  tau( 167) = (   0.4999546   0.4999546   0.5000000  )
       168           Al  tau( 168) = (   0.6250456   0.6250456   0.5000000  )
       169           Al  tau( 169) = (   0.6250047   0.4999954   0.6250446  )
       170           Al  tau( 170) = (   0.4999954   0.6250047   0.6250446  )
       171           Al  tau( 171) = (   0.5000033   0.5000033   0.7499801  )
       172           Al  tau( 172) = (   0.6249969   0.6249969   0.7499802  )
       173           Al  tau( 173) = (   0.6249824   0.5000179   0.8749781  )
       174           Al  tau( 174) = (   0.5000179   0.6249824   0.8749781  )
       175           Al  tau( 175) = (   0.4998963   0.7501203   0.0000000  )
       176           Al  tau( 176) = (   0.6249624   0.8750387   0.0000000  )
       177           Al  tau( 177) = (   0.6251191   0.7499890   0.1249121  )
       178           Al  tau( 178) = (   0.4999250   0.8749484   0.1249718  )
       179           Al  tau( 179) = (   0.5000229   0.7499902   0.2499803  )
       180           Al  tau( 180) = (   0.6250672   0.8751128   0.2499968  )
       181           Al  tau( 181) = (   0.6249686   0.7500496   0.3750035  )
       182           Al  tau( 182) = (   0.5000200   0.8750019   0.3750566  )
       183           Al  tau( 183) = (   0.4999858   0.7499212   0.5000000  )
       184           Al  tau( 184) = (   0.6249594   0.8749414   0.5000000  )
       185           Al  tau( 185) = (   0.6249686   0.7500496   0.6249965  )
       186           Al  tau( 186) = (   0.5000200   0.8750019   0.6249434  )
       187           Al  tau( 187) = (   0.5000229   0.7499902   0.7500197  )
       188           Al  tau( 188) = (   0.6250672   0.8751128   0.7500033  )
       189           Al  tau( 189) = (   0.6251191   0.7499890   0.8750880  )
       190           Al  tau( 190) = (   0.4999250   0.8749484   0.8750282  )
       191           Al  tau( 191) = (   0.7503916   0.0000645   0.0000000  )
       192           Al  tau( 192) = (   0.8779362   0.1227307   0.0000000  )
       193           Al  tau( 193) = (   0.8776954   0.0003065   0.1227373  )
       194           Al  tau( 194) = (   0.7502740   0.1248421   0.1248188  )
       195           Al  tau( 195) = (   0.7510085   0.0000695   0.2490745  )
       196           Al  tau( 196) = (   0.8758417   0.1248002   0.2491123  )
       197           Al  tau( 197) = (   0.8750285   0.0000696   0.3749902  )
       198           Al  tau( 198) = (   0.7500474   0.1249145   0.3748542  )
       199           Al  tau( 199) = (   0.7499296   0.9999568   0.5000000  )
       200           Al  tau( 200) = (   0.8749288   0.1250462   0.5000000  )
       201           Al  tau( 201) = (   0.8750285   0.0000696   0.6250098  )
       202           Al  tau( 202) = (   0.7500474   0.1249145   0.6251459  )
       203           Al  tau( 203) = (   0.7510085   0.0000695   0.7509255  )
       204           Al  tau( 204) = (   0.8758417   0.1248002   0.7508877  )
       205           Al  tau( 205) = (   0.8776954   0.0003065   0.8772627  )
       206           Al  tau( 206) = (   0.7502740   0.1248421   0.8751812  )
       207           Al  tau( 207) = (   0.7508601   0.2490456   0.0000000  )
       208           Al  tau( 208) = (   0.8759544   0.3741401   0.0000000  )
       209           Al  tau( 209) = (   0.8750141   0.2499859   0.1247854  )
       210           Al  tau( 210) = (   0.7500017   0.3749986   0.1248149  )
       211           Al  tau( 211) = (   0.7499447   0.2500146   0.2501401  )
       212           Al  tau( 212) = (   0.8749854   0.3750554   0.2501401  )
       213           Al  tau( 213) = (   0.8751453   0.2498546   0.3747536  )
       214           Al  tau( 214) = (   0.7500407   0.3749593   0.3749962  )
       215           Al  tau( 215) = (   0.7500104   0.2500347   0.5000000  )
       216           Al  tau( 216) = (   0.8749653   0.3749896   0.5000000  )
       217           Al  tau( 217) = (   0.8751453   0.2498546   0.6252464  )
       218           Al  tau( 218) = (   0.7500407   0.3749593   0.6250038  )
       219           Al  tau( 219) = (   0.7499447   0.2500146   0.7498599  )
       220           Al  tau( 220) = (   0.8749854   0.3750554   0.7498600  )
       221           Al  tau( 221) = (   0.8750141   0.2499859   0.8752146  )
       222           Al  tau( 222) = (   0.7500017   0.3749986   0.8751851  )
       223           Al  tau( 223) = (   0.7501203   0.4998963   0.0000000  )
       224           Al  tau( 224) = (   0.8750387   0.6249624   0.0000000  )
       225           Al  tau( 225) = (   0.8749484   0.4999250   0.1249718  )
       226           Al  tau( 226) = (   0.7499890   0.6251191   0.1249121  )
       227           Al  tau( 227) = (   0.7499902   0.5000229   0.2499803  )
       228           Al  tau( 228) = (   0.8751128   0.6250672   0.2499968  )
       229           Al  tau( 229) = (   0.8750019   0.5000200   0.3750566  )
       230           Al  tau( 230) = (   0.7500496   0.6249686   0.3750035  )
       231           Al  tau( 231) = (   0.7499212   0.4999858   0.5000000  )
       232           Al  tau( 232) = (   0.8749414   0.6249594   0.5000000  )
       233           Al  tau( 233) = (   0.8750019   0.5000200   0.6249434  )
       234           Al  tau( 234) = (   0.7500496   0.6249686   0.6249965  )
       235           Al  tau( 235) = (   0.7499902   0.5000229   0.7500197  )
       236           Al  tau( 236) = (   0.8751128   0.6250672   0.7500033  )
       237           Al  tau( 237) = (   0.8749484   0.4999250   0.8750282  )
       238           Al  tau( 238) = (   0.7499890   0.6251191   0.8750880  )
       239           Al  tau( 239) = (   0.7509227   0.7509227   0.0000000  )
       240           Al  tau( 240) = (   0.8772770   0.8772770   0.0000000  )
       241           Al  tau( 241) = (   0.8751908   0.7502521   0.1248798  )
       242           Al  tau( 242) = (   0.7502521   0.8751908   0.1248798  )
       243           Al  tau( 243) = (   0.7498268   0.7498268   0.2501383  )
       244           Al  tau( 244) = (   0.8749932   0.8749932   0.2498708  )
       245           Al  tau( 245) = (   0.8750852   0.7499755   0.3749303  )
       246           Al  tau( 246) = (   0.7499755   0.8750852   0.3749303  )
       247           Al  tau( 247) = (   0.7500476   0.7500476   0.5000000  )
       248           Al  tau( 248) = (   0.8749902   0.8749902   0.5000000  )
       249           Al  tau( 249) = (   0.8750852   0.7499755   0.6250697  )
       250           Al  tau( 250) = (   0.7499755   0.8750852   0.6250697  )
       251           Al  tau( 251) = (   0.7498268   0.7498268   0.7498617  )
       252           Al  tau( 252) = (   0.8749932   0.8749932   0.7501292  )
       253           Al  tau( 253) = (   0.8751908   0.7502521   0.8751202  )
       254           Al  tau( 254) = (   0.7502521   0.8751908   0.8751202  )

   Crystallographic axes

     site n.     atom                  positions (cryst. coord.)
         1           Al  tau(   1) = (  0.1231057  0.0018943  0.1211529  )
         2           Al  tau(   2) = (  0.0018943  0.1231057  0.1211529  )
         3           Al  tau(   3) = (  0.0000671  0.0000671  0.2497460  )
         4           Al  tau(   4) = (  0.1249328  0.1249328  0.2497459  )
         5           Al  tau(   5) = (  0.1249449  0.0000549  0.3750984  )
         6           Al  tau(   6) = (  0.0000549  0.1249449  0.3750984  )
         7           Al  tau(   7) = (  0.9999734  0.9999734  0.5000000  )
         8           Al  tau(   8) = (  0.1250265  0.1250265  0.5000000  )
         9           Al  tau(   9) = (  0.1249449  0.0000549  0.6249016  )
        10           Al  tau(  10) = (  0.0000549  0.1249449  0.6249016  )
        11           Al  tau(  11) = (  0.0000671  0.0000671  0.7502540  )
        12           Al  tau(  12) = (  0.1249328  0.1249328  0.7502541  )
        13           Al  tau(  13) = (  0.1231057  0.0018943  0.8788471  )
        14           Al  tau(  14) = (  0.0018943  0.1231057  0.8788471  )
        15           Al  tau(  15) = (  0.0022692  0.2470638  0.0000000  )
        16           Al  tau(  16) = (  0.1249352  0.3746084  0.0000000  )
        17           Al  tau(  17) = (  0.1246934  0.2473044  0.1227372  )
        18           Al  tau(  18) = (  0.0001577  0.3747261  0.1248188  )
        19           Al  tau(  19) = (  0.0001996  0.2491582  0.2491123  )
        20           Al  tau(  20) = (  0.1249303  0.3739916  0.2490745  )
        21           Al  tau(  21) = (  0.1249302  0.2499714  0.3749902  )
        22           Al  tau(  22) = (  0.0000854  0.3749526  0.3748541  )
        23           Al  tau(  23) = (  0.9999537  0.2500711  0.5000000  )
        24           Al  tau(  24) = (  0.1250431  0.3750705  0.5000000  )
        25           Al  tau(  25) = (  0.1249302  0.2499714  0.6250098  )
        26           Al  tau(  26) = (  0.0000854  0.3749526  0.6251459  )
        27           Al  tau(  27) = (  0.0001996  0.2491582  0.7508877  )
        28           Al  tau(  28) = (  0.1249303  0.3739916  0.7509255  )
        29           Al  tau(  29) = (  0.1246934  0.2473044  0.8772628  )
        30           Al  tau(  30) = (  0.0001577  0.3747261  0.8751813  )
        31           Al  tau(  31) = (  0.0000384  0.4999605  0.0000000  )
        32           Al  tau(  32) = (  0.1249613  0.6250396  0.0000000  )
        33           Al  tau(  33) = (  0.1250299  0.5000250  0.1249738  )
        34           Al  tau(  34) = (  0.9999698  0.6249751  0.1249738  )
        35           Al  tau(  35) = (  0.0000945  0.4999043  0.2500050  )
        36           Al  tau(  36) = (  0.1249053  0.6250958  0.2500050  )
        37           Al  tau(  37) = (  0.1250166  0.4998658  0.3748814  )
        38           Al  tau(  38) = (  0.9999832  0.6251344  0.3748813  )
        39           Al  tau(  39) = (  0.0000049  0.5000183  0.5000000  )
        40           Al  tau(  40) = (  0.1249950  0.6249818  0.5000000  )
        41           Al  tau(  41) = (  0.1250166  0.4998658  0.6251186  )
        42           Al  tau(  42) = (  0.9999832  0.6251344  0.6251187  )
        43           Al  tau(  43) = (  0.0000945  0.4999043  0.7499950  )
        44           Al  tau(  44) = (  0.1249053  0.6250958  0.7499950  )
        45           Al  tau(  45) = (  0.1250299  0.5000250  0.8750262  )
        46           Al  tau(  46) = (  0.9999698  0.6249751  0.8750262  )
        47           Al  tau(  47) = (  0.0000645  0.7503916  0.0000000  )
        48           Al  tau(  48) = (  0.1227307  0.8779362  0.0000000  )
        49           Al  tau(  49) = (  0.1248421  0.7502740  0.1248188  )
        50           Al  tau(  50) = (  0.0003065  0.8776954  0.1227373  )
        51           Al  tau(  51) = (  0.0000695  0.7510085  0.2490745  )
        52           Al  tau(  52) = (  0.1248002  0.8758417  0.2491123  )
        53           Al  tau(  53) = (  0.1249145  0.7500474  0.3748542  )
        54           Al  tau(  54) = (  0.0000696  0.8750285  0.3749902  )
        55           Al  tau(  55) = (  0.9999568  0.7499296  0.5000000  )
        56           Al  tau(  56) = (  0.1250462  0.8749288  0.5000000  )
        57           Al  tau(  57) = (  0.1249145  0.7500474  0.6251459  )
        58           Al  tau(  58) = (  0.0000696  0.8750285  0.6250098  )
        59           Al  tau(  59) = (  0.0000695  0.7510085  0.7509255  )
        60           Al  tau(  60) = (  0.1248002  0.8758417  0.7508877  )
        61           Al  tau(  61) = (  0.1248421  0.7502740  0.8751812  )
        62           Al  tau(  62) = (  0.0003065  0.8776954  0.8772627  )
        63           Al  tau(  63) = (  0.2470638  0.0022692  0.0000000  )
        64           Al  tau(  64) = (  0.3746084  0.1249352  0.0000000  )
        65           Al  tau(  65) = (  0.3747261  0.0001577  0.1248188  )
        66           Al  tau(  66) = (  0.2473044  0.1246934  0.1227372  )
        67           Al  tau(  67) = (  0.2491582  0.0001996  0.2491123  )
        68           Al  tau(  68) = (  0.3739916  0.1249303  0.2490745  )
        69           Al  tau(  69) = (  0.3749526  0.0000854  0.3748541  )
        70           Al  tau(  70) = (  0.2499714  0.1249302  0.3749902  )
        71           Al  tau(  71) = (  0.2500711  0.9999537  0.5000000  )
        72           Al  tau(  72) = (  0.3750705  0.1250431  0.5000000  )
        73           Al  tau(  73) = (  0.3749526  0.0000854  0.6251459  )
        74           Al  tau(  74) = (  0.2499714  0.1249302  0.6250098  )
        75           Al  tau(  75) = (  0.2491582  0.0001996  0.7508877  )
        76           Al  tau(  76) = (  0.3739916  0.1249303  0.7509255  )
        77           Al  tau(  77) = (  0.3747261  0.0001577  0.8751813  )
        78           Al  tau(  78) = (  0.2473044  0.1246934  0.8772628  )
        79           Al  tau(  79) = (  0.2477228  0.2477228  0.0000000  )
        80           Al  tau(  80) = (  0.3740773  0.3740773  0.0000000  )
        81           Al  tau(  81) = (  0.3747479  0.2498090  0.1248799  )
        82           Al  tau(  82) = (  0.2498090  0.3747479  0.1248799  )
        83           Al  tau(  83) = (  0.2500067  0.2500067  0.2498708  )
        84           Al  tau(  84) = (  0.3751733  0.3751733  0.2501383  )
        85           Al  tau(  85) = (  0.3750246  0.2499147  0.3749303  )
        86           Al  tau(  86) = (  0.2499147  0.3750246  0.3749303  )
        87           Al  tau(  87) = (  0.2500098  0.2500098  0.5000000  )
        88           Al  tau(  88) = (  0.3749524  0.3749524  0.5000000  )
        89           Al  tau(  89) = (  0.3750246  0.2499147  0.6250697  )
        90           Al  tau(  90) = (  0.2499147  0.3750246  0.6250697  )
        91           Al  tau(  91) = (  0.2500067  0.2500067  0.7501292  )
        92           Al  tau(  92) = (  0.3751733  0.3751733  0.7498617  )
        93           Al  tau(  93) = (  0.3747479  0.2498090  0.8751202  )
        94           Al  tau(  94) = (  0.2498090  0.3747479  0.8751202  )
        95           Al  tau(  95) = (  0.2499612  0.5000377  0.0000000  )
        96           Al  tau(  96) = (  0.3748799  0.6251039  0.0000000  )
        97           Al  tau(  97) = (  0.3750112  0.4998812  0.1249121  )
        98           Al  tau(  98) = (  0.2500515  0.6250752  0.1249719  )
        99           Al  tau(  99) = (  0.2498871  0.4999330  0.2499968  )
       100           Al  tau( 100) = (  0.3750099  0.6249773  0.2499803  )
       101           Al  tau( 101) = (  0.3749505  0.5000316  0.3750036  )
       102           Al  tau( 102) = (  0.2499980  0.6249802  0.3750566  )
       103           Al  tau( 103) = (  0.2500585  0.5000408  0.5000000  )
       104           Al  tau( 104) = (  0.3750789  0.6250144  0.5000000  )
       105           Al  tau( 105) = (  0.3749505  0.5000316  0.6249964  )
       106           Al  tau( 106) = (  0.2499980  0.6249802  0.6249434  )
       107           Al  tau( 107) = (  0.2498871  0.4999330  0.7500032  )
       108           Al  tau( 108) = (  0.3750099  0.6249773  0.7500197  )
       109           Al  tau( 109) = (  0.3750112  0.4998812  0.8750879  )
       110           Al  tau( 110) = (  0.2500515  0.6250752  0.8750282  )
       111           Al  tau( 111) = (  0.2490456  0.7508601  0.0000000  )
       112           Al  tau( 112) = (  0.3741401  0.8759544  0.0000000  )
       113           Al  tau( 113) = (  0.3749986  0.7500017  0.1248149  )
       114           Al  tau( 114) = (  0.2499859  0.8750141  0.1247854  )
       115           Al  tau( 115) = (  0.2500146  0.7499447  0.2501401  )
       116           Al  tau( 116) = (  0.3750554  0.8749854  0.2501401  )
       117           Al  tau( 117) = (  0.3749593  0.7500407  0.3749962  )
       118           Al  tau( 118) = (  0.2498546  0.8751453  0.3747536  )
       119           Al  tau( 119) = (  0.2500347  0.7500104  0.5000000  )
       120           Al  tau( 120) = (  0.3749896  0.8749653  0.5000000  )
       121           Al  tau( 121) = (  0.3749593  0.7500407  0.6250038  )
       122           Al  tau( 122) = (  0.2498546  0.8751453  0.6252464  )
       123           Al  tau( 123) = (  0.2500146  0.7499447  0.7498599  )
       124           Al  tau( 124) = (  0.3750554  0.8749854  0.7498600  )
       125           Al  tau( 125) = (  0.3749986  0.7500017  0.8751851  )
       126           Al  tau( 126) = (  0.2499859  0.8750141  0.8752146  )
       127           Al  tau( 127) = (  0.4999605  0.0000384  0.0000000  )
       128           Al  tau( 128) = (  0.6250396  0.1249613  0.0000000  )
       129           Al  tau( 129) = (  0.6249751  0.9999698  0.1249738  )
       130           Al  tau( 130) = (  0.5000250  0.1250299  0.1249738  )
       131           Al  tau( 131) = (  0.4999043  0.0000945  0.2500050  )
       132           Al  tau( 132) = (  0.6250958  0.1249053  0.2500050  )
       133           Al  tau( 133) = (  0.6251344  0.9999832  0.3748813  )
       134           Al  tau( 134) = (  0.4998658  0.1250166  0.3748814  )
       135           Al  tau( 135) = (  0.5000183  0.0000049  0.5000000  )
       136           Al  tau( 136) = (  0.6249818  0.1249950  0.5000000  )
       137           Al  tau( 137) = (  0.6251344  0.9999832  0.6251187  )
       138           Al  tau( 138) = (  0.4998658  0.1250166  0.6251186  )
       139           Al  tau( 139) = (  0.4999043  0.0000945  0.7499950  )
       140           Al  tau( 140) = (  0.6250958  0.1249053  0.7499950  )
       141           Al  tau( 141) = (  0.6249751  0.9999698  0.8750262  )
       142           Al  tau( 142) = (  0.5000250  0.1250299  0.8750262  )
       143           Al  tau( 143) = (  0.5000377  0.2499612  0.0000000  )
       144           Al  tau( 144) = (  0.6251039  0.3748799  0.0000000  )
       145           Al  tau( 145) = (  0.6250752  0.2500515  0.1249719  )
       146           Al  tau( 146) = (  0.4998812  0.3750112  0.1249121  )
       147           Al  tau( 147) = (  0.4999330  0.2498871  0.2499968  )
       148           Al  tau( 148) = (  0.6249773  0.3750099  0.2499803  )
       149           Al  tau( 149) = (  0.6249802  0.2499980  0.3750566  )
       150           Al  tau( 150) = (  0.5000316  0.3749505  0.3750036  )
       151           Al  tau( 151) = (  0.5000408  0.2500585  0.5000000  )
       152           Al  tau( 152) = (  0.6250144  0.3750789  0.5000000  )
       153           Al  tau( 153) = (  0.6249802  0.2499980  0.6249434  )
       154           Al  tau( 154) = (  0.5000316  0.3749505  0.6249964  )
       155           Al  tau( 155) = (  0.4999330  0.2498871  0.7500032  )
       156           Al  tau( 156) = (  0.6249773  0.3750099  0.7500197  )
       157           Al  tau( 157) = (  0.6250752  0.2500515  0.8750282  )
       158           Al  tau( 158) = (  0.4998812  0.3750112  0.8750879  )
       159           Al  tau( 159) = (  0.4998809  0.4998809  0.0000000  )
       160           Al  tau( 160) = (  0.6251194  0.6251194  0.0000000  )
       161           Al  tau( 161) = (  0.6249824  0.5000179  0.1250219  )
       162           Al  tau( 162) = (  0.5000179  0.6249824  0.1250219  )
       163           Al  tau( 163) = (  0.5000033  0.5000033  0.2500199  )
       164           Al  tau( 164) = (  0.6249969  0.6249969  0.2500199  )
       165           Al  tau( 165) = (  0.6250047  0.4999954  0.3749554  )
       166           Al  tau( 166) = (  0.4999954  0.6250047  0.3749554  )
       167           Al  tau( 167) = (  0.4999546  0.4999546  0.5000000  )
       168           Al  tau( 168) = (  0.6250456  0.6250456  0.5000000  )
       169           Al  tau( 169) = (  0.6250047  0.4999954  0.6250446  )
       170           Al  tau( 170) = (  0.4999954  0.6250047  0.6250446  )
       171           Al  tau( 171) = (  0.5000033  0.5000033  0.7499801  )
       172           Al  tau( 172) = (  0.6249969  0.6249969  0.7499802  )
       173           Al  tau( 173) = (  0.6249824  0.5000179  0.8749781  )
       174           Al  tau( 174) = (  0.5000179  0.6249824  0.8749781  )
       175           Al  tau( 175) = (  0.4998963  0.7501203  0.0000000  )
       176           Al  tau( 176) = (  0.6249624  0.8750387  0.0000000  )
       177           Al  tau( 177) = (  0.6251191  0.7499890  0.1249121  )
       178           Al  tau( 178) = (  0.4999250  0.8749484  0.1249718  )
       179           Al  tau( 179) = (  0.5000229  0.7499902  0.2499803  )
       180           Al  tau( 180) = (  0.6250672  0.8751128  0.2499968  )
       181           Al  tau( 181) = (  0.6249686  0.7500496  0.3750035  )
       182           Al  tau( 182) = (  0.5000200  0.8750019  0.3750566  )
       183           Al  tau( 183) = (  0.4999858  0.7499212  0.5000000  )
       184           Al  tau( 184) = (  0.6249594  0.8749414  0.5000000  )
       185           Al  tau( 185) = (  0.6249686  0.7500496  0.6249965  )
       186           Al  tau( 186) = (  0.5000200  0.8750019  0.6249434  )
       187           Al  tau( 187) = (  0.5000229  0.7499902  0.7500197  )
       188           Al  tau( 188) = (  0.6250672  0.8751128  0.7500033  )
       189           Al  tau( 189) = (  0.6251191  0.7499890  0.8750880  )
       190           Al  tau( 190) = (  0.4999250  0.8749484  0.8750282  )
       191           Al  tau( 191) = (  0.7503916  0.0000645  0.0000000  )
       192           Al  tau( 192) = (  0.8779362  0.1227307  0.0000000  )
       193           Al  tau( 193) = (  0.8776954  0.0003065  0.1227373  )
       194           Al  tau( 194) = (  0.7502740  0.1248421  0.1248188  )
       195           Al  tau( 195) = (  0.7510085  0.0000695  0.2490745  )
       196           Al  tau( 196) = (  0.8758417  0.1248002  0.2491123  )
       197           Al  tau( 197) = (  0.8750285  0.0000696  0.3749902  )
       198           Al  tau( 198) = (  0.7500474  0.1249145  0.3748542  )
       199           Al  tau( 199) = (  0.7499296  0.9999568  0.5000000  )
       200           Al  tau( 200) = (  0.8749288  0.1250462  0.5000000  )
       201           Al  tau( 201) = (  0.8750285  0.0000696  0.6250098  )
       202           Al  tau( 202) = (  0.7500474  0.1249145  0.6251459  )
       203           Al  tau( 203) = (  0.7510085  0.0000695  0.7509255  )
       204           Al  tau( 204) = (  0.8758417  0.1248002  0.7508877  )
       205           Al  tau( 205) = (  0.8776954  0.0003065  0.8772627  )
       206           Al  tau( 206) = (  0.7502740  0.1248421  0.8751812  )
       207           Al  tau( 207) = (  0.7508601  0.2490456  0.0000000  )
       208           Al  tau( 208) = (  0.8759544  0.3741401  0.0000000  )
       209           Al  tau( 209) = (  0.8750141  0.2499859  0.1247854  )
       210           Al  tau( 210) = (  0.7500017  0.3749986  0.1248149  )
       211           Al  tau( 211) = (  0.7499447  0.2500146  0.2501401  )
       212           Al  tau( 212) = (  0.8749854  0.3750554  0.2501401  )
       213           Al  tau( 213) = (  0.8751453  0.2498546  0.3747536  )
       214           Al  tau( 214) = (  0.7500407  0.3749593  0.3749962  )
       215           Al  tau( 215) = (  0.7500104  0.2500347  0.5000000  )
       216           Al  tau( 216) = (  0.8749653  0.3749896  0.5000000  )
       217           Al  tau( 217) = (  0.8751453  0.2498546  0.6252464  )
       218           Al  tau( 218) = (  0.7500407  0.3749593  0.6250038  )
       219           Al  tau( 219) = (  0.7499447  0.2500146  0.7498599  )
       220           Al  tau( 220) = (  0.8749854  0.3750554  0.7498600  )
       221           Al  tau( 221) = (  0.8750141  0.2499859  0.8752146  )
       222           Al  tau( 222) = (  0.7500017  0.3749986  0.8751851  )
       223           Al  tau( 223) = (  0.7501203  0.4998963  0.0000000  )
       224           Al  tau( 224) = (  0.8750387  0.6249624  0.0000000  )
       225           Al  tau( 225) = (  0.8749484  0.4999250  0.1249718  )
       226           Al  tau( 226) = (  0.7499890  0.6251191  0.1249121  )
       227           Al  tau( 227) = (  0.7499902  0.5000229  0.2499803  )
       228           Al  tau( 228) = (  0.8751128  0.6250672  0.2499968  )
       229           Al  tau( 229) = (  0.8750019  0.5000200  0.3750566  )
       230           Al  tau( 230) = (  0.7500496  0.6249686  0.3750035  )
       231           Al  tau( 231) = (  0.7499212  0.4999858  0.5000000  )
       232           Al  tau( 232) = (  0.8749414  0.6249594  0.5000000  )
       233           Al  tau( 233) = (  0.8750019  0.5000200  0.6249434  )
       234           Al  tau( 234) = (  0.7500496  0.6249686  0.6249965  )
       235           Al  tau( 235) = (  0.7499902  0.5000229  0.7500197  )
       236           Al  tau( 236) = (  0.8751128  0.6250672  0.7500033  )
       237           Al  tau( 237) = (  0.8749484  0.4999250  0.8750282  )
       238           Al  tau( 238) = (  0.7499890  0.6251191  0.8750880  )
       239           Al  tau( 239) = (  0.7509227  0.7509227  0.0000000  )
       240           Al  tau( 240) = (  0.8772770  0.8772770  0.0000000  )
       241           Al  tau( 241) = (  0.8751908  0.7502521  0.1248798  )
       242           Al  tau( 242) = (  0.7502521  0.8751908  0.1248798  )
       243           Al  tau( 243) = (  0.7498268  0.7498268  0.2501383  )
       244           Al  tau( 244) = (  0.8749932  0.8749932  0.2498708  )
       245           Al  tau( 245) = (  0.8750852  0.7499755  0.3749303  )
       246           Al  tau( 246) = (  0.7499755  0.8750852  0.3749303  )
       247           Al  tau( 247) = (  0.7500476  0.7500476  0.5000000  )
       248           Al  tau( 248) = (  0.8749902  0.8749902  0.5000000  )
       249           Al  tau( 249) = (  0.8750852  0.7499755  0.6250697  )
       250           Al  tau( 250) = (  0.7499755  0.8750852  0.6250697  )
       251           Al  tau( 251) = (  0.7498268  0.7498268  0.7498617  )
       252           Al  tau( 252) = (  0.8749932  0.8749932  0.7501292  )
       253           Al  tau( 253) = (  0.8751908  0.7502521  0.8751202  )
       254           Al  tau( 254) = (  0.7502521  0.8751908  0.8751202  )

     number of k points=    63  Methfessel-Paxton smearing, width (Ry)=  0.0441
                       cart. coord. in units 2pi/alat
        k(    1) = (   0.0000000   0.0000000   0.0000000), wk =   0.0160000
        k(    2) = (   0.0000000   0.0000000   0.2000000), wk =   0.0320000
        k(    3) = (   0.0000000   0.0000000   0.4000000), wk =   0.0320000
        k(    4) = (   0.0000000   0.2000000   0.0000000), wk =   0.0320000
        k(    5) = (   0.0000000   0.2000000   0.2000000), wk =   0.0320000
        k(    6) = (   0.0000000   0.2000000   0.4000000), wk =   0.0320000
        k(    7) = (   0.0000000   0.2000000  -0.4000000), wk =   0.0320000
        k(    8) = (   0.0000000   0.2000000  -0.2000000), wk =   0.0320000
        k(    9) = (   0.0000000   0.4000000   0.0000000), wk =   0.0320000
        k(   10) = (   0.0000000   0.4000000   0.2000000), wk =   0.0320000
        k(   11) = (   0.0000000   0.4000000   0.4000000), wk =   0.0320000
        k(   12) = (   0.0000000   0.4000000  -0.4000000), wk =   0.0320000
        k(   13) = (   0.0000000   0.4000000  -0.2000000), wk =   0.0320000
        k(   14) = (   0.2000000   0.0000000   0.0000000), wk =   0.0320000
        k(   15) = (   0.2000000   0.0000000   0.2000000), wk =   0.0320000
        k(   16) = (   0.2000000   0.0000000   0.4000000), wk =   0.0320000
        k(   17) = (   0.2000000   0.0000000  -0.4000000), wk =   0.0320000
        k(   18) = (   0.2000000   0.0000000  -0.2000000), wk =   0.0320000
        k(   19) = (   0.2000000   0.2000000   0.0000000), wk =   0.0320000
        k(   20) = (   0.2000000   0.2000000   0.2000000), wk =   0.0320000
        k(   21) = (   0.2000000   0.2000000   0.4000000), wk =   0.0320000
        k(   22) = (   0.2000000   0.2000000  -0.4000000), wk =   0.0320000
        k(   23) = (   0.2000000   0.2000000  -0.2000000), wk =   0.0320000
        k(   24) = (   0.2000000   0.4000000   0.0000000), wk =   0.0320000
        k(   25) = (   0.2000000   0.4000000   0.2000000), wk =   0.0320000
        k(   26) = (   0.2000000   0.4000000   0.4000000), wk =   0.0320000
        k(   27) = (   0.2000000   0.4000000  -0.4000000), wk =   0.0320000
        k(   28) = (   0.2000000   0.4000000  -0.2000000), wk =   0.0320000
        k(   29) = (   0.2000000  -0.4000000   0.0000000), wk =   0.0320000
        k(   30) = (   0.2000000  -0.4000000   0.2000000), wk =   0.0320000
        k(   31) = (   0.2000000  -0.4000000   0.4000000), wk =   0.0320000
        k(   32) = (   0.2000000  -0.4000000  -0.4000000), wk =   0.0320000
        k(   33) = (   0.2000000  -0.4000000  -0.2000000), wk =   0.0320000
        k(   34) = (   0.2000000  -0.2000000   0.0000000), wk =   0.0320000
        k(   35) = (   0.2000000  -0.2000000   0.2000000), wk =   0.0320000
        k(   36) = (   0.2000000  -0.2000000   0.4000000), wk =   0.0320000
        k(   37) = (   0.2000000  -0.2000000  -0.4000000), wk =   0.0320000
        k(   38) = (   0.2000000  -0.2000000  -0.2000000), wk =   0.0320000
        k(   39) = (   0.4000000   0.0000000   0.0000000), wk =   0.0320000
        k(   40) = (   0.4000000   0.0000000   0.2000000), wk =   0.0320000
        k(   41) = (   0.4000000   0.0000000   0.4000000), wk =   0.0320000
        k(   42) = (   0.4000000   0.0000000  -0.4000000), wk =   0.0320000
        k(   43) = (   0.4000000   0.0000000  -0.2000000), wk =   0.0320000
        k(   44) = (   0.4000000   0.2000000   0.0000000), wk =   0.0320000
        k(   45) = (   0.4000000   0.2000000   0.2000000), wk =   0.0320000
        k(   46) = (   0.4000000   0.2000000   0.4000000), wk =   0.0320000
        k(   47) = (   0.4000000   0.2000000  -0.4000000), wk =   0.0320000
        k(   48) = (   0.4000000   0.2000000  -0.2000000), wk =   0.0320000
        k(   49) = (   0.4000000   0.4000000   0.0000000), wk =   0.0320000
        k(   50) = (   0.4000000   0.4000000   0.2000000), wk =   0.0320000
        k(   51) = (   0.4000000   0.4000000   0.4000000), wk =   0.0320000
        k(   52) = (   0.4000000   0.4000000  -0.4000000), wk =   0.0320000
        k(   53) = (   0.4000000   0.4000000  -0.2000000), wk =   0.0320000
        k(   54) = (   0.4000000  -0.4000000   0.0000000), wk =   0.0320000
        k(   55) = (   0.4000000  -0.4000000   0.2000000), wk =   0.0320000
        k(   56) = (   0.4000000  -0.4000000   0.4000000), wk =   0.0320000
        k(   57) = (   0.4000000  -0.4000000  -0.4000000), wk =   0.0320000
        k(   58) = (   0.4000000  -0.4000000  -0.2000000), wk =   0.0320000
        k(   59) = (   0.4000000  -0.2000000   0.0000000), wk =   0.0320000
        k(   60) = (   0.4000000  -0.2000000   0.2000000), wk =   0.0320000
        k(   61) = (   0.4000000  -0.2000000   0.4000000), wk =   0.0320000
        k(   62) = (   0.4000000  -0.2000000  -0.4000000), wk =   0.0320000
        k(   63) = (   0.4000000  -0.2000000  -0.2000000), wk =   0.0320000

                       cryst. coord.
        k(    1) = (   0.0000000   0.0000000   0.0000000), wk =   0.0160000
        k(    2) = (   0.0000000   0.0000000   0.2000000), wk =   0.0320000
        k(    3) = (   0.0000000   0.0000000   0.4000000), wk =   0.0320000
        k(    4) = (   0.0000000   0.2000000   0.0000000), wk =   0.0320000
        k(    5) = (   0.0000000   0.2000000   0.2000000), wk =   0.0320000
        k(    6) = (   0.0000000   0.2000000   0.4000000), wk =   0.0320000
        k(    7) = (   0.0000000   0.2000000  -0.4000000), wk =   0.0320000
        k(    8) = (   0.0000000   0.2000000  -0.2000000), wk =   0.0320000
        k(    9) = (   0.0000000   0.4000000   0.0000000), wk =   0.0320000
        k(   10) = (   0.0000000   0.4000000   0.2000000), wk =   0.0320000
        k(   11) = (   0.0000000   0.4000000   0.4000000), wk =   0.0320000
        k(   12) = (   0.0000000   0.4000000  -0.4000000), wk =   0.0320000
        k(   13) = (   0.0000000   0.4000000  -0.2000000), wk =   0.0320000
        k(   14) = (   0.2000000   0.0000000   0.0000000), wk =   0.0320000
        k(   15) = (   0.2000000   0.0000000   0.2000000), wk =   0.0320000
        k(   16) = (   0.2000000   0.0000000   0.4000000), wk =   0.0320000
        k(   17) = (   0.2000000   0.0000000  -0.4000000), wk =   0.0320000
        k(   18) = (   0.2000000   0.0000000  -0.2000000), wk =   0.0320000
        k(   19) = (   0.2000000   0.2000000   0.0000000), wk =   0.0320000
        k(   20) = (   0.2000000   0.2000000   0.2000000), wk =   0.0320000
        k(   21) = (   0.2000000   0.2000000   0.4000000), wk =   0.0320000
        k(   22) = (   0.2000000   0.2000000  -0.4000000), wk =   0.0320000
        k(   23) = (   0.2000000   0.2000000  -0.2000000), wk =   0.0320000
        k(   24) = (   0.2000000   0.4000000   0.0000000), wk =   0.0320000
        k(   25) = (   0.2000000   0.4000000   0.2000000), wk =   0.0320000
        k(   26) = (   0.2000000   0.4000000   0.4000000), wk =   0.0320000
        k(   27) = (   0.2000000   0.4000000  -0.4000000), wk =   0.0320000
        k(   28) = (   0.2000000   0.4000000  -0.2000000), wk =   0.0320000
        k(   29) = (   0.2000000  -0.4000000   0.0000000), wk =   0.0320000
        k(   30) = (   0.2000000  -0.4000000   0.2000000), wk =   0.0320000
        k(   31) = (   0.2000000  -0.4000000   0.4000000), wk =   0.0320000
        k(   32) = (   0.2000000  -0.4000000  -0.4000000), wk =   0.0320000
        k(   33) = (   0.2000000  -0.4000000  -0.2000000), wk =   0.0320000
        k(   34) = (   0.2000000  -0.2000000   0.0000000), wk =   0.0320000
        k(   35) = (   0.2000000  -0.2000000   0.2000000), wk =   0.0320000
        k(   36) = (   0.2000000  -0.2000000   0.4000000), wk =   0.0320000
        k(   37) = (   0.2000000  -0.2000000  -0.4000000), wk =   0.0320000
        k(   38) = (   0.2000000  -0.2000000  -0.2000000), wk =   0.0320000
        k(   39) = (   0.4000000   0.0000000   0.0000000), wk =   0.0320000
        k(   40) = (   0.4000000   0.0000000   0.2000000), wk =   0.0320000
        k(   41) = (   0.4000000   0.0000000   0.4000000), wk =   0.0320000
        k(   42) = (   0.4000000   0.0000000  -0.4000000), wk =   0.0320000
        k(   43) = (   0.4000000   0.0000000  -0.2000000), wk =   0.0320000
        k(   44) = (   0.4000000   0.2000000   0.0000000), wk =   0.0320000
        k(   45) = (   0.4000000   0.2000000   0.2000000), wk =   0.0320000
        k(   46) = (   0.4000000   0.2000000   0.4000000), wk =   0.0320000
        k(   47) = (   0.4000000   0.2000000  -0.4000000), wk =   0.0320000
        k(   48) = (   0.4000000   0.2000000  -0.2000000), wk =   0.0320000
        k(   49) = (   0.4000000   0.4000000   0.0000000), wk =   0.0320000
        k(   50) = (   0.4000000   0.4000000   0.2000000), wk =   0.0320000
        k(   51) = (   0.4000000   0.4000000   0.4000000), wk =   0.0320000
        k(   52) = (   0.4000000   0.4000000  -0.4000000), wk =   0.0320000
        k(   53) = (   0.4000000   0.4000000  -0.2000000), wk =   0.0320000
        k(   54) = (   0.4000000  -0.4000000   0.0000000), wk =   0.0320000
        k(   55) = (   0.4000000  -0.4000000   0.2000000), wk =   0.0320000
        k(   56) = (   0.4000000  -0.4000000   0.4000000), wk =   0.0320000
        k(   57) = (   0.4000000  -0.4000000  -0.4000000), wk =   0.0320000
        k(   58) = (   0.4000000  -0.4000000  -0.2000000), wk =   0.0320000
        k(   59) = (   0.4000000  -0.2000000   0.0000000), wk =   0.0320000
        k(   60) = (   0.4000000  -0.2000000   0.2000000), wk =   0.0320000
        k(   61) = (   0.4000000  -0.2000000   0.4000000), wk =   0.0320000
        k(   62) = (   0.4000000  -0.2000000  -0.4000000), wk =   0.0320000
        k(   63) = (   0.4000000  -0.2000000  -0.2000000), wk =   0.0320000

     Dense  grid:  3895379 G-vectors     FFT dimensions: ( 200, 200, 200)

     Smooth grid:   985619 G-vectors     FFT dimensions: ( 125, 125, 125)

     Dynamical RAM for                 wfc:      95.46 MB

     Dynamical RAM for     wfc (w. buffer):    1622.77 MB

     Dynamical RAM for           str. fact:       6.60 MB

     Dynamical RAM for           local pot:       0.00 MB

     Dynamical RAM for          nlocal pot:     954.99 MB

     Dynamical RAM for                qrad:       7.82 MB

     Dynamical RAM for          rho,v,vnew:      40.87 MB

     Dynamical RAM for               rhoin:      13.62 MB

     Dynamical RAM for            rho*nmix:     105.67 MB

     Dynamical RAM for           G-vectors:      25.60 MB

     Dynamical RAM for          h,s,v(r/c):      38.24 MB

     Dynamical RAM for          <psi|beta>:      31.88 MB

     Dynamical RAM for                 psi:     381.83 MB

     Dynamical RAM for                hpsi:     381.83 MB

     Dynamical RAM for                spsi:     381.83 MB

     Dynamical RAM for      wfcinit/wfcrot:     448.07 MB

     Dynamical RAM for           addusdens:     731.43 MB

     Dynamical RAM for          addusforce:    1566.22 MB

     Dynamical RAM for         addusstress:     334.34 MB

     Estimated static dynamical RAM per process >       2.76 GB

     Estimated max dynamical RAM per process >       4.29 GB

     Estimated total dynamical RAM >     154.42 GB

     Initial potential from superposition of free atoms

     starting charge  761.41829, renormalised to  762.00000
     Starting wfcs are 1016 randomized atomic wfcs
