
     Program PWSCF v.6.3 starts on 26Feb2020 at 22:26:12 

     This program is part of the open-source Quantum ESPRESSO suite
     for quantum simulation of materials; please cite
         "P. Giannozzi et al., J. Phys.:Condens. Matter 21 395502 (2009);
         "P. Giannozzi et al., J. Phys.:Condens. Matter 29 465901 (2017);
          URL http://www.quantum-espresso.org", 
     in publications or presentations arising from this work. More details at
     http://www.quantum-espresso.org/quote

 *** WARNING: using old-style file format, will disappear from next version ***

     Parallel version (MPI & OpenMP), running on     288 processor cores
     Number of MPI processes:               288
     Threads/MPI process:                     1

     MPI processes distributed on     8 nodes
     K-points division:     npool     =      36
     R & G space division:  proc/nbgrp/npool/nimage =       8
     Reading input from aiida.in
Warning: card &IONS ignored
Warning: card   !PRESS_CONV_THR = 0.05                 ! JUST FOR VOLUME RELAXATIONS ignored
Warning: card / ignored

     Current dimensions of program PWSCF are:
     Max number of different atomic species (ntypx) = 10
     Max number of k-points (npk) =  40000
     Max angular momentum in pseudopotentials (lmaxx) =  3
               file Al.pbe-n-kjpaw_psl.1.0.0.UPF: wavefunction(s)  3S 3P renormalized

     Subspace diagonalization in iterative solution of the eigenvalue problem:
     one sub-group per band group will be used
     scalapack distributed-memory algorithm (size of sub-group:  2*  2 procs)

 
     Parallelization info
     --------------------
     sticks:   dense  smooth     PW     G-vecs:    dense   smooth      PW
     Min        3740    1497    390               486920   123201   16474
     Max        3741    1498    391               486925   123204   16481
     Sum       29921   11977   3125              3895379   985619  131827
 


     bravais-lattice index     =            0
     lattice parameter (alat)  =      30.6665  a.u.
     unit-cell volume          =   28839.7502 (a.u.)^3
     number of atoms/cell      =          254
     number of atomic types    =            1
     number of electrons       =       762.00
     number of Kohn-Sham states=          457
     kinetic-energy cutoff     =      40.0000  Ry
     charge density cutoff     =     400.0000  Ry
     convergence threshold     =      1.0E-12
     mixing beta               =       0.4000
     number of iterations used =            8  local-TF  mixing
     Exchange-correlation      = SLA PW PBX PBC ( 1  4  3  4 0 0)

     celldm(1)=  30.666473  celldm(2)=   0.000000  celldm(3)=   0.000000
     celldm(4)=   0.000000  celldm(5)=   0.000000  celldm(6)=   0.000000

     crystal axes: (cart. coord. in units of alat)
               a(1) = (   1.000000   0.000000   0.000000 )  
               a(2) = (   0.000000   1.000000   0.000000 )  
               a(3) = (   0.000000   0.000000   1.000000 )  

     reciprocal axes: (cart. coord. in units 2 pi/alat)
               b(1) = (  1.000000  0.000000  0.000000 )  
               b(2) = (  0.000000  1.000000  0.000000 )  
               b(3) = (  0.000000  0.000000  1.000000 )  


     PseudoPot. # 1 for Al read from file:
     /users/aglensk/Dropbox/Albert/scripts/dotfiles/scripts/potentials/quantum_espresso/pseudo_SSSPefV1.1_alalloy/Al.pbe-n-kjpaw_psl.1.0.0.UPF
     MD5 check sum: cfc449ca30b5f3223ec38ddd88ac046d
     Pseudo is Projector augmented-wave + core cor, Zval =  3.0
     Generated using "atomic" code by A. Dal Corso v.5.1
     Shape of augmentation charge: PSQ
     Using radial grid of 1135 points,  6 beta functions with: 
                l(1) =   0
                l(2) =   0
                l(3) =   1
                l(4) =   1
                l(5) =   2
                l(6) =   2
     Q(r) pseudized with 0 coefficients 


     atomic species   valence    mass     pseudopotential
        Al             3.00    26.98154     Al( 1.00)

     No symmetry found


                                    s                        frac. trans.

      isym =  1     identity                                     

 cryst.   s( 1) = (     1          0          0      )
                  (     0          1          0      )
                  (     0          0          1      )

 cart.    s( 1) = (  1.0000000  0.0000000  0.0000000 )
                  (  0.0000000  1.0000000  0.0000000 )
                  (  0.0000000  0.0000000  1.0000000 )


   Cartesian axes

     site n.     atom                  positions (alat units)
         1           Al  tau(   1) = (   0.1231057   0.0018943   0.1211529  )
         2           Al  tau(   2) = (   0.0018943   0.1231057   0.1211529  )
         3           Al  tau(   3) = (   0.0000671   0.0000671   0.2497460  )
         4           Al  tau(   4) = (   0.1249328   0.1249328   0.2497459  )
         5           Al  tau(   5) = (   0.1249449   0.0000549   0.3750984  )
         6           Al  tau(   6) = (   0.0000549   0.1249449   0.3750984  )
         7           Al  tau(   7) = (   0.9999734   0.9999734   0.5000000  )
         8           Al  tau(   8) = (   0.1250265   0.1250265   0.5000000  )
         9           Al  tau(   9) = (   0.1249449   0.0000549   0.6249016  )
        10           Al  tau(  10) = (   0.0000549   0.1249449   0.6249016  )
        11           Al  tau(  11) = (   0.0000671   0.0000671   0.7502540  )
        12           Al  tau(  12) = (   0.1249328   0.1249328   0.7502541  )
        13           Al  tau(  13) = (   0.1231057   0.0018943   0.8788471  )
        14           Al  tau(  14) = (   0.0018943   0.1231057   0.8788471  )
        15           Al  tau(  15) = (   0.0022692   0.2470638   0.0000000  )
        16           Al  tau(  16) = (   0.1249352   0.3746084   0.0000000  )
        17           Al  tau(  17) = (   0.1246934   0.2473044   0.1227372  )
        18           Al  tau(  18) = (   0.0001577   0.3747261   0.1248188  )
        19           Al  tau(  19) = (   0.0001996   0.2491582   0.2491123  )
        20           Al  tau(  20) = (   0.1249303   0.3739916   0.2490745  )
        21           Al  tau(  21) = (   0.1249302   0.2499714   0.3749902  )
        22           Al  tau(  22) = (   0.0000854   0.3749526   0.3748541  )
        23           Al  tau(  23) = (   0.9999537   0.2500711   0.5000000  )
        24           Al  tau(  24) = (   0.1250431   0.3750705   0.5000000  )
        25           Al  tau(  25) = (   0.1249302   0.2499714   0.6250098  )
        26           Al  tau(  26) = (   0.0000854   0.3749526   0.6251459  )
        27           Al  tau(  27) = (   0.0001996   0.2491582   0.7508877  )
        28           Al  tau(  28) = (   0.1249303   0.3739916   0.7509255  )
        29           Al  tau(  29) = (   0.1246934   0.2473044   0.8772628  )
        30           Al  tau(  30) = (   0.0001577   0.3747261   0.8751813  )
        31           Al  tau(  31) = (   0.0000384   0.4999605   0.0000000  )
        32           Al  tau(  32) = (   0.1249613   0.6250396   0.0000000  )
        33           Al  tau(  33) = (   0.1250299   0.5000250   0.1249738  )
        34           Al  tau(  34) = (   0.9999698   0.6249751   0.1249738  )
        35           Al  tau(  35) = (   0.0000945   0.4999043   0.2500050  )
        36           Al  tau(  36) = (   0.1249053   0.6250958   0.2500050  )
        37           Al  tau(  37) = (   0.1250166   0.4998658   0.3748814  )
        38           Al  tau(  38) = (   0.9999832   0.6251344   0.3748813  )
        39           Al  tau(  39) = (   0.0000049   0.5000183   0.5000000  )
        40           Al  tau(  40) = (   0.1249950   0.6249818   0.5000000  )
        41           Al  tau(  41) = (   0.1250166   0.4998658   0.6251186  )
        42           Al  tau(  42) = (   0.9999832   0.6251344   0.6251187  )
        43           Al  tau(  43) = (   0.0000945   0.4999043   0.7499950  )
        44           Al  tau(  44) = (   0.1249053   0.6250958   0.7499950  )
        45           Al  tau(  45) = (   0.1250299   0.5000250   0.8750262  )
        46           Al  tau(  46) = (   0.9999698   0.6249751   0.8750262  )
        47           Al  tau(  47) = (   0.0000645   0.7503916   0.0000000  )
        48           Al  tau(  48) = (   0.1227307   0.8779362   0.0000000  )
        49           Al  tau(  49) = (   0.1248421   0.7502740   0.1248188  )
        50           Al  tau(  50) = (   0.0003065   0.8776954   0.1227373  )
        51           Al  tau(  51) = (   0.0000695   0.7510085   0.2490745  )
        52           Al  tau(  52) = (   0.1248002   0.8758417   0.2491123  )
        53           Al  tau(  53) = (   0.1249145   0.7500474   0.3748542  )
        54           Al  tau(  54) = (   0.0000696   0.8750285   0.3749902  )
        55           Al  tau(  55) = (   0.9999568   0.7499296   0.5000000  )
        56           Al  tau(  56) = (   0.1250462   0.8749288   0.5000000  )
        57           Al  tau(  57) = (   0.1249145   0.7500474   0.6251459  )
        58           Al  tau(  58) = (   0.0000696   0.8750285   0.6250098  )
        59           Al  tau(  59) = (   0.0000695   0.7510085   0.7509255  )
        60           Al  tau(  60) = (   0.1248002   0.8758417   0.7508877  )
        61           Al  tau(  61) = (   0.1248421   0.7502740   0.8751812  )
        62           Al  tau(  62) = (   0.0003065   0.8776954   0.8772627  )
        63           Al  tau(  63) = (   0.2470638   0.0022692   0.0000000  )
        64           Al  tau(  64) = (   0.3746084   0.1249352   0.0000000  )
        65           Al  tau(  65) = (   0.3747261   0.0001577   0.1248188  )
        66           Al  tau(  66) = (   0.2473044   0.1246934   0.1227372  )
        67           Al  tau(  67) = (   0.2491582   0.0001996   0.2491123  )
        68           Al  tau(  68) = (   0.3739916   0.1249303   0.2490745  )
        69           Al  tau(  69) = (   0.3749526   0.0000854   0.3748541  )
        70           Al  tau(  70) = (   0.2499714   0.1249302   0.3749902  )
        71           Al  tau(  71) = (   0.2500711   0.9999537   0.5000000  )
        72           Al  tau(  72) = (   0.3750705   0.1250431   0.5000000  )
        73           Al  tau(  73) = (   0.3749526   0.0000854   0.6251459  )
        74           Al  tau(  74) = (   0.2499714   0.1249302   0.6250098  )
        75           Al  tau(  75) = (   0.2491582   0.0001996   0.7508877  )
        76           Al  tau(  76) = (   0.3739916   0.1249303   0.7509255  )
        77           Al  tau(  77) = (   0.3747261   0.0001577   0.8751813  )
        78           Al  tau(  78) = (   0.2473044   0.1246934   0.8772628  )
        79           Al  tau(  79) = (   0.2477228   0.2477228   0.0000000  )
        80           Al  tau(  80) = (   0.3740773   0.3740773   0.0000000  )
        81           Al  tau(  81) = (   0.3747479   0.2498090   0.1248799  )
        82           Al  tau(  82) = (   0.2498090   0.3747479   0.1248799  )
        83           Al  tau(  83) = (   0.2500067   0.2500067   0.2498708  )
        84           Al  tau(  84) = (   0.3751733   0.3751733   0.2501383  )
        85           Al  tau(  85) = (   0.3750246   0.2499147   0.3749303  )
        86           Al  tau(  86) = (   0.2499147   0.3750246   0.3749303  )
        87           Al  tau(  87) = (   0.2500098   0.2500098   0.5000000  )
        88           Al  tau(  88) = (   0.3749524   0.3749524   0.5000000  )
        89           Al  tau(  89) = (   0.3750246   0.2499147   0.6250697  )
        90           Al  tau(  90) = (   0.2499147   0.3750246   0.6250697  )
        91           Al  tau(  91) = (   0.2500067   0.2500067   0.7501292  )
        92           Al  tau(  92) = (   0.3751733   0.3751733   0.7498617  )
        93           Al  tau(  93) = (   0.3747479   0.2498090   0.8751202  )
        94           Al  tau(  94) = (   0.2498090   0.3747479   0.8751202  )
        95           Al  tau(  95) = (   0.2499612   0.5000377   0.0000000  )
        96           Al  tau(  96) = (   0.3748799   0.6251039   0.0000000  )
        97           Al  tau(  97) = (   0.3750112   0.4998812   0.1249121  )
        98           Al  tau(  98) = (   0.2500515   0.6250752   0.1249719  )
        99           Al  tau(  99) = (   0.2498871   0.4999330   0.2499968  )
       100           Al  tau( 100) = (   0.3750099   0.6249773   0.2499803  )
       101           Al  tau( 101) = (   0.3749505   0.5000316   0.3750036  )
       102           Al  tau( 102) = (   0.2499980   0.6249802   0.3750566  )
       103           Al  tau( 103) = (   0.2500585   0.5000408   0.5000000  )
       104           Al  tau( 104) = (   0.3750789   0.6250144   0.5000000  )
       105           Al  tau( 105) = (   0.3749505   0.5000316   0.6249964  )
       106           Al  tau( 106) = (   0.2499980   0.6249802   0.6249434  )
       107           Al  tau( 107) = (   0.2498871   0.4999330   0.7500032  )
       108           Al  tau( 108) = (   0.3750099   0.6249773   0.7500197  )
       109           Al  tau( 109) = (   0.3750112   0.4998812   0.8750879  )
       110           Al  tau( 110) = (   0.2500515   0.6250752   0.8750282  )
       111           Al  tau( 111) = (   0.2490456   0.7508601   0.0000000  )
       112           Al  tau( 112) = (   0.3741401   0.8759544   0.0000000  )
       113           Al  tau( 113) = (   0.3749986   0.7500017   0.1248149  )
       114           Al  tau( 114) = (   0.2499859   0.8750141   0.1247854  )
       115           Al  tau( 115) = (   0.2500146   0.7499447   0.2501401  )
       116           Al  tau( 116) = (   0.3750554   0.8749854   0.2501401  )
       117           Al  tau( 117) = (   0.3749593   0.7500407   0.3749962  )
       118           Al  tau( 118) = (   0.2498546   0.8751453   0.3747536  )
       119           Al  tau( 119) = (   0.2500347   0.7500104   0.5000000  )
       120           Al  tau( 120) = (   0.3749896   0.8749653   0.5000000  )
       121           Al  tau( 121) = (   0.3749593   0.7500407   0.6250038  )
       122           Al  tau( 122) = (   0.2498546   0.8751453   0.6252464  )
       123           Al  tau( 123) = (   0.2500146   0.7499447   0.7498599  )
       124           Al  tau( 124) = (   0.3750554   0.8749854   0.7498600  )
       125           Al  tau( 125) = (   0.3749986   0.7500017   0.8751851  )
       126           Al  tau( 126) = (   0.2499859   0.8750141   0.8752146  )
       127           Al  tau( 127) = (   0.4999605   0.0000384   0.0000000  )
       128           Al  tau( 128) = (   0.6250396   0.1249613   0.0000000  )
       129           Al  tau( 129) = (   0.6249751   0.9999698   0.1249738  )
       130           Al  tau( 130) = (   0.5000250   0.1250299   0.1249738  )
       131           Al  tau( 131) = (   0.4999043   0.0000945   0.2500050  )
       132           Al  tau( 132) = (   0.6250958   0.1249053   0.2500050  )
       133           Al  tau( 133) = (   0.6251344   0.9999832   0.3748813  )
       134           Al  tau( 134) = (   0.4998658   0.1250166   0.3748814  )
       135           Al  tau( 135) = (   0.5000183   0.0000049   0.5000000  )
       136           Al  tau( 136) = (   0.6249818   0.1249950   0.5000000  )
       137           Al  tau( 137) = (   0.6251344   0.9999832   0.6251187  )
       138           Al  tau( 138) = (   0.4998658   0.1250166   0.6251186  )
       139           Al  tau( 139) = (   0.4999043   0.0000945   0.7499950  )
       140           Al  tau( 140) = (   0.6250958   0.1249053   0.7499950  )
       141           Al  tau( 141) = (   0.6249751   0.9999698   0.8750262  )
       142           Al  tau( 142) = (   0.5000250   0.1250299   0.8750262  )
       143           Al  tau( 143) = (   0.5000377   0.2499612   0.0000000  )
       144           Al  tau( 144) = (   0.6251039   0.3748799   0.0000000  )
       145           Al  tau( 145) = (   0.6250752   0.2500515   0.1249719  )
       146           Al  tau( 146) = (   0.4998812   0.3750112   0.1249121  )
       147           Al  tau( 147) = (   0.4999330   0.2498871   0.2499968  )
       148           Al  tau( 148) = (   0.6249773   0.3750099   0.2499803  )
       149           Al  tau( 149) = (   0.6249802   0.2499980   0.3750566  )
       150           Al  tau( 150) = (   0.5000316   0.3749505   0.3750036  )
       151           Al  tau( 151) = (   0.5000408   0.2500585   0.5000000  )
       152           Al  tau( 152) = (   0.6250144   0.3750789   0.5000000  )
       153           Al  tau( 153) = (   0.6249802   0.2499980   0.6249434  )
       154           Al  tau( 154) = (   0.5000316   0.3749505   0.6249964  )
       155           Al  tau( 155) = (   0.4999330   0.2498871   0.7500032  )
       156           Al  tau( 156) = (   0.6249773   0.3750099   0.7500197  )
       157           Al  tau( 157) = (   0.6250752   0.2500515   0.8750282  )
       158           Al  tau( 158) = (   0.4998812   0.3750112   0.8750879  )
       159           Al  tau( 159) = (   0.4998809   0.4998809   0.0000000  )
       160           Al  tau( 160) = (   0.6251194   0.6251194   0.0000000  )
       161           Al  tau( 161) = (   0.6249824   0.5000179   0.1250219  )
       162           Al  tau( 162) = (   0.5000179   0.6249824   0.1250219  )
       163           Al  tau( 163) = (   0.5000033   0.5000033   0.2500199  )
       164           Al  tau( 164) = (   0.6249969   0.6249969   0.2500199  )
       165           Al  tau( 165) = (   0.6250047   0.4999954   0.3749554  )
       166           Al  tau( 166) = (   0.4999954   0.6250047   0.3749554  )
       167           Al  tau( 167) = (   0.4999546   0.4999546   0.5000000  )
       168           Al  tau( 168) = (   0.6250456   0.6250456   0.5000000  )
       169           Al  tau( 169) = (   0.6250047   0.4999954   0.6250446  )
       170           Al  tau( 170) = (   0.4999954   0.6250047   0.6250446  )
       171           Al  tau( 171) = (   0.5000033   0.5000033   0.7499801  )
       172           Al  tau( 172) = (   0.6249969   0.6249969   0.7499802  )
       173           Al  tau( 173) = (   0.6249824   0.5000179   0.8749781  )
       174           Al  tau( 174) = (   0.5000179   0.6249824   0.8749781  )
       175           Al  tau( 175) = (   0.4998963   0.7501203   0.0000000  )
       176           Al  tau( 176) = (   0.6249624   0.8750387   0.0000000  )
       177           Al  tau( 177) = (   0.6251191   0.7499890   0.1249121  )
       178           Al  tau( 178) = (   0.4999250   0.8749484   0.1249718  )
       179           Al  tau( 179) = (   0.5000229   0.7499902   0.2499803  )
       180           Al  tau( 180) = (   0.6250672   0.8751128   0.2499968  )
       181           Al  tau( 181) = (   0.6249686   0.7500496   0.3750035  )
       182           Al  tau( 182) = (   0.5000200   0.8750019   0.3750566  )
       183           Al  tau( 183) = (   0.4999858   0.7499212   0.5000000  )
       184           Al  tau( 184) = (   0.6249594   0.8749414   0.5000000  )
       185           Al  tau( 185) = (   0.6249686   0.7500496   0.6249965  )
       186           Al  tau( 186) = (   0.5000200   0.8750019   0.6249434  )
       187           Al  tau( 187) = (   0.5000229   0.7499902   0.7500197  )
       188           Al  tau( 188) = (   0.6250672   0.8751128   0.7500033  )
       189           Al  tau( 189) = (   0.6251191   0.7499890   0.8750880  )
       190           Al  tau( 190) = (   0.4999250   0.8749484   0.8750282  )
       191           Al  tau( 191) = (   0.7503916   0.0000645   0.0000000  )
       192           Al  tau( 192) = (   0.8779362   0.1227307   0.0000000  )
       193           Al  tau( 193) = (   0.8776954   0.0003065   0.1227373  )
       194           Al  tau( 194) = (   0.7502740   0.1248421   0.1248188  )
       195           Al  tau( 195) = (   0.7510085   0.0000695   0.2490745  )
       196           Al  tau( 196) = (   0.8758417   0.1248002   0.2491123  )
       197           Al  tau( 197) = (   0.8750285   0.0000696   0.3749902  )
       198           Al  tau( 198) = (   0.7500474   0.1249145   0.3748542  )
       199           Al  tau( 199) = (   0.7499296   0.9999568   0.5000000  )
       200           Al  tau( 200) = (   0.8749288   0.1250462   0.5000000  )
       201           Al  tau( 201) = (   0.8750285   0.0000696   0.6250098  )
       202           Al  tau( 202) = (   0.7500474   0.1249145   0.6251459  )
       203           Al  tau( 203) = (   0.7510085   0.0000695   0.7509255  )
       204           Al  tau( 204) = (   0.8758417   0.1248002   0.7508877  )
       205           Al  tau( 205) = (   0.8776954   0.0003065   0.8772627  )
       206           Al  tau( 206) = (   0.7502740   0.1248421   0.8751812  )
       207           Al  tau( 207) = (   0.7508601   0.2490456   0.0000000  )
       208           Al  tau( 208) = (   0.8759544   0.3741401   0.0000000  )
       209           Al  tau( 209) = (   0.8750141   0.2499859   0.1247854  )
       210           Al  tau( 210) = (   0.7500017   0.3749986   0.1248149  )
       211           Al  tau( 211) = (   0.7499447   0.2500146   0.2501401  )
       212           Al  tau( 212) = (   0.8749854   0.3750554   0.2501401  )
       213           Al  tau( 213) = (   0.8751453   0.2498546   0.3747536  )
       214           Al  tau( 214) = (   0.7500407   0.3749593   0.3749962  )
       215           Al  tau( 215) = (   0.7500104   0.2500347   0.5000000  )
       216           Al  tau( 216) = (   0.8749653   0.3749896   0.5000000  )
       217           Al  tau( 217) = (   0.8751453   0.2498546   0.6252464  )
       218           Al  tau( 218) = (   0.7500407   0.3749593   0.6250038  )
       219           Al  tau( 219) = (   0.7499447   0.2500146   0.7498599  )
       220           Al  tau( 220) = (   0.8749854   0.3750554   0.7498600  )
       221           Al  tau( 221) = (   0.8750141   0.2499859   0.8752146  )
       222           Al  tau( 222) = (   0.7500017   0.3749986   0.8751851  )
       223           Al  tau( 223) = (   0.7501203   0.4998963   0.0000000  )
       224           Al  tau( 224) = (   0.8750387   0.6249624   0.0000000  )
       225           Al  tau( 225) = (   0.8749484   0.4999250   0.1249718  )
       226           Al  tau( 226) = (   0.7499890   0.6251191   0.1249121  )
       227           Al  tau( 227) = (   0.7499902   0.5000229   0.2499803  )
       228           Al  tau( 228) = (   0.8751128   0.6250672   0.2499968  )
       229           Al  tau( 229) = (   0.8750019   0.5000200   0.3750566  )
       230           Al  tau( 230) = (   0.7500496   0.6249686   0.3750035  )
       231           Al  tau( 231) = (   0.7499212   0.4999858   0.5000000  )
       232           Al  tau( 232) = (   0.8749414   0.6249594   0.5000000  )
       233           Al  tau( 233) = (   0.8750019   0.5000200   0.6249434  )
       234           Al  tau( 234) = (   0.7500496   0.6249686   0.6249965  )
       235           Al  tau( 235) = (   0.7499902   0.5000229   0.7500197  )
       236           Al  tau( 236) = (   0.8751128   0.6250672   0.7500033  )
       237           Al  tau( 237) = (   0.8749484   0.4999250   0.8750282  )
       238           Al  tau( 238) = (   0.7499890   0.6251191   0.8750880  )
       239           Al  tau( 239) = (   0.7509227   0.7509227   0.0000000  )
       240           Al  tau( 240) = (   0.8772770   0.8772770   0.0000000  )
       241           Al  tau( 241) = (   0.8751908   0.7502521   0.1248798  )
       242           Al  tau( 242) = (   0.7502521   0.8751908   0.1248798  )
       243           Al  tau( 243) = (   0.7498268   0.7498268   0.2501383  )
       244           Al  tau( 244) = (   0.8749932   0.8749932   0.2498708  )
       245           Al  tau( 245) = (   0.8750852   0.7499755   0.3749303  )
       246           Al  tau( 246) = (   0.7499755   0.8750852   0.3749303  )
       247           Al  tau( 247) = (   0.7500476   0.7500476   0.5000000  )
       248           Al  tau( 248) = (   0.8749902   0.8749902   0.5000000  )
       249           Al  tau( 249) = (   0.8750852   0.7499755   0.6250697  )
       250           Al  tau( 250) = (   0.7499755   0.8750852   0.6250697  )
       251           Al  tau( 251) = (   0.7498268   0.7498268   0.7498617  )
       252           Al  tau( 252) = (   0.8749932   0.8749932   0.7501292  )
       253           Al  tau( 253) = (   0.8751908   0.7502521   0.8751202  )
       254           Al  tau( 254) = (   0.7502521   0.8751908   0.8751202  )

   Crystallographic axes

     site n.     atom                  positions (cryst. coord.)
         1           Al  tau(   1) = (  0.1231057  0.0018943  0.1211529  )
         2           Al  tau(   2) = (  0.0018943  0.1231057  0.1211529  )
         3           Al  tau(   3) = (  0.0000671  0.0000671  0.2497460  )
         4           Al  tau(   4) = (  0.1249328  0.1249328  0.2497459  )
         5           Al  tau(   5) = (  0.1249449  0.0000549  0.3750984  )
         6           Al  tau(   6) = (  0.0000549  0.1249449  0.3750984  )
         7           Al  tau(   7) = (  0.9999734  0.9999734  0.5000000  )
         8           Al  tau(   8) = (  0.1250265  0.1250265  0.5000000  )
         9           Al  tau(   9) = (  0.1249449  0.0000549  0.6249016  )
        10           Al  tau(  10) = (  0.0000549  0.1249449  0.6249016  )
        11           Al  tau(  11) = (  0.0000671  0.0000671  0.7502540  )
        12           Al  tau(  12) = (  0.1249328  0.1249328  0.7502541  )
        13           Al  tau(  13) = (  0.1231057  0.0018943  0.8788471  )
        14           Al  tau(  14) = (  0.0018943  0.1231057  0.8788471  )
        15           Al  tau(  15) = (  0.0022692  0.2470638  0.0000000  )
        16           Al  tau(  16) = (  0.1249352  0.3746084  0.0000000  )
        17           Al  tau(  17) = (  0.1246934  0.2473044  0.1227372  )
        18           Al  tau(  18) = (  0.0001577  0.3747261  0.1248188  )
        19           Al  tau(  19) = (  0.0001996  0.2491582  0.2491123  )
        20           Al  tau(  20) = (  0.1249303  0.3739916  0.2490745  )
        21           Al  tau(  21) = (  0.1249302  0.2499714  0.3749902  )
        22           Al  tau(  22) = (  0.0000854  0.3749526  0.3748541  )
        23           Al  tau(  23) = (  0.9999537  0.2500711  0.5000000  )
        24           Al  tau(  24) = (  0.1250431  0.3750705  0.5000000  )
        25           Al  tau(  25) = (  0.1249302  0.2499714  0.6250098  )
        26           Al  tau(  26) = (  0.0000854  0.3749526  0.6251459  )
        27           Al  tau(  27) = (  0.0001996  0.2491582  0.7508877  )
        28           Al  tau(  28) = (  0.1249303  0.3739916  0.7509255  )
        29           Al  tau(  29) = (  0.1246934  0.2473044  0.8772628  )
        30           Al  tau(  30) = (  0.0001577  0.3747261  0.8751813  )
        31           Al  tau(  31) = (  0.0000384  0.4999605  0.0000000  )
        32           Al  tau(  32) = (  0.1249613  0.6250396  0.0000000  )
        33           Al  tau(  33) = (  0.1250299  0.5000250  0.1249738  )
        34           Al  tau(  34) = (  0.9999698  0.6249751  0.1249738  )
        35           Al  tau(  35) = (  0.0000945  0.4999043  0.2500050  )
        36           Al  tau(  36) = (  0.1249053  0.6250958  0.2500050  )
        37           Al  tau(  37) = (  0.1250166  0.4998658  0.3748814  )
        38           Al  tau(  38) = (  0.9999832  0.6251344  0.3748813  )
        39           Al  tau(  39) = (  0.0000049  0.5000183  0.5000000  )
        40           Al  tau(  40) = (  0.1249950  0.6249818  0.5000000  )
        41           Al  tau(  41) = (  0.1250166  0.4998658  0.6251186  )
        42           Al  tau(  42) = (  0.9999832  0.6251344  0.6251187  )
        43           Al  tau(  43) = (  0.0000945  0.4999043  0.7499950  )
        44           Al  tau(  44) = (  0.1249053  0.6250958  0.7499950  )
        45           Al  tau(  45) = (  0.1250299  0.5000250  0.8750262  )
        46           Al  tau(  46) = (  0.9999698  0.6249751  0.8750262  )
        47           Al  tau(  47) = (  0.0000645  0.7503916  0.0000000  )
        48           Al  tau(  48) = (  0.1227307  0.8779362  0.0000000  )
        49           Al  tau(  49) = (  0.1248421  0.7502740  0.1248188  )
        50           Al  tau(  50) = (  0.0003065  0.8776954  0.1227373  )
        51           Al  tau(  51) = (  0.0000695  0.7510085  0.2490745  )
        52           Al  tau(  52) = (  0.1248002  0.8758417  0.2491123  )
        53           Al  tau(  53) = (  0.1249145  0.7500474  0.3748542  )
        54           Al  tau(  54) = (  0.0000696  0.8750285  0.3749902  )
        55           Al  tau(  55) = (  0.9999568  0.7499296  0.5000000  )
        56           Al  tau(  56) = (  0.1250462  0.8749288  0.5000000  )
        57           Al  tau(  57) = (  0.1249145  0.7500474  0.6251459  )
        58           Al  tau(  58) = (  0.0000696  0.8750285  0.6250098  )
        59           Al  tau(  59) = (  0.0000695  0.7510085  0.7509255  )
        60           Al  tau(  60) = (  0.1248002  0.8758417  0.7508877  )
        61           Al  tau(  61) = (  0.1248421  0.7502740  0.8751812  )
        62           Al  tau(  62) = (  0.0003065  0.8776954  0.8772627  )
        63           Al  tau(  63) = (  0.2470638  0.0022692  0.0000000  )
        64           Al  tau(  64) = (  0.3746084  0.1249352  0.0000000  )
        65           Al  tau(  65) = (  0.3747261  0.0001577  0.1248188  )
        66           Al  tau(  66) = (  0.2473044  0.1246934  0.1227372  )
        67           Al  tau(  67) = (  0.2491582  0.0001996  0.2491123  )
        68           Al  tau(  68) = (  0.3739916  0.1249303  0.2490745  )
        69           Al  tau(  69) = (  0.3749526  0.0000854  0.3748541  )
        70           Al  tau(  70) = (  0.2499714  0.1249302  0.3749902  )
        71           Al  tau(  71) = (  0.2500711  0.9999537  0.5000000  )
        72           Al  tau(  72) = (  0.3750705  0.1250431  0.5000000  )
        73           Al  tau(  73) = (  0.3749526  0.0000854  0.6251459  )
        74           Al  tau(  74) = (  0.2499714  0.1249302  0.6250098  )
        75           Al  tau(  75) = (  0.2491582  0.0001996  0.7508877  )
        76           Al  tau(  76) = (  0.3739916  0.1249303  0.7509255  )
        77           Al  tau(  77) = (  0.3747261  0.0001577  0.8751813  )
        78           Al  tau(  78) = (  0.2473044  0.1246934  0.8772628  )
        79           Al  tau(  79) = (  0.2477228  0.2477228  0.0000000  )
        80           Al  tau(  80) = (  0.3740773  0.3740773  0.0000000  )
        81           Al  tau(  81) = (  0.3747479  0.2498090  0.1248799  )
        82           Al  tau(  82) = (  0.2498090  0.3747479  0.1248799  )
        83           Al  tau(  83) = (  0.2500067  0.2500067  0.2498708  )
        84           Al  tau(  84) = (  0.3751733  0.3751733  0.2501383  )
        85           Al  tau(  85) = (  0.3750246  0.2499147  0.3749303  )
        86           Al  tau(  86) = (  0.2499147  0.3750246  0.3749303  )
        87           Al  tau(  87) = (  0.2500098  0.2500098  0.5000000  )
        88           Al  tau(  88) = (  0.3749524  0.3749524  0.5000000  )
        89           Al  tau(  89) = (  0.3750246  0.2499147  0.6250697  )
        90           Al  tau(  90) = (  0.2499147  0.3750246  0.6250697  )
        91           Al  tau(  91) = (  0.2500067  0.2500067  0.7501292  )
        92           Al  tau(  92) = (  0.3751733  0.3751733  0.7498617  )
        93           Al  tau(  93) = (  0.3747479  0.2498090  0.8751202  )
        94           Al  tau(  94) = (  0.2498090  0.3747479  0.8751202  )
        95           Al  tau(  95) = (  0.2499612  0.5000377  0.0000000  )
        96           Al  tau(  96) = (  0.3748799  0.6251039  0.0000000  )
        97           Al  tau(  97) = (  0.3750112  0.4998812  0.1249121  )
        98           Al  tau(  98) = (  0.2500515  0.6250752  0.1249719  )
        99           Al  tau(  99) = (  0.2498871  0.4999330  0.2499968  )
       100           Al  tau( 100) = (  0.3750099  0.6249773  0.2499803  )
       101           Al  tau( 101) = (  0.3749505  0.5000316  0.3750036  )
       102           Al  tau( 102) = (  0.2499980  0.6249802  0.3750566  )
       103           Al  tau( 103) = (  0.2500585  0.5000408  0.5000000  )
       104           Al  tau( 104) = (  0.3750789  0.6250144  0.5000000  )
       105           Al  tau( 105) = (  0.3749505  0.5000316  0.6249964  )
       106           Al  tau( 106) = (  0.2499980  0.6249802  0.6249434  )
       107           Al  tau( 107) = (  0.2498871  0.4999330  0.7500032  )
       108           Al  tau( 108) = (  0.3750099  0.6249773  0.7500197  )
       109           Al  tau( 109) = (  0.3750112  0.4998812  0.8750879  )
       110           Al  tau( 110) = (  0.2500515  0.6250752  0.8750282  )
       111           Al  tau( 111) = (  0.2490456  0.7508601  0.0000000  )
       112           Al  tau( 112) = (  0.3741401  0.8759544  0.0000000  )
       113           Al  tau( 113) = (  0.3749986  0.7500017  0.1248149  )
       114           Al  tau( 114) = (  0.2499859  0.8750141  0.1247854  )
       115           Al  tau( 115) = (  0.2500146  0.7499447  0.2501401  )
       116           Al  tau( 116) = (  0.3750554  0.8749854  0.2501401  )
       117           Al  tau( 117) = (  0.3749593  0.7500407  0.3749962  )
       118           Al  tau( 118) = (  0.2498546  0.8751453  0.3747536  )
       119           Al  tau( 119) = (  0.2500347  0.7500104  0.5000000  )
       120           Al  tau( 120) = (  0.3749896  0.8749653  0.5000000  )
       121           Al  tau( 121) = (  0.3749593  0.7500407  0.6250038  )
       122           Al  tau( 122) = (  0.2498546  0.8751453  0.6252464  )
       123           Al  tau( 123) = (  0.2500146  0.7499447  0.7498599  )
       124           Al  tau( 124) = (  0.3750554  0.8749854  0.7498600  )
       125           Al  tau( 125) = (  0.3749986  0.7500017  0.8751851  )
       126           Al  tau( 126) = (  0.2499859  0.8750141  0.8752146  )
       127           Al  tau( 127) = (  0.4999605  0.0000384  0.0000000  )
       128           Al  tau( 128) = (  0.6250396  0.1249613  0.0000000  )
       129           Al  tau( 129) = (  0.6249751  0.9999698  0.1249738  )
       130           Al  tau( 130) = (  0.5000250  0.1250299  0.1249738  )
       131           Al  tau( 131) = (  0.4999043  0.0000945  0.2500050  )
       132           Al  tau( 132) = (  0.6250958  0.1249053  0.2500050  )
       133           Al  tau( 133) = (  0.6251344  0.9999832  0.3748813  )
       134           Al  tau( 134) = (  0.4998658  0.1250166  0.3748814  )
       135           Al  tau( 135) = (  0.5000183  0.0000049  0.5000000  )
       136           Al  tau( 136) = (  0.6249818  0.1249950  0.5000000  )
       137           Al  tau( 137) = (  0.6251344  0.9999832  0.6251187  )
       138           Al  tau( 138) = (  0.4998658  0.1250166  0.6251186  )
       139           Al  tau( 139) = (  0.4999043  0.0000945  0.7499950  )
       140           Al  tau( 140) = (  0.6250958  0.1249053  0.7499950  )
       141           Al  tau( 141) = (  0.6249751  0.9999698  0.8750262  )
       142           Al  tau( 142) = (  0.5000250  0.1250299  0.8750262  )
       143           Al  tau( 143) = (  0.5000377  0.2499612  0.0000000  )
       144           Al  tau( 144) = (  0.6251039  0.3748799  0.0000000  )
       145           Al  tau( 145) = (  0.6250752  0.2500515  0.1249719  )
       146           Al  tau( 146) = (  0.4998812  0.3750112  0.1249121  )
       147           Al  tau( 147) = (  0.4999330  0.2498871  0.2499968  )
       148           Al  tau( 148) = (  0.6249773  0.3750099  0.2499803  )
       149           Al  tau( 149) = (  0.6249802  0.2499980  0.3750566  )
       150           Al  tau( 150) = (  0.5000316  0.3749505  0.3750036  )
       151           Al  tau( 151) = (  0.5000408  0.2500585  0.5000000  )
       152           Al  tau( 152) = (  0.6250144  0.3750789  0.5000000  )
       153           Al  tau( 153) = (  0.6249802  0.2499980  0.6249434  )
       154           Al  tau( 154) = (  0.5000316  0.3749505  0.6249964  )
       155           Al  tau( 155) = (  0.4999330  0.2498871  0.7500032  )
       156           Al  tau( 156) = (  0.6249773  0.3750099  0.7500197  )
       157           Al  tau( 157) = (  0.6250752  0.2500515  0.8750282  )
       158           Al  tau( 158) = (  0.4998812  0.3750112  0.8750879  )
       159           Al  tau( 159) = (  0.4998809  0.4998809  0.0000000  )
       160           Al  tau( 160) = (  0.6251194  0.6251194  0.0000000  )
       161           Al  tau( 161) = (  0.6249824  0.5000179  0.1250219  )
       162           Al  tau( 162) = (  0.5000179  0.6249824  0.1250219  )
       163           Al  tau( 163) = (  0.5000033  0.5000033  0.2500199  )
       164           Al  tau( 164) = (  0.6249969  0.6249969  0.2500199  )
       165           Al  tau( 165) = (  0.6250047  0.4999954  0.3749554  )
       166           Al  tau( 166) = (  0.4999954  0.6250047  0.3749554  )
       167           Al  tau( 167) = (  0.4999546  0.4999546  0.5000000  )
       168           Al  tau( 168) = (  0.6250456  0.6250456  0.5000000  )
       169           Al  tau( 169) = (  0.6250047  0.4999954  0.6250446  )
       170           Al  tau( 170) = (  0.4999954  0.6250047  0.6250446  )
       171           Al  tau( 171) = (  0.5000033  0.5000033  0.7499801  )
       172           Al  tau( 172) = (  0.6249969  0.6249969  0.7499802  )
       173           Al  tau( 173) = (  0.6249824  0.5000179  0.8749781  )
       174           Al  tau( 174) = (  0.5000179  0.6249824  0.8749781  )
       175           Al  tau( 175) = (  0.4998963  0.7501203  0.0000000  )
       176           Al  tau( 176) = (  0.6249624  0.8750387  0.0000000  )
       177           Al  tau( 177) = (  0.6251191  0.7499890  0.1249121  )
       178           Al  tau( 178) = (  0.4999250  0.8749484  0.1249718  )
       179           Al  tau( 179) = (  0.5000229  0.7499902  0.2499803  )
       180           Al  tau( 180) = (  0.6250672  0.8751128  0.2499968  )
       181           Al  tau( 181) = (  0.6249686  0.7500496  0.3750035  )
       182           Al  tau( 182) = (  0.5000200  0.8750019  0.3750566  )
       183           Al  tau( 183) = (  0.4999858  0.7499212  0.5000000  )
       184           Al  tau( 184) = (  0.6249594  0.8749414  0.5000000  )
       185           Al  tau( 185) = (  0.6249686  0.7500496  0.6249965  )
       186           Al  tau( 186) = (  0.5000200  0.8750019  0.6249434  )
       187           Al  tau( 187) = (  0.5000229  0.7499902  0.7500197  )
       188           Al  tau( 188) = (  0.6250672  0.8751128  0.7500033  )
       189           Al  tau( 189) = (  0.6251191  0.7499890  0.8750880  )
       190           Al  tau( 190) = (  0.4999250  0.8749484  0.8750282  )
       191           Al  tau( 191) = (  0.7503916  0.0000645  0.0000000  )
       192           Al  tau( 192) = (  0.8779362  0.1227307  0.0000000  )
       193           Al  tau( 193) = (  0.8776954  0.0003065  0.1227373  )
       194           Al  tau( 194) = (  0.7502740  0.1248421  0.1248188  )
       195           Al  tau( 195) = (  0.7510085  0.0000695  0.2490745  )
       196           Al  tau( 196) = (  0.8758417  0.1248002  0.2491123  )
       197           Al  tau( 197) = (  0.8750285  0.0000696  0.3749902  )
       198           Al  tau( 198) = (  0.7500474  0.1249145  0.3748542  )
       199           Al  tau( 199) = (  0.7499296  0.9999568  0.5000000  )
       200           Al  tau( 200) = (  0.8749288  0.1250462  0.5000000  )
       201           Al  tau( 201) = (  0.8750285  0.0000696  0.6250098  )
       202           Al  tau( 202) = (  0.7500474  0.1249145  0.6251459  )
       203           Al  tau( 203) = (  0.7510085  0.0000695  0.7509255  )
       204           Al  tau( 204) = (  0.8758417  0.1248002  0.7508877  )
       205           Al  tau( 205) = (  0.8776954  0.0003065  0.8772627  )
       206           Al  tau( 206) = (  0.7502740  0.1248421  0.8751812  )
       207           Al  tau( 207) = (  0.7508601  0.2490456  0.0000000  )
       208           Al  tau( 208) = (  0.8759544  0.3741401  0.0000000  )
       209           Al  tau( 209) = (  0.8750141  0.2499859  0.1247854  )
       210           Al  tau( 210) = (  0.7500017  0.3749986  0.1248149  )
       211           Al  tau( 211) = (  0.7499447  0.2500146  0.2501401  )
       212           Al  tau( 212) = (  0.8749854  0.3750554  0.2501401  )
       213           Al  tau( 213) = (  0.8751453  0.2498546  0.3747536  )
       214           Al  tau( 214) = (  0.7500407  0.3749593  0.3749962  )
       215           Al  tau( 215) = (  0.7500104  0.2500347  0.5000000  )
       216           Al  tau( 216) = (  0.8749653  0.3749896  0.5000000  )
       217           Al  tau( 217) = (  0.8751453  0.2498546  0.6252464  )
       218           Al  tau( 218) = (  0.7500407  0.3749593  0.6250038  )
       219           Al  tau( 219) = (  0.7499447  0.2500146  0.7498599  )
       220           Al  tau( 220) = (  0.8749854  0.3750554  0.7498600  )
       221           Al  tau( 221) = (  0.8750141  0.2499859  0.8752146  )
       222           Al  tau( 222) = (  0.7500017  0.3749986  0.8751851  )
       223           Al  tau( 223) = (  0.7501203  0.4998963  0.0000000  )
       224           Al  tau( 224) = (  0.8750387  0.6249624  0.0000000  )
       225           Al  tau( 225) = (  0.8749484  0.4999250  0.1249718  )
       226           Al  tau( 226) = (  0.7499890  0.6251191  0.1249121  )
       227           Al  tau( 227) = (  0.7499902  0.5000229  0.2499803  )
       228           Al  tau( 228) = (  0.8751128  0.6250672  0.2499968  )
       229           Al  tau( 229) = (  0.8750019  0.5000200  0.3750566  )
       230           Al  tau( 230) = (  0.7500496  0.6249686  0.3750035  )
       231           Al  tau( 231) = (  0.7499212  0.4999858  0.5000000  )
       232           Al  tau( 232) = (  0.8749414  0.6249594  0.5000000  )
       233           Al  tau( 233) = (  0.8750019  0.5000200  0.6249434  )
       234           Al  tau( 234) = (  0.7500496  0.6249686  0.6249965  )
       235           Al  tau( 235) = (  0.7499902  0.5000229  0.7500197  )
       236           Al  tau( 236) = (  0.8751128  0.6250672  0.7500033  )
       237           Al  tau( 237) = (  0.8749484  0.4999250  0.8750282  )
       238           Al  tau( 238) = (  0.7499890  0.6251191  0.8750880  )
       239           Al  tau( 239) = (  0.7509227  0.7509227  0.0000000  )
       240           Al  tau( 240) = (  0.8772770  0.8772770  0.0000000  )
       241           Al  tau( 241) = (  0.8751908  0.7502521  0.1248798  )
       242           Al  tau( 242) = (  0.7502521  0.8751908  0.1248798  )
       243           Al  tau( 243) = (  0.7498268  0.7498268  0.2501383  )
       244           Al  tau( 244) = (  0.8749932  0.8749932  0.2498708  )
       245           Al  tau( 245) = (  0.8750852  0.7499755  0.3749303  )
       246           Al  tau( 246) = (  0.7499755  0.8750852  0.3749303  )
       247           Al  tau( 247) = (  0.7500476  0.7500476  0.5000000  )
       248           Al  tau( 248) = (  0.8749902  0.8749902  0.5000000  )
       249           Al  tau( 249) = (  0.8750852  0.7499755  0.6250697  )
       250           Al  tau( 250) = (  0.7499755  0.8750852  0.6250697  )
       251           Al  tau( 251) = (  0.7498268  0.7498268  0.7498617  )
       252           Al  tau( 252) = (  0.8749932  0.8749932  0.7501292  )
       253           Al  tau( 253) = (  0.8751908  0.7502521  0.8751202  )
       254           Al  tau( 254) = (  0.7502521  0.8751908  0.8751202  )

     number of k points=    63  Methfessel-Paxton smearing, width (Ry)=  0.0441
                       cart. coord. in units 2pi/alat
        k(    1) = (   0.0000000   0.0000000   0.0000000), wk =   0.0160000
        k(    2) = (   0.0000000   0.0000000   0.2000000), wk =   0.0320000
        k(    3) = (   0.0000000   0.0000000   0.4000000), wk =   0.0320000
        k(    4) = (   0.0000000   0.2000000   0.0000000), wk =   0.0320000
        k(    5) = (   0.0000000   0.2000000   0.2000000), wk =   0.0320000
        k(    6) = (   0.0000000   0.2000000   0.4000000), wk =   0.0320000
        k(    7) = (   0.0000000   0.2000000  -0.4000000), wk =   0.0320000
        k(    8) = (   0.0000000   0.2000000  -0.2000000), wk =   0.0320000
        k(    9) = (   0.0000000   0.4000000   0.0000000), wk =   0.0320000
        k(   10) = (   0.0000000   0.4000000   0.2000000), wk =   0.0320000
        k(   11) = (   0.0000000   0.4000000   0.4000000), wk =   0.0320000
        k(   12) = (   0.0000000   0.4000000  -0.4000000), wk =   0.0320000
        k(   13) = (   0.0000000   0.4000000  -0.2000000), wk =   0.0320000
        k(   14) = (   0.2000000   0.0000000   0.0000000), wk =   0.0320000
        k(   15) = (   0.2000000   0.0000000   0.2000000), wk =   0.0320000
        k(   16) = (   0.2000000   0.0000000   0.4000000), wk =   0.0320000
        k(   17) = (   0.2000000   0.0000000  -0.4000000), wk =   0.0320000
        k(   18) = (   0.2000000   0.0000000  -0.2000000), wk =   0.0320000
        k(   19) = (   0.2000000   0.2000000   0.0000000), wk =   0.0320000
        k(   20) = (   0.2000000   0.2000000   0.2000000), wk =   0.0320000
        k(   21) = (   0.2000000   0.2000000   0.4000000), wk =   0.0320000
        k(   22) = (   0.2000000   0.2000000  -0.4000000), wk =   0.0320000
        k(   23) = (   0.2000000   0.2000000  -0.2000000), wk =   0.0320000
        k(   24) = (   0.2000000   0.4000000   0.0000000), wk =   0.0320000
        k(   25) = (   0.2000000   0.4000000   0.2000000), wk =   0.0320000
        k(   26) = (   0.2000000   0.4000000   0.4000000), wk =   0.0320000
        k(   27) = (   0.2000000   0.4000000  -0.4000000), wk =   0.0320000
        k(   28) = (   0.2000000   0.4000000  -0.2000000), wk =   0.0320000
        k(   29) = (   0.2000000  -0.4000000   0.0000000), wk =   0.0320000
        k(   30) = (   0.2000000  -0.4000000   0.2000000), wk =   0.0320000
        k(   31) = (   0.2000000  -0.4000000   0.4000000), wk =   0.0320000
        k(   32) = (   0.2000000  -0.4000000  -0.4000000), wk =   0.0320000
        k(   33) = (   0.2000000  -0.4000000  -0.2000000), wk =   0.0320000
        k(   34) = (   0.2000000  -0.2000000   0.0000000), wk =   0.0320000
        k(   35) = (   0.2000000  -0.2000000   0.2000000), wk =   0.0320000
        k(   36) = (   0.2000000  -0.2000000   0.4000000), wk =   0.0320000
        k(   37) = (   0.2000000  -0.2000000  -0.4000000), wk =   0.0320000
        k(   38) = (   0.2000000  -0.2000000  -0.2000000), wk =   0.0320000
        k(   39) = (   0.4000000   0.0000000   0.0000000), wk =   0.0320000
        k(   40) = (   0.4000000   0.0000000   0.2000000), wk =   0.0320000
        k(   41) = (   0.4000000   0.0000000   0.4000000), wk =   0.0320000
        k(   42) = (   0.4000000   0.0000000  -0.4000000), wk =   0.0320000
        k(   43) = (   0.4000000   0.0000000  -0.2000000), wk =   0.0320000
        k(   44) = (   0.4000000   0.2000000   0.0000000), wk =   0.0320000
        k(   45) = (   0.4000000   0.2000000   0.2000000), wk =   0.0320000
        k(   46) = (   0.4000000   0.2000000   0.4000000), wk =   0.0320000
        k(   47) = (   0.4000000   0.2000000  -0.4000000), wk =   0.0320000
        k(   48) = (   0.4000000   0.2000000  -0.2000000), wk =   0.0320000
        k(   49) = (   0.4000000   0.4000000   0.0000000), wk =   0.0320000
        k(   50) = (   0.4000000   0.4000000   0.2000000), wk =   0.0320000
        k(   51) = (   0.4000000   0.4000000   0.4000000), wk =   0.0320000
        k(   52) = (   0.4000000   0.4000000  -0.4000000), wk =   0.0320000
        k(   53) = (   0.4000000   0.4000000  -0.2000000), wk =   0.0320000
        k(   54) = (   0.4000000  -0.4000000   0.0000000), wk =   0.0320000
        k(   55) = (   0.4000000  -0.4000000   0.2000000), wk =   0.0320000
        k(   56) = (   0.4000000  -0.4000000   0.4000000), wk =   0.0320000
        k(   57) = (   0.4000000  -0.4000000  -0.4000000), wk =   0.0320000
        k(   58) = (   0.4000000  -0.4000000  -0.2000000), wk =   0.0320000
        k(   59) = (   0.4000000  -0.2000000   0.0000000), wk =   0.0320000
        k(   60) = (   0.4000000  -0.2000000   0.2000000), wk =   0.0320000
        k(   61) = (   0.4000000  -0.2000000   0.4000000), wk =   0.0320000
        k(   62) = (   0.4000000  -0.2000000  -0.4000000), wk =   0.0320000
        k(   63) = (   0.4000000  -0.2000000  -0.2000000), wk =   0.0320000

                       cryst. coord.
        k(    1) = (   0.0000000   0.0000000   0.0000000), wk =   0.0160000
        k(    2) = (   0.0000000   0.0000000   0.2000000), wk =   0.0320000
        k(    3) = (   0.0000000   0.0000000   0.4000000), wk =   0.0320000
        k(    4) = (   0.0000000   0.2000000   0.0000000), wk =   0.0320000
        k(    5) = (   0.0000000   0.2000000   0.2000000), wk =   0.0320000
        k(    6) = (   0.0000000   0.2000000   0.4000000), wk =   0.0320000
        k(    7) = (   0.0000000   0.2000000  -0.4000000), wk =   0.0320000
        k(    8) = (   0.0000000   0.2000000  -0.2000000), wk =   0.0320000
        k(    9) = (   0.0000000   0.4000000   0.0000000), wk =   0.0320000
        k(   10) = (   0.0000000   0.4000000   0.2000000), wk =   0.0320000
        k(   11) = (   0.0000000   0.4000000   0.4000000), wk =   0.0320000
        k(   12) = (   0.0000000   0.4000000  -0.4000000), wk =   0.0320000
        k(   13) = (   0.0000000   0.4000000  -0.2000000), wk =   0.0320000
        k(   14) = (   0.2000000   0.0000000   0.0000000), wk =   0.0320000
        k(   15) = (   0.2000000   0.0000000   0.2000000), wk =   0.0320000
        k(   16) = (   0.2000000   0.0000000   0.4000000), wk =   0.0320000
        k(   17) = (   0.2000000   0.0000000  -0.4000000), wk =   0.0320000
        k(   18) = (   0.2000000   0.0000000  -0.2000000), wk =   0.0320000
        k(   19) = (   0.2000000   0.2000000   0.0000000), wk =   0.0320000
        k(   20) = (   0.2000000   0.2000000   0.2000000), wk =   0.0320000
        k(   21) = (   0.2000000   0.2000000   0.4000000), wk =   0.0320000
        k(   22) = (   0.2000000   0.2000000  -0.4000000), wk =   0.0320000
        k(   23) = (   0.2000000   0.2000000  -0.2000000), wk =   0.0320000
        k(   24) = (   0.2000000   0.4000000   0.0000000), wk =   0.0320000
        k(   25) = (   0.2000000   0.4000000   0.2000000), wk =   0.0320000
        k(   26) = (   0.2000000   0.4000000   0.4000000), wk =   0.0320000
        k(   27) = (   0.2000000   0.4000000  -0.4000000), wk =   0.0320000
        k(   28) = (   0.2000000   0.4000000  -0.2000000), wk =   0.0320000
        k(   29) = (   0.2000000  -0.4000000   0.0000000), wk =   0.0320000
        k(   30) = (   0.2000000  -0.4000000   0.2000000), wk =   0.0320000
        k(   31) = (   0.2000000  -0.4000000   0.4000000), wk =   0.0320000
        k(   32) = (   0.2000000  -0.4000000  -0.4000000), wk =   0.0320000
        k(   33) = (   0.2000000  -0.4000000  -0.2000000), wk =   0.0320000
        k(   34) = (   0.2000000  -0.2000000   0.0000000), wk =   0.0320000
        k(   35) = (   0.2000000  -0.2000000   0.2000000), wk =   0.0320000
        k(   36) = (   0.2000000  -0.2000000   0.4000000), wk =   0.0320000
        k(   37) = (   0.2000000  -0.2000000  -0.4000000), wk =   0.0320000
        k(   38) = (   0.2000000  -0.2000000  -0.2000000), wk =   0.0320000
        k(   39) = (   0.4000000   0.0000000   0.0000000), wk =   0.0320000
        k(   40) = (   0.4000000   0.0000000   0.2000000), wk =   0.0320000
        k(   41) = (   0.4000000   0.0000000   0.4000000), wk =   0.0320000
        k(   42) = (   0.4000000   0.0000000  -0.4000000), wk =   0.0320000
        k(   43) = (   0.4000000   0.0000000  -0.2000000), wk =   0.0320000
        k(   44) = (   0.4000000   0.2000000   0.0000000), wk =   0.0320000
        k(   45) = (   0.4000000   0.2000000   0.2000000), wk =   0.0320000
        k(   46) = (   0.4000000   0.2000000   0.4000000), wk =   0.0320000
        k(   47) = (   0.4000000   0.2000000  -0.4000000), wk =   0.0320000
        k(   48) = (   0.4000000   0.2000000  -0.2000000), wk =   0.0320000
        k(   49) = (   0.4000000   0.4000000   0.0000000), wk =   0.0320000
        k(   50) = (   0.4000000   0.4000000   0.2000000), wk =   0.0320000
        k(   51) = (   0.4000000   0.4000000   0.4000000), wk =   0.0320000
        k(   52) = (   0.4000000   0.4000000  -0.4000000), wk =   0.0320000
        k(   53) = (   0.4000000   0.4000000  -0.2000000), wk =   0.0320000
        k(   54) = (   0.4000000  -0.4000000   0.0000000), wk =   0.0320000
        k(   55) = (   0.4000000  -0.4000000   0.2000000), wk =   0.0320000
        k(   56) = (   0.4000000  -0.4000000   0.4000000), wk =   0.0320000
        k(   57) = (   0.4000000  -0.4000000  -0.4000000), wk =   0.0320000
        k(   58) = (   0.4000000  -0.4000000  -0.2000000), wk =   0.0320000
        k(   59) = (   0.4000000  -0.2000000   0.0000000), wk =   0.0320000
        k(   60) = (   0.4000000  -0.2000000   0.2000000), wk =   0.0320000
        k(   61) = (   0.4000000  -0.2000000   0.4000000), wk =   0.0320000
        k(   62) = (   0.4000000  -0.2000000  -0.4000000), wk =   0.0320000
        k(   63) = (   0.4000000  -0.2000000  -0.2000000), wk =   0.0320000

     Dense  grid:  3895379 G-vectors     FFT dimensions: ( 200, 200, 200)

     Smooth grid:   985619 G-vectors     FFT dimensions: ( 125, 125, 125)

     Dynamical RAM for                 wfc:     107.39 MB

     Dynamical RAM for     wfc (w. buffer):     322.16 MB

     Dynamical RAM for           str. fact:       7.43 MB

     Dynamical RAM for           local pot:       0.00 MB

     Dynamical RAM for          nlocal pot:    1074.35 MB

     Dynamical RAM for                qrad:       7.82 MB

     Dynamical RAM for          rho,v,vnew:      45.18 MB

     Dynamical RAM for               rhoin:      15.06 MB

     Dynamical RAM for            rho*nmix:     118.88 MB

     Dynamical RAM for           G-vectors:      28.80 MB

     Dynamical RAM for          h,s,v(r/c):      38.24 MB

     Dynamical RAM for          <psi|beta>:      31.88 MB

     Dynamical RAM for                 psi:     429.55 MB

     Dynamical RAM for                hpsi:     429.55 MB

     Dynamical RAM for                spsi:     429.55 MB

     Dynamical RAM for      wfcinit/wfcrot:     501.12 MB

     Dynamical RAM for           addusdens:      98.03 MB

     Dynamical RAM for          addusforce:     199.94 MB

     Dynamical RAM for         addusstress:      45.09 MB

     Estimated static dynamical RAM per process >       1.63 GB

     Estimated max dynamical RAM per process >       2.96 GB

     Estimated total dynamical RAM >     852.60 GB

     Initial potential from superposition of free atoms

     starting charge  761.41829, renormalised to  762.00000
     Starting wfcs are 1016 randomized atomic wfcs
     Checking if some PAW data can be deallocated... 

     total cpu time spent up to now is      196.5 secs

     Self-consistent Calculation

     iteration #  1     ecut=    40.00 Ry     beta= 0.40
     Davidson diagonalization with overlap
     ethr =  1.00E-02,  avg # of iterations =  3.0

     Threshold (ethr) on eigenvalues was too large:
     Diagonalizing with lowered threshold

     Davidson diagonalization with overlap
     ethr =  2.07E-04,  avg # of iterations =  8.1

     total cpu time spent up to now is      946.0 secs

     total energy              =  -10033.78200363 Ry
     Harris-Foulkes estimate   =  -10033.95998926 Ry
     estimated scf accuracy    <       1.64722643 Ry

     iteration #  2     ecut=    40.00 Ry     beta= 0.40
     Davidson diagonalization with overlap
     ethr =  2.16E-04,  avg # of iterations =  1.1

     total cpu time spent up to now is     1166.6 secs

     total energy              =  -10033.55639406 Ry
     Harris-Foulkes estimate   =  -10033.79097451 Ry
     estimated scf accuracy    <       0.86101486 Ry

     iteration #  3     ecut=    40.00 Ry     beta= 0.40
     Davidson diagonalization with overlap
     ethr =  1.13E-04,  avg # of iterations =  1.4

     total cpu time spent up to now is     1389.4 secs

     total energy              =  -10033.58425369 Ry
     Harris-Foulkes estimate   =  -10033.58605042 Ry
     estimated scf accuracy    <       0.00602098 Ry

     iteration #  4     ecut=    40.00 Ry     beta= 0.40
     Davidson diagonalization with overlap
     c_bands:  1 eigenvalues not converged
     ethr =  7.90E-07,  avg # of iterations = 14.8

     total cpu time spent up to now is     2049.8 secs

     total energy              =  -10033.58960784 Ry
     Harris-Foulkes estimate   =  -10033.58950599 Ry
     estimated scf accuracy    <       0.01689705 Ry

     iteration #  5     ecut=    40.00 Ry     beta= 0.40
     Davidson diagonalization with overlap
     c_bands:  1 eigenvalues not converged
     ethr =  7.90E-07,  avg # of iterations =  3.1

     total cpu time spent up to now is     2317.6 secs

     total energy              =  -10033.58210117 Ry
     Harris-Foulkes estimate   =  -10033.58962157 Ry
     estimated scf accuracy    <       0.02011896 Ry

     iteration #  6     ecut=    40.00 Ry     beta= 0.40
     Davidson diagonalization with overlap
     ethr =  7.90E-07,  avg # of iterations =  9.3

     total cpu time spent up to now is     2828.9 secs

     total energy              =  -10033.58649914 Ry
     Harris-Foulkes estimate   =  -10033.59356012 Ry
     estimated scf accuracy    <       0.10386284 Ry

     iteration #  7     ecut=    40.00 Ry     beta= 0.40
     Davidson diagonalization with overlap
     ethr =  7.90E-07,  avg # of iterations =  3.2

     total cpu time spent up to now is     3099.2 secs

     total energy              =  -10033.58800974 Ry
     Harris-Foulkes estimate   =  -10033.58835244 Ry
     estimated scf accuracy    <       0.01966363 Ry

     iteration #  8     ecut=    40.00 Ry     beta= 0.40
     Davidson diagonalization with overlap
     ethr =  7.90E-07,  avg # of iterations =  1.0

     total cpu time spent up to now is     3320.2 secs

     total energy              =  -10033.58688143 Ry
     Harris-Foulkes estimate   =  -10033.58804861 Ry
     estimated scf accuracy    <       0.01552961 Ry

     iteration #  9     ecut=    40.00 Ry     beta= 0.40
     Davidson diagonalization with overlap
     ethr =  7.90E-07,  avg # of iterations =  3.0

     total cpu time spent up to now is     3557.8 secs

     total energy              =  -10033.58725506 Ry
     Harris-Foulkes estimate   =  -10033.58731954 Ry
     estimated scf accuracy    <       0.00154032 Ry

     iteration # 10     ecut=    40.00 Ry     beta= 0.40
     Davidson diagonalization with overlap
     ethr =  2.02E-07,  avg # of iterations =  3.1

     total cpu time spent up to now is     3788.4 secs

     total energy              =  -10033.58721324 Ry
     Harris-Foulkes estimate   =  -10033.58729078 Ry
     estimated scf accuracy    <       0.00079414 Ry

     iteration # 11     ecut=    40.00 Ry     beta= 0.40
     Davidson diagonalization with overlap
     ethr =  1.04E-07,  avg # of iterations =  4.2

     total cpu time spent up to now is     4068.7 secs

     total energy              =  -10033.58730034 Ry
     Harris-Foulkes estimate   =  -10033.58730059 Ry
     estimated scf accuracy    <       0.00003329 Ry

     iteration # 12     ecut=    40.00 Ry     beta= 0.40
     Davidson diagonalization with overlap
     ethr =  4.37E-09,  avg # of iterations =  4.9

     total cpu time spent up to now is     4362.3 secs

     total energy              =  -10033.58730438 Ry
     Harris-Foulkes estimate   =  -10033.58730375 Ry
     estimated scf accuracy    <       0.00003864 Ry

     iteration # 13     ecut=    40.00 Ry     beta= 0.40
     Davidson diagonalization with overlap
     ethr =  4.37E-09,  avg # of iterations =  1.0

     total cpu time spent up to now is     4582.8 secs

     total energy              =  -10033.58730660 Ry
     Harris-Foulkes estimate   =  -10033.58730459 Ry
     estimated scf accuracy    <       0.00004770 Ry

     iteration # 14     ecut=    40.00 Ry     beta= 0.40
     Davidson diagonalization with overlap
     ethr =  4.37E-09,  avg # of iterations =  1.0

     total cpu time spent up to now is     4802.7 secs

     total energy              =  -10033.58730241 Ry
     Harris-Foulkes estimate   =  -10033.58730692 Ry
     estimated scf accuracy    <       0.00007508 Ry

     iteration # 15     ecut=    40.00 Ry     beta= 0.40
     Davidson diagonalization with overlap
     ethr =  4.37E-09,  avg # of iterations =  1.0

     total cpu time spent up to now is     5022.9 secs

     total energy              =  -10033.58730452 Ry
     Harris-Foulkes estimate   =  -10033.58730336 Ry
     estimated scf accuracy    <       0.00004624 Ry

     iteration # 16     ecut=    40.00 Ry     beta= 0.40
     Davidson diagonalization with overlap
     ethr =  4.37E-09,  avg # of iterations =  1.0

     total cpu time spent up to now is     5243.0 secs

     total energy              =  -10033.58730881 Ry
     Harris-Foulkes estimate   =  -10033.58730464 Ry
     estimated scf accuracy    <       0.00006010 Ry

     iteration # 17     ecut=    40.00 Ry     beta= 0.40
     Davidson diagonalization with overlap
     ethr =  4.37E-09,  avg # of iterations =  1.0

     total cpu time spent up to now is     5463.0 secs

     total energy              =  -10033.58728338 Ry
     Harris-Foulkes estimate   =  -10033.58730983 Ry
     estimated scf accuracy    <       0.00012582 Ry

     iteration # 18     ecut=    40.00 Ry     beta= 0.40
     Davidson diagonalization with overlap
     ethr =  4.37E-09,  avg # of iterations =  4.0

     total cpu time spent up to now is     5818.8 secs

     total energy              =  -10033.58730546 Ry
     Harris-Foulkes estimate   =  -10033.58731845 Ry
     estimated scf accuracy    <       0.00013830 Ry

     iteration # 19     ecut=    40.00 Ry     beta= 0.40
     Davidson diagonalization with overlap
     ethr =  4.37E-09,  avg # of iterations =  1.7

     total cpu time spent up to now is     6042.8 secs

     total energy              =  -10033.58729547 Ry
     Harris-Foulkes estimate   =  -10033.58730746 Ry
     estimated scf accuracy    <       0.00007278 Ry

     iteration # 20     ecut=    40.00 Ry     beta= 0.40
     Davidson diagonalization with overlap
     ethr =  4.37E-09,  avg # of iterations =  3.0

     total cpu time spent up to now is     6303.0 secs

     total energy              =  -10033.58729944 Ry
     Harris-Foulkes estimate   =  -10033.58730029 Ry
     estimated scf accuracy    <       0.00000344 Ry

     iteration # 21     ecut=    40.00 Ry     beta= 0.40
     Davidson diagonalization with overlap
     ethr =  4.51E-10,  avg # of iterations =  4.0

     total cpu time spent up to now is     6637.7 secs

     total energy              =  -10033.58730027 Ry
     Harris-Foulkes estimate   =  -10033.58730043 Ry
     estimated scf accuracy    <       0.00000116 Ry

     iteration # 22     ecut=    40.00 Ry     beta= 0.40
     Davidson diagonalization with overlap
     ethr =  1.52E-10,  avg # of iterations =  1.0

     total cpu time spent up to now is     6859.5 secs

     total energy              =  -10033.58730027 Ry
     Harris-Foulkes estimate   =  -10033.58730030 Ry
     estimated scf accuracy    <       0.00000019 Ry

     iteration # 23     ecut=    40.00 Ry     beta= 0.40
     Davidson diagonalization with overlap
     ethr =  2.51E-11,  avg # of iterations =  3.7

     total cpu time spent up to now is     7131.6 secs

     total energy              =  -10033.58730029 Ry
     Harris-Foulkes estimate   =  -10033.58730029 Ry
     estimated scf accuracy    <          5.3E-09 Ry

     iteration # 24     ecut=    40.00 Ry     beta= 0.40
     Davidson diagonalization with overlap
     ethr =  6.99E-13,  avg # of iterations =  4.0

     total cpu time spent up to now is     7519.5 secs

     total energy              =  -10033.58730028 Ry
     Harris-Foulkes estimate   =  -10033.58730028 Ry
     estimated scf accuracy    <          6.7E-10 Ry

     iteration # 25     ecut=    40.00 Ry     beta= 0.40
     Davidson diagonalization with overlap
     ethr =  1.00E-13,  avg # of iterations =  2.6

     total cpu time spent up to now is     7784.9 secs

     total energy              =  -10033.58730027 Ry
     Harris-Foulkes estimate   =  -10033.58730027 Ry
     estimated scf accuracy    <          4.2E-10 Ry

     iteration # 26     ecut=    40.00 Ry     beta= 0.40
     Davidson diagonalization with overlap
     ethr =  1.00E-13,  avg # of iterations =  1.0

     total cpu time spent up to now is     8006.3 secs

     total energy              =  -10033.58730027 Ry
     Harris-Foulkes estimate   =  -10033.58730027 Ry
     estimated scf accuracy    <          1.1E-10 Ry

     iteration # 27     ecut=    40.00 Ry     beta= 0.40
     Davidson diagonalization with overlap
     ethr =  1.00E-13,  avg # of iterations =  1.0

     total cpu time spent up to now is     8228.2 secs

     total energy              =  -10033.58730027 Ry
     Harris-Foulkes estimate   =  -10033.58730027 Ry
     estimated scf accuracy    <          6.8E-12 Ry

     iteration # 28     ecut=    40.00 Ry     beta= 0.40
     Davidson diagonalization with overlap
     ethr =  1.00E-13,  avg # of iterations =  1.0

     total cpu time spent up to now is     8449.3 secs

     total energy              =  -10033.58730027 Ry
     Harris-Foulkes estimate   =  -10033.58730027 Ry
     estimated scf accuracy    <          1.9E-12 Ry

     iteration # 29     ecut=    40.00 Ry     beta= 0.40
     Davidson diagonalization with overlap
     ethr =  1.00E-13,  avg # of iterations =  1.0

     total cpu time spent up to now is     8669.4 secs

     End of self-consistent calculation

          k = 0.0000 0.0000 0.0000 (123065 PWs)   bands (ev):

    -3.3322  -2.7917  -2.7893  -2.7836  -2.7825  -2.7725  -2.7012  -2.2339
    -2.2319  -2.2311  -2.2301  -2.2284  -2.2277  -2.2245  -2.2239  -2.2118
    -2.2088  -2.1749  -2.0459  -1.6715  -1.6660  -1.6653  -1.6634  -1.6601
    -1.6569  -1.6283  -1.5358  -1.1108  -1.1078  -1.1071  -1.1027  -1.0843
    -1.0493  -0.5702  -0.5693  -0.5685  -0.5682  -0.5673  -0.5671  -0.5669
    -0.5667  -0.5657  -0.5654  -0.5644  -0.5622  -0.5604  -0.5588  -0.5586
    -0.5573  -0.5557  -0.5445  -0.5368  -0.5360  -0.5163  -0.5056  -0.4195
    -0.3414  -0.0170  -0.0162  -0.0162  -0.0160  -0.0147  -0.0139  -0.0135
    -0.0133  -0.0130  -0.0126  -0.0124  -0.0122  -0.0117  -0.0111  -0.0084
    -0.0025   0.0009   0.0037   0.0191   0.0332   0.0513   0.0569   0.2158
     0.4322   1.0836   1.0872   1.0872   1.0874   1.0878   1.0933   1.1026
     1.1041   1.1041   1.1135   1.1576   1.1933   1.6187   1.6203   1.6206
     1.6212   1.6219   1.6222   1.6226   1.6233   1.6241   1.6245   1.6246
     1.6246   1.6248   1.6255   1.6265   1.6277   1.6287   1.6292   1.6297
     1.6308   1.6366   1.6459   1.6478   1.6497   1.6784   1.7001   1.7049
     1.7214   1.8115   1.8791   2.1559   2.1564   2.1566   2.1575   2.1578
     2.1596   2.1617   2.1623   2.1626   2.1637   2.1639   2.1670   2.1670
     2.1677   2.1679   2.1703   2.1705   2.1862   2.2102   2.2307   2.2386
     2.2586   2.3666   2.4084   2.6979   2.6995   2.7009   2.7010   2.7011
     2.7016   2.7023   2.7046   2.7048   2.7050   2.7054   2.7064   2.7068
     2.7072   2.7094   2.7126   2.7189   2.7432   2.7654   2.7801   2.7862
     2.8075   2.9828   3.0293   3.1803   3.1867   3.2069   3.2095   3.3555
     3.3563   3.4119   3.4480   3.7689   3.7693   3.7709   3.7712   3.7723
     3.7737   3.7741   3.7742   3.7749   3.7757   3.7805   3.7824   3.7846
     3.7847   3.7858   3.7865   3.8049   3.8283   3.8344   3.8361   3.8365
     3.8406   3.9578   3.9608   4.1943   4.1961   4.1964   4.1965   4.1969
     4.1969   4.1969   4.1981   4.1989   4.1992   4.1997   4.2010   4.2017
     4.2024   4.2043   4.2142   4.2147   4.2205   4.2370   4.2633   4.3034
     4.3346   4.3748   4.3830   4.4273   4.4283   4.4288   4.4296   4.4297
     4.4300   4.4303   4.4310   4.4312   4.4314   4.4336   4.4340   4.4362
     4.4497   4.4590   4.4709   4.4765   4.4771   4.4952   4.5008   4.5050
     4.5057   4.8380   4.8440   4.8505   4.9727   5.0147   5.3245   5.3247
     5.3255   5.3321   5.3327   5.3346   5.3369   5.3451   5.3503   5.4361
     5.4385   5.4515   5.8430   5.8435   5.8454   5.8462   5.8506   5.8527
     5.8529   5.8609   5.8675   5.8690   5.8705   5.8945   5.9106   5.9115
     5.9130   5.9151   5.9167   5.9168   5.9170   5.9178   5.9178   5.9189
     5.9204   5.9209   5.9210   5.9250   5.9468   5.9838   5.9852   5.9874
     6.0020   6.0341   6.0455   6.0668   6.1034   6.1276   6.1313   6.1786
     6.1984   6.3725   6.3762   6.3770   6.3801   6.3900   6.4010   6.4064
     6.4068   6.4121   6.4333   6.4371   6.4641   6.6446   6.6476   6.6480
     6.6533   6.6556   6.6580   6.6596   6.6666   6.6695   6.7233   6.7716
     6.7797   6.8811   6.8818   6.8827   6.8842   6.8843   6.8898   6.8903
     6.8946   6.8978   6.9039   6.9077   6.9154   6.9534   6.9555   6.9593
     6.9611   6.9625   6.9640   6.9640   6.9649   6.9650   6.9652   6.9683
     6.9724   6.9832   6.9935   6.9966   7.0018   7.0329   7.0502   7.0607
     7.0729   7.0761   7.0932   7.0942   7.1361   7.2913   7.2921   7.2950
     7.2977   7.2977   7.2983   7.2987   7.3087   7.3111   7.3413   7.3837
     7.3886   7.3902   7.3904   7.3912   7.3922   7.3933   7.3945   7.3947
     7.3951   7.3998   7.4009   7.4014   7.4061   7.4064   7.4410   7.4455
     7.4590   7.5110   7.5247   7.5576   7.5684   7.6192   7.6464   7.7086
     7.7803   7.9239   7.9377   7.9474   7.9511   7.9532   7.9924   8.5323
     8.5336   8.5351   8.5368   8.5371   8.5371   8.5376   8.5392   8.5392
     8.5404   8.5411   8.5414   8.5452   8.5464   8.5549   8.5556   8.5924
     8.6009   8.6213   8.6227   8.6296   8.6321   8.6567   8.6653   8.7520
     8.7524   8.7531   8.7561   8.7758   8.7792   8.8375   8.8375   8.8387
     8.8392   8.8394   8.8401   8.8401   8.8414   8.8423   8.8449   8.8467
     8.8489   8.8515   8.8558   8.8605   8.8625   8.8686   8.8760   8.8903
     8.9109

     occupation numbers 
     1.0000   1.0000   1.0000   1.0000   1.0000   1.0000   1.0000   1.0000
     1.0000   1.0000   1.0000   1.0000   1.0000   1.0000   1.0000   1.0000
     1.0000   1.0000   1.0000   1.0000   1.0000   1.0000   1.0000   1.0000
     1.0000   1.0000   1.0000   1.0000   1.0000   1.0000   1.0000   1.0000
     1.0000   1.0000   1.0000   1.0000   1.0000   1.0000   1.0000   1.0000
     1.0000   1.0000   1.0000   1.0000   1.0000   1.0000   1.0000   1.0000
     1.0000   1.0000   1.0000   1.0000   1.0000   1.0000   1.0000   1.0000
     1.0000   1.0000   1.0000   1.0000   1.0000   1.0000   1.0000   1.0000
     1.0000   1.0000   1.0000   1.0000   1.0000   1.0000   1.0000   1.0000
     1.0000   1.0000   1.0000   1.0000   1.0000   1.0000   1.0000   1.0000
     1.0000   1.0000   1.0000   1.0000   1.0000   1.0000   1.0000   1.0000
     1.0000   1.0000   1.0000   1.0000   1.0000   1.0000   1.0000   1.0000
     1.0000   1.0000   1.0000   1.0000   1.0000   1.0000   1.0000   1.0000
     1.0000   1.0000   1.0000   1.0000   1.0000   1.0000   1.0000   1.0000
     1.0000   1.0000   1.0000   1.0000   1.0000   1.0000   1.0000   1.0000
     1.0000   1.0000   1.0000   1.0000   1.0000   1.0000   1.0000   1.0000
     1.0000   1.0000   1.0000   1.0000   1.0000   1.0000   1.0000   1.0000
     1.0000   1.0000   1.0000   1.0000   1.0000   1.0000   1.0000   1.0000
     1.0000   1.0000   1.0000   1.0000   1.0000   1.0000   1.0000   1.0000
     1.0000   1.0000   1.0000   1.0000   1.0000   1.0000   1.0000   1.0000
     1.0000   1.0000   1.0000   1.0000   1.0000   1.0000   1.0000   1.0000
     1.0000   1.0000   1.0000   1.0000   1.0000   1.0000   1.0000   1.0000
     1.0000   1.0000   1.0000   1.0000   1.0000   1.0000   1.0000   1.0000
     1.0000   1.0000   1.0000   1.0000   1.0000   1.0000   1.0000   1.0000
     1.0000   1.0000   1.0000   1.0000   1.0000   1.0000   1.0000   1.0000
     1.0000   1.0000   1.0000   1.0000   1.0000   1.0000   1.0000   1.0000
     1.0000   1.0000   1.0000   1.0000   1.0000   1.0000   1.0000   1.0000
     1.0000   1.0000   1.0000   1.0000   1.0000   1.0000   1.0000   1.0000
     1.0000   1.0000   1.0000   1.0000   1.0000   1.0000   1.0000   1.0000
     1.0000   1.0000   1.0000   1.0000   1.0000   1.0000   1.0000   1.0000
     1.0000   1.0000   1.0000   1.0000   1.0000   1.0000   1.0000   1.0000
     1.0000   1.0000   1.0000   1.0000   1.0000   1.0000   1.0000   1.0000
     1.0000   1.0000   1.0000   1.0000   1.0000   1.0000   1.0000   1.0000
     1.0000   1.0000   1.0001   1.0001   1.0001   1.0001   1.0001   1.0001
     1.0001   1.0001   1.0001   1.0001   1.0001   1.0001   1.0001   1.0001
     1.0001   1.0001   1.0001   1.0001   1.0001   1.0001   1.0001   1.0001
     1.0001   1.0001   1.0001   1.0001   1.0001   1.0002   1.0002   1.0002
     1.0002   1.0003   1.0003   1.0004   1.0005   1.0007   1.0007   1.0010
     1.0011   1.0038   1.0039   1.0039   1.0040   1.0042   1.0045   1.0047
     1.0047   1.0048   1.0055   1.0056   1.0066   1.0161   1.0163   1.0163
     1.0167   1.0168   1.0170   1.0171   1.0176   1.0178   1.0218   1.0255
     1.0261   1.0330   1.0330   1.0331   1.0331   1.0332   1.0334   1.0335
     1.0337   1.0338   1.0341   1.0342   1.0345   1.0354   1.0354   1.0354
     1.0355   1.0355   1.0355   1.0355   1.0355   1.0355   1.0355   1.0355
     1.0354   1.0353   1.0351   1.0350   1.0348   1.0332   1.0317   1.0306
     1.0292   1.0288   1.0262   1.0261   1.0177   0.9530   0.9526   0.9508
     0.9491   0.9490   0.9487   0.9484   0.9420   0.9403   0.9189   0.8845
     0.8802   0.8788   0.8786   0.8780   0.8770   0.8761   0.8749   0.8748
     0.8744   0.8701   0.8692   0.8687   0.8644   0.8640   0.8302   0.8255
     0.8113   0.7523   0.7358   0.6945   0.6806   0.6126   0.5750   0.4877
     0.3877   0.2071   0.1919   0.1816   0.1777   0.1756   0.1368  -0.0322
    -0.0321  -0.0321  -0.0320  -0.0319  -0.0319  -0.0319  -0.0318  -0.0318
    -0.0317  -0.0317  -0.0317  -0.0314  -0.0314  -0.0308  -0.0308  -0.0282
    -0.0276  -0.0260  -0.0259  -0.0254  -0.0252  -0.0233  -0.0226  -0.0163
    -0.0163  -0.0162  -0.0160  -0.0147  -0.0145  -0.0110  -0.0110  -0.0110
    -0.0109  -0.0109  -0.0109  -0.0109  -0.0108  -0.0108  -0.0106  -0.0105
    -0.0104  -0.0103  -0.0101  -0.0098  -0.0097  -0.0094  -0.0091  -0.0084
    -0.0075

          k = 0.0000 0.0000 0.2000 (123202 PWs)   bands (ev):

    -3.3102  -2.9743  -2.7669  -2.7612  -2.7505  -2.7164  -2.5239  -2.4312
    -2.4252  -2.4140  -2.3694  -2.2023  -2.1965  -2.1846  -2.1567  -1.9848
    -1.9786  -1.9667  -1.9227  -1.8674  -1.8609  -1.8446  -1.7743  -1.5134
    -1.4229  -1.4171  -1.4047  -1.3531  -1.0858  -1.0851  -1.0649  -1.0640
    -0.9857  -0.9797  -0.9685  -0.9073  -0.7534  -0.7533  -0.7323  -0.7260
    -0.6333  -0.5434  -0.5421  -0.5392  -0.5347  -0.5222  -0.5175  -0.4950
    -0.4921  -0.4277  -0.4215  -0.4058  -0.3651  -0.3118  -0.3114  -0.2894
    -0.2878  -0.2127  -0.2114  -0.2082  -0.2030  -0.1872  -0.1776  -0.1214
    -0.1080  -0.1035  -0.0969  -0.0622   0.0407   0.2269   0.2282   0.2313
     0.2361   0.2511   0.2582   0.3145   0.3329   0.4517   0.4595   0.4931
     0.6002   0.6756   0.6768   0.7152   0.7502   1.0122   1.1217   1.1238
     1.1249   1.1329   1.2110   1.2124   1.2153   1.2193   1.2333   1.2402
     1.2837   1.3003   1.4532   1.4596   1.4597   1.4603   1.5334   1.5390
     1.5463   1.5507   1.5562   1.5721   1.5795   1.6441   1.6495   1.6589
     1.6926   1.7202   1.8823   1.8855   1.8886   1.8996   1.9748   1.9835
     1.9892   2.0015   2.0795   2.0810   2.0812   2.0838   2.0854   2.0869
     2.1018   2.1066   2.1107   2.1340   2.1455   2.1616   2.1875   2.1882
     2.1889   2.2140   2.2175   2.2197   2.2789   2.2805   2.3518   2.4090
     2.4185   2.4436   2.4511   2.5118   2.5130   2.5135   2.5402   2.5407
     2.5531   2.6259   2.6488   2.8217   2.8267   2.8407   2.8556   2.8616
     2.8669   2.8746   2.9031   2.9424   2.9433   2.9437   2.9767   2.9785
     2.9828   3.0691   3.0727   3.1651   3.1661   3.2110   3.2334   3.3635
     3.3685   3.3778   3.3903   3.3910   3.4031   3.4517   3.4965   3.6827
     3.6838   3.6862   3.6905   3.7018   3.7053   3.7299   3.7314   3.7445
     3.7563   3.7587   3.7726   3.7952   3.7962   3.8027   3.8064   3.8314
     3.8417   3.8474   3.8762   3.8984   3.8989   3.8995   3.9343   3.9358
     3.9378   4.0132   4.0299   4.1066   4.1075   4.1189   4.1193   4.1795
     4.1952   4.2114   4.2130   4.2414   4.2442   4.2891   4.2990   4.4365
     4.4380   4.4465   4.4746   4.4833   4.5656   4.5675   4.5740   4.5773
     4.6119   4.6312   4.6364   4.6723   4.7834   4.7852   4.7881   4.8007
     4.8028   4.8168   4.8375   4.8714   4.8811   4.8886   4.9269   4.9327
     4.9530   4.9830   4.9846   4.9889   4.9936   5.0080   5.0163   5.0401
     5.1629   5.1695   5.2445   5.2578   5.3199   5.3238   5.3473   5.3511
     5.3591   5.3672   5.3913   5.4095   5.4498   5.4554   5.4755   5.5139
     5.5155   5.5208   5.5247   5.5308   5.5479   5.5839   5.5852   5.5983
     5.6020   5.6789   5.6801   5.7136   5.7198   5.7486   5.8068   5.8333
     5.8599   5.8992   6.0789   6.0879   6.1358   6.1384   6.1487   6.1650
     6.3514   6.3575   6.3581   6.3617   6.3632   6.3702   6.3725   6.3735
     6.3786   6.3870   6.3879   6.3944   6.3965   6.4058   6.4101   6.4120
     6.4532   6.4589   6.4710   6.4751   6.4783   6.4926   6.4927   6.5048
     6.5247   6.5417   6.5608   6.5918   6.5975   6.6051   6.6053   6.6359
     6.6505   6.6793   6.6942   6.6954   6.7441   6.7869   6.7938   6.8040
     6.8216   6.8296   6.8421   6.8576   6.8640   6.9133   6.9226   6.9288
     6.9379   6.9391   6.9626   7.0082   7.0204   7.0242   7.0245   7.0263
     7.0292   7.0295   7.0597   7.0782   7.0888   7.0925   7.0935   7.1109
     7.1789   7.1860   7.1994   7.2084   7.2179   7.2271   7.2539   7.2598
     7.2770   7.3010   7.3022   7.3105   7.3107   7.3401   7.3619   7.3742
     7.4161   7.5044   7.5229   7.5258   7.5728   7.6016   7.6036   7.6068
     7.6142   7.6160   7.6202   7.6309   7.6697   7.6714   7.6791   7.6824
     7.6919   7.7084   7.7092   7.7755   7.7858   7.8476   7.8491   7.8853
     7.9123   7.9202   7.9359   7.9392   7.9550   7.9587   7.9620   7.9918
     8.0060   8.0332   8.0737   8.1434   8.1454   8.1523   8.1639   8.1971
     8.2196   8.2274   8.2520   8.4496   8.4636   8.4726   8.5183   8.5751
     8.5844   8.5899   8.5977   8.6283   8.6310   8.6375   8.6604   8.6694
     8.6948   8.7212   8.7282   8.9048   8.9169   8.9574   8.9679   8.9837
     8.9839   8.9874   8.9970   9.0014   9.0075   9.0349   9.0403   9.1003
     9.1019   9.1227   9.1260   9.1304   9.1349   9.1632   9.1748   9.1765
     9.1805

     occupation numbers 
     1.0000   1.0000   1.0000   1.0000   1.0000   1.0000   1.0000   1.0000
     1.0000   1.0000   1.0000   1.0000   1.0000   1.0000   1.0000   1.0000
     1.0000   1.0000   1.0000   1.0000   1.0000   1.0000   1.0000   1.0000
     1.0000   1.0000   1.0000   1.0000   1.0000   1.0000   1.0000   1.0000
     1.0000   1.0000   1.0000   1.0000   1.0000   1.0000   1.0000   1.0000
     1.0000   1.0000   1.0000   1.0000   1.0000   1.0000   1.0000   1.0000
     1.0000   1.0000   1.0000   1.0000   1.0000   1.0000   1.0000   1.0000
     1.0000   1.0000   1.0000   1.0000   1.0000   1.0000   1.0000   1.0000
     1.0000   1.0000   1.0000   1.0000   1.0000   1.0000   1.0000   1.0000
     1.0000   1.0000   1.0000   1.0000   1.0000   1.0000   1.0000   1.0000
     1.0000   1.0000   1.0000   1.0000   1.0000   1.0000   1.0000   1.0000
     1.0000   1.0000   1.0000   1.0000   1.0000   1.0000   1.0000   1.0000
     1.0000   1.0000   1.0000   1.0000   1.0000   1.0000   1.0000   1.0000
     1.0000   1.0000   1.0000   1.0000   1.0000   1.0000   1.0000   1.0000
[...]
     atom   73 type  1   force =     0.00000001   -0.00000003   -0.00000002
     atom   74 type  1   force =    -0.00000002    0.00000000   -0.00000006
     atom   75 type  1   force =    -0.00000003    0.00000000    0.00000002
     atom   76 type  1   force =     0.00000002   -0.00000000   -0.00000002
     atom   77 type  1   force =    -0.00000001   -0.00000001   -0.00000000
     atom   78 type  1   force =    -0.00000009   -0.00000002    0.00000006
     atom   79 type  1   force =    -0.00000006   -0.00000006    0.00000001
     atom   80 type  1   force =    -0.00000003   -0.00000001   -0.00000001
     atom   81 type  1   force =    -0.00000004   -0.00000002   -0.00000003
     atom   82 type  1   force =    -0.00000004   -0.00000002   -0.00000002
     atom   83 type  1   force =    -0.00000004   -0.00000002   -0.00000002
     atom   84 type  1   force =    -0.00000002    0.00000000    0.00000004
     atom   85 type  1   force =    -0.00000002    0.00000002    0.00000006
     atom   86 type  1   force =    -0.00000000    0.00000002    0.00000006
     atom   87 type  1   force =    -0.00000001   -0.00000001   -0.00000000
     atom   88 type  1   force =    -0.00000003    0.00000000    0.00000001
     atom   89 type  1   force =     0.00000001    0.00000001   -0.00000002
     atom   90 type  1   force =     0.00000004   -0.00000000   -0.00000004
     atom   91 type  1   force =    -0.00000001   -0.00000002   -0.00000000
     atom   92 type  1   force =     0.00000004    0.00000003   -0.00000004
     atom   93 type  1   force =    -0.00000001   -0.00000001    0.00000000
     atom   94 type  1   force =    -0.00000001   -0.00000001    0.00000002
     atom   95 type  1   force =    -0.00000002    0.00000004    0.00000000
     atom   96 type  1   force =    -0.00000003   -0.00000000   -0.00000002
     atom   97 type  1   force =    -0.00000004    0.00000005   -0.00000000
     atom   98 type  1   force =    -0.00000001   -0.00000001    0.00000002
     atom   99 type  1   force =    -0.00000002    0.00000006    0.00000003
     atom  100 type  1   force =    -0.00000005    0.00000004    0.00000001
     atom  101 type  1   force =    -0.00000007    0.00000002    0.00000005
     atom  102 type  1   force =    -0.00000001    0.00000001    0.00000002
     atom  103 type  1   force =     0.00000003    0.00000002   -0.00000003
     atom  104 type  1   force =    -0.00000004    0.00000003    0.00000003
     atom  105 type  1   force =     0.00000000    0.00000003    0.00000001
     atom  106 type  1   force =     0.00000007    0.00000001   -0.00000003
     atom  107 type  1   force =     0.00000005    0.00000004   -0.00000001
     atom  108 type  1   force =     0.00000002    0.00000002   -0.00000003
     atom  109 type  1   force =    -0.00000000    0.00000005   -0.00000005
     atom  110 type  1   force =     0.00000002   -0.00000001   -0.00000001
     atom  111 type  1   force =    -0.00000001   -0.00000001   -0.00000000
     atom  112 type  1   force =    -0.00000002    0.00000001   -0.00000003
     atom  113 type  1   force =    -0.00000002   -0.00000005    0.00000003
     atom  114 type  1   force =    -0.00000007    0.00000004   -0.00000004
     atom  115 type  1   force =     0.00000000   -0.00000006    0.00000004
     atom  116 type  1   force =    -0.00000002   -0.00000006    0.00000003
     atom  117 type  1   force =    -0.00000003   -0.00000003    0.00000004
     atom  118 type  1   force =    -0.00000002   -0.00000003    0.00000006
     atom  119 type  1   force =     0.00000003   -0.00000002   -0.00000001
     atom  120 type  1   force =    -0.00000000   -0.00000005    0.00000004
     atom  121 type  1   force =     0.00000004   -0.00000001   -0.00000002
     atom  122 type  1   force =     0.00000003   -0.00000001   -0.00000005
     atom  123 type  1   force =     0.00000006   -0.00000004   -0.00000002
     atom  124 type  1   force =     0.00000006   -0.00000004   -0.00000004
     atom  125 type  1   force =     0.00000002   -0.00000003   -0.00000006
     atom  126 type  1   force =    -0.00000005    0.00000005    0.00000002
     atom  127 type  1   force =     0.00000003    0.00000001   -0.00000004
     atom  128 type  1   force =    -0.00000002    0.00000000   -0.00000001
     atom  129 type  1   force =    -0.00000001    0.00000003   -0.00000005
     atom  130 type  1   force =     0.00000003    0.00000002   -0.00000003
     atom  131 type  1   force =     0.00000000    0.00000002   -0.00000001
     atom  132 type  1   force =     0.00000001    0.00000007    0.00000000
     atom  133 type  1   force =     0.00000001    0.00000004    0.00000005
     atom  134 type  1   force =     0.00000002    0.00000005    0.00000004
     atom  135 type  1   force =    -0.00000002   -0.00000002    0.00000005
     atom  136 type  1   force =     0.00000001    0.00000004    0.00000002
     atom  137 type  1   force =    -0.00000005    0.00000000    0.00000003
     atom  138 type  1   force =     0.00000002    0.00000001    0.00000001
     atom  139 type  1   force =     0.00000003   -0.00000004   -0.00000001
     atom  140 type  1   force =    -0.00000004    0.00000001   -0.00000002
     atom  141 type  1   force =    -0.00000005   -0.00000001   -0.00000002
     atom  142 type  1   force =     0.00000004   -0.00000001   -0.00000001
     atom  143 type  1   force =     0.00000004   -0.00000002   -0.00000001
     atom  144 type  1   force =     0.00000004   -0.00000001   -0.00000000
     atom  145 type  1   force =     0.00000001    0.00000002    0.00000001
     atom  146 type  1   force =     0.00000005   -0.00000003    0.00000000
     atom  147 type  1   force =     0.00000005    0.00000001    0.00000001
     atom  148 type  1   force =     0.00000006   -0.00000003    0.00000001
     atom  149 type  1   force =     0.00000003    0.00000003    0.00000001
     atom  150 type  1   force =     0.00000002   -0.00000004    0.00000003
     atom  151 type  1   force =     0.00000002    0.00000001    0.00000002
     atom  152 type  1   force =     0.00000001   -0.00000005    0.00000001
     atom  153 type  1   force =    -0.00000000    0.00000002    0.00000000
     atom  154 type  1   force =     0.00000001   -0.00000000    0.00000002
     atom  155 type  1   force =     0.00000003    0.00000002   -0.00000003
     atom  156 type  1   force =     0.00000000    0.00000000   -0.00000001
     atom  157 type  1   force =    -0.00000001    0.00000001   -0.00000002
     atom  158 type  1   force =     0.00000004   -0.00000000   -0.00000005
     atom  159 type  1   force =     0.00000000    0.00000001   -0.00000003
     atom  160 type  1   force =    -0.00000001   -0.00000003   -0.00000002
     atom  161 type  1   force =     0.00000006   -0.00000006   -0.00000000
     atom  162 type  1   force =    -0.00000005    0.00000002    0.00000001
     atom  163 type  1   force =    -0.00000001   -0.00000000    0.00000000
     atom  164 type  1   force =     0.00000001    0.00000001   -0.00000000
     atom  165 type  1   force =     0.00000004   -0.00000008   -0.00000002
     atom  166 type  1   force =    -0.00000008    0.00000005    0.00000001
     atom  167 type  1   force =    -0.00000006   -0.00000002    0.00000005
     atom  168 type  1   force =    -0.00000004    0.00000003    0.00000004
     atom  169 type  1   force =    -0.00000004   -0.00000005    0.00000007
     atom  170 type  1   force =    -0.00000007    0.00000004    0.00000004
     atom  171 type  1   force =    -0.00000001    0.00000001   -0.00000002
     atom  172 type  1   force =    -0.00000005   -0.00000002   -0.00000001
     atom  173 type  1   force =     0.00000002   -0.00000003   -0.00000005
     atom  174 type  1   force =    -0.00000003    0.00000001   -0.00000007
     atom  175 type  1   force =    -0.00000002    0.00000000   -0.00000004
     atom  176 type  1   force =    -0.00000003    0.00000004   -0.00000005
     atom  177 type  1   force =    -0.00000003   -0.00000001    0.00000001
     atom  178 type  1   force =     0.00000000   -0.00000001   -0.00000003
     atom  179 type  1   force =    -0.00000004   -0.00000003    0.00000002
     atom  180 type  1   force =    -0.00000002   -0.00000003    0.00000000
     atom  181 type  1   force =    -0.00000004    0.00000002    0.00000001
     atom  182 type  1   force =    -0.00000004   -0.00000006    0.00000007
     atom  183 type  1   force =    -0.00000007    0.00000003    0.00000006
     atom  184 type  1   force =    -0.00000005   -0.00000002    0.00000005
     atom  185 type  1   force =    -0.00000009    0.00000003    0.00000004
     atom  186 type  1   force =    -0.00000002   -0.00000005    0.00000002
     atom  187 type  1   force =    -0.00000002    0.00000001   -0.00000004
     atom  188 type  1   force =    -0.00000009   -0.00000001   -0.00000000
     atom  189 type  1   force =    -0.00000006    0.00000003   -0.00000006
     atom  190 type  1   force =     0.00000002   -0.00000000   -0.00000006
     atom  191 type  1   force =     0.00000006    0.00000001   -0.00000001
     atom  192 type  1   force =     0.00000010   -0.00000004   -0.00000001
     atom  193 type  1   force =     0.00000009    0.00000001   -0.00000007
     atom  194 type  1   force =     0.00000002    0.00000001   -0.00000003
     atom  195 type  1   force =     0.00000004    0.00000003   -0.00000001
     atom  196 type  1   force =     0.00000004   -0.00000001   -0.00000002
     atom  197 type  1   force =     0.00000005    0.00000001    0.00000006
     atom  198 type  1   force =     0.00000000    0.00000004    0.00000004
     atom  199 type  1   force =     0.00000004    0.00000003   -0.00000001
     atom  200 type  1   force =     0.00000003   -0.00000003   -0.00000002
     atom  201 type  1   force =     0.00000005    0.00000001   -0.00000005
     atom  202 type  1   force =    -0.00000004    0.00000003   -0.00000003
     atom  203 type  1   force =    -0.00000002    0.00000001    0.00000002
     atom  204 type  1   force =     0.00000004   -0.00000003    0.00000004
     atom  205 type  1   force =     0.00000009    0.00000002    0.00000006
     atom  206 type  1   force =     0.00000001   -0.00000001    0.00000002
     atom  207 type  1   force =    -0.00000001    0.00000001    0.00000001
     atom  208 type  1   force =    -0.00000001    0.00000002    0.00000001
     atom  209 type  1   force =     0.00000003   -0.00000003   -0.00000003
     atom  210 type  1   force =    -0.00000002    0.00000002    0.00000002
     atom  211 type  1   force =    -0.00000004    0.00000005    0.00000002
     atom  212 type  1   force =    -0.00000004    0.00000005   -0.00000000
     atom  213 type  1   force =    -0.00000004   -0.00000001    0.00000002
     atom  214 type  1   force =    -0.00000003   -0.00000002   -0.00000002
     atom  215 type  1   force =    -0.00000004    0.00000001   -0.00000001
     atom  216 type  1   force =    -0.00000005   -0.00000002   -0.00000003
     atom  217 type  1   force =    -0.00000003   -0.00000002   -0.00000004
     atom  218 type  1   force =    -0.00000007   -0.00000003    0.00000001
     atom  219 type  1   force =    -0.00000007    0.00000003   -0.00000002
     atom  220 type  1   force =    -0.00000006    0.00000003    0.00000003
     atom  221 type  1   force =     0.00000003   -0.00000005    0.00000004
     atom  222 type  1   force =    -0.00000004    0.00000004   -0.00000002
     atom  223 type  1   force =     0.00000002   -0.00000003   -0.00000000
     atom  224 type  1   force =     0.00000002   -0.00000005    0.00000001
     atom  225 type  1   force =    -0.00000001   -0.00000000    0.00000000
     atom  226 type  1   force =     0.00000004   -0.00000006    0.00000000
     atom  227 type  1   force =     0.00000003   -0.00000006   -0.00000001
     atom  228 type  1   force =     0.00000003   -0.00000004   -0.00000000
     atom  229 type  1   force =    -0.00000000   -0.00000001   -0.00000005
     atom  230 type  1   force =     0.00000004   -0.00000002   -0.00000003
     atom  231 type  1   force =     0.00000001   -0.00000006   -0.00000002
     atom  232 type  1   force =     0.00000000    0.00000002   -0.00000004
     atom  233 type  1   force =    -0.00000003   -0.00000001    0.00000003
     atom  234 type  1   force =    -0.00000002   -0.00000001    0.00000005
     atom  235 type  1   force =    -0.00000004   -0.00000002    0.00000003
     atom  236 type  1   force =    -0.00000002   -0.00000005    0.00000004
     atom  237 type  1   force =    -0.00000003    0.00000001    0.00000001
     atom  238 type  1   force =     0.00000000   -0.00000007   -0.00000002
     atom  239 type  1   force =     0.00000004    0.00000002   -0.00000001
     atom  240 type  1   force =     0.00000008    0.00000006    0.00000000
     atom  241 type  1   force =     0.00000006    0.00000002   -0.00000002
     atom  242 type  1   force =     0.00000005    0.00000003   -0.00000004
     atom  243 type  1   force =     0.00000002   -0.00000003    0.00000001
     atom  244 type  1   force =     0.00000007    0.00000002   -0.00000002
     atom  245 type  1   force =     0.00000004    0.00000000    0.00000002
     atom  246 type  1   force =     0.00000004   -0.00000000    0.00000005
     atom  247 type  1   force =     0.00000001    0.00000003   -0.00000000
     atom  248 type  1   force =     0.00000005    0.00000003   -0.00000002
     atom  249 type  1   force =    -0.00000000    0.00000003   -0.00000003
     atom  250 type  1   force =    -0.00000003    0.00000000   -0.00000001
     atom  251 type  1   force =    -0.00000005   -0.00000001   -0.00000000
     atom  252 type  1   force =     0.00000003    0.00000004    0.00000003
     atom  253 type  1   force =     0.00000002    0.00000003    0.00000003
     atom  254 type  1   force =    -0.00000000    0.00000003    0.00000001

     Total force =     0.004812     Total SCF correction =     0.000001


     Computing stress (Cartesian axis) and pressure

          total   stress  (Ry/bohr**3)                   (kbar)     P=  -11.60
  -0.00007902   0.00000013  -0.00000000        -11.62      0.02     -0.00
   0.00000013  -0.00007902   0.00000000          0.02    -11.62      0.00
  -0.00000000   0.00000000  -0.00007861         -0.00      0.00    -11.56

     kinetic stress (kbar)   1420.02     -0.23     -0.00
                               -0.23   1420.02      0.00
                               -0.00      0.00   1420.30

     local   stress (kbar)    597.18     -9.60      0.00
                               -9.60    597.18      0.00
                                0.00      0.00    607.73

     nonloc. stress (kbar)   1030.19      0.09      0.00
                                0.09   1030.19     -0.00
                                0.00     -0.00   1029.86

     hartree stress (kbar)     11.15      2.95     -0.00
                                2.95     11.15     -0.00
                               -0.00     -0.00      7.83

     exc-cor stress (kbar)    498.06      0.02     -0.00
                                0.02    498.06     -0.00
                               -0.00     -0.00    498.03

     corecor stress (kbar)  -1261.35     -0.02      0.00
                               -0.02  -1261.35      0.00
                                0.00      0.00  -1261.30

     ewald   stress (kbar)  -2306.87      6.82     -0.00
                                6.82  -2306.87     -0.00
                               -0.00     -0.00  -2314.01

     hubbard stress (kbar)      0.00      0.00      0.00
                                0.00      0.00      0.00
                                0.00      0.00      0.00

     london  stress (kbar)      0.00      0.00      0.00
                                0.00      0.00      0.00
                                0.00      0.00      0.00

     DFT-D3  stress (kbar)      0.00      0.00      0.00
                                0.00      0.00      0.00
                                0.00      0.00      0.00

     XDM     stress (kbar)      0.00      0.00      0.00
                                0.00      0.00      0.00
                                0.00      0.00      0.00

     dft-nl  stress (kbar)      0.00      0.00      0.00
                                0.00      0.00      0.00
                                0.00      0.00      0.00

     TS-vdW  stress (kbar)      0.00      0.00      0.00
                                0.00      0.00      0.00
                                0.00      0.00      0.00



     Writing output data file aiida.save/
 
     init_run     :    193.12s CPU    195.25s WALL (       1 calls)
     electrons    :   8410.56s CPU   8473.42s WALL (       1 calls)
     forces       :     93.00s CPU     93.92s WALL (       1 calls)
     stress       :   1135.21s CPU   1136.52s WALL (       1 calls)

     Called by init_run:
     wfcinit      :    182.74s CPU    184.48s WALL (       1 calls)
     wfcinit:atom :      0.33s CPU      0.59s WALL (       2 calls)
     wfcinit:wfcr :    180.20s CPU    180.93s WALL (       2 calls)
     potinit      :      2.09s CPU      2.30s WALL (       1 calls)
     hinit0       :      2.44s CPU      2.51s WALL (       1 calls)

     Called by electrons:
     c_bands      :   7291.48s CPU   7341.72s WALL (      30 calls)
     sum_band     :   1025.81s CPU   1030.49s WALL (      30 calls)
     v_of_rho     :     43.59s CPU     45.94s WALL (      30 calls)
     v_h          :      4.52s CPU      4.54s WALL (      30 calls)
     v_xc         :     41.36s CPU     43.75s WALL (      32 calls)
     newd         :      8.51s CPU     10.42s WALL (      30 calls)
     PAW_pot      :      5.44s CPU      6.25s WALL (      30 calls)
     mix_rho      :     29.11s CPU     31.26s WALL (      30 calls)

     Called by c_bands:
     init_us_2    :     92.73s CPU     93.28s WALL (     126 calls)
     cegterg      :   6377.71s CPU   6425.75s WALL (      60 calls)

     Called by sum_band:
     sum_band:bec :      1.60s CPU      1.61s WALL (      60 calls)
     addusdens    :      6.86s CPU      9.18s WALL (      30 calls)

     Called by *egterg:
     h_psi        :   4131.50s CPU   4146.69s WALL (     258 calls)
     s_psi        :   1269.13s CPU   1269.95s WALL (     258 calls)
     g_psi        :      5.20s CPU      5.20s WALL (     196 calls)
     cdiaghg      :    353.19s CPU    358.96s WALL (     254 calls)
     cegterg:over :    338.29s CPU    340.13s WALL (     196 calls)
     cegterg:upda :    213.97s CPU    223.11s WALL (     196 calls)
     cegterg:last :    126.02s CPU    126.07s WALL (      62 calls)
     cdiaghg:chol :     15.12s CPU     15.27s WALL (     254 calls)
     cdiaghg:inve :      7.00s CPU      7.01s WALL (     254 calls)
     cdiaghg:para :     76.24s CPU     77.40s WALL (     508 calls)

     Called by h_psi:
     h_psi:pot    :   4126.09s CPU   4133.40s WALL (     258 calls)
     h_psi:calbec :   1258.84s CPU   1259.07s WALL (     258 calls)
     vloc_psi     :   1593.49s CPU   1599.63s WALL (     258 calls)
     add_vuspsi   :   1273.76s CPU   1274.71s WALL (     258 calls)

     General routines
     calbec       :   1854.64s CPU   1855.05s WALL (     328 calls)
     fft          :     46.72s CPU     49.53s WALL (     415 calls)
     ffts         :     13.42s CPU     13.48s WALL (     490 calls)
     fftw         :   1653.48s CPU   1659.77s WALL (  162098 calls)
     interpolate  :      4.31s CPU      4.84s WALL (      30 calls)
 
     Parallel routines
     fft_scatt_xy :    558.04s CPU    559.99s WALL (  163003 calls)
     fft_scatt_yz :    341.86s CPU    344.67s WALL (  163003 calls)

     PAW routines
     PAW_pot      :      5.44s CPU      6.25s WALL (      30 calls)
 
     PWSCF        :      2h46m CPU      2h48m WALL

 
   This run was terminated on:   1:15: 3  27Feb2020            

=------------------------------------------------------------------------------=
   JOB DONE.
=------------------------------------------------------------------------------=
