begin
comment 254 atoms, species Al254
lattice     30.6664728719     0.0000000000     0.0000000000
lattice      0.0000000000    30.6664728719     0.0000000000
lattice      0.0000000000     0.0000000000    30.6664728719
atom      3.7752176094     0.0580914996     3.7153321212   Al  0.0 0.0    1.00824992e-04 -1.00914992e-04 -1.10139992e-04
atom      0.0580914996     3.7752176094     3.7153321212   Al  0.0 0.0   -1.00899992e-04  1.00839992e-04 -1.10134992e-04
atom      0.0020577203     0.0020577203     7.6588289339   Al  0.0 0.0    7.50999944e-06  7.49999944e-06  1.88224986e-04
atom      3.8312483220     3.8312483220     7.6588258672   Al  0.0 0.0   -7.39999944e-06 -7.40499944e-06  1.88344986e-04
atom      3.8316193863     0.0016835894    11.5029449079   Al  0.0 0.0    3.39749974e-05 -3.39199975e-05 -6.62899950e-05
atom      0.0016835894     3.8316193863    11.5029449079   Al  0.0 0.0   -3.38949975e-05  3.39849974e-05 -6.62849950e-05
atom     30.6656571437    30.6656571437    15.3332364360   Al  0.0 0.0    2.63499980e-06  2.63499980e-06 -4.99999962e-09
atom      3.8341217705     3.8341217705    15.3332364360   Al  0.0 0.0   -2.57999981e-06 -2.56499981e-06  0.00000000e+00
atom      3.8316193863     0.0016835894    19.1635279640   Al  0.0 0.0    3.39699974e-05 -3.39099975e-05  6.62599950e-05
atom      0.0016835894     3.8316193863    19.1635279640   Al  0.0 0.0   -3.39249975e-05  3.39849974e-05  6.62649950e-05
atom      0.0020577203     0.0020577203    23.0076439380   Al  0.0 0.0    7.48499944e-06  7.49499944e-06 -1.88189986e-04
atom      3.8312483220     3.8312483220    23.0076470047   Al  0.0 0.0   -7.38999944e-06 -7.37999945e-06 -1.88284986e-04
atom      3.7752176094     0.0580914996    26.9511407507   Al  0.0 0.0    1.00824992e-04 -1.00899992e-04  1.10094992e-04
atom      0.0580914996     3.7752176094    26.9511407507   Al  0.0 0.0   -1.00899992e-04  1.00814992e-04  1.10099992e-04
atom      0.0695883602     7.5765753203     0.0000000000   Al  0.0 0.0   -1.31799990e-04  2.57604981e-04  1.99999985e-08
atom      3.8313219215    11.4879183362     0.0000000000   Al  0.0 0.0    3.32999975e-06 -2.96299978e-05  3.49999974e-08
atom      3.8239067684     7.5839536737     3.7639170142   Al  0.0 0.0    9.29649930e-05  1.61344988e-04  2.54349981e-05
atom      0.0048361028    11.4915277800     3.8277523441   Al  0.0 0.0   -3.87099971e-05  9.53249928e-05  5.99999955e-08
atom      0.0061210280     7.6408031811     7.6393955900   Al  0.0 0.0   -7.13149946e-05 -1.46169989e-04  5.22399961e-05
atom      3.8311716558    11.4690032557     7.6382363973   Al  0.0 0.0   -2.90099978e-05  2.50349981e-05  3.88199971e-05
atom      3.8311685892     7.6657411569    11.4996267955   Al  0.0 0.0   -1.28099990e-05 -1.00069992e-04 -1.53504988e-04
atom      0.0026189168    11.4984737362    11.4954530886   Al  0.0 0.0    2.89599978e-05 -1.27089990e-04 -1.84769986e-04
atom     30.6650530142     7.6687986042    15.3332364360   Al  0.0 0.0    3.38699975e-05 -1.03249992e-05  4.99999962e-09
atom      3.8346308340    11.5020893133    15.3332364360   Al  0.0 0.0   -1.97049985e-05  3.99499970e-05  9.99999925e-09
atom      3.8311685892     7.6657411569    19.1668460764   Al  0.0 0.0   -1.27999990e-05 -1.00064992e-04  1.53474988e-04
atom      0.0026189168    11.4984737362    19.1710197833   Al  0.0 0.0    2.89599978e-05 -1.27059990e-04  1.84764986e-04
atom      0.0061210280     7.6408031811    23.0270772819   Al  0.0 0.0   -7.13399946e-05 -1.46169989e-04 -5.22249961e-05
atom      3.8311716558    11.4690032557    23.0282364746   Al  0.0 0.0   -2.90149978e-05  2.50699981e-05 -3.87749971e-05
atom      3.8239067684     7.5839536737    26.9025558577   Al  0.0 0.0    9.29649930e-05  1.61349988e-04 -2.54549981e-05
atom      0.0048361028    11.4915277800    26.8387235945   Al  0.0 0.0   -3.86899971e-05  9.53399928e-05 -1.14999991e-07
atom      0.0011775926    15.3320251103     0.0000000000   Al  0.0 0.0    1.83499986e-06 -6.97699948e-05  2.99999977e-08
atom      3.8321223165    19.1677599373     0.0000000000   Al  0.0 0.0   -1.57499988e-06  6.98149948e-05  3.49999974e-08
atom      3.8342260365    15.3340030978     3.8325056474   Al  0.0 0.0   -1.42049989e-05 -6.10399954e-05 -1.49199989e-05
atom     30.6655467444    19.1657819498     3.8325056474   Al  0.0 0.0    1.43999989e-05  6.10549954e-05 -1.48499989e-05
atom      0.0028979817    15.3303016545     7.6667715503   Al  0.0 0.0    4.15499969e-05 -1.71774987e-04 -1.24479991e-04
atom      3.8304049940    19.1694833930     7.6667715503   Al  0.0 0.0   -4.14549969e-05  1.71769987e-04 -1.24549991e-04
atom      3.8338181724    15.3291209953    11.4962902833   Al  0.0 0.0   -3.25699976e-05 -1.04454992e-04 -9.73649927e-05
atom     30.6659576752    19.1706671189    11.4962872166   Al  0.0 0.0    3.26249975e-05  1.04349992e-04 -9.73099927e-05
atom      0.0001502657    15.3337976324    15.3332364360   Al  0.0 0.0    3.70799972e-05 -1.00149992e-05 -4.99999962e-09
atom      3.8331557766    19.1659874151    15.3332364360   Al  0.0 0.0   -3.71399972e-05  9.95999925e-06 -0.00000000e+00
atom      3.8338181724    15.3291209953    19.1701825886   Al  0.0 0.0   -3.25999975e-05 -1.04449992e-04  9.73849927e-05
atom     30.6659576752    19.1706671189    19.1701856553   Al  0.0 0.0    3.26249975e-05  1.04334992e-04  9.73349927e-05
atom      0.0028979817    15.3303016545    22.9997013216   Al  0.0 0.0    4.15699969e-05 -1.71789987e-04  1.24469991e-04
atom      3.8304049940    19.1694833930    22.9997013216   Al  0.0 0.0   -4.14499969e-05  1.71739987e-04  1.24574991e-04
atom      3.8342260365    15.3340030978    26.8339672245   Al  0.0 0.0   -1.42149989e-05 -6.10399954e-05  1.48299989e-05
atom     30.6655467444    19.1657819498    26.8339672245   Al  0.0 0.0    1.44299989e-05  6.10299954e-05  1.48399989e-05
atom      0.0019779875    23.0118636447     0.0000000000   Al  0.0 0.0   -3.07499977e-06  2.96949978e-05  1.99999985e-08
atom      3.7637176821    26.9232066606     0.0000000000   Al  0.0 0.0    1.31784990e-04 -2.57669981e-04  9.99999925e-09
atom      3.8284668729    23.0082572675     3.8277523441   Al  0.0 0.0    3.88499971e-05 -9.53899928e-05 -2.49999981e-08
atom      0.0093992739    26.9158221739     3.7639200808   Al  0.0 0.0   -9.29299930e-05 -1.61194988e-04  2.53049981e-05
atom      0.0021313199    23.0307817918     7.6382363973   Al  0.0 0.0    2.91049978e-05 -2.51149981e-05  3.87799971e-05
atom      3.8271819477    26.8589757331     7.6393955900   Al  0.0 0.0    7.14149946e-05  1.46199989e-04  5.21649961e-05
atom      3.8306871256    23.0013082447    11.4954561552   Al  0.0 0.0   -2.89699978e-05  1.27064990e-04 -1.84814986e-04
atom      0.0021343865    26.8340377574    11.4996267955   Al  0.0 0.0    1.29149990e-05  1.00119992e-04 -1.53489988e-04
atom     30.6651480803    22.9976957342    15.3332364360   Al  0.0 0.0    1.97999985e-05 -4.00399970e-05 -4.99999962e-09
atom      3.8347259000    26.8309803101    15.3332364360   Al  0.0 0.0   -3.38199975e-05  1.03999992e-05 -1.49999989e-08
atom      3.8306871256    23.0013082447    19.1710197833   Al  0.0 0.0   -2.89899978e-05  1.27039990e-04  1.84794986e-04
atom      0.0021343865    26.8340377574    19.1668460764   Al  0.0 0.0    1.29099990e-05  1.00099992e-04  1.53444988e-04
atom      0.0021313199    23.0307817918    23.0282364746   Al  0.0 0.0    2.91449978e-05 -2.51249981e-05 -3.87999971e-05
atom      3.8271819477    26.8589757331    23.0270772819   Al  0.0 0.0    7.14149946e-05  1.46199989e-04 -5.21149961e-05
atom      3.8284668729    23.0082572675    26.8387205278   Al  0.0 0.0    3.88649971e-05 -9.53849928e-05 -1.49999989e-08
atom      0.0093992739    26.9158221739    26.9025527911   Al  0.0 0.0   -9.29349930e-05 -1.61204988e-04 -2.52949981e-05
atom      7.5765753203     0.0695883602     0.0000000000   Al  0.0 0.0    2.57604981e-04 -1.31804990e-04  2.49999981e-08
atom     11.4879183362     3.8313219215     0.0000000000   Al  0.0 0.0   -2.96249978e-05  3.34499975e-06  2.99999977e-08
atom     11.4915277800     0.0048361028     3.8277523441   Al  0.0 0.0    9.53349928e-05 -3.87049971e-05  8.99999932e-08
atom      7.5839536737     3.8239067684     3.7639170142   Al  0.0 0.0    1.61344988e-04  9.29699930e-05  2.54499981e-05
atom      7.6408031811     0.0061210280     7.6393955900   Al  0.0 0.0   -1.46149989e-04 -7.13399946e-05  5.22449961e-05
atom     11.4690032557     3.8311716558     7.6382363973   Al  0.0 0.0    2.50649981e-05 -2.90349978e-05  3.88149971e-05
atom     11.4984737362     0.0026189168    11.4954530886   Al  0.0 0.0   -1.27054990e-04  2.89699978e-05 -1.84809986e-04
atom      7.6657411569     3.8311685892    11.4996267955   Al  0.0 0.0   -1.00059992e-04 -1.27999990e-05 -1.53514988e-04
atom      7.6687986042    30.6650530142    15.3332364360   Al  0.0 0.0   -1.03299992e-05  3.38549975e-05 -4.99999962e-09
atom     11.5020893133     3.8346308340    15.3332364360   Al  0.0 0.0    3.99899970e-05 -1.96799985e-05  1.49999989e-08
atom     11.4984737362     0.0026189168    19.1710197833   Al  0.0 0.0   -1.27079990e-04  2.89799978e-05  1.84734986e-04
atom      7.6657411569     3.8311685892    19.1668460764   Al  0.0 0.0   -1.00054992e-04 -1.27849990e-05  1.53474988e-04
atom      7.6408031811     0.0061210280    23.0270772819   Al  0.0 0.0   -1.46154989e-04 -7.13349946e-05 -5.21799961e-05
atom     11.4690032557     3.8311716558    23.0282364746   Al  0.0 0.0    2.50399981e-05 -2.89999978e-05 -3.87699971e-05
atom     11.4915277800     0.0048361028    26.8387235945   Al  0.0 0.0    9.52999928e-05 -3.86849971e-05 -1.24999991e-07
atom      7.5839536737     3.8239067684    26.9025558577   Al  0.0 0.0    1.61339988e-04  9.29649930e-05 -2.54699981e-05
atom      7.5967845260     7.5967845260     0.0000000000   Al  0.0 0.0    3.52349974e-05  3.52399974e-05  9.99999925e-09
atom     11.4716313724    11.4716313724     0.0000000000   Al  0.0 0.0    8.56099936e-05  8.56099936e-05  3.99999970e-08
atom     11.4921963092     7.6607609217     3.8296260656   Al  0.0 0.0    8.44149937e-05 -7.33849945e-05 -2.84999979e-07
atom      7.6607609217    11.4921963092     3.8296260656   Al  0.0 0.0   -7.33849945e-05  8.44249937e-05 -3.04999977e-07
atom      7.6668236833     7.6668236833     7.6626561097   Al  0.0 0.0   -7.61299943e-05 -7.61099943e-05  9.73199927e-05
atom     11.5052418267    11.5052418267     7.6708593912   Al  0.0 0.0   -9.55699928e-05 -9.55699928e-05 -1.13239991e-04
atom     11.5006817222     7.6640023678    11.4977898738   Al  0.0 0.0   -9.23999931e-05 -2.11949984e-05 -1.41754989e-04
atom      7.6640023678    11.5006817222    11.4977898738   Al  0.0 0.0   -2.11849984e-05 -9.24199931e-05 -1.41759989e-04
atom      7.6669187494     7.6669187494    15.3332364360   Al  0.0 0.0   -1.75049987e-05 -1.75099987e-05  1.99999985e-08
atom     11.4984676029    11.4984676029    15.3332364360   Al  0.0 0.0   -1.80799986e-05 -1.80999986e-05  1.99999985e-08
atom     11.5006817222     7.6640023678    19.1686829981   Al  0.0 0.0   -9.24099931e-05 -2.11849984e-05  1.41714989e-04
atom      7.6640023678    11.5006817222    19.1686829981   Al  0.0 0.0   -2.11699984e-05 -9.24299931e-05  1.41719989e-04
atom      7.6668236833     7.6668236833    23.0038167622   Al  0.0 0.0   -7.61249943e-05 -7.61399943e-05 -9.73149927e-05
atom     11.5052418267    11.5052418267    22.9956134807   Al  0.0 0.0   -9.55799928e-05 -9.55649928e-05  1.13289991e-04
atom     11.4921963092     7.6607609217    26.8368498730   Al  0.0 0.0    8.44199937e-05 -7.33749945e-05  2.29999983e-07
atom      7.6607609217    11.4921963092    26.8368498730   Al  0.0 0.0   -7.33749945e-05  8.44299937e-05  2.34999982e-07
atom      7.6654283588    15.3343925620     0.0000000000   Al  0.0 0.0    4.04999970e-07 -6.76099949e-05  4.49999966e-08
atom     11.4962442836    19.1697317915     0.0000000000   Al  0.0 0.0   -1.00604992e-04  7.38899944e-05  3.49999974e-08
atom     11.5002707915    15.3295932590     3.8306135260   Al  0.0 0.0   -1.23714991e-04 -1.56564988e-04 -4.88049963e-05
atom      7.6681975413    19.1688516637     3.8324473811   Al  0.0 0.0   -1.26989990e-04  1.49849989e-04 -5.10599962e-05
atom      7.6631559732    15.3311817823     7.6665200853   Al  0.0 0.0   -3.73799972e-05 -1.56339988e-04 -1.13284991e-04
atom     11.5002309250    19.1658494160     7.6660140885   Al  0.0 0.0   -1.07499992e-06 -1.89999986e-06 -5.97499955e-06
atom     11.4984093366    15.3342054965    11.5000377263   Al  0.0 0.0   -2.34999982e-05 -8.80499934e-06 -2.02749985e-05
atom      7.6665568850    19.1659383488    11.5016630493   Al  0.0 0.0   -4.90849963e-05  1.78049987e-05  1.83999986e-06
atom      7.6684122066    15.3344876280    15.3332364360   Al  0.0 0.0   -2.89649978e-05 -6.88999948e-06 -0.00000000e+00
atom     11.5023469117    19.1669871422    15.3332364360   Al  0.0 0.0   -5.52999958e-06  1.62699988e-05 -1.49999989e-08
atom     11.4984093366    15.3342054965    19.1664351456   Al  0.0 0.0   -2.35149982e-05 -8.80999934e-06  2.02849985e-05
atom      7.6665568850    19.1659383488    19.1648098226   Al  0.0 0.0   -4.90899963e-05  1.77899987e-05 -1.82999986e-06
atom      7.6631559732    15.3311817823    22.9999527866   Al  0.0 0.0   -3.73899972e-05 -1.56339988e-04  1.13319991e-04
atom     11.5002309250    19.1658494160    23.0004587834   Al  0.0 0.0   -1.06999992e-06 -1.88999986e-06  6.00499955e-06
atom     11.5002707915    15.3295932590    26.8358593459   Al  0.0 0.0   -1.23739991e-04 -1.56574988e-04  4.87399963e-05
atom      7.6681975413    19.1688516637    26.8340285575   Al  0.0 0.0   -1.26994990e-04  1.49854989e-04  5.09999962e-05
atom      7.6373501363    23.0262308872     0.0000000000   Al  0.0 0.0    1.01484992e-04 -3.96899970e-05  1.49999989e-08
atom     11.4735572269    26.8624318446     0.0000000000   Al  0.0 0.0    3.94599970e-05 -1.01544992e-04  3.99999970e-08
atom     11.4998843939    22.9999067869     3.8276327449   Al  0.0 0.0   -2.21824983e-04  2.21599983e-04 -6.21049953e-05
atom      7.6661858207    26.8335961602     3.8267280839   Al  0.0 0.0   -5.34899960e-05  5.33599960e-05  6.04949955e-05
atom      7.6670659485    22.9981587980     7.6709145908   Al  0.0 0.0   -9.70999927e-05  1.94654985e-04 -1.87054986e-04
atom     11.5016262496    26.8327160324     7.6709145908   Al  0.0 0.0   -1.94714985e-04  9.71649927e-05 -1.86924986e-04
atom     11.4986792015    23.0011027794    11.4998107944   Al  0.0 0.0   -1.57999988e-05  1.58449988e-05 -1.83749986e-05
atom      7.6621593128    26.8376196014    11.4923711081   Al  0.0 0.0   -1.03704992e-04  1.03829992e-04 -2.58824981e-04
atom      7.6676823446    23.0001735853    15.3332364360   Al  0.0 0.0   -4.53199966e-05  2.44499982e-06 -4.99999962e-09
atom     11.4996083956    26.8320996363    15.3332364360   Al  0.0 0.0   -2.39499982e-06  4.53999966e-05 -1.99999985e-08
atom     11.4986792015    23.0011027794    19.1666620775   Al  0.0 0.0   -1.58099988e-05  1.58299988e-05  1.83599986e-05
atom      7.6621593128    26.8376196014    19.1741017639   Al  0.0 0.0   -1.03714992e-04  1.03809992e-04  2.58814981e-04
atom      7.6670659485    22.9981587980    22.9955582811   Al  0.0 0.0   -9.70899927e-05  1.94659985e-04  1.87099986e-04
atom     11.5016262496    26.8327160324    22.9955613477   Al  0.0 0.0   -1.94754985e-04  9.71249927e-05  1.86944986e-04
atom     11.4998843939    22.9999067869    26.8388401271   Al  0.0 0.0   -2.21839983e-04  2.21589983e-04  6.20399953e-05
atom      7.6661858207    26.8335961602    26.8397447880   Al  0.0 0.0   -5.34949960e-05  5.33599960e-05 -6.05149955e-05
atom     15.3320251103     0.0011775926     0.0000000000   Al  0.0 0.0   -6.97549948e-05  1.86499986e-06  3.49999974e-08
atom     19.1677599373     3.8321223165     0.0000000000   Al  0.0 0.0    6.97849948e-05 -1.59499988e-06  2.99999977e-08
atom     19.1657819498    30.6655467444     3.8325056474   Al  0.0 0.0    6.10299954e-05  1.44249989e-05 -1.48299989e-05
atom     15.3340030978     3.8342260365     3.8325056474   Al  0.0 0.0   -6.10399954e-05 -1.42299989e-05 -1.48949989e-05
atom     15.3303016545     0.0028979817     7.6667715503   Al  0.0 0.0   -1.71814987e-04  4.15099969e-05 -1.24479991e-04
atom     19.1694833930     3.8304049940     7.6667715503   Al  0.0 0.0    1.71764987e-04 -4.14349969e-05 -1.24569991e-04
atom     19.1706671189    30.6659576752    11.4962872166   Al  0.0 0.0    1.04334992e-04  3.26099975e-05 -9.72899927e-05
atom     15.3291209953     3.8338181724    11.4962902833   Al  0.0 0.0   -1.04459992e-04 -3.25899976e-05 -9.73449927e-05
atom     15.3337976324     0.0001502657    15.3332364360   Al  0.0 0.0   -9.97499925e-06  3.71349972e-05 -4.99999962e-09
atom     19.1659874151     3.8331557766    15.3332364360   Al  0.0 0.0    9.92499925e-06 -3.71799972e-05  1.49999989e-08
atom     19.1706671189    30.6659576752    19.1701856553   Al  0.0 0.0    1.04369992e-04  3.26299975e-05  9.72849927e-05
atom     15.3291209953     3.8338181724    19.1701825886   Al  0.0 0.0   -1.04464992e-04 -3.25749976e-05  9.73199927e-05
atom     15.3303016545     0.0028979817    22.9997013216   Al  0.0 0.0   -1.71804987e-04  4.15499969e-05  1.24489991e-04
atom     19.1694833930     3.8304049940    22.9997013216   Al  0.0 0.0    1.71779987e-04 -4.14049969e-05  1.24589991e-04
atom     19.1657819498    30.6655467444    26.8339672245   Al  0.0 0.0    6.10299954e-05  1.44449989e-05  1.48499989e-05
atom     15.3340030978     3.8342260365    26.8339672245   Al  0.0 0.0   -6.10299954e-05 -1.41899989e-05  1.48449989e-05
atom     15.3343925620     7.6654283588     0.0000000000   Al  0.0 0.0   -6.75949949e-05  3.84999971e-07  2.99999977e-08
atom     19.1697317915    11.4962442836     0.0000000000   Al  0.0 0.0    7.38749944e-05 -1.00604992e-04  3.99999970e-08
atom     19.1688516637     7.6681975413     3.8324473811   Al  0.0 0.0    1.49839989e-04 -1.26999990e-04 -5.10649962e-05
atom     15.3295932590    11.5002707915     3.8306135260   Al  0.0 0.0   -1.56554988e-04 -1.23699991e-04 -4.87899963e-05
atom     15.3311817823     7.6631559732     7.6665200853   Al  0.0 0.0   -1.56344988e-04 -3.73999972e-05 -1.13299991e-04
atom     19.1658494160    11.5002309250     7.6660140885   Al  0.0 0.0   -1.90499986e-06 -1.05499992e-06 -5.98999955e-06
atom     19.1659383488     7.6665568850    11.5016630493   Al  0.0 0.0    1.77849987e-05 -4.91049963e-05  1.85999986e-06
atom     15.3342054965    11.4984093366    11.5000377263   Al  0.0 0.0   -8.80499934e-06 -2.35049982e-05 -2.02599985e-05
atom     15.3344876280     7.6684122066    15.3332364360   Al  0.0 0.0   -6.90999948e-06 -2.89749978e-05  4.99999962e-09
atom     19.1669871422    11.5023469117    15.3332364360   Al  0.0 0.0    1.62649988e-05 -5.51999959e-06 -4.99999962e-09
atom     19.1659383488     7.6665568850    19.1648098226   Al  0.0 0.0    1.77999987e-05 -4.90949963e-05 -1.84499986e-06
atom     15.3342054965    11.4984093366    19.1664351456   Al  0.0 0.0   -8.80499934e-06 -2.35149982e-05  2.02749985e-05
atom     15.3311817823     7.6631559732    22.9999527866   Al  0.0 0.0   -1.56329988e-04 -3.73999972e-05  1.13334991e-04
atom     19.1658494160    11.5002309250    23.0004587834   Al  0.0 0.0   -1.89999986e-06 -1.07499992e-06  5.98999955e-06
atom     19.1688516637     7.6681975413    26.8340285575   Al  0.0 0.0    1.49829989e-04 -1.27004990e-04  5.09999962e-05
atom     15.3295932590    11.5002707915    26.8358593459   Al  0.0 0.0   -1.56569988e-04 -1.23729991e-04  4.87349963e-05
atom     15.3295840590    15.3295840590     0.0000000000   Al  0.0 0.0   -6.27099953e-05 -6.26999953e-05  4.99999962e-08
atom     19.1702071218    19.1702071218     0.0000000000   Al  0.0 0.0    6.25249953e-05  6.25199953e-05  4.49999966e-08
atom     19.1660058150    15.3337853658     3.8339807047   Al  0.0 0.0    1.14499991e-05 -1.16399991e-05 -6.60799950e-05
atom     15.3337853658    19.1660058150     3.8339807047   Al  0.0 0.0   -1.16399991e-05  1.14549991e-05 -6.60949950e-05
atom     15.3333376353    15.3333376353     7.6672284808   Al  0.0 0.0   -2.62749980e-05 -2.62899980e-05 -1.03399992e-05
atom     19.1664504789    19.1664504789     7.6672284808   Al  0.0 0.0    2.61449980e-05  2.61449980e-05 -1.03099992e-05
atom     19.1666896774    15.3330953702    11.4985596023   Al  0.0 0.0   -1.84999986e-06  1.86499986e-06 -1.83049986e-05
atom     15.3330953702    19.1666896774    11.4985596023   Al  0.0 0.0    1.85499986e-06 -1.84499986e-06 -1.83099986e-05
atom     15.3318441781    15.3318441781    15.3332364360   Al  0.0 0.0   -2.32099983e-05 -2.31949983e-05 -1.99999985e-08
atom     19.1679439361    19.1679439361    15.3332364360   Al  0.0 0.0    2.31549983e-05  2.31349983e-05 -2.99999977e-08
atom     19.1666896774    15.3330953702    19.1679132696   Al  0.0 0.0   -1.82999986e-06  1.86499986e-06  1.83349986e-05
atom     15.3330953702    19.1666896774    19.1679132696   Al  0.0 0.0    1.85999986e-06 -1.85999986e-06  1.83349986e-05
atom     15.3333376353    15.3333376353    22.9992443911   Al  0.0 0.0   -2.62749980e-05 -2.62899980e-05  1.03449992e-05
atom     19.1664504789    19.1664504789    22.9992474578   Al  0.0 0.0    2.61449980e-05  2.61499980e-05  1.02849992e-05
atom     19.1660058150    15.3337853658    26.8324921672   Al  0.0 0.0    1.14649991e-05 -1.16449991e-05  6.60299950e-05
atom     15.3337853658    19.1660058150    26.8324921672   Al  0.0 0.0   -1.16349991e-05  1.14799991e-05  6.60449950e-05
atom     15.3300563227    23.0035438306     0.0000000000   Al  0.0 0.0   -7.40149944e-05  1.00404992e-04  3.49999974e-08
atom     19.1653924856    26.8343505554     0.0000000000   Al  0.0 0.0    6.75949949e-05 -3.14999976e-07  2.49999981e-08
atom     19.1701979219    22.9995173227     3.8306135260   Al  0.0 0.0    1.56439988e-04  1.23634991e-04 -4.87199963e-05
atom     15.3309364505    26.8315813729     3.8324443145   Al  0.0 0.0   -1.49889989e-04  1.27049990e-04 -5.08899962e-05
atom     15.3339386982    22.9995541225     7.6660140885   Al  0.0 0.0    1.83999986e-06  1.00999992e-06 -5.85999956e-06
atom     19.1686063319    26.8366229411     7.6665200853   Al  0.0 0.0    1.56254988e-04  3.74949972e-05 -1.13219991e-04
atom     19.1655826177    23.0013757110    11.5000346596   Al  0.0 0.0    8.60499935e-06  2.34949982e-05 -2.01699985e-05
atom     15.3338497654    26.8332220292    11.5016630493   Al  0.0 0.0   -1.79149987e-05  4.91349963e-05  1.92999985e-06
atom     15.3328009720    22.9974381359    15.3332364360   Al  0.0 0.0   -1.62899988e-05  5.52999958e-06 -2.99999977e-08
atom     19.1653004861    26.8313667076    15.3332364360   Al  0.0 0.0    6.72999949e-06  2.90699978e-05 -2.49999981e-08
atom     19.1655826177    23.0013757110    19.1664382123   Al  0.0 0.0    8.61999935e-06  2.34949982e-05  2.01949985e-05
atom     15.3338497654    26.8332220292    19.1648098226   Al  0.0 0.0   -1.78949987e-05  4.91149963e-05 -1.94999985e-06
atom     15.3339386982    22.9995541225    23.0004587834   Al  0.0 0.0    1.81499986e-06  9.69999927e-07  5.90499956e-06
atom     19.1686063319    26.8366229411    22.9999558533   Al  0.0 0.0    1.56279988e-04  3.74899972e-05  1.13174991e-04
atom     19.1701979219    22.9995173227    26.8358624125   Al  0.0 0.0    1.56429988e-04  1.23609991e-04  4.86949963e-05
atom     15.3309364505    26.8315813729    26.8340285575   Al  0.0 0.0   -1.49894989e-04  1.27034990e-04  5.09249962e-05
atom     23.0118636447     0.0019779875     0.0000000000   Al  0.0 0.0    2.96999978e-05 -3.07999977e-06  1.49999989e-08
atom     26.9232066606     3.7637176821     0.0000000000   Al  0.0 0.0   -2.57669981e-04  1.31789990e-04  1.49999989e-08
atom     26.9158221739     0.0093992739     3.7639200808   Al  0.0 0.0   -1.61184988e-04 -9.29399930e-05  2.53149981e-05
atom     23.0082572675     3.8284668729     3.8277523441   Al  0.0 0.0   -9.53949928e-05  3.88549971e-05 -1.99999985e-08
atom     23.0307817918     0.0021313199     7.6382363973   Al  0.0 0.0   -2.51199981e-05  2.91149978e-05  3.87799971e-05
atom     26.8589757331     3.8271819477     7.6393955900   Al  0.0 0.0    1.46194989e-04  7.14149946e-05  5.21299961e-05
atom     26.8340377574     0.0021343865    11.4996267955   Al  0.0 0.0    1.00104992e-04  1.28849990e-05 -1.53479988e-04
atom     23.0013082447     3.8306871256    11.4954561552   Al  0.0 0.0    1.27034990e-04 -2.89999978e-05 -1.84799986e-04
atom     22.9976957342    30.6651480803    15.3332364360   Al  0.0 0.0   -4.00599970e-05  1.97799985e-05  1.99999985e-08
atom     26.8309803101     3.8347259000    15.3332364360   Al  0.0 0.0    1.04149992e-05 -3.38099975e-05  1.99999985e-08
atom     26.8340377574     0.0021343865    19.1668460764   Al  0.0 0.0    1.00074992e-04  1.29249990e-05  1.53459988e-04
atom     23.0013082447     3.8306871256    19.1710197833   Al  0.0 0.0    1.27069990e-04 -2.89949978e-05  1.84784986e-04
atom     23.0307817918     0.0021313199    23.0282364746   Al  0.0 0.0   -2.50999981e-05  2.91399978e-05 -3.88249971e-05
atom     26.8589757331     3.8271819477    23.0270772819   Al  0.0 0.0    1.46179989e-04  7.14199946e-05 -5.21299961e-05
atom     26.9158221739     0.0093992739    26.9025527911   Al  0.0 0.0   -1.61194988e-04 -9.29299930e-05 -2.53149981e-05
atom     23.0082572675     3.8284668729    26.8387205278   Al  0.0 0.0   -9.53649928e-05  3.88749971e-05 -1.99999985e-08
atom     23.0262308872     7.6373501363     0.0000000000   Al  0.0 0.0   -3.96899970e-05  1.01464992e-04  1.49999989e-08
atom     26.8624318446    11.4735572269     0.0000000000   Al  0.0 0.0   -1.01534992e-04  3.94599970e-05  2.99999977e-08
atom     26.8335961602     7.6661858207     3.8267280839   Al  0.0 0.0    5.33899960e-05 -5.34799960e-05  6.04949955e-05
atom     22.9999067869    11.4998843939     3.8276327449   Al  0.0 0.0    2.21599983e-04 -2.21819983e-04 -6.20849953e-05
atom     22.9981587980     7.6670659485     7.6709145908   Al  0.0 0.0    1.94654985e-04 -9.71149927e-05 -1.87069986e-04
atom     26.8327160324    11.5016262496     7.6709145908   Al  0.0 0.0    9.71249927e-05 -1.94734985e-04 -1.86944986e-04
atom     26.8376196014     7.6621593128    11.4923711081   Al  0.0 0.0    1.03829992e-04 -1.03714992e-04 -2.58804981e-04
atom     23.0011027794    11.4986792015    11.4998107944   Al  0.0 0.0    1.58349988e-05 -1.58049988e-05 -1.83549986e-05
atom     23.0001735853     7.6676823446    15.3332364360   Al  0.0 0.0    2.45499982e-06 -4.53149966e-05  4.99999962e-09
atom     26.8320996363    11.4996083956    15.3332364360   Al  0.0 0.0    4.53949966e-05 -2.37499982e-06  4.99999962e-09
atom     26.8376196014     7.6621593128    19.1741017639   Al  0.0 0.0    1.03809992e-04 -1.03709992e-04  2.58819981e-04
atom     23.0011027794    11.4986792015    19.1666620775   Al  0.0 0.0    1.58549988e-05 -1.57849988e-05  1.83649986e-05
atom     22.9981587980     7.6670659485    22.9955582811   Al  0.0 0.0    1.94654985e-04 -9.71099927e-05  1.87084986e-04
atom     26.8327160324    11.5016262496    22.9955613477   Al  0.0 0.0    9.71349927e-05 -1.94724985e-04  1.86904986e-04
atom     26.8335961602     7.6661858207    26.8397447880   Al  0.0 0.0    5.33599960e-05 -5.34999960e-05 -6.05099955e-05
atom     22.9999067869    11.4998843939    26.8388401271   Al  0.0 0.0    2.21584983e-04 -2.21834983e-04  6.20349953e-05
atom     23.0035438306    15.3300563227     0.0000000000   Al  0.0 0.0    1.00414992e-04 -7.39899944e-05  2.99999977e-08
atom     26.8343505554    19.1653924856     0.0000000000   Al  0.0 0.0   -3.29999975e-07  6.76149949e-05  2.99999977e-08
atom     26.8315813729    15.3309364505     3.8324443145   Al  0.0 0.0    1.27054990e-04 -1.49884989e-04 -5.09199962e-05
atom     22.9995173227    19.1701979219     3.8306135260   Al  0.0 0.0    1.23654991e-04  1.56449988e-04 -4.87399963e-05
atom     22.9995541225    15.3339386982     7.6660140885   Al  0.0 0.0    9.84999926e-07  1.83499986e-06 -5.88499956e-06
atom     26.8366229411    19.1686063319     7.6665200853   Al  0.0 0.0    3.74949972e-05  1.56284988e-04 -1.13239991e-04
atom     26.8332220292    15.3338497654    11.5016630493   Al  0.0 0.0    4.90949963e-05 -1.79099987e-05  1.97999985e-06
atom     23.0013757110    19.1655826177    11.5000346596   Al  0.0 0.0    2.34899982e-05  8.61499935e-06 -2.01599985e-05
atom     22.9974381359    15.3328009720    15.3332364360   Al  0.0 0.0    5.55499958e-06 -1.62949988e-05 -0.00000000e+00
atom     26.8313667076    19.1653004861    15.3332364360   Al  0.0 0.0    2.90449978e-05  6.68999950e-06 -1.99999985e-08
atom     26.8332220292    15.3338497654    19.1648098226   Al  0.0 0.0    4.91049963e-05 -1.79149987e-05 -1.92999985e-06
atom     23.0013757110    19.1655826177    19.1664382123   Al  0.0 0.0    2.34899982e-05  8.59499935e-06  2.02099985e-05
atom     22.9995541225    15.3339386982    23.0004587834   Al  0.0 0.0    9.94999925e-07  1.81999986e-06  5.87499956e-06
atom     26.8366229411    19.1686063319    22.9999558533   Al  0.0 0.0    3.74699972e-05  1.56269988e-04  1.13169991e-04
atom     26.8315813729    15.3309364505    26.8340285575   Al  0.0 0.0    1.27044990e-04 -1.49904989e-04  5.09099962e-05
atom     22.9995173227    19.1701979219    26.8358624125   Al  0.0 0.0    1.23644991e-04  1.56444988e-04  4.87049963e-05
atom     23.0281506085    23.0281506085     0.0000000000   Al  0.0 0.0   -8.55849936e-05 -8.56099936e-05  1.99999985e-08
atom     26.9029913217    26.9029913217     0.0000000000   Al  0.0 0.0   -3.49749974e-05 -3.49849974e-05  4.99999962e-09
atom     26.8390149259    23.0075856717     3.8296229989   Al  0.0 0.0    7.34999945e-05 -8.43699937e-05 -2.34999982e-07
atom     23.0075856717    26.8390149259     3.8296229989   Al  0.0 0.0   -8.43499937e-05  7.34999945e-05 -2.04999985e-07
atom     22.9945432208    22.9945432208     7.6708593912   Al  0.0 0.0    9.55999928e-05  9.56049928e-05 -1.13229991e-04
atom     26.8329552309    26.8329552309     7.6626561097   Al  0.0 0.0    7.61349943e-05  7.61299943e-05  9.72799927e-05
atom     26.8357765464    22.9991033253    11.4977898738   Al  0.0 0.0    2.12549984e-05  9.23399931e-05 -1.41749989e-04
atom     22.9991033253    26.8357765464    11.4977898738   Al  0.0 0.0    9.23299931e-05  2.12699984e-05 -1.41754989e-04