begin
comment 256 atoms, species Al255Si
lattice     30.6223318024     0.0000000000     0.0000000000
lattice      0.0000000000    30.6223318024     0.0000000000
lattice      0.0000000000     0.0000000000    30.6223318024
atom     -0.0000000000    -0.0000000000    -0.0000000000   Si  0.0 0.0    4.11381117e-12  4.11377352e-12  4.11361986e-12
atom     -0.0000000000     3.8011033550     3.8011033550   Al  0.0 0.0    5.78012050e-12  9.31675610e-08  9.31675608e-08
atom      3.8011033550    -0.0000000000     3.8011033550   Al  0.0 0.0    9.31675610e-08  5.78009432e-12  9.31675609e-08
atom      3.8011033550     3.8011033550    -0.0000000000   Al  0.0 0.0    9.31675606e-08  9.31675608e-08  5.78027635e-12
atom     -0.0000000000    -0.0000000000     7.6676611950   Al  0.0 0.0    5.45889744e-12  5.45872062e-12 -4.35732709e-07
atom     -0.0000000000     3.8285739804    11.4765050010   Al  0.0 0.0    5.34427994e-12  5.63366592e-07  1.57561140e-07
atom      3.8285739804    -0.0000000000    11.4765050010   Al  0.0 0.0    5.63366592e-07  5.34392059e-12  1.57561140e-07
atom      3.8284593638     3.8284593638     7.6535833935   Al  0.0 0.0    9.14281329e-07  9.14281329e-07 -7.03550823e-07
atom     -0.0000000000    -0.0000000000    15.3111659012   Al  0.0 0.0    5.24359904e-12  5.24364806e-12  3.56246916e-13
atom     -0.0000000000     3.8285739804    19.1458268014   Al  0.0 0.0    5.34381170e-12  5.63366603e-07 -1.57562056e-07
atom      3.8285739804    -0.0000000000    19.1458268014   Al  0.0 0.0    5.63366603e-07  5.34336854e-12 -1.57562057e-07
atom      3.8266872447     3.8266872447    15.3111659012   Al  0.0 0.0   -8.23797395e-07 -8.23797395e-07  3.07039433e-13
atom     -0.0000000000    -0.0000000000    22.9546706074   Al  0.0 0.0    5.45866480e-12  5.45843372e-12  4.35735107e-07
atom     -0.0000000000     3.8011033550    26.8212284475   Al  0.0 0.0    5.78015072e-12  9.31669814e-08 -9.31748708e-08
atom      3.8011033550    -0.0000000000    26.8212284475   Al  0.0 0.0    9.31669814e-08  5.78041541e-12 -9.31748713e-08
atom      3.8284593638     3.8284593638    22.9687484088   Al  0.0 0.0    9.14281306e-07  9.14281305e-07  7.03553193e-07
atom     -0.0000000000     7.6676611950    -0.0000000000   Al  0.0 0.0    5.45894440e-12 -4.35732710e-07  5.45850527e-12
atom     -0.0000000000    11.4765050010     3.8285739804   Al  0.0 0.0    5.34463699e-12  1.57561141e-07  5.63366592e-07
atom      3.8284593638     7.6535833935     3.8284593638   Al  0.0 0.0    9.14281329e-07 -7.03550823e-07  9.14281329e-07
atom      3.8285739804    11.4765050010    -0.0000000000   Al  0.0 0.0    5.63366592e-07  1.57561140e-07  5.34421952e-12
atom     -0.0000000000     7.6529167143     7.6529167143   Al  0.0 0.0    5.32578236e-12  3.28704096e-07  3.28704096e-07
atom     -0.0000000000    11.4836608537    11.4836608537   Al  0.0 0.0    5.34109482e-12 -1.19516426e-08 -1.19516426e-08
atom      3.8280808805     7.6565602644    11.4841537874   Al  0.0 0.0   -9.92501793e-08  1.00398239e-07 -7.47360634e-08
atom      3.8280808805    11.4841537874     7.6565602644   Al  0.0 0.0   -9.92501795e-08 -7.47360634e-08  1.00398238e-07
atom     -0.0000000000     7.6548169933    15.3111659012   Al  0.0 0.0    5.34423271e-12 -5.89464091e-07  3.22967666e-13
atom     -0.0000000000    11.4836608537    19.1386709487   Al  0.0 0.0    5.34146212e-12 -1.19516617e-08  1.19507929e-08
atom      3.8280808805     7.6565602644    19.1381780150   Al  0.0 0.0   -9.92502123e-08  1.00398234e-07  7.47352292e-08
atom      3.8277554624    11.4835291416    15.3111659012   Al  0.0 0.0    1.68565627e-07 -4.30838373e-07  3.16276130e-13
atom     -0.0000000000     7.6529167143    22.9694150881   Al  0.0 0.0    5.32595293e-12  3.28704242e-07 -3.28702002e-07
atom     -0.0000000000    11.4765050010    26.7937578221   Al  0.0 0.0    5.34422057e-12  1.57561341e-07 -5.63373705e-07
atom      3.8284593638     7.6535833935    26.7938724387   Al  0.0 0.0    9.14281421e-07 -7.03550959e-07 -9.14288368e-07
atom      3.8280808805    11.4841537874    22.9657715379   Al  0.0 0.0   -9.92502186e-08 -7.47360836e-08 -1.00395992e-07
atom     -0.0000000000    15.3111659012    -0.0000000000   Al  0.0 0.0    5.24359716e-12  3.56463278e-13  5.24341212e-12
atom     -0.0000000000    19.1458268014     3.8285739804   Al  0.0 0.0    5.34423217e-12 -1.57562057e-07  5.63366603e-07
atom      3.8266872447    15.3111659012     3.8266872447   Al  0.0 0.0   -8.23797395e-07  3.06725379e-13 -8.23797395e-07
atom      3.8285739804    19.1458268014    -0.0000000000   Al  0.0 0.0    5.63366603e-07 -1.57562057e-07  5.34390874e-12
atom     -0.0000000000    15.3111659012     7.6548169933   Al  0.0 0.0    5.34481052e-12  3.22889985e-13 -5.89464091e-07
atom     -0.0000000000    19.1386709487    11.4836608537   Al  0.0 0.0    5.34164186e-12  1.19507932e-08 -1.19516615e-08
atom      3.8277554624    15.3111659012    11.4835291416   Al  0.0 0.0    1.68565626e-07  3.15645976e-13 -4.30838373e-07
atom      3.8280808805    19.1381780150     7.6565602644   Al  0.0 0.0   -9.92502124e-08  7.47352301e-08  1.00398234e-07
atom     -0.0000000000    15.3111659012    15.3111659012   Al  0.0 0.0    5.33784546e-12  3.19218238e-13  3.19391660e-13
atom     -0.0000000000    19.1386709487    19.1386709487   Al  0.0 0.0    5.34086758e-12  1.19508124e-08  1.19508123e-08
atom      3.8277554624    15.3111659012    19.1388026608   Al  0.0 0.0    1.68565631e-07  3.15701297e-13  4.30837486e-07
atom      3.8277554624    19.1388026608    15.3111659012   Al  0.0 0.0    1.68565630e-07  4.30837486e-07  3.15877042e-13
atom     -0.0000000000    15.3111659012    22.9675148091   Al  0.0 0.0    5.34440813e-12  3.23157537e-13  5.89466398e-07
atom     -0.0000000000    19.1458268014    26.7937578221   Al  0.0 0.0    5.34406754e-12 -1.57562258e-07 -5.63373717e-07
atom      3.8266872447    15.3111659012    26.7956445578   Al  0.0 0.0   -8.23797459e-07  3.06935489e-13  8.23790401e-07
atom      3.8280808805    19.1381780150    22.9657715379   Al  0.0 0.0   -9.92502516e-08  7.47352494e-08 -1.00395988e-07
atom     -0.0000000000    22.9546706074    -0.0000000000   Al  0.0 0.0    5.45844404e-12  4.35735107e-07  5.45859708e-12
atom     -0.0000000000    26.8212284475     3.8011033550   Al  0.0 0.0    5.78004763e-12 -9.31748711e-08  9.31669813e-08
atom      3.8284593638    22.9687484088     3.8284593638   Al  0.0 0.0    9.14281306e-07  7.03553194e-07  9.14281306e-07
atom      3.8011033550    26.8212284475    -0.0000000000   Al  0.0 0.0    9.31669817e-08 -9.31748710e-08  5.78064929e-12
atom     -0.0000000000    22.9694150881     7.6529167143   Al  0.0 0.0    5.32598315e-12 -3.28702002e-07  3.28704243e-07
atom     -0.0000000000    26.7937578221    11.4765050010   Al  0.0 0.0    5.34410479e-12 -5.63373705e-07  1.57561341e-07
atom      3.8280808805    22.9657715379    11.4841537874   Al  0.0 0.0   -9.92502185e-08 -1.00395993e-07 -7.47360839e-08
atom      3.8284593638    26.7938724387     7.6535833935   Al  0.0 0.0    9.14281421e-07 -9.14288368e-07 -7.03550960e-07
atom     -0.0000000000    22.9675148091    15.3111659012   Al  0.0 0.0    5.34419061e-12  5.89466397e-07  3.23302858e-13
atom     -0.0000000000    26.7937578221    19.1458268014   Al  0.0 0.0    5.34433473e-12 -5.63373717e-07 -1.57562258e-07
atom      3.8280808805    22.9657715379    19.1381780150   Al  0.0 0.0   -9.92502517e-08 -1.00395987e-07  7.47352494e-08
atom      3.8266872447    26.7956445578    15.3111659012   Al  0.0 0.0   -8.23797459e-07  8.23790402e-07  3.08337001e-13
atom     -0.0000000000    22.9694150881    22.9694150881   Al  0.0 0.0    5.32574026e-12 -3.28702148e-07 -3.28702148e-07
atom     -0.0000000000    26.8212284475    26.8212284475   Al  0.0 0.0    5.77954727e-12 -9.31742915e-08 -9.31742918e-08
atom      3.8284593638    22.9687484088    26.7938724387   Al  0.0 0.0    9.14281397e-07  7.03553330e-07 -9.14288346e-07
atom      3.8284593638    26.7938724387    22.9687484088   Al  0.0 0.0    9.14281397e-07 -9.14288345e-07  7.03553330e-07
atom      7.6676611950    -0.0000000000    -0.0000000000   Al  0.0 0.0   -4.35732709e-07  5.45881357e-12  5.45861716e-12
atom      7.6535833935     3.8284593638     3.8284593638   Al  0.0 0.0   -7.03550823e-07  9.14281329e-07  9.14281329e-07
atom     11.4765050010    -0.0000000000     3.8285739804   Al  0.0 0.0    1.57561140e-07  5.34405206e-12  5.63366592e-07
atom     11.4765050010     3.8285739804    -0.0000000000   Al  0.0 0.0    1.57561140e-07  5.63366592e-07  5.34427282e-12
atom      7.6529167143    -0.0000000000     7.6529167143   Al  0.0 0.0    3.28704096e-07  5.32548462e-12  3.28704096e-07
atom      7.6565602644     3.8280808805    11.4841537874   Al  0.0 0.0    1.00398239e-07 -9.92501787e-08 -7.47360632e-08
atom     11.4836608537    -0.0000000000    11.4836608537   Al  0.0 0.0   -1.19516424e-08  5.34141919e-12 -1.19516426e-08
atom     11.4841537874     3.8280808805     7.6565602644   Al  0.0 0.0   -7.47360635e-08 -9.92501787e-08  1.00398239e-07
atom      7.6548169933    -0.0000000000    15.3111659012   Al  0.0 0.0   -5.89464090e-07  5.34395831e-12  3.23102572e-13
atom      7.6565602644     3.8280808805    19.1381780150   Al  0.0 0.0    1.00398234e-07 -9.92502119e-08  7.47352287e-08
atom     11.4836608537    -0.0000000000    19.1386709487   Al  0.0 0.0   -1.19516619e-08  5.34134028e-12  1.19507929e-08
atom     11.4835291416     3.8277554624    15.3111659012   Al  0.0 0.0   -4.30838374e-07  1.68565627e-07  3.15586720e-13
atom      7.6529167143    -0.0000000000    22.9694150881   Al  0.0 0.0    3.28704242e-07  5.32593660e-12 -3.28702003e-07
atom      7.6535833935     3.8284593638    26.7938724387   Al  0.0 0.0   -7.03550960e-07  9.14281421e-07 -9.14288368e-07
atom     11.4765050010    -0.0000000000    26.7937578221   Al  0.0 0.0    1.57561341e-07  5.34404830e-12 -5.63373705e-07
atom     11.4841537874     3.8280808805    22.9657715379   Al  0.0 0.0   -7.47360833e-08 -9.92502182e-08 -1.00395993e-07
atom      7.6529167143     7.6529167143    -0.0000000000   Al  0.0 0.0    3.28704096e-07  3.28704096e-07  5.32579618e-12
atom      7.6565602644    11.4841537874     3.8280808805   Al  0.0 0.0    1.00398239e-07 -7.47360632e-08 -9.92501792e-08
atom     11.4841537874     7.6565602644     3.8280808805   Al  0.0 0.0   -7.47360635e-08  1.00398239e-07 -9.92501788e-08
atom     11.4836608537    11.4836608537    -0.0000000000   Al  0.0 0.0   -1.19516422e-08 -1.19516425e-08  5.34076868e-12
atom      7.6538506170     7.6538506170     7.6538506170   Al  0.0 0.0   -8.32944028e-07 -8.32944029e-07 -8.32944028e-07
atom      7.6562845036    11.4831973918    11.4831973918   Al  0.0 0.0   -1.52546635e-07 -1.06834316e-07 -1.06834316e-07
atom     11.4831973918     7.6562845036    11.4831973918   Al  0.0 0.0   -1.06834316e-07 -1.52546635e-07 -1.06834316e-07
atom     11.4831973918    11.4831973918     7.6562845036   Al  0.0 0.0   -1.06834316e-07 -1.06834316e-07 -1.52546635e-07
atom      7.6559340916     7.6559340916    15.3111659012   Al  0.0 0.0   -1.42874381e-07 -1.42874382e-07  3.03307867e-13
atom      7.6562845036    11.4831973918    19.1391344106   Al  0.0 0.0   -1.52546631e-07 -1.06834302e-07  1.06833426e-07
atom     11.4831973918     7.6562845036    19.1391344106   Al  0.0 0.0   -1.06834303e-07 -1.52546632e-07  1.06833426e-07
atom     11.4846677740    11.4846677740    15.3111659012   Al  0.0 0.0    1.15828034e-07  1.15828034e-07  3.27882509e-13
atom      7.6538506170     7.6538506170    22.9684811854   Al  0.0 0.0   -8.32944065e-07 -8.32944064e-07  8.32946327e-07
atom      7.6565602644    11.4841537874    26.7942509220   Al  0.0 0.0    1.00398257e-07 -7.47360864e-08  9.92431549e-08
atom     11.4841537874     7.6565602644    26.7942509220   Al  0.0 0.0   -7.47360860e-08  1.00398258e-07  9.92431551e-08
atom     11.4831973918    11.4831973918    22.9660472988   Al  0.0 0.0   -1.06834298e-07 -1.06834299e-07  1.52548914e-07
atom      7.6548169933    15.3111659012    -0.0000000000   Al  0.0 0.0   -5.89464090e-07  3.23125186e-13  5.34405974e-12
atom      7.6565602644    19.1381780150     3.8280808805   Al  0.0 0.0    1.00398234e-07  7.47352288e-08 -9.92502123e-08
atom     11.4835291416    15.3111659012     3.8277554624   Al  0.0 0.0   -4.30838374e-07  3.16268260e-13  1.68565626e-07
atom     11.4836608537    19.1386709487    -0.0000000000   Al  0.0 0.0   -1.19516614e-08  1.19507930e-08  5.34149541e-12
atom      7.6559340916    15.3111659012     7.6559340916   Al  0.0 0.0   -1.42874381e-07  3.03544592e-13 -1.42874382e-07
atom      7.6562845036    19.1391344106    11.4831973918   Al  0.0 0.0   -1.52546632e-07  1.06833426e-07 -1.06834303e-07
atom     11.4846677740    15.3111659012    11.4846677740   Al  0.0 0.0    1.15828034e-07  3.27706968e-13  1.15828034e-07
atom     11.4831973918    19.1391344106     7.6562845036   Al  0.0 0.0   -1.06834303e-07  1.06833426e-07 -1.52546632e-07
atom      7.6565904314    15.3111659012    15.3111659012   Al  0.0 0.0    7.64812182e-07  3.28191643e-13  3.28224314e-13
atom      7.6562845036    19.1391344106    19.1391344106   Al  0.0 0.0   -1.52546628e-07  1.06833412e-07  1.06833413e-07
atom     11.4846677740    15.3111659012    19.1376640284   Al  0.0 0.0    1.15828026e-07  3.28461768e-13 -1.15828916e-07
atom     11.4846677740    19.1376640284    15.3111659012   Al  0.0 0.0    1.15828026e-07 -1.15828916e-07  3.28627536e-13
atom      7.6559340916    15.3111659012    22.9663977108   Al  0.0 0.0   -1.42874349e-07  3.03992747e-13  1.42876639e-07
atom      7.6565602644    19.1381780150    26.7942509220   Al  0.0 0.0    1.00398252e-07  7.47352525e-08  9.92431881e-08
atom     11.4835291416    15.3111659012    26.7945763401   Al  0.0 0.0   -4.30838376e-07  3.15367455e-13 -1.68572690e-07
atom     11.4831973918    19.1391344106    22.9660472988   Al  0.0 0.0   -1.06834285e-07  1.06833409e-07  1.52548910e-07
atom      7.6529167143    22.9694150881    -0.0000000000   Al  0.0 0.0    3.28704242e-07 -3.28702002e-07  5.32564842e-12
atom      7.6535833935    26.7938724387     3.8284593638   Al  0.0 0.0   -7.03550960e-07 -9.14288368e-07  9.14281421e-07
atom     11.4841537874    22.9657715379     3.8280808805   Al  0.0 0.0   -7.47360837e-08 -1.00395993e-07 -9.92502185e-08
atom     11.4765050010    26.7937578221    -0.0000000000   Al  0.0 0.0    1.57561341e-07 -5.63373705e-07  5.34386969e-12
atom      7.6538506170    22.9684811854     7.6538506170   Al  0.0 0.0   -8.32944065e-07  8.32946327e-07 -8.32944064e-07
atom      7.6565602644    26.7942509220    11.4841537874   Al  0.0 0.0    1.00398257e-07  9.92431551e-08 -7.47360868e-08
atom     11.4831973918    22.9660472988    11.4831973918   Al  0.0 0.0   -1.06834298e-07  1.52548914e-07 -1.06834299e-07
atom     11.4841537874    26.7942509220     7.6565602644   Al  0.0 0.0   -7.47360864e-08  9.92431550e-08  1.00398257e-07
atom      7.6559340916    22.9663977108    15.3111659012   Al  0.0 0.0   -1.42874349e-07  1.42876639e-07  3.03506795e-13
atom      7.6565602644    26.7942509220    19.1381780150   Al  0.0 0.0    1.00398251e-07  9.92431884e-08  7.47352520e-08
atom     11.4831973918    22.9660472988    19.1391344106   Al  0.0 0.0   -1.06834285e-07  1.52548910e-07  1.06833409e-07
atom     11.4835291416    26.7945763401    15.3111659012   Al  0.0 0.0   -4.30838376e-07 -1.68572690e-07  3.16443128e-13
atom      7.6538506170    22.9684811854    22.9684811854   Al  0.0 0.0   -8.32944100e-07  8.32946363e-07  8.32946363e-07
atom      7.6535833935    26.7938724387    26.7938724387   Al  0.0 0.0   -7.03551096e-07 -9.14288461e-07 -9.14288460e-07
atom     11.4841537874    22.9657715379    26.7942509220   Al  0.0 0.0   -7.47361068e-08 -1.00396010e-07  9.92431934e-08
atom     11.4841537874    26.7942509220    22.9657715379   Al  0.0 0.0   -7.47361062e-08  9.92431931e-08 -1.00396010e-07
atom     15.3111659012    -0.0000000000    -0.0000000000   Al  0.0 0.0    3.56458466e-13  5.24352955e-12  5.24387100e-12
atom     15.3111659012     3.8266872447     3.8266872447   Al  0.0 0.0    3.06969481e-13 -8.23797395e-07 -8.23797395e-07
atom     19.1458268014    -0.0000000000     3.8285739804   Al  0.0 0.0   -1.57562057e-07  5.34399351e-12  5.63366603e-07
atom     19.1458268014     3.8285739804    -0.0000000000   Al  0.0 0.0   -1.57562057e-07  5.63366603e-07  5.34396059e-12
atom     15.3111659012    -0.0000000000     7.6548169933   Al  0.0 0.0    3.22653684e-13  5.34420676e-12 -5.89464091e-07
atom     15.3111659012     3.8277554624    11.4835291416   Al  0.0 0.0    3.15915430e-13  1.68565627e-07 -4.30838374e-07
atom     19.1386709487    -0.0000000000    11.4836608537   Al  0.0 0.0    1.19507930e-08  5.34138231e-12 -1.19516616e-08
atom     19.1381780150     3.8280808805     7.6565602644   Al  0.0 0.0    7.47352295e-08 -9.92502122e-08  1.00398234e-07
atom     15.3111659012    -0.0000000000    15.3111659012   Al  0.0 0.0    3.19021765e-13  5.33768455e-12  3.19428459e-13
atom     15.3111659012     3.8277554624    19.1388026608   Al  0.0 0.0    3.16590906e-13  1.68565631e-07  4.30837487e-07
atom     19.1386709487    -0.0000000000    19.1386709487   Al  0.0 0.0    1.19508118e-08  5.34108581e-12  1.19508122e-08
atom     19.1388026608     3.8277554624    15.3111659012   Al  0.0 0.0    4.30837486e-07  1.68565631e-07  3.16218794e-13
atom     15.3111659012    -0.0000000000    22.9675148091   Al  0.0 0.0    3.23267998e-13  5.34444707e-12  5.89466398e-07
atom     15.3111659012     3.8266872447    26.7956445578   Al  0.0 0.0    3.07802617e-13 -8.23797458e-07  8.23790401e-07
atom     19.1458268014    -0.0000000000    26.7937578221   Al  0.0 0.0   -1.57562257e-07  5.34387461e-12 -5.63373716e-07
atom     19.1381780150     3.8280808805    22.9657715379   Al  0.0 0.0    7.47352491e-08 -9.92502516e-08 -1.00395987e-07
atom     15.3111659012     7.6548169933    -0.0000000000   Al  0.0 0.0    3.22982676e-13 -5.89464091e-07  5.34375798e-12
atom     15.3111659012    11.4835291416     3.8277554624   Al  0.0 0.0    3.15862255e-13 -4.30838374e-07  1.68565627e-07
atom     19.1381780150     7.6565602644     3.8280808805   Al  0.0 0.0    7.47352292e-08  1.00398234e-07 -9.92502122e-08
atom     19.1386709487    11.4836608537    -0.0000000000   Al  0.0 0.0    1.19507931e-08 -1.19516618e-08  5.34109909e-12
atom     15.3111659012     7.6559340916     7.6559340916   Al  0.0 0.0    3.02970273e-13 -1.42874382e-07 -1.42874382e-07
atom     15.3111659012    11.4846677740    11.4846677740   Al  0.0 0.0    3.28062763e-13  1.15828034e-07  1.15828035e-07
atom     19.1391344106     7.6562845036    11.4831973918   Al  0.0 0.0    1.06833426e-07 -1.52546632e-07 -1.06834302e-07
atom     19.1391344106    11.4831973918     7.6562845036   Al  0.0 0.0    1.06833426e-07 -1.06834302e-07 -1.52546632e-07
atom     15.3111659012     7.6565904314    15.3111659012   Al  0.0 0.0    3.28850087e-13  7.64812183e-07  3.27936062e-13
atom     15.3111659012    11.4846677740    19.1376640284   Al  0.0 0.0    3.28899947e-13  1.15828026e-07 -1.15828916e-07
atom     19.1391344106     7.6562845036    19.1391344106   Al  0.0 0.0    1.06833412e-07 -1.52546628e-07  1.06833412e-07
atom     19.1376640284    11.4846677740    15.3111659012   Al  0.0 0.0   -1.15828916e-07  1.15828026e-07  3.28482924e-13
atom     15.3111659012     7.6559340916    22.9663977108   Al  0.0 0.0    3.02922774e-13 -1.42874349e-07  1.42876639e-07
atom     15.3111659012    11.4835291416    26.7945763401   Al  0.0 0.0    3.15116922e-13 -4.30838376e-07 -1.68572689e-07
atom     19.1381780150     7.6565602644    26.7942509220   Al  0.0 0.0    7.47352522e-08  1.00398252e-07  9.92431884e-08
atom     19.1391344106    11.4831973918    22.9660472988   Al  0.0 0.0    1.06833409e-07 -1.06834285e-07  1.52548909e-07
atom     15.3111659012    15.3111659012    -0.0000000000   Al  0.0 0.0    3.19351643e-13  3.19448508e-13  5.33743957e-12
atom     15.3111659012    19.1388026608     3.8277554624   Al  0.0 0.0    3.16740773e-13  4.30837486e-07  1.68565631e-07
atom     19.1388026608    15.3111659012     3.8277554624   Al  0.0 0.0    4.30837485e-07  3.16250457e-13  1.68565631e-07
atom     19.1386709487    19.1386709487    -0.0000000000   Al  0.0 0.0    1.19508120e-08  1.19508123e-08  5.34070381e-12
atom     15.3111659012    15.3111659012     7.6565904314   Al  0.0 0.0    3.28531873e-13  3.28133559e-13  7.64812182e-07
atom     15.3111659012    19.1376640284    11.4846677740   Al  0.0 0.0    3.28956318e-13 -1.15828916e-07  1.15828026e-07
atom     19.1376640284    15.3111659012    11.4846677740   Al  0.0 0.0   -1.15828916e-07  3.28885848e-13  1.15828026e-07
atom     19.1391344106    19.1391344106     7.6562845036   Al  0.0 0.0    1.06833412e-07  1.06833412e-07 -1.52546628e-07
atom     15.3111659012    15.3111659012    15.3111659012   Al  0.0 0.0    3.26261870e-13  3.26164508e-13  3.26076609e-13
atom     15.3111659012    19.1376640284    19.1376640284   Al  0.0 0.0    3.27716835e-13 -1.15828907e-07 -1.15828908e-07
atom     19.1376640284    15.3111659012    19.1376640284   Al  0.0 0.0   -1.15828908e-07  3.27608341e-13 -1.15828908e-07
atom     19.1376640284    19.1376640284    15.3111659012   Al  0.0 0.0   -1.15828908e-07 -1.15828908e-07  3.27464895e-13
atom     15.3111659012    15.3111659012    22.9657413710   Al  0.0 0.0    3.28272324e-13  3.27277011e-13 -7.64809894e-07
atom     15.3111659012    19.1388026608    26.7945763401   Al  0.0 0.0    3.16344176e-13  4.30837488e-07 -1.68572693e-07
atom     19.1388026608    15.3111659012    26.7945763401   Al  0.0 0.0    4.30837488e-07  3.16780029e-13 -1.68572695e-07
atom     19.1391344106    19.1391344106    22.9660472988   Al  0.0 0.0    1.06833395e-07  1.06833395e-07  1.52548906e-07
atom     15.3111659012    22.9675148091    -0.0000000000   Al  0.0 0.0    3.23157786e-13  5.89466397e-07  5.34419012e-12
atom     15.3111659012    26.7956445578     3.8266872447   Al  0.0 0.0    3.07792952e-13  8.23790401e-07 -8.23797459e-07
atom     19.1381780150    22.9657715379     3.8280808805   Al  0.0 0.0    7.47352490e-08 -1.00395987e-07 -9.92502515e-08
atom     19.1458268014    26.7937578221    -0.0000000000   Al  0.0 0.0   -1.57562258e-07 -5.63373717e-07  5.34402759e-12
atom     15.3111659012    22.9663977108     7.6559340916   Al  0.0 0.0    3.03665306e-13  1.42876639e-07 -1.42874348e-07
atom     15.3111659012    26.7945763401    11.4835291416   Al  0.0 0.0    3.16403170e-13 -1.68572691e-07 -4.30838376e-07
atom     19.1391344106    22.9660472988    11.4831973918   Al  0.0 0.0    1.06833408e-07  1.52548910e-07 -1.06834285e-07
atom     19.1381780150    26.7942509220     7.6565602644   Al  0.0 0.0    7.47352522e-08  9.92431878e-08  1.00398252e-07
atom     15.3111659012    22.9657413710    15.3111659012   Al  0.0 0.0    3.28180000e-13 -7.64809895e-07  3.27845963e-13
atom     15.3111659012    26.7945763401    19.1388026608   Al  0.0 0.0    3.15603339e-13 -1.68572695e-07  4.30837487e-07
atom     19.1391344106    22.9660472988    19.1391344106   Al  0.0 0.0    1.06833395e-07  1.52548906e-07  1.06833395e-07
atom     19.1388026608    26.7945763401    15.3111659012   Al  0.0 0.0    4.30837488e-07 -1.68572694e-07  3.16151057e-13
atom     15.3111659012    22.9663977108    22.9663977108   Al  0.0 0.0    3.03630973e-13  1.42876606e-07  1.42876605e-07
atom     15.3111659012    26.7956445578    26.7956445578   Al  0.0 0.0    3.07633942e-13  8.23790465e-07  8.23790466e-07
atom     19.1381780150    22.9657715379    26.7942509220   Al  0.0 0.0    7.47352727e-08 -1.00396005e-07  9.92432279e-08
atom     19.1381780150    26.7942509220    22.9657715379   Al  0.0 0.0    7.47352719e-08  9.92432276e-08 -1.00396005e-07
atom     22.9546706074    -0.0000000000    -0.0000000000   Al  0.0 0.0    4.35735107e-07  5.45850034e-12  5.45870840e-12
atom     22.9687484088     3.8284593638     3.8284593638   Al  0.0 0.0    7.03553193e-07  9.14281306e-07  9.14281306e-07
atom     26.8212284475    -0.0000000000     3.8011033550   Al  0.0 0.0   -9.31748711e-08  5.77996667e-12  9.31669816e-08
atom     26.8212284475     3.8011033550    -0.0000000000   Al  0.0 0.0   -9.31748709e-08  9.31669816e-08  5.78021394e-12
atom     22.9694150881    -0.0000000000     7.6529167143   Al  0.0 0.0   -3.28702002e-07  5.32553366e-12  3.28704242e-07
atom     22.9657715379     3.8280808805    11.4841537874   Al  0.0 0.0   -1.00395992e-07 -9.92502183e-08 -7.47360832e-08
atom     26.7937578221    -0.0000000000    11.4765050010   Al  0.0 0.0   -5.63373705e-07  5.34397039e-12  1.57561341e-07
atom     26.7938724387     3.8284593638     7.6535833935   Al  0.0 0.0   -9.14288368e-07  9.14281421e-07 -7.03550960e-07
atom     22.9675148091    -0.0000000000    15.3111659012   Al  0.0 0.0    5.89466398e-07  5.34441846e-12  3.23254235e-13
atom     22.9657715379     3.8280808805    19.1381780150   Al  0.0 0.0   -1.00395987e-07 -9.92502517e-08  7.47352493e-08
atom     26.7937578221    -0.0000000000    19.1458268014   Al  0.0 0.0   -5.63373717e-07  5.34476748e-12 -1.57562258e-07
atom     26.7956445578     3.8266872447    15.3111659012   Al  0.0 0.0    8.23790402e-07 -8.23797459e-07  3.07403083e-13
atom     22.9694150881    -0.0000000000    22.9694150881   Al  0.0 0.0   -3.28702148e-07  5.32604745e-12 -3.28702148e-07
atom     22.9687484088     3.8284593638    26.7938724387   Al  0.0 0.0    7.03553330e-07  9.14281398e-07 -9.14288345e-07
atom     26.8212284475    -0.0000000000    26.8212284475   Al  0.0 0.0   -9.31742912e-08  5.78012907e-12 -9.31742919e-08
atom     26.7938724387     3.8284593638    22.9687484088   Al  0.0 0.0   -9.14288345e-07  9.14281398e-07  7.03553330e-07
atom     22.9694150881     7.6529167143    -0.0000000000   Al  0.0 0.0   -3.28702002e-07  3.28704242e-07  5.32564564e-12
atom     22.9657715379    11.4841537874     3.8280808805   Al  0.0 0.0   -1.00395993e-07 -7.47360838e-08 -9.92502185e-08
atom     26.7938724387     7.6535833935     3.8284593638   Al  0.0 0.0   -9.14288369e-07 -7.03550960e-07  9.14281421e-07
atom     26.7937578221    11.4765050010    -0.0000000000   Al  0.0 0.0   -5.63373706e-07  1.57561341e-07  5.34377725e-12
atom     22.9684811854     7.6538506170     7.6538506170   Al  0.0 0.0    8.32946327e-07 -8.32944064e-07 -8.32944064e-07
atom     22.9660472988    11.4831973918    11.4831973918   Al  0.0 0.0    1.52548914e-07 -1.06834298e-07 -1.06834298e-07
atom     26.7942509220     7.6565602644    11.4841537874   Al  0.0 0.0    9.92431543e-08  1.00398257e-07 -7.47360868e-08
atom     26.7942509220    11.4841537874     7.6565602644   Al  0.0 0.0    9.92431546e-08 -7.47360866e-08  1.00398257e-07
atom     22.9663977108     7.6559340916    15.3111659012   Al  0.0 0.0    1.42876639e-07 -1.42874349e-07  3.03545144e-13
atom     22.9660472988    11.4831973918    19.1391344106   Al  0.0 0.0    1.52548910e-07 -1.06834285e-07  1.06833409e-07
atom     26.7942509220     7.6565602644    19.1381780150   Al  0.0 0.0    9.92431878e-08  1.00398252e-07  7.47352526e-08
atom     26.7945763401    11.4835291416    15.3111659012   Al  0.0 0.0   -1.68572690e-07 -4.30838376e-07  3.15699749e-13
atom     22.9684811854     7.6538506170    22.9684811854   Al  0.0 0.0    8.32946363e-07 -8.32944101e-07  8.32946363e-07
atom     22.9657715379    11.4841537874    26.7942509220   Al  0.0 0.0   -1.00396010e-07 -7.47361066e-08  9.92431943e-08
atom     26.7938724387     7.6535833935    26.7938724387   Al  0.0 0.0   -9.14288461e-07 -7.03551096e-07 -9.14288461e-07
atom     26.7942509220    11.4841537874    22.9657715379   Al  0.0 0.0    9.92431945e-08 -7.47361066e-08 -1.00396011e-07
atom     22.9675148091    15.3111659012    -0.0000000000   Al  0.0 0.0    5.89466397e-07  3.23033252e-13  5.34411643e-12
atom     22.9657715379    19.1381780150     3.8280808805   Al  0.0 0.0   -1.00395987e-07  7.47352493e-08 -9.92502518e-08
atom     26.7956445578    15.3111659012     3.8266872447   Al  0.0 0.0    8.23790402e-07  3.07204766e-13 -8.23797459e-07
atom     26.7937578221    19.1458268014    -0.0000000000   Al  0.0 0.0   -5.63373717e-07 -1.57562258e-07  5.34403477e-12
atom     22.9663977108    15.3111659012     7.6559340916   Al  0.0 0.0    1.42876639e-07  3.03585051e-13 -1.42874348e-07
atom     22.9660472988    19.1391344106    11.4831973918   Al  0.0 0.0    1.52548910e-07  1.06833408e-07 -1.06834285e-07
atom     26.7945763401    15.3111659012    11.4835291416   Al  0.0 0.0   -1.68572690e-07  3.16250948e-13 -4.30838375e-07
atom     26.7942509220    19.1381780150     7.6565602644   Al  0.0 0.0    9.92431872e-08  7.47352526e-08  1.00398252e-07
atom     22.9657413710    15.3111659012    15.3111659012   Al  0.0 0.0   -7.64809895e-07  3.28308642e-13  3.28302461e-13
atom     22.9660472988    19.1391344106    19.1391344106   Al  0.0 0.0    1.52548907e-07  1.06833395e-07  1.06833395e-07
atom     26.7945763401    15.3111659012    19.1388026608   Al  0.0 0.0   -1.68572695e-07  3.16997029e-13  4.30837488e-07
atom     26.7945763401    19.1388026608    15.3111659012   Al  0.0 0.0   -1.68572694e-07  4.30837488e-07  3.16146140e-13
atom     22.9663977108    15.3111659012    22.9663977108   Al  0.0 0.0    1.42876606e-07  3.03928639e-13  1.42876606e-07
atom     22.9657715379    19.1381780150    26.7942509220   Al  0.0 0.0   -1.00396006e-07  7.47352718e-08  9.92432274e-08
atom     26.7956445578    15.3111659012    26.7956445578   Al  0.0 0.0    8.23790466e-07  3.07507495e-13  8.23790466e-07
atom     26.7942509220    19.1381780150    22.9657715379   Al  0.0 0.0    9.92432276e-08  7.47352717e-08 -1.00396005e-07
atom     22.9694150881    22.9694150881    -0.0000000000   Al  0.0 0.0   -3.28702148e-07 -3.28702148e-07  5.32586486e-12
atom     22.9687484088    26.7938724387     3.8284593638   Al  0.0 0.0    7.03553330e-07 -9.14288345e-07  9.14281398e-07
atom     26.7938724387    22.9687484088     3.8284593638   Al  0.0 0.0   -9.14288345e-07  7.03553330e-07  9.14281398e-07
atom     26.8212284475    26.8212284475    -0.0000000000   Al  0.0 0.0   -9.31742917e-08 -9.31742920e-08  5.78029824e-12
atom     22.9684811854    22.9684811854     7.6538506170   Al  0.0 0.0    8.32946363e-07  8.32946363e-07 -8.32944101e-07
atom     22.9657715379    26.7942509220    11.4841537874   Al  0.0 0.0   -1.00396010e-07  9.92431938e-08 -7.47361065e-08