begin
comment 107 atoms, species Al107
lattice     22.9397626897     0.0000000000     0.0000000000
lattice      0.0000000000    22.9397626897     0.0000000000
lattice      0.0000000000     0.0000000000    22.9397626897
atom     -0.0017875307    -0.0017875307    -0.0061139434   Al  0.0 0.0   -1.69874402e-07 -1.69874403e-07 -7.17541148e-07
atom     -0.0028490691     3.8234165772     3.8232937816   Al  0.0 0.0    2.88812826e-07  7.49759036e-08  1.90913656e-13
atom      3.8234165772    -0.0028490691     3.8232937816   Al  0.0 0.0    7.49759035e-08  2.88812827e-07  1.89658040e-13
atom      3.8241529243     3.8241529243     0.0008591427   Al  0.0 0.0    2.64407956e-07  2.64407957e-07  2.64408051e-07
atom     -0.0017875307    -0.0017875307     7.6527015066   Al  0.0 0.0   -1.69874380e-07 -1.69874380e-07  7.17541257e-07
atom     -0.0017875307     3.8171798383    11.4716688756   Al  0.0 0.0   -1.69874382e-07 -7.17540950e-07  1.69874355e-07
atom      3.8171798383    -0.0017875307    11.4716688756   Al  0.0 0.0   -7.17540950e-07 -1.69874381e-07  1.69874354e-07
atom      3.8241529243     3.8241529243     7.6457284206   Al  0.0 0.0    2.64407976e-07  2.64407976e-07 -2.64407660e-07
atom     -0.0646442460    -0.0646442460    15.2931751265   Al  0.0 0.0   -2.13541622e-07 -2.13541622e-07 -2.04308756e-13
atom     -0.0017875307     3.8171798382    19.1146813774   Al  0.0 0.0   -1.69874266e-07 -7.17540847e-07 -1.69874499e-07
atom      3.8171798382    -0.0017875307    19.1146813774   Al  0.0 0.0   -7.17540847e-07 -1.69874266e-07 -1.69874499e-07
atom      3.8096588468     3.8096588468    15.2931751265   Al  0.0 0.0   -5.32653426e-07 -5.32653426e-07 -2.13938572e-13
atom     -0.0028490691     7.6465875632     0.0001227956   Al  0.0 0.0    2.88812935e-07  3.05228215e-13  7.49761293e-08
atom     -0.0028490691    11.4697585493     3.8232937816   Al  0.0 0.0    2.88812825e-07 -7.49756789e-08  1.89372751e-13
atom      3.8217160847     7.6465875632     3.8232937816   Al  0.0 0.0   -2.94130277e-08  3.04600204e-13  2.57166082e-13
atom      3.8241529243    11.4690222022     0.0008591427   Al  0.0 0.0    2.64407956e-07 -2.64407729e-07  2.64408048e-07
atom     -0.0028490691     7.6465875632     7.6464647677   Al  0.0 0.0    2.88812961e-07  3.05212562e-13 -7.49757096e-08
atom     -0.0017875307    11.4759952883    11.4716688756   Al  0.0 0.0   -1.69874382e-07  7.17541170e-07  1.69874354e-07
atom      3.8234165772     7.6465875632    11.4727304139   Al  0.0 0.0    7.49760080e-08  3.05030663e-13 -2.88813010e-07
atom      3.8241529243    11.4690222022     7.6457284206   Al  0.0 0.0    2.64407976e-07 -2.64407749e-07 -2.64407661e-07
atom     -0.0009951091     7.6465875632    15.2931751265   Al  0.0 0.0    1.14187271e-06  3.02758678e-13 -2.13211186e-13
atom     -0.0017875307    11.4759952883    19.1146813774   Al  0.0 0.0   -1.69874266e-07  7.17541067e-07 -1.69874500e-07
atom      3.8234165772     7.6465875632    19.1136198390   Al  0.0 0.0    7.49758879e-08  3.05258172e-13  2.88812907e-07
atom      3.8096588468    11.4835162797    15.2931751265   Al  0.0 0.0   -5.32653426e-07  5.32653643e-07 -2.15063353e-13
atom     -0.0017875307    15.2949626572    -0.0061139434   Al  0.0 0.0   -1.69874388e-07  1.69874169e-07 -7.17541128e-07
atom     -0.0009951091    19.1164689081     3.8232937816   Al  0.0 0.0    1.14187274e-06 -3.05076696e-13  1.78321726e-14
atom      3.8234165772    15.2960241956     3.8232937816   Al  0.0 0.0    7.49759064e-08 -2.88813059e-07  1.91186439e-13
atom      3.8096588468    19.1164689081    -0.0136349349   Al  0.0 0.0   -5.32653406e-07 -3.07492202e-13 -5.32653643e-07
atom     -0.0017875307    15.2949626572     7.6527015066   Al  0.0 0.0   -1.69874365e-07  1.69874146e-07  7.17541239e-07
atom     -0.0646442460    19.1164689081    11.5345255908   Al  0.0 0.0   -2.13541547e-07 -3.06349095e-13  2.13541445e-07
atom      3.8171798383    15.2949626572    11.4716688756   Al  0.0 0.0   -7.17540931e-07  1.69874148e-07  1.69874341e-07
atom      3.8096588468    19.1164689081     7.6602224981   Al  0.0 0.0   -5.32653379e-07 -3.07506031e-13  5.32653678e-07
atom     -0.0646442460    15.3578193724    15.2931751265   Al  0.0 0.0   -2.13541632e-07  2.13541356e-07 -2.03344282e-13
atom     -0.0646442460    19.1164689081    19.0518246621   Al  0.0 0.0   -2.13541567e-07 -3.05992910e-13 -2.13541794e-07
atom      3.8171798382    15.2949626572    19.1146813774   Al  0.0 0.0   -7.17540827e-07  1.69874032e-07 -1.69874483e-07
atom      3.8062578043    19.1164689081    15.2931751265   Al  0.0 0.0    1.91298904e-06 -2.97371468e-13 -2.18685408e-13
atom      7.6465875632    -0.0028490691     0.0001227956   Al  0.0 0.0    3.05173025e-13  2.88812935e-07  7.49761283e-08
atom      7.6465875632     3.8217160847     3.8232937816   Al  0.0 0.0    3.04613024e-13 -2.94130278e-08  2.57485434e-13
atom     11.4697585493    -0.0028490691     3.8232937816   Al  0.0 0.0   -7.49756789e-08  2.88812825e-07  1.89018995e-13
atom     11.4690222022     3.8241529243     0.0008591427   Al  0.0 0.0   -2.64407729e-07  2.64407956e-07  2.64408050e-07
atom      7.6465875632    -0.0028490691     7.6464647677   Al  0.0 0.0    3.05121208e-13  2.88812961e-07 -7.49757104e-08
atom      7.6465875632     3.8234165772    11.4727304139   Al  0.0 0.0    3.05091791e-13  7.49760081e-08 -2.88813010e-07
atom     11.4759952883    -0.0017875307    11.4716688756   Al  0.0 0.0    7.17541170e-07 -1.69874382e-07  1.69874353e-07
atom     11.4690222022     3.8241529243     7.6457284206   Al  0.0 0.0   -2.64407749e-07  2.64407976e-07 -2.64407660e-07
atom      7.6465875632    -0.0009951091    15.2931751265   Al  0.0 0.0    3.02778110e-13  1.14187271e-06 -2.14219780e-13
atom      7.6465875632     3.8234165772    19.1136198390   Al  0.0 0.0    3.05258307e-13  7.49758880e-08  2.88812908e-07
atom     11.4759952883    -0.0017875307    19.1146813774   Al  0.0 0.0    7.17541067e-07 -1.69874266e-07 -1.69874501e-07
atom     11.4835162797     3.8096588468    15.2931751265   Al  0.0 0.0    5.32653643e-07 -5.32653426e-07 -2.14478584e-13
atom      7.6465875632     7.6465875632    -0.0015776970   Al  0.0 0.0    3.04529091e-13  3.04673726e-13 -2.94135776e-08
atom      7.6465875632    11.4714590418     3.8232937816   Al  0.0 0.0    3.04697766e-13  2.94132630e-08  2.56083943e-13
atom     11.4714590418     7.6465875632     3.8232937816   Al  0.0 0.0    2.94132628e-08  3.04502925e-13  2.56174380e-13
atom     11.4690222022    11.4690222022     0.0008591427   Al  0.0 0.0   -2.64407729e-07 -2.64407729e-07  2.64408048e-07
atom      7.6465875632     7.6465875632     7.6481652602   Al  0.0 0.0    3.04456223e-13  3.04670606e-13  2.94134162e-08
atom      7.6465875632    11.4697585493    11.4727304139   Al  0.0 0.0    3.05196774e-13 -7.49757833e-08 -2.88813010e-07
atom     11.4697585493     7.6465875632    11.4727304139   Al  0.0 0.0   -7.49757834e-08  3.05277561e-13 -2.88813010e-07
atom     11.4690222022    11.4690222022     7.6457284206   Al  0.0 0.0   -2.64407749e-07 -2.64407749e-07 -2.64407661e-07
atom      7.6465875632     7.6465875632    15.2931751265   Al  0.0 0.0    3.00671696e-13  3.00774851e-13 -2.50594418e-13
atom      7.6465875632    11.4697585493    19.1136198390   Al  0.0 0.0    3.05154403e-13 -7.49756633e-08  2.88812905e-07
atom     11.4697585493     7.6465875632    19.1136198390   Al  0.0 0.0   -7.49756632e-08  3.05044115e-13  2.88812905e-07
atom     11.4835162797    11.4835162797    15.2931751265   Al  0.0 0.0    5.32653643e-07  5.32653642e-07 -2.15826144e-13
atom      7.6465875632    15.2960241956     0.0001227956   Al  0.0 0.0    3.05055627e-13 -2.88813167e-07  7.49761329e-08
atom      7.6465875632    19.1164689081     3.8232937816   Al  0.0 0.0    3.00841990e-13 -3.08027790e-13  1.77529831e-13
atom     11.4697585493    15.2960241956     3.8232937816   Al  0.0 0.0   -7.49756820e-08 -2.88813057e-07  1.90169584e-13
atom     11.4835162797    19.1164689081    -0.0136349349   Al  0.0 0.0    5.32653623e-07 -3.07440236e-13 -5.32653642e-07
atom      7.6465875632    15.2960241956     7.6464647677   Al  0.0 0.0    3.05414297e-13 -2.88813193e-07 -7.49757123e-08
atom      7.6465875632    19.1164689081    11.4708764539   Al  0.0 0.0    3.02927083e-13 -3.04983289e-13 -1.14187277e-06
atom     11.4759952883    15.2949626572    11.4716688756   Al  0.0 0.0    7.17541151e-07  1.69874148e-07  1.69874340e-07
atom     11.4835162797    19.1164689081     7.6602224981   Al  0.0 0.0    5.32653596e-07 -3.07397549e-13  5.32653676e-07
atom      7.6465875632    15.2941702356    15.2931751265   Al  0.0 0.0    3.02639121e-13 -1.14187294e-06 -2.12753477e-13
atom      7.6465875632    19.1164689081    19.1154737990   Al  0.0 0.0    3.02536837e-13 -3.04909596e-13  1.14187263e-06
atom     11.4759952883    15.2949626572    19.1146813774   Al  0.0 0.0    7.17541047e-07  1.69874032e-07 -1.69874484e-07
atom     11.4869173222    19.1164689081    15.2931751265   Al  0.0 0.0   -1.91298880e-06 -2.97121724e-13 -2.19514521e-13
atom     15.2949626572    -0.0017875307    -0.0061139434   Al  0.0 0.0    1.69874169e-07 -1.69874388e-07 -7.17541128e-07
atom     15.2960241956     3.8234165772     3.8232937816   Al  0.0 0.0   -2.88813058e-07  7.49759065e-08  1.91986984e-13
atom     19.1164689081    -0.0009951091     3.8232937816   Al  0.0 0.0   -3.05050906e-13  1.14187274e-06  1.76152183e-14
atom     19.1164689081     3.8096588468    -0.0136349349   Al  0.0 0.0   -3.07701750e-13 -5.32653406e-07 -5.32653641e-07
atom     15.2949626572    -0.0017875307     7.6527015066   Al  0.0 0.0    1.69874146e-07 -1.69874365e-07  7.17541238e-07
atom     15.2949626572     3.8171798383    11.4716688756   Al  0.0 0.0    1.69874148e-07 -7.17540931e-07  1.69874341e-07
atom     19.1164689081    -0.0646442460    11.5345255908   Al  0.0 0.0   -3.06105928e-13 -2.13541546e-07  2.13541445e-07
atom     19.1164689081     3.8096588468     7.6602224981   Al  0.0 0.0   -3.07606132e-13 -5.32653379e-07  5.32653678e-07
atom     15.3578193724    -0.0646442460    15.2931751265   Al  0.0 0.0    2.13541356e-07 -2.13541632e-07 -2.03615954e-13
atom     15.2949626572     3.8171798382    19.1146813774   Al  0.0 0.0    1.69874032e-07 -7.17540827e-07 -1.69874482e-07
atom     19.1164689081    -0.0646442460    19.0518246621   Al  0.0 0.0   -3.05984689e-13 -2.13541567e-07 -2.13541795e-07
atom     19.1164689081     3.8062578043    15.2931751265   Al  0.0 0.0   -2.97402581e-13  1.91298904e-06 -2.17399097e-13
atom     15.2960241956     7.6465875632     0.0001227956   Al  0.0 0.0   -2.88813167e-07  3.04926801e-13  7.49761331e-08
atom     15.2960241956    11.4697585493     3.8232937816   Al  0.0 0.0   -2.88813057e-07 -7.49756819e-08  1.90450028e-13
atom     19.1164689081     7.6465875632     3.8232937816   Al  0.0 0.0   -3.07783682e-13  3.00595100e-13  1.78388729e-13
atom     19.1164689081    11.4835162797    -0.0136349349   Al  0.0 0.0   -3.07422850e-13  5.32653623e-07 -5.32653642e-07
atom     15.2960241956     7.6465875632     7.6464647677   Al  0.0 0.0   -2.88813193e-07  3.05272041e-13 -7.49757116e-08
atom     15.2949626572    11.4759952883    11.4716688756   Al  0.0 0.0    1.69874148e-07  7.17541151e-07  1.69874340e-07
atom     19.1164689081     7.6465875632    11.4708764539   Al  0.0 0.0   -3.04915738e-13  3.02827086e-13 -1.14187276e-06
atom     19.1164689081    11.4835162797     7.6602224981   Al  0.0 0.0   -3.07521280e-13  5.32653596e-07  5.32653676e-07
atom     15.2941702356     7.6465875632    15.2931751265   Al  0.0 0.0   -1.14187295e-06  3.02793421e-13 -2.12475870e-13
atom     15.2949626572    11.4759952883    19.1146813774   Al  0.0 0.0    1.69874032e-07  7.17541047e-07 -1.69874484e-07
atom     19.1164689081     7.6465875632    19.1154737990   Al  0.0 0.0   -3.04978330e-13  3.02714763e-13  1.14187263e-06
atom     19.1164689081    11.4869173222    15.2931751265   Al  0.0 0.0   -2.97248795e-13 -1.91298880e-06 -2.18903450e-13
atom     15.2949626572    15.2949626572    -0.0061139434   Al  0.0 0.0    1.69874154e-07  1.69874154e-07 -7.17541108e-07
atom     15.2941702355    19.1164689081     3.8232937816   Al  0.0 0.0   -1.14187297e-06 -3.04817700e-13  1.84770040e-14
atom     19.1164689081    15.2941702355     3.8232937816   Al  0.0 0.0   -3.04774486e-13 -1.14187297e-06  1.89572334e-14
atom     19.1164689081    19.1164689081    -0.0170359774   Al  0.0 0.0   -2.97471834e-13 -2.97413293e-13  1.91298899e-06
atom     15.2949626572    15.2949626572     7.6527015066   Al  0.0 0.0    1.69874131e-07  1.69874131e-07  7.17541220e-07
atom     15.3578193724    19.1164689081    11.5345255908   Al  0.0 0.0    2.13541281e-07 -3.06206313e-13  2.13541455e-07
atom     19.1164689081    15.3578193724    11.5345255908   Al  0.0 0.0   -3.06005246e-13  2.13541281e-07  2.13541455e-07
atom     19.1164689081    19.1164689081     7.6636235406   Al  0.0 0.0   -2.97523658e-13 -2.97279346e-13 -1.91298874e-06
atom     15.3578193724    15.3578193724    15.2931751265   Al  0.0 0.0    2.13541366e-07  2.13541366e-07 -2.02463618e-13
atom     15.3578193724    19.1164689081    19.0518246621   Al  0.0 0.0    2.13541301e-07 -3.06109757e-13 -2.13541803e-07
atom     19.1164689081    15.3578193724    19.0518246621   Al  0.0 0.0   -3.06211230e-13  2.13541301e-07 -2.13541803e-07
energy -2.113360059918146e+03
charge 0.0000
end
