begin
comment 4 atoms, species Al4
lattice      7.6555829506     0.0000000000    -0.0000000000
lattice      0.0000000000     7.6555829506    -0.0000000000
lattice     -0.0000000000    -0.0000000000     7.6555829506
atom      0.0000000000     0.0000000000     0.0000000000   Al  0.0 0.0    2.01298099e-14  2.00858760e-14  2.00951912e-14
atom     -0.0000000000     3.8277914753     3.8277914753   Al  0.0 0.0    2.01057906e-14 -2.01038524e-14 -2.00684433e-14
atom      3.8277914753    -0.0000000000     3.8277914753   Al  0.0 0.0   -2.01133473e-14  2.01173719e-14 -2.01024166e-14
atom      3.8277914753     3.8277914753    -0.0000000000   Al  0.0 0.0   -2.01117280e-14 -2.01324132e-14  2.01419895e-14
energy -7.900501896052005e+01
charge 0.0000
end
