begin
comment 8 atoms, species Al8
lattice     11.6951282163    -0.0000000000     0.0000000000
lattice     -0.0000000000    11.6951282163    -0.0000000000
lattice      0.0000000000    -0.0000000000    11.6951282163
atom      0.0000000000     0.0000000000     0.0000000000   Al  0.0 0.0    6.55335856e-13  8.63850910e-13  2.96837049e-12
atom      0.0000000000     5.8475641082     5.8475641082   Al  0.0 0.0    2.96831277e-12 -9.31755942e-13  1.17271649e-12
atom      5.8475641082     5.8475641082     0.0000000000   Al  0.0 0.0   -1.14023493e-12 -9.31749412e-13  6.55398767e-13
atom      5.8475641082     0.0000000000     5.8475641082   Al  0.0 0.0    1.17271054e-12  8.63847949e-13 -1.14023914e-12
atom      8.7713461623     2.9237820541     8.7713461623   Al  0.0 0.0   -1.81184307e-12  6.42173150e-16 -1.81181961e-12
atom      2.9237820541     2.9237820541     2.9237820541   Al  0.0 0.0   -1.62197884e-14  5.84715065e-16 -1.62917320e-14
atom      2.9237820541     8.7713461623     8.7713461623   Al  0.0 0.0   -1.61809257e-14 -2.06534033e-12 -1.81176589e-12
atom      8.7713461623     8.7713461622     2.9237820541   Al  0.0 0.0   -1.81185346e-12  2.19995309e-12 -1.62346908e-14
energy -1.577930341369319e+02
charge 0.0000
end
