begin
comment 108 atoms, species Al107Si
lattice     22.9529939860    -0.0000000000    -0.0000000000
lattice     -0.0000000000    22.9529939860    -0.0000000000
lattice     -0.0000000000    -0.0000000000    22.9529939860
atom     -0.0000000000    -0.0000000000    -0.0000000000   Si  0.0 0.0    3.18859989e-13  3.15991570e-13  3.22577257e-13
atom     -0.0000000000     3.7990191952     3.7990191952   Al  0.0 0.0    4.00535935e-13 -1.29919867e-06 -1.29919867e-06
atom      3.7990191952    -0.0000000000     3.7990191952   Al  0.0 0.0   -1.29919867e-06  3.94173379e-13 -1.29919867e-06
atom      3.7990191952     3.7990191952    -0.0000000000   Al  0.0 0.0   -1.29919867e-06 -1.29919867e-06  3.96889316e-13
atom     -0.0000000000    -0.0000000000     7.6636183289   Al  0.0 0.0    3.80247435e-13  3.76935670e-13 -3.39523709e-08
atom     -0.0000000000     3.8257952950    11.4764969930   Al  0.0 0.0    3.80198857e-13 -1.35151803e-07  7.20609979e-15
atom      3.8257952950    -0.0000000000    11.4764969930   Al  0.0 0.0   -1.35151807e-07  3.74417184e-13  6.11617463e-15
atom      3.8250610018     3.8250610018     7.6491704531   Al  0.0 0.0   -1.94832193e-07 -1.94832192e-07  5.19650378e-07
atom     -0.0000000000    -0.0000000000    15.2893756571   Al  0.0 0.0    3.80166471e-13  3.77013919e-13  3.39523665e-08
atom     -0.0000000000     3.7990191952    19.1539747907   Al  0.0 0.0    3.99996175e-13 -1.29919868e-06  1.29919827e-06
atom      3.7990191952    -0.0000000000    19.1539747907   Al  0.0 0.0   -1.29919869e-06  3.94370087e-13  1.29919827e-06
atom      3.8250610018     3.8250610018    15.3038235328   Al  0.0 0.0   -1.94832198e-07 -1.94832196e-07 -5.19650376e-07
atom     -0.0000000000     7.6636183289    -0.0000000000   Al  0.0 0.0    3.80056900e-13 -3.39523740e-08  3.83967583e-13
atom     -0.0000000000    11.4764969930     3.8257952950   Al  0.0 0.0    3.79794577e-13  7.20808172e-15 -1.35151805e-07
atom      3.8250610018     7.6491704531     3.8250610018   Al  0.0 0.0   -1.94832193e-07  5.19650382e-07 -1.94832196e-07
atom      3.8257952950    11.4764969930    -0.0000000000   Al  0.0 0.0   -1.35151807e-07  4.71756999e-15  3.78653474e-13
atom     -0.0000000000     7.6477484969     7.6477484969   Al  0.0 0.0    3.80502202e-13  7.64943169e-07  7.64943170e-07
atom     -0.0000000000    11.4764969930    11.4764969930   Al  0.0 0.0    3.82028104e-13  5.57740769e-15  7.21983784e-15
atom      3.8249864057     7.6524633528    11.4764969930   Al  0.0 0.0    5.99119192e-07  4.40158326e-07  4.89336443e-15
atom      3.8249864057    11.4764969930     7.6524633528   Al  0.0 0.0    5.99119193e-07  6.18956301e-15  4.40158324e-07
atom     -0.0000000000     7.6477484969    15.3052454891   Al  0.0 0.0    3.80445527e-13  7.64943173e-07 -7.64943165e-07
atom     -0.0000000000    11.4764969930    19.1271986910   Al  0.0 0.0    3.79814008e-13  7.35200367e-15  1.35151415e-07
atom      3.8250610018     7.6491704531    19.1279329842   Al  0.0 0.0   -1.94832194e-07  5.19650374e-07  1.94831807e-07
atom      3.8249864057    11.4764969930    15.3005306332   Al  0.0 0.0    5.99119192e-07  6.05759169e-15 -4.40158325e-07
atom     -0.0000000000    15.2893756571    -0.0000000000   Al  0.0 0.0    3.80263088e-13  3.39523616e-08  3.84733044e-13
atom     -0.0000000000    19.1539747907     3.7990191952   Al  0.0 0.0    4.00260657e-13  1.29919827e-06 -1.29919868e-06
atom      3.8250610018    15.3038235328     3.8250610018   Al  0.0 0.0   -1.94832197e-07 -5.19650374e-07 -1.94832199e-07
atom      3.7990191952    19.1539747907    -0.0000000000   Al  0.0 0.0   -1.29919869e-06  1.29919827e-06  3.98087234e-13
atom     -0.0000000000    15.3052454891     7.6477484969   Al  0.0 0.0    3.80358086e-13 -7.64943167e-07  7.64943174e-07
atom     -0.0000000000    19.1271986910    11.4764969930   Al  0.0 0.0    3.80007242e-13  1.35151416e-07  8.16012436e-15
atom      3.8249864057    15.3005306332    11.4764969930   Al  0.0 0.0    5.99119191e-07 -4.40158325e-07  5.28389420e-15
atom      3.8250610018    19.1279329842     7.6491704531   Al  0.0 0.0   -1.94832194e-07  1.94831810e-07  5.19650371e-07
atom     -0.0000000000    15.3052454891    15.3052454891   Al  0.0 0.0    3.80316525e-13 -7.64943171e-07 -7.64943169e-07
atom     -0.0000000000    19.1539747907    19.1539747907   Al  0.0 0.0    4.00262816e-13  1.29919829e-06  1.29919828e-06
atom      3.8250610018    15.3038235328    19.1279329842   Al  0.0 0.0   -1.94832198e-07 -5.19650366e-07  1.94831811e-07
atom      3.8250610018    19.1279329842    15.3038235328   Al  0.0 0.0   -1.94832198e-07  1.94831815e-07 -5.19650367e-07
atom      7.6636183289    -0.0000000000    -0.0000000000   Al  0.0 0.0   -3.39523765e-08  3.75430034e-13  3.83913647e-13
atom      7.6491704531     3.8250610018     3.8250610018   Al  0.0 0.0    5.19650382e-07 -1.94832191e-07 -1.94832196e-07
atom     11.4764969930    -0.0000000000     3.8257952950   Al  0.0 0.0    5.91657939e-15  3.75322199e-13 -1.35151805e-07
atom     11.4764969930     3.8257952950    -0.0000000000   Al  0.0 0.0    6.03262779e-15 -1.35151805e-07  3.79150749e-13
atom      7.6477484969    -0.0000000000     7.6477484969   Al  0.0 0.0    7.64943167e-07  3.75815915e-13  7.64943169e-07
atom      7.6524633528     3.8249864057    11.4764969930   Al  0.0 0.0    4.40158327e-07  5.99119195e-07  5.39497923e-15
atom     11.4764969930    -0.0000000000    11.4764969930   Al  0.0 0.0    4.33197893e-15  3.77351182e-13  6.78536740e-15
atom     11.4764969930     3.8249864057     7.6524633528   Al  0.0 0.0    7.19635038e-15  5.99119195e-07  4.40158325e-07
atom      7.6477484969    -0.0000000000    15.3052454891   Al  0.0 0.0    7.64943171e-07  3.75886755e-13 -7.64943166e-07
atom      7.6491704531     3.8250610018    19.1279329842   Al  0.0 0.0    5.19650374e-07 -1.94832192e-07  1.94831806e-07
atom     11.4764969930    -0.0000000000    19.1271986910   Al  0.0 0.0    6.06636279e-15  3.75488386e-13  1.35151414e-07
atom     11.4764969930     3.8249864057    15.3005306332   Al  0.0 0.0    7.27272642e-15  5.99119194e-07 -4.40158325e-07
atom      7.6477484969     7.6477484969    -0.0000000000   Al  0.0 0.0    7.64943167e-07  7.64943168e-07  3.80777726e-13
atom      7.6524633528    11.4764969930     3.8249864057   Al  0.0 0.0    4.40158327e-07  6.89429249e-15  5.99119191e-07
atom     11.4764969930     7.6524633528     3.8249864057   Al  0.0 0.0    7.07409473e-15  4.40158328e-07  5.99119192e-07
atom     11.4764969930    11.4764969930    -0.0000000000   Al  0.0 0.0    4.14771835e-15  4.28454119e-15  3.82942565e-13
atom      7.6484188561     7.6484188561     7.6484188561   Al  0.0 0.0   -2.29172013e-07 -2.29172013e-07 -2.29172014e-07
atom      7.6492390084    11.4764969930    11.4764969930   Al  0.0 0.0   -1.78640500e-06  5.38715050e-15  5.20684016e-15
atom     11.4764969930     7.6492390084    11.4764969930   Al  0.0 0.0    5.73683930e-15 -1.78640500e-06  5.43039892e-15
atom     11.4764969930    11.4764969930     7.6492390084   Al  0.0 0.0    5.52970640e-15  5.45888503e-15 -1.78640500e-06
atom      7.6484188561     7.6484188561    15.3045751298   Al  0.0 0.0   -2.29172015e-07 -2.29172014e-07  2.29172016e-07
atom      7.6524633528    11.4764969930    19.1280075803   Al  0.0 0.0    4.40158326e-07  7.02029118e-15 -5.99119581e-07
atom     11.4764969930     7.6524633528    19.1280075803   Al  0.0 0.0    7.28729994e-15  4.40158327e-07 -5.99119581e-07
atom     11.4764969930    11.4764969930    15.3037549776   Al  0.0 0.0    5.68347053e-15  5.43114010e-15  1.78640500e-06
atom      7.6477484969    15.3052454891    -0.0000000000   Al  0.0 0.0    7.64943171e-07 -7.64943169e-07  3.81323597e-13
atom      7.6491704531    19.1279329842     3.8250610018   Al  0.0 0.0    5.19650375e-07  1.94831811e-07 -1.94832195e-07
atom     11.4764969930    15.3005306332     3.8249864057   Al  0.0 0.0    7.08569957e-15 -4.40158324e-07  5.99119191e-07
atom     11.4764969930    19.1271986910    -0.0000000000   Al  0.0 0.0    5.82805874e-15  1.35151415e-07  3.80502317e-13
atom      7.6484188561    15.3045751298     7.6484188561   Al  0.0 0.0   -2.29172015e-07  2.29172016e-07 -2.29172015e-07
atom      7.6524633528    19.1280075803    11.4764969930   Al  0.0 0.0    4.40158326e-07 -5.99119578e-07  6.51205740e-15
atom     11.4764969930    15.3037549776    11.4764969930   Al  0.0 0.0    5.53942208e-15  1.78640500e-06  5.87560484e-15
atom     11.4764969930    19.1280075803     7.6524633528   Al  0.0 0.0    7.26921798e-15 -5.99119578e-07  4.40158325e-07
atom      7.6484188561    15.3045751298    15.3045751298   Al  0.0 0.0   -2.29172016e-07  2.29172018e-07  2.29172019e-07
atom      7.6491704531    19.1279329842    19.1279329842   Al  0.0 0.0    5.19650366e-07  1.94831811e-07  1.94831809e-07
atom     11.4764969930    15.3005306332    19.1280075803   Al  0.0 0.0    7.10108273e-15 -4.40158323e-07 -5.99119579e-07
atom     11.4764969930    19.1280075803    15.3005306332   Al  0.0 0.0    7.24196010e-15 -5.99119577e-07 -4.40158323e-07
atom     15.2893756571    -0.0000000000    -0.0000000000   Al  0.0 0.0    3.39523604e-08  3.75926281e-13  3.84204910e-13
atom     15.3038235328     3.8250610018     3.8250610018   Al  0.0 0.0   -5.19650372e-07 -1.94832195e-07 -1.94832199e-07
atom     19.1539747907    -0.0000000000     3.7990191952   Al  0.0 0.0    1.29919827e-06  3.95115604e-13 -1.29919868e-06
atom     19.1539747907     3.7990191952    -0.0000000000   Al  0.0 0.0    1.29919827e-06 -1.29919868e-06  3.98132374e-13
atom     15.3052454891    -0.0000000000     7.6477484969   Al  0.0 0.0   -7.64943168e-07  3.76060686e-13  7.64943174e-07
atom     15.3005306332     3.8249864057    11.4764969930   Al  0.0 0.0   -4.40158323e-07  5.99119194e-07  6.21679770e-15
atom     19.1271986910    -0.0000000000    11.4764969930   Al  0.0 0.0    1.35151412e-07  3.74788228e-13  7.58438953e-15
atom     19.1279329842     3.8250610018     7.6491704531   Al  0.0 0.0    1.94831809e-07 -1.94832192e-07  5.19650372e-07
atom     15.3052454891    -0.0000000000    15.3052454891   Al  0.0 0.0   -7.64943172e-07  3.76111221e-13 -7.64943169e-07
atom     15.3038235328     3.8250610018    19.1279329842   Al  0.0 0.0   -5.19650365e-07 -1.94832195e-07  1.94831811e-07
atom     19.1539747907    -0.0000000000    19.1539747907   Al  0.0 0.0    1.29919828e-06  3.95200391e-13  1.29919828e-06
atom     19.1279329842     3.8250610018    15.3038235328   Al  0.0 0.0    1.94831813e-07 -1.94832196e-07 -5.19650367e-07
atom     15.3052454891     7.6477484969    -0.0000000000   Al  0.0 0.0   -7.64943168e-07  7.64943172e-07  3.81584252e-13
atom     15.3005306332    11.4764969930     3.8249864057   Al  0.0 0.0   -4.40158323e-07  7.24214248e-15  5.99119191e-07
atom     19.1279329842     7.6491704531     3.8250610018   Al  0.0 0.0    1.94831809e-07  5.19650375e-07 -1.94832195e-07
atom     19.1271986910    11.4764969930    -0.0000000000   Al  0.0 0.0    1.35151412e-07  5.25343882e-15  3.80088067e-13
atom     15.3045751298     7.6484188561     7.6484188561   Al  0.0 0.0    2.29172017e-07 -2.29172014e-07 -2.29172015e-07
atom     15.3037549776    11.4764969930    11.4764969930   Al  0.0 0.0    1.78640500e-06  5.58881855e-15  5.99474990e-15
atom     19.1280075803     7.6524633528    11.4764969930   Al  0.0 0.0   -5.99119580e-07  4.40158326e-07  6.14370532e-15
atom     19.1280075803    11.4764969930     7.6524633528   Al  0.0 0.0   -5.99119580e-07  6.92166224e-15  4.40158325e-07
atom     15.3045751298     7.6484188561    15.3045751298   Al  0.0 0.0    2.29172018e-07 -2.29172016e-07  2.29172019e-07
atom     15.3005306332    11.4764969930    19.1280075803   Al  0.0 0.0   -4.40158323e-07  7.31808049e-15 -5.99119579e-07
atom     19.1279329842     7.6491704531    19.1279329842   Al  0.0 0.0    1.94831810e-07  5.19650367e-07  1.94831808e-07
atom     19.1280075803    11.4764969930    15.3005306332   Al  0.0 0.0   -5.99119579e-07  6.72896594e-15 -4.40158323e-07
atom     15.3052454891    15.3052454891    -0.0000000000   Al  0.0 0.0   -7.64943172e-07 -7.64943173e-07  3.82092260e-13
atom     15.3038235328    19.1279329842     3.8250610018   Al  0.0 0.0   -5.19650365e-07  1.94831816e-07 -1.94832199e-07
atom     19.1279329842    15.3038235328     3.8250610018   Al  0.0 0.0    1.94831813e-07 -5.19650366e-07 -1.94832199e-07
atom     19.1539747907    19.1539747907    -0.0000000000   Al  0.0 0.0    1.29919828e-06  1.29919828e-06  3.99090672e-13
atom     15.3045751298    15.3045751298     7.6484188561   Al  0.0 0.0    2.29172018e-07  2.29172018e-07 -2.29172016e-07
atom     15.3005306332    19.1280075803    11.4764969930   Al  0.0 0.0   -4.40158323e-07 -5.99119576e-07  6.77341830e-15
atom     19.1280075803    15.3005306332    11.4764969930   Al  0.0 0.0   -5.99119579e-07 -4.40158324e-07  6.72587843e-15
atom     19.1279329842    19.1279329842     7.6491704531   Al  0.0 0.0    1.94831810e-07  1.94831812e-07  5.19650365e-07
atom     15.3045751298    15.3045751298    15.3045751298   Al  0.0 0.0    2.29172020e-07  2.29172019e-07  2.29172021e-07
atom     15.3038235328    19.1279329842    19.1279329842   Al  0.0 0.0   -5.19650357e-07  1.94831816e-07  1.94831813e-07
atom     19.1279329842    15.3038235328    19.1279329842   Al  0.0 0.0    1.94831814e-07 -5.19650358e-07  1.94831813e-07
atom     19.1279329842    19.1279329842    15.3038235328   Al  0.0 0.0    1.94831815e-07  1.94831816e-07 -5.19650358e-07
energy -2.119090078615747e+03
charge 0.0000
end
