begin
comment 256 atoms, species Al255Mg
lattice     30.6223318024     0.0000000000     0.0000000000
lattice      0.0000000000    30.6223318024     0.0000000000
lattice      0.0000000000     0.0000000000    30.6223318024
atom      0.0000000001     0.0000000001     0.0000000001   Mg  0.0 0.0   -1.49989031e-11 -1.49983331e-11 -1.49989554e-11
atom      0.0000000000     3.8791029608     3.8791029608   Al  0.0 0.0   -4.59581875e-12  4.92036907e-07  4.92036907e-07
atom      3.8791029608     0.0000000000     3.8791029608   Al  0.0 0.0    4.92036907e-07 -4.59562363e-12  4.92036907e-07
atom      3.8791029608     3.8791029608     0.0000000000   Al  0.0 0.0    4.92036907e-07  4.92036907e-07 -4.59573035e-12
atom      0.0000000000     0.0000000000     7.6553796567   Al  0.0 0.0   -4.24560599e-12 -4.24617665e-12  9.93230019e-07
atom      0.0000000000     3.8320447390    11.4935211396   Al  0.0 0.0   -4.50033007e-12  5.26834184e-07  5.15734714e-07
atom      3.8320447390     0.0000000000    11.4935211396   Al  0.0 0.0    5.26834184e-07 -4.50069212e-12  5.15734715e-07
atom      3.8432361745     3.8432361745     7.6803769891   Al  0.0 0.0    6.71396941e-07  6.71396941e-07 -9.49506825e-07
atom      0.0000000000     0.0000000000    15.3111659012   Al  0.0 0.0   -4.52545320e-12 -4.52518295e-12 -3.60741478e-14
atom      0.0000000000     3.8320447390    19.1288106628   Al  0.0 0.0   -4.50083448e-12  5.26834212e-07 -5.15734383e-07
atom      3.8320447390     0.0000000000    19.1288106628   Al  0.0 0.0    5.26834212e-07 -4.50047851e-12 -5.15734383e-07
atom      3.8300648215     3.8300648215    15.3111659012   Al  0.0 0.0   -3.01129446e-07 -3.01129446e-07 -1.27380449e-13
atom      0.0000000000     0.0000000000    22.9669521457   Al  0.0 0.0   -4.24598139e-12 -4.24610658e-12 -9.93231210e-07
atom      0.0000000000     3.8791029608    26.7432288415   Al  0.0 0.0   -4.59612452e-12  4.92032181e-07 -4.92028039e-07
atom      3.8791029608     0.0000000000    26.7432288415   Al  0.0 0.0    4.92032181e-07 -4.59602231e-12 -4.92028039e-07
atom      3.8432361745     3.8432361745    22.9419548133   Al  0.0 0.0    6.71397147e-07  6.71397147e-07  9.49505157e-07
atom      0.0000000000     7.6553796567     0.0000000000   Al  0.0 0.0   -4.24565133e-12  9.93230020e-07 -4.24547245e-12
atom      0.0000000000    11.4935211396     3.8320447390   Al  0.0 0.0   -4.50027259e-12  5.15734715e-07  5.26834184e-07
atom      3.8432361745     7.6803769891     3.8432361745   Al  0.0 0.0    6.71396941e-07 -9.49506825e-07  6.71396941e-07
atom      3.8320447390    11.4935211396     0.0000000000   Al  0.0 0.0    5.26834184e-07  5.15734715e-07 -4.50100516e-12
atom      0.0000000000     7.6766278711     7.6766278711   Al  0.0 0.0   -4.46587072e-12  1.89140293e-07  1.89140293e-07
atom      0.0000000000    11.4885889358    11.4885889358   Al  0.0 0.0   -4.54669735e-12  2.82168061e-07  2.82168061e-07
atom      3.8345447533     7.6674803530    11.4991348235   Al  0.0 0.0   -3.61511853e-08  2.51282235e-07 -1.48225115e-07
atom      3.8345447533    11.4991348235     7.6674803530   Al  0.0 0.0   -3.61511853e-08 -1.48225115e-07  2.51282235e-07
atom      0.0000000000     7.6567578968    15.3111659012   Al  0.0 0.0   -4.55188363e-12 -3.11204005e-07 -1.99072322e-13
atom      0.0000000000    11.4885889358    19.1337428666   Al  0.0 0.0   -4.54727759e-12  2.82167890e-07 -2.82167385e-07
atom      3.8345447533     7.6674803530    19.1231969789   Al  0.0 0.0   -3.61512898e-08  2.51282163e-07  1.48225742e-07
atom      3.8276267816    11.4880339603    15.3111659012   Al  0.0 0.0    4.48652782e-07 -4.70933541e-07 -2.44468682e-13
atom      0.0000000000     7.6766278711    22.9457039313   Al  0.0 0.0   -4.46608311e-12  1.89141085e-07 -1.89142450e-07
atom      0.0000000000    11.4935211396    26.7902870634   Al  0.0 0.0   -4.50045611e-12  5.15734911e-07 -5.26828750e-07
atom      3.8432361745     7.6803769891    26.7790956278   Al  0.0 0.0    6.71397365e-07 -9.49506740e-07 -6.71391361e-07
atom      3.8345447533    11.4991348235    22.9548514494   Al  0.0 0.0   -3.61512846e-08 -1.48225202e-07 -2.51283570e-07
atom      0.0000000000    15.3111659012     0.0000000000   Al  0.0 0.0   -4.52534714e-12 -3.68460911e-14 -4.52567726e-12
atom      0.0000000000    19.1288106628     3.8320447390   Al  0.0 0.0   -4.50070116e-12 -5.15734383e-07  5.26834212e-07
atom      3.8300648215    15.3111659012     3.8300648215   Al  0.0 0.0   -3.01129446e-07 -1.26141477e-13 -3.01129446e-07
atom      3.8320447390    19.1288106628     0.0000000000   Al  0.0 0.0    5.26834212e-07 -5.15734384e-07 -4.50063832e-12
atom      0.0000000000    15.3111659012     7.6567578968   Al  0.0 0.0   -4.55180402e-12 -2.00315200e-13 -3.11204005e-07
atom      0.0000000000    19.1337428666    11.4885889358   Al  0.0 0.0   -4.54719339e-12 -2.82167384e-07  2.82167890e-07
atom      3.8276267816    15.3111659012    11.4880339603   Al  0.0 0.0    4.48652782e-07 -2.44605647e-13 -4.70933541e-07
atom      3.8345447533    19.1231969789     7.6674803530   Al  0.0 0.0   -3.61512900e-08  1.48225742e-07  2.51282163e-07
atom      0.0000000000    15.3111659012    15.3111659012   Al  0.0 0.0   -4.58186190e-12 -2.48940523e-13 -2.47911672e-13
atom      0.0000000000    19.1337428666    19.1337428666   Al  0.0 0.0   -4.54633085e-12 -2.82167213e-07 -2.82167213e-07
atom      3.8276267816    15.3111659012    19.1342978421   Al  0.0 0.0    4.48652816e-07 -2.43896742e-13  4.70934019e-07
atom      3.8276267816    19.1342978421    15.3111659012   Al  0.0 0.0    4.48652816e-07  4.70934020e-07 -2.44231211e-13
atom      0.0000000000    15.3111659012    22.9655739056   Al  0.0 0.0   -4.55182048e-12 -1.98969369e-13  3.11202699e-07
atom      0.0000000000    19.1288106628    26.7902870634   Al  0.0 0.0   -4.50090816e-12 -5.15734579e-07 -5.26828777e-07
atom      3.8300648215    15.3111659012    26.7922669808   Al  0.0 0.0   -3.01129469e-07 -1.27280290e-13  3.01135070e-07
atom      3.8345447533    19.1231969788    22.9548514494   Al  0.0 0.0   -3.61513899e-08  1.48225829e-07 -2.51283499e-07
atom      0.0000000000    22.9669521457     0.0000000000   Al  0.0 0.0   -4.24558224e-12 -9.93231210e-07 -4.24571985e-12
atom      0.0000000000    26.7432288415     3.8791029608   Al  0.0 0.0   -4.59603411e-12 -4.92028039e-07  4.92032181e-07
atom      3.8432361745    22.9419548133     3.8432361745   Al  0.0 0.0    6.71397147e-07  9.49505157e-07  6.71397147e-07
atom      3.8791029608    26.7432288415     0.0000000000   Al  0.0 0.0    4.92032181e-07 -4.92028039e-07 -4.59656286e-12
atom      0.0000000000    22.9457039313     7.6766278711   Al  0.0 0.0   -4.46606476e-12 -1.89142451e-07  1.89141085e-07
atom      0.0000000000    26.7902870634    11.4935211396   Al  0.0 0.0   -4.50024776e-12 -5.26828750e-07  5.15734911e-07
atom      3.8345447533    22.9548514494    11.4991348235   Al  0.0 0.0   -3.61512850e-08 -2.51283571e-07 -1.48225203e-07
atom      3.8432361745    26.7790956278     7.6803769891   Al  0.0 0.0    6.71397365e-07 -6.71391361e-07 -9.49506740e-07
atom      0.0000000000    22.9655739056    15.3111659012   Al  0.0 0.0   -4.55211141e-12  3.11202699e-07 -2.00567460e-13
atom      0.0000000000    26.7902870634    19.1288106628   Al  0.0 0.0   -4.50104121e-12 -5.26828777e-07 -5.15734580e-07
atom      3.8345447533    22.9548514494    19.1231969788   Al  0.0 0.0   -3.61513898e-08 -2.51283499e-07  1.48225829e-07
atom      3.8300648215    26.7922669808    15.3111659012   Al  0.0 0.0   -3.01129468e-07  3.01135070e-07 -1.27338596e-13
atom      0.0000000000    22.9457039313    22.9457039313   Al  0.0 0.0   -4.46653381e-12 -1.89143242e-07 -1.89143242e-07
atom      0.0000000000    26.7432288415    26.7432288415   Al  0.0 0.0   -4.59603195e-12 -4.92023312e-07 -4.92023313e-07
atom      3.8432361745    22.9419548133    26.7790956278   Al  0.0 0.0    6.71397572e-07  9.49505072e-07 -6.71391566e-07
atom      3.8432361745    26.7790956278    22.9419548133   Al  0.0 0.0    6.71397571e-07 -6.71391566e-07  9.49505072e-07
atom      7.6553796567     0.0000000000     0.0000000000   Al  0.0 0.0    9.93230019e-07 -4.24573145e-12 -4.24549018e-12
atom      7.6803769891     3.8432361745     3.8432361745   Al  0.0 0.0   -9.49506825e-07  6.71396941e-07  6.71396941e-07
atom     11.4935211396     0.0000000000     3.8320447390   Al  0.0 0.0    5.15734715e-07 -4.50007202e-12  5.26834184e-07
atom     11.4935211396     3.8320447390     0.0000000000   Al  0.0 0.0    5.15734715e-07  5.26834184e-07 -4.50005742e-12
atom      7.6766278711     0.0000000000     7.6766278711   Al  0.0 0.0    1.89140293e-07 -4.46576118e-12  1.89140293e-07
atom      7.6674803530     3.8345447533    11.4991348235   Al  0.0 0.0    2.51282235e-07 -3.61511855e-08 -1.48225115e-07
atom     11.4885889358     0.0000000000    11.4885889358   Al  0.0 0.0    2.82168061e-07 -4.54727857e-12  2.82168062e-07
atom     11.4991348235     3.8345447533     7.6674803530   Al  0.0 0.0   -1.48225115e-07 -3.61511850e-08  2.51282235e-07
atom      7.6567578968     0.0000000000    15.3111659012   Al  0.0 0.0   -3.11204006e-07 -4.55165089e-12 -2.00134199e-13
atom      7.6674803530     3.8345447533    19.1231969789   Al  0.0 0.0    2.51282162e-07 -3.61512900e-08  1.48225742e-07
atom     11.4885889358     0.0000000000    19.1337428666   Al  0.0 0.0    2.82167890e-07 -4.54761709e-12 -2.82167385e-07
atom     11.4880339603     3.8276267816    15.3111659012   Al  0.0 0.0   -4.70933541e-07  4.48652782e-07 -2.44191749e-13
atom      7.6766278711     0.0000000000    22.9457039313   Al  0.0 0.0    1.89141084e-07 -4.46642494e-12 -1.89142450e-07
atom      7.6803769891     3.8432361745    26.7790956278   Al  0.0 0.0   -9.49506740e-07  6.71397365e-07 -6.71391361e-07
atom     11.4935211396     0.0000000000    26.7902870634   Al  0.0 0.0    5.15734911e-07 -4.50045663e-12 -5.26828750e-07
atom     11.4991348235     3.8345447533    22.9548514494   Al  0.0 0.0   -1.48225202e-07 -3.61512847e-08 -2.51283570e-07
atom      7.6766278711     7.6766278711     0.0000000000   Al  0.0 0.0    1.89140293e-07  1.89140293e-07 -4.46602053e-12
atom      7.6674803530    11.4991348235     3.8345447533   Al  0.0 0.0    2.51282235e-07 -1.48225115e-07 -3.61511851e-08
atom     11.4991348235     7.6674803530     3.8345447533   Al  0.0 0.0   -1.48225115e-07  2.51282235e-07 -3.61511853e-08
atom     11.4885889358    11.4885889358     0.0000000000   Al  0.0 0.0    2.82168061e-07  2.82168061e-07 -4.54719044e-12
atom      7.6713307537     7.6713307537     7.6713307537   Al  0.0 0.0   -8.70646449e-07 -8.70646449e-07 -8.70646449e-07
atom      7.6583943964    11.4876128747    11.4876128747   Al  0.0 0.0   -4.43487859e-07 -1.89385972e-07 -1.89385972e-07
atom     11.4876128747     7.6583943964    11.4876128747   Al  0.0 0.0   -1.89385972e-07 -4.43487859e-07 -1.89385972e-07
atom     11.4876128747    11.4876128747     7.6583943964   Al  0.0 0.0   -1.89385972e-07 -1.89385972e-07 -4.43487859e-07
atom      7.6605120488     7.6605120488    15.3111659012   Al  0.0 0.0    2.56006498e-07  2.56006498e-07 -2.62488620e-13
atom      7.6583943964    11.4876128747    19.1347189277   Al  0.0 0.0   -4.43487825e-07 -1.89385943e-07  1.89386456e-07
atom     11.4876128747     7.6583943964    19.1347189277   Al  0.0 0.0   -1.89385942e-07 -4.43487825e-07  1.89386457e-07
atom     11.4847651345    11.4847651345    15.3111659012   Al  0.0 0.0    6.86743289e-08  6.86743293e-08 -1.98701222e-13
atom      7.6713307537     7.6713307537    22.9510010487   Al  0.0 0.0   -8.70646485e-07 -8.70646485e-07  8.70645152e-07
atom      7.6674803530    11.4991348235    26.7877870491   Al  0.0 0.0    2.51282226e-07 -1.48225163e-07  3.61567625e-08
atom     11.4991348235     7.6674803530    26.7877870491   Al  0.0 0.0   -1.48225164e-07  2.51282226e-07  3.61567617e-08
atom     11.4876128747    11.4876128747    22.9639374060   Al  0.0 0.0   -1.89385964e-07 -1.89385963e-07  4.43486482e-07
atom      7.6567578968    15.3111659012     0.0000000000   Al  0.0 0.0   -3.11204006e-07 -1.99802015e-13 -4.55158552e-12
atom      7.6674803530    19.1231969789     3.8345447533   Al  0.0 0.0    2.51282162e-07  1.48225741e-07 -3.61512899e-08
atom     11.4880339603    15.3111659012     3.8276267816   Al  0.0 0.0   -4.70933541e-07 -2.43235956e-13  4.48652782e-07
atom     11.4885889358    19.1337428666     0.0000000000   Al  0.0 0.0    2.82167890e-07 -2.82167385e-07 -4.54728722e-12
atom      7.6605120488    15.3111659012     7.6605120488   Al  0.0 0.0    2.56006498e-07 -2.62171674e-13  2.56006498e-07
atom      7.6583943964    19.1347189277    11.4876128747   Al  0.0 0.0   -4.43487824e-07  1.89386457e-07 -1.89385942e-07
atom     11.4847651345    15.3111659012    11.4847651345   Al  0.0 0.0    6.86743300e-08 -1.98474199e-13  6.86743288e-08
atom     11.4876128747    19.1347189277     7.6583943964   Al  0.0 0.0   -1.89385942e-07  1.89386456e-07 -4.43487825e-07
atom      7.6558702488    15.3111659012    15.3111659012   Al  0.0 0.0    4.47902705e-07 -1.95693920e-13 -1.95384729e-13
atom      7.6583943964    19.1347189277    19.1347189277   Al  0.0 0.0   -4.43487791e-07  1.89386428e-07  1.89386428e-07
atom     11.4847651345    15.3111659012    19.1375666679   Al  0.0 0.0    6.86742999e-08 -1.98616623e-13 -6.86738395e-08
atom     11.4847651345    19.1375666679    15.3111659012   Al  0.0 0.0    6.86742994e-08 -6.86738393e-08 -1.99096738e-13
atom      7.6605120488    15.3111659012    22.9618197536   Al  0.0 0.0    2.56006530e-07 -2.62462053e-13 -2.56007881e-07
atom      7.6674803530    19.1231969789    26.7877870491   Al  0.0 0.0    2.51282155e-07  1.48225790e-07  3.61568678e-08
atom     11.4880339603    15.3111659012    26.7947050208   Al  0.0 0.0   -4.70933519e-07 -2.44296294e-13 -4.48647153e-07
atom     11.4876128747    19.1347189277    22.9639374060   Al  0.0 0.0   -1.89385934e-07  1.89386448e-07  4.43486446e-07
atom      7.6766278711    22.9457039313     0.0000000000   Al  0.0 0.0    1.89141085e-07 -1.89142450e-07 -4.46642843e-12
atom      7.6803769891    26.7790956278     3.8432361745   Al  0.0 0.0   -9.49506740e-07 -6.71391361e-07  6.71397364e-07
atom     11.4991348235    22.9548514494     3.8345447533   Al  0.0 0.0   -1.48225202e-07 -2.51283570e-07 -3.61512851e-08
atom     11.4935211396    26.7902870634     0.0000000000   Al  0.0 0.0    5.15734911e-07 -5.26828751e-07 -4.50098447e-12
atom      7.6713307537    22.9510010487     7.6713307537   Al  0.0 0.0   -8.70646486e-07  8.70645152e-07 -8.70646485e-07
atom      7.6674803530    26.7877870491    11.4991348235   Al  0.0 0.0    2.51282226e-07  3.61567624e-08 -1.48225163e-07
atom     11.4876128747    22.9639374060    11.4876128747   Al  0.0 0.0   -1.89385963e-07  4.43486481e-07 -1.89385963e-07
atom     11.4991348235    26.7877870491     7.6674803530   Al  0.0 0.0   -1.48225162e-07  3.61567623e-08  2.51282227e-07
atom      7.6605120488    22.9618197536    15.3111659012   Al  0.0 0.0    2.56006530e-07 -2.56007881e-07 -2.62706961e-13
atom      7.6674803530    26.7877870491    19.1231969789   Al  0.0 0.0    2.51282155e-07  3.61568673e-08  1.48225790e-07
atom     11.4876128747    22.9639374060    19.1347189277   Al  0.0 0.0   -1.89385934e-07  4.43486447e-07  1.89386449e-07
atom     11.4880339603    26.7947050208    15.3111659012   Al  0.0 0.0   -4.70933519e-07 -4.48647153e-07 -2.44253750e-13
atom      7.6713307537    22.9510010487    22.9510010487   Al  0.0 0.0   -8.70646522e-07  8.70645189e-07  8.70645189e-07
atom      7.6803769891    26.7790956279    26.7790956279   Al  0.0 0.0   -9.49506656e-07 -6.71391785e-07 -6.71391785e-07
atom     11.4991348235    22.9548514494    26.7877870491   Al  0.0 0.0   -1.48225250e-07 -2.51283561e-07  3.61568630e-08
atom     11.4991348235    26.7877870491    22.9548514494   Al  0.0 0.0   -1.48225250e-07  3.61568629e-08 -2.51283563e-07
atom     15.3111659012     0.0000000000     0.0000000000   Al  0.0 0.0   -3.61822432e-14 -4.52560218e-12 -4.52581055e-12
atom     15.3111659012     3.8300648215     3.8300648215   Al  0.0 0.0   -1.27385746e-13 -3.01129446e-07 -3.01129446e-07
atom     19.1288106628     0.0000000000     3.8320447390   Al  0.0 0.0   -5.15734383e-07 -4.50049030e-12  5.26834212e-07
atom     19.1288106628     3.8320447390     0.0000000000   Al  0.0 0.0   -5.15734383e-07  5.26834212e-07 -4.50048178e-12
atom     15.3111659012     0.0000000000     7.6567578968   Al  0.0 0.0   -2.00033003e-13 -4.55188866e-12 -3.11204006e-07
atom     15.3111659012     3.8276267816    11.4880339603   Al  0.0 0.0   -2.43615946e-13  4.48652782e-07 -4.70933541e-07
atom     19.1337428666     0.0000000000    11.4885889358   Al  0.0 0.0   -2.82167385e-07 -4.54685200e-12  2.82167889e-07
atom     19.1231969789     3.8345447533     7.6674803530   Al  0.0 0.0    1.48225742e-07 -3.61512901e-08  2.51282163e-07
atom     15.3111659012     0.0000000000    15.3111659012   Al  0.0 0.0   -2.49129165e-13 -4.58129005e-12 -2.48205418e-13
atom     15.3111659012     3.8276267816    19.1342978421   Al  0.0 0.0   -2.44325777e-13  4.48652816e-07  4.70934019e-07
atom     19.1337428666     0.0000000000    19.1337428666   Al  0.0 0.0   -2.82167213e-07 -4.54712538e-12 -2.82167212e-07
atom     19.1342978421     3.8276267816    15.3111659012   Al  0.0 0.0    4.70934019e-07  4.48652816e-07 -2.44513331e-13
atom     15.3111659012     0.0000000000    22.9655739056   Al  0.0 0.0   -2.00253316e-13 -4.55203350e-12  3.11202699e-07
atom     15.3111659012     3.8300648215    26.7922669808   Al  0.0 0.0   -1.27292287e-13 -3.01129469e-07  3.01135068e-07
atom     19.1288106628     0.0000000000    26.7902870634   Al  0.0 0.0   -5.15734579e-07 -4.50069764e-12 -5.26828777e-07
atom     19.1231969788     3.8345447533    22.9548514494   Al  0.0 0.0    1.48225829e-07 -3.61513898e-08 -2.51283498e-07
atom     15.3111659012     7.6567578968     0.0000000000   Al  0.0 0.0   -1.99555794e-13 -3.11204006e-07 -4.55127230e-12
atom     15.3111659012    11.4880339603     3.8276267816   Al  0.0 0.0   -2.43883992e-13 -4.70933541e-07  4.48652782e-07
atom     19.1231969789     7.6674803530     3.8345447533   Al  0.0 0.0    1.48225742e-07  2.51282163e-07 -3.61512903e-08
atom     19.1337428666    11.4885889358     0.0000000000   Al  0.0 0.0   -2.82167384e-07  2.82167890e-07 -4.54720315e-12
atom     15.3111659012     7.6605120488     7.6605120488   Al  0.0 0.0   -2.62459127e-13  2.56006498e-07  2.56006498e-07
atom     15.3111659012    11.4847651345    11.4847651345   Al  0.0 0.0   -1.98500199e-13  6.86743288e-08  6.86743289e-08
atom     19.1347189277     7.6583943964    11.4876128747   Al  0.0 0.0    1.89386456e-07 -4.43487825e-07 -1.89385942e-07
atom     19.1347189277    11.4876128747     7.6583943964   Al  0.0 0.0    1.89386456e-07 -1.89385941e-07 -4.43487825e-07
atom     15.3111659012     7.6558702488    15.3111659012   Al  0.0 0.0   -1.94466852e-13  4.47902706e-07 -1.95015113e-13
atom     15.3111659012    11.4847651345    19.1375666679   Al  0.0 0.0   -1.98777964e-13  6.86742996e-08 -6.86738407e-08
atom     19.1347189277     7.6583943964    19.1347189277   Al  0.0 0.0    1.89386428e-07 -4.43487791e-07  1.89386427e-07
atom     19.1375666679    11.4847651345    15.3111659012   Al  0.0 0.0   -6.86738405e-08  6.86742985e-08 -1.98765074e-13
atom     15.3111659012     7.6605120488    22.9618197536   Al  0.0 0.0   -2.63373446e-13  2.56006529e-07 -2.56007881e-07
atom     15.3111659012    11.4880339603    26.7947050208   Al  0.0 0.0   -2.43967048e-13 -4.70933519e-07 -4.48647154e-07
atom     19.1231969789     7.6674803530    26.7877870491   Al  0.0 0.0    1.48225791e-07  2.51282154e-07  3.61568675e-08
atom     19.1347189277    11.4876128747    22.9639374060   Al  0.0 0.0    1.89386450e-07 -1.89385933e-07  4.43486448e-07
atom     15.3111659012    15.3111659012     0.0000000000   Al  0.0 0.0   -2.49098453e-13 -2.48478971e-13 -4.58164647e-12
atom     15.3111659012    19.1342978421     3.8276267816   Al  0.0 0.0   -2.43925748e-13  4.70934019e-07  4.48652816e-07
atom     19.1342978421    15.3111659012     3.8276267816   Al  0.0 0.0    4.70934019e-07 -2.44543148e-13  4.48652816e-07
atom     19.1337428666    19.1337428666     0.0000000000   Al  0.0 0.0   -2.82167213e-07 -2.82167213e-07 -4.54690670e-12
atom     15.3111659012    15.3111659012     7.6558702488   Al  0.0 0.0   -1.95198387e-13 -1.95111145e-13  4.47902706e-07
atom     15.3111659012    19.1375666679    11.4847651345   Al  0.0 0.0   -1.98866881e-13 -6.86738403e-08  6.86742996e-08
atom     19.1375666679    15.3111659012    11.4847651345   Al  0.0 0.0   -6.86738399e-08 -1.98801436e-13  6.86742992e-08
atom     19.1347189277    19.1347189277     7.6583943964   Al  0.0 0.0    1.89386427e-07  1.89386427e-07 -4.43487791e-07
atom     15.3111659012    15.3111659012    15.3111659012   Al  0.0 0.0   -2.21490273e-13 -2.20424990e-13 -2.20706104e-13
atom     15.3111659012    19.1375666679    19.1375666679   Al  0.0 0.0   -1.98780408e-13 -6.86738107e-08 -6.86738094e-08
atom     19.1375666679    15.3111659012    19.1375666679   Al  0.0 0.0   -6.86738107e-08 -1.98455553e-13 -6.86738093e-08
atom     19.1375666679    19.1375666679    15.3111659012   Al  0.0 0.0   -6.86738106e-08 -6.86738102e-08 -1.99232984e-13
atom     15.3111659012    15.3111659012    22.9664615536   Al  0.0 0.0   -1.95504511e-13 -1.95117754e-13 -4.47904063e-07
atom     15.3111659012    19.1342978421    26.7947050208   Al  0.0 0.0   -2.43768669e-13  4.70933998e-07 -4.48647187e-07
atom     19.1342978421    15.3111659012    26.7947050208   Al  0.0 0.0    4.70933998e-07 -2.44028896e-13 -4.48647187e-07
atom     19.1347189277    19.1347189277    22.9639374060   Al  0.0 0.0    1.89386419e-07  1.89386419e-07  4.43486413e-07
atom     15.3111659012    22.9655739056     0.0000000000   Al  0.0 0.0   -2.00860356e-13  3.11202700e-07 -4.55224915e-12
atom     15.3111659012    26.7922669808     3.8300648215   Al  0.0 0.0   -1.27262771e-13  3.01135069e-07 -3.01129468e-07
atom     19.1231969788    22.9548514494     3.8345447533   Al  0.0 0.0    1.48225829e-07 -2.51283498e-07 -3.61513899e-08
atom     19.1288106628    26.7902870634     0.0000000000   Al  0.0 0.0   -5.15734580e-07 -5.26828777e-07 -4.50067940e-12
atom     15.3111659012    22.9618197536     7.6605120488   Al  0.0 0.0   -2.62975103e-13 -2.56007880e-07  2.56006530e-07
atom     15.3111659012    26.7947050208    11.4880339603   Al  0.0 0.0   -2.44216480e-13 -4.48647153e-07 -4.70933520e-07
atom     19.1347189277    22.9639374060    11.4876128747   Al  0.0 0.0    1.89386448e-07  4.43486447e-07 -1.89385933e-07
atom     19.1231969789    26.7877870491     7.6674803530   Al  0.0 0.0    1.48225790e-07  3.61568674e-08  2.51282154e-07
atom     15.3111659012    22.9664615536    15.3111659012   Al  0.0 0.0   -1.95224153e-13 -4.47904063e-07 -1.95830291e-13
atom     15.3111659012    26.7947050208    19.1342978421   Al  0.0 0.0   -2.44398415e-13 -4.48647186e-07  4.70933998e-07
atom     19.1347189277    22.9639374060    19.1347189277   Al  0.0 0.0    1.89386419e-07  4.43486413e-07  1.89386419e-07
atom     19.1342978421    26.7947050208    15.3111659012   Al  0.0 0.0    4.70933998e-07 -4.48647188e-07 -2.44571654e-13
atom     15.3111659012    22.9618197536    22.9618197536   Al  0.0 0.0   -2.62766286e-13 -2.56007913e-07 -2.56007912e-07
atom     15.3111659012    26.7922669808    26.7922669808   Al  0.0 0.0   -1.27039325e-13  3.01135092e-07  3.01135092e-07
atom     19.1231969788    22.9548514494    26.7877870491   Al  0.0 0.0    1.48225877e-07 -2.51283490e-07  3.61569666e-08
atom     19.1231969788    26.7877870491    22.9548514494   Al  0.0 0.0    1.48225877e-07  3.61569675e-08 -2.51283490e-07
atom     22.9669521457     0.0000000000     0.0000000000   Al  0.0 0.0   -9.93231210e-07 -4.24593551e-12 -4.24593793e-12
atom     22.9419548133     3.8432361745     3.8432361745   Al  0.0 0.0    9.49505157e-07  6.71397147e-07  6.71397147e-07
atom     26.7432288415     0.0000000000     3.8791029608   Al  0.0 0.0   -4.92028040e-07 -4.59655242e-12  4.92032181e-07
atom     26.7432288415     3.8791029608     0.0000000000   Al  0.0 0.0   -4.92028039e-07  4.92032180e-07 -4.59621795e-12
atom     22.9457039313     0.0000000000     7.6766278711   Al  0.0 0.0   -1.89142450e-07 -4.46637607e-12  1.89141085e-07
atom     22.9548514494     3.8345447533    11.4991348235   Al  0.0 0.0   -2.51283570e-07 -3.61512853e-08 -1.48225202e-07
atom     26.7902870634     0.0000000000    11.4935211396   Al  0.0 0.0   -5.26828751e-07 -4.50097074e-12  5.15734911e-07
atom     26.7790956278     3.8432361745     7.6803769891   Al  0.0 0.0   -6.71391361e-07  6.71397365e-07 -9.49506740e-07
atom     22.9655739056     0.0000000000    15.3111659012   Al  0.0 0.0    3.11202700e-07 -4.55171226e-12 -2.00900469e-13
atom     22.9548514494     3.8345447533    19.1231969788   Al  0.0 0.0   -2.51283498e-07 -3.61513896e-08  1.48225829e-07
atom     26.7902870634     0.0000000000    19.1288106628   Al  0.0 0.0   -5.26828777e-07 -4.50019341e-12 -5.15734579e-07
atom     26.7922669808     3.8300648215    15.3111659012   Al  0.0 0.0    3.01135069e-07 -3.01129469e-07 -1.26579457e-13
atom     22.9457039313     0.0000000000    22.9457039313   Al  0.0 0.0   -1.89143242e-07 -4.46672070e-12 -1.89143242e-07
atom     22.9419548133     3.8432361745    26.7790956278   Al  0.0 0.0    9.49505072e-07  6.71397571e-07 -6.71391567e-07
atom     26.7432288415     0.0000000000    26.7432288415   Al  0.0 0.0   -4.92023313e-07 -4.59655141e-12 -4.92023312e-07
atom     26.7790956278     3.8432361745    22.9419548133   Al  0.0 0.0   -6.71391567e-07  6.71397571e-07  9.49505072e-07
atom     22.9457039313     7.6766278711     0.0000000000   Al  0.0 0.0   -1.89142451e-07  1.89141085e-07 -4.46609888e-12
atom     22.9548514494    11.4991348235     3.8345447533   Al  0.0 0.0   -2.51283570e-07 -1.48225201e-07 -3.61512854e-08
atom     26.7790956278     7.6803769891     3.8432361745   Al  0.0 0.0   -6.71391361e-07 -9.49506740e-07  6.71397365e-07
atom     26.7902870634    11.4935211396     0.0000000000   Al  0.0 0.0   -5.26828749e-07  5.15734911e-07 -4.50047434e-12
atom     22.9510010487     7.6713307537     7.6713307537   Al  0.0 0.0    8.70645153e-07 -8.70646486e-07 -8.70646486e-07
atom     22.9639374060    11.4876128747    11.4876128747   Al  0.0 0.0    4.43486482e-07 -1.89385963e-07 -1.89385963e-07
atom     26.7877870491     7.6674803530    11.4991348235   Al  0.0 0.0    3.61567626e-08  2.51282227e-07 -1.48225163e-07
atom     26.7877870491    11.4991348235     7.6674803530   Al  0.0 0.0    3.61567625e-08 -1.48225163e-07  2.51282227e-07
atom     22.9618197536     7.6605120488    15.3111659012   Al  0.0 0.0   -2.56007880e-07  2.56006530e-07 -2.62858022e-13
atom     22.9639374060    11.4876128747    19.1347189277   Al  0.0 0.0    4.43486447e-07 -1.89385934e-07  1.89386449e-07
atom     26.7877870491     7.6674803530    19.1231969789   Al  0.0 0.0    3.61568671e-08  2.51282154e-07  1.48225790e-07
atom     26.7947050208    11.4880339603    15.3111659012   Al  0.0 0.0   -4.48647153e-07 -4.70933519e-07 -2.43803972e-13
atom     22.9510010487     7.6713307537    22.9510010487   Al  0.0 0.0    8.70645188e-07 -8.70646522e-07  8.70645189e-07
atom     22.9548514494    11.4991348235    26.7877870491   Al  0.0 0.0   -2.51283563e-07 -1.48225250e-07  3.61568621e-08
atom     26.7790956279     7.6803769891    26.7790956279   Al  0.0 0.0   -6.71391785e-07 -9.49506656e-07 -6.71391786e-07
atom     26.7877870491    11.4991348235    22.9548514494   Al  0.0 0.0    3.61568626e-08 -1.48225250e-07 -2.51283562e-07
atom     22.9655739056    15.3111659012     0.0000000000   Al  0.0 0.0    3.11202699e-07 -2.00615280e-13 -4.55154900e-12
atom     22.9548514494    19.1231969788     3.8345447533   Al  0.0 0.0   -2.51283498e-07  1.48225829e-07 -3.61513897e-08
atom     26.7922669808    15.3111659012     3.8300648215   Al  0.0 0.0    3.01135068e-07 -1.27636502e-13 -3.01129469e-07
atom     26.7902870634    19.1288106628     0.0000000000   Al  0.0 0.0   -5.26828777e-07 -5.15734579e-07 -4.50056850e-12
atom     22.9618197536    15.3111659012     7.6605120488   Al  0.0 0.0   -2.56007880e-07 -2.62483926e-13  2.56006529e-07
atom     22.9639374060    19.1347189277    11.4876128747   Al  0.0 0.0    4.43486448e-07  1.89386448e-07 -1.89385934e-07
atom     26.7947050208    15.3111659012    11.4880339603   Al  0.0 0.0   -4.48647154e-07 -2.44019878e-13 -4.70933519e-07
atom     26.7877870491    19.1231969789     7.6674803530   Al  0.0 0.0    3.61568674e-08  1.48225791e-07  2.51282154e-07
atom     22.9664615536    15.3111659012    15.3111659012   Al  0.0 0.0   -4.47904063e-07 -1.95073311e-13 -1.95198158e-13
atom     22.9639374060    19.1347189277    19.1347189277   Al  0.0 0.0    4.43486413e-07  1.89386420e-07  1.89386419e-07
atom     26.7947050208    15.3111659012    19.1342978421   Al  0.0 0.0   -4.48647187e-07 -2.44064383e-13  4.70933997e-07
atom     26.7947050208    19.1342978421    15.3111659012   Al  0.0 0.0   -4.48647187e-07  4.70933998e-07 -2.44394567e-13
atom     22.9618197536    15.3111659012    22.9618197536   Al  0.0 0.0   -2.56007913e-07 -2.63128201e-13 -2.56007913e-07
atom     22.9548514494    19.1231969788    26.7877870491   Al  0.0 0.0   -2.51283490e-07  1.48225877e-07  3.61569674e-08
atom     26.7922669808    15.3111659012    26.7922669808   Al  0.0 0.0    3.01135092e-07 -1.27050193e-13  3.01135092e-07
atom     26.7877870491    19.1231969788    22.9548514494   Al  0.0 0.0    3.61569669e-08  1.48225877e-07 -2.51283489e-07
atom     22.9457039313    22.9457039313     0.0000000000   Al  0.0 0.0   -1.89143242e-07 -1.89143242e-07 -4.46623670e-12
atom     22.9419548133    26.7790956278     3.8432361745   Al  0.0 0.0    9.49505073e-07 -6.71391566e-07  6.71397571e-07
atom     26.7790956278    22.9419548133     3.8432361745   Al  0.0 0.0   -6.71391567e-07  9.49505072e-07  6.71397571e-07
atom     26.7432288415    26.7432288415     0.0000000000   Al  0.0 0.0   -4.92023313e-07 -4.92023312e-07 -4.59624452e-12
atom     22.9510010487    22.9510010487     7.6713307537   Al  0.0 0.0    8.70645189e-07  8.70645188e-07 -8.70646522e-07
atom     22.9548514494    26.7877870491    11.4991348235   Al  0.0 0.0   -2.51283561e-07  3.61568631e-08 -1.48225250e-07