begin
comment uuid: 2de31ede-4cd9-4681-ab6d-28c194209012 parent_uuid: 46939af9-eee4-4d42-a067-25e919f9bf55 trajectory_step: final_scf
lattice     13.5489774015     0.0000000013     0.0000000000
lattice     -6.7744886995    11.7337586240     0.0000000000
lattice      0.0000000000     0.0000000002    23.2039878050
atom      3.5402802903     8.5865412010     1.5605686096   Mg  0.0 0.0   -2.63509342e-04 -1.62299059e-04  1.10531796e-04
atom     -1.7799957502    11.4263580153     1.5703996367   Mg  0.0 0.0   -4.89820245e-04 -6.50665784e-05  4.50290006e-05
atom     -1.6017996204     5.3963116670     1.5969373228   Mg  0.0 0.0   -1.10708072e-04 -8.43540137e-05 -3.20103004e-04
atom      2.7498742987     3.6112339057     5.3069879044   Mg  0.0 0.0    8.26548337e-06  4.71509760e-05  1.60969375e-04
atom      9.6740134991     1.5012656898     5.3163210230   Mg  0.0 0.0    9.74164720e-05 -1.62431129e-04 -5.46859286e-05
atom      8.0441451041     8.5735529263     5.3212270453   Mg  0.0 0.0   -5.37258477e-04 -3.01390311e-04 -7.09891914e-05
atom      3.5318091562     8.5866366816     9.0817591010   Mg  0.0 0.0   -1.02957106e-04 -9.43772711e-05 -3.08854252e-04
atom     -1.7811323891    11.4421528112     9.0526634682   Mg  0.0 0.0   -3.96604165e-04 -5.95213057e-04  1.07898626e-04
atom     -1.6058489343     5.3868264852     9.0424245242   Mg  0.0 0.0    8.60571417e-05  2.42674276e-04  8.74223113e-05
atom      3.2306142764     4.0491409458    12.7556232690   Mg  0.0 0.0    3.87154663e-04  3.64899317e-05 -5.12209596e-05
atom      9.0085106489     1.7087516241    12.7704879129   Mg  0.0 0.0   -6.54616909e-05  1.16678119e-04 -3.34659806e-04
atom      8.1710920710     7.8656990169    12.7586902401   Mg  0.0 0.0   -4.82448260e-06 -6.99442645e-05 -1.76621229e-05
atom      3.6513415866     8.8816719228    16.9013108582   Mg  0.0 0.0    2.50137481e-04  3.55669554e-05  3.31867256e-04
atom     -2.1756377299    11.3655079236    16.9120000627   Mg  0.0 0.0    2.80437270e-04  9.35445239e-05  2.67423278e-05
atom     -1.4050175210     5.0714608379    16.9123852492   Mg  0.0 0.0    3.06927655e-04  2.84628003e-04  2.39415502e-05
atom      3.2312808192     4.0519531760    21.0874462806   Mg  0.0 0.0    4.46085170e-04 -2.19106443e-04 -2.37275294e-04
atom      9.0201685173     1.6949982572    21.0751434562   Mg  0.0 0.0    7.33978379e-05  4.74563076e-04 -1.02161593e-05
atom      8.1852938025     7.8595025940    21.0652575273   Mg  0.0 0.0   -5.07367207e-04  1.69245121e-04  8.14489368e-05
atom      0.0548848097     0.6489236127     1.1312425287   Si  0.0 0.0   -1.02959645e-04 -8.30784608e-05  1.06457226e-04
atom      6.8167433607     4.5611539872     1.7866328155   Si  0.0 0.0    2.05120161e-04 -2.77289563e-04  1.67713867e-04
atom      0.0563176410     8.4774642170     5.3218998847   Si  0.0 0.0    2.98724202e-04 -2.07258559e-04 -3.36347137e-04
atom      0.0562921452     0.6442649002     9.4607487687   Si  0.0 0.0   -3.46093272e-04 -1.65951042e-05  2.53322882e-04
atom      0.0231387689     0.6140105050    14.5200190714   Si  0.0 0.0    1.59978729e-04  2.91306525e-04 -4.23472466e-05
atom      6.8140292439     4.5629818661     8.8449860281   Si  0.0 0.0    7.84862700e-05 -1.71474387e-04 -2.65682838e-04
atom      0.0201596495     8.4488163519    13.0672489248   Si  0.0 0.0    3.80564919e-04  9.88121264e-05  1.73662396e-04
atom      0.0333079396     0.6116691195    19.2879047389   Si  0.0 0.0   -1.07633137e-04  1.91000937e-04  2.56341423e-04
atom      6.8026468465     4.5255848468    16.9254532390   Si  0.0 0.0   -1.47770977e-04  3.02046898e-04 -2.01211978e-04
atom      0.0350644154     8.4459995610    20.7531214832   Si  0.0 0.0    1.24214365e-04  1.26170733e-04  3.17906943e-04
energy -3.597708095302399e+02
charge 0.0000
end
