begin
comment 2 atoms, species Al2
lattice      5.4294139408     0.0000000000    -0.0000000000
lattice     -2.7147069704     4.7020104004     0.0000000000
lattice     -0.0000000000     0.0000000000     8.9407980936
atom      0.0000000000     3.1346736003     6.7055985702   Al  0.0 0.0    4.74503028e-15  4.65084215e-15  1.01050498e-13
atom      2.7147069704     1.5673368001     2.2351995234   Al  0.0 0.0   -4.73369532e-15 -4.64503973e-15 -1.00999884e-13
energy -3.950109157630737e+01
charge 0.0000
end
