begin
comment uuid: 2de31ede-4cd9-4681-ab6d-28c194209012 parent_uuid: 46939af9-eee4-4d42-a067-25e919f9bf55 trajectory_step: final_scf
lattice     13.5489774015     0.0000000013     0.0000000000
lattice     -6.7744886995    11.7337586240     0.0000000000
lattice      0.0000000000     0.0000000002    23.2039878050
atom      3.4745532175     8.0736906253     1.8435565069   Mg  0.0 0.0   -2.88395410e-07 -7.55686953e-07  4.83103435e-07
atom     -1.9548091494    10.7059648691     1.8435564993   Mg  0.0 0.0    7.98711384e-07  1.28098085e-07  4.83193698e-07
atom     -1.5197443198     4.6878619849     1.8435564752   Mg  0.0 0.0   -5.10245859e-07  6.27710336e-07  4.83161845e-07
atom      2.8496077128     3.0781769057     5.8009970482   Mg  0.0 0.0    7.59765500e-07 -1.40742730e-06  8.75230781e-12
atom      9.4583940867     0.9287444161     5.8009970482   Mg  0.0 0.0    8.38917268e-07  1.36178021e-06  8.75319137e-12
atom      8.0154640580     7.7268375372     5.8009970482   Mg  0.0 0.0   -1.59895254e-06  4.56380562e-08  8.75209709e-12
atom      3.4745532173     8.0736906241     9.7584375873   Mg  0.0 0.0   -2.88386880e-07 -7.55663046e-07 -4.83044366e-07
atom     -1.9548091482    10.7059648697     9.7584375948   Mg  0.0 0.0    7.98686564e-07  1.28093531e-07 -4.83134723e-07
atom     -1.5197443207     4.6878619857     9.7584376190   Mg  0.0 0.0   -5.10229422e-07  6.27690968e-07 -4.83102728e-07
atom      3.2999353108     3.6600681967    13.4455504322   Mg  0.0 0.0    2.88483613e-07  7.55604241e-07  4.83094296e-07
atom      8.7292976596     1.0277939273    13.4455504312   Mg  0.0 0.0   -7.98531884e-07 -1.28065981e-07  4.83062217e-07
atom      8.2942328608     7.0458968062    13.4455504033   Mg  0.0 0.0    5.10267646e-07 -6.27594172e-07  4.83086076e-07
atom      3.9248808405     8.6555819166    17.4029909518   Mg  0.0 0.0   -7.59917152e-07  1.40739688e-06 -8.75200577e-12
atom     -2.6839055813    10.8050143979    17.4029909518   Mg  0.0 0.0   -8.39035565e-07 -1.36182905e-06 -8.75293225e-12
atom     -1.2409755165     4.0069212424    17.4029909518   Mg  0.0 0.0    1.59873790e-06 -4.57486743e-08 -8.75169571e-12
atom      3.2999353106     3.6600681955    21.3604314736   Mg  0.0 0.0    2.88492143e-07  7.55628149e-07 -4.83153366e-07
atom      8.7292976608     1.0277939278    21.3604314747   Mg  0.0 0.0   -7.98556704e-07 -1.28070534e-07 -4.83121193e-07
atom      8.2942328598     7.0458968071    21.3604315024   Mg  0.0 0.0    5.10284082e-07 -6.27613542e-07 -4.83145193e-07
atom     -0.0000000826     0.0000000654     2.3092601270   Si  0.0 0.0   -8.34474351e-12  5.78026938e-11  8.06495399e-07
atom      6.7744886155     3.9112529572     2.1970662979   Si  0.0 0.0    2.47329772e-11  4.37043710e-12 -2.77085744e-07
atom     -0.0000000896     7.8225058179     5.8009970470   Si  0.0 0.0   -1.01581483e-10 -1.04235852e-11  3.11821257e-11
atom     -0.0000000826     0.0000000654     9.2927339703   Si  0.0 0.0   -8.23793850e-12  5.77763701e-11 -8.06499453e-07
atom     -0.0000000907     0.0000001100    13.9112539651   Si  0.0 0.0    3.69438188e-12  3.96683469e-11  8.06531998e-07
atom      6.7744886155     3.9112529573     9.4049278010   Si  0.0 0.0    2.47481639e-11  4.40107603e-12  2.77066305e-07
atom     -0.0000000877     7.8225058474    13.7990602145   Si  0.0 0.0    3.34489960e-11 -6.18514788e-11 -2.77014879e-07
atom     -0.0000000907     0.0000001100    20.8947279376   Si  0.0 0.0    3.80103468e-12  3.96422328e-11 -8.06527944e-07
atom      6.7744886213     3.9112529869    17.4029909530   Si  0.0 0.0   -1.00413165e-10 -1.07803867e-11 -3.11815779e-11
atom     -0.0000000877     7.8225058475    21.0069216865   Si  0.0 0.0    3.34644353e-11 -6.18209446e-11  2.77034319e-07
energy -3.597659560571977e+02
charge 0.0000
end
