begin
comment 255 atoms, species Al255
lattice     30.6223318024     0.0000000000     0.0000000000
lattice      0.0000000000    30.6223318024     0.0000000000
lattice      0.0000000000     0.0000000000    30.6223318024
atom     -0.0033709165    -0.0033709165    -0.0070281117   Al  0.0 0.0    1.92432645e-07  1.92432645e-07  7.77405045e-07
atom     -0.0022905808     3.8255706880     3.8250380254   Al  0.0 0.0   -7.24761960e-08 -7.00673842e-07 -3.51376691e-07
atom      3.8255706880    -0.0022905808     3.8250380254   Al  0.0 0.0   -7.00673842e-07 -7.24761963e-08 -3.51376691e-07
atom      3.8273367447     3.8273367447    -0.0004547306   Al  0.0 0.0    1.62501335e-07  1.62501334e-07  1.62501915e-07
atom     -0.0002001009    -0.0002001009     7.6555829506   Al  0.0 0.0   -4.78054158e-07 -4.78054158e-07  1.17613707e-14
atom     -0.0022905808     3.8255706880    11.4861278758   Al  0.0 0.0   -7.24763533e-08 -7.00673827e-07  3.51376669e-07
atom      3.8255706880    -0.0022905808    11.4861278758   Al  0.0 0.0   -7.00673827e-07 -7.24763531e-08  3.51376668e-07
atom      3.8248984742     3.8248984742     7.6555829506   Al  0.0 0.0   -5.83888572e-07 -5.83888572e-07 -1.00686023e-13
atom     -0.0033709165    -0.0033709165    15.3181940130   Al  0.0 0.0    1.92432645e-07  1.92432645e-07 -7.77405002e-07
atom     -0.0033709165     3.8207633635    19.1423282931   Al  0.0 0.0    1.92432635e-07  7.77405016e-07 -1.92432703e-07
atom      3.8207633635    -0.0033709165    19.1423282931   Al  0.0 0.0    7.77405016e-07  1.92432635e-07 -1.92432703e-07
atom      3.8273367447     3.8273367447    15.3116206318   Al  0.0 0.0    1.62501339e-07  1.62501339e-07 -1.62501449e-07
atom     -0.0661359912    -0.0661359912    22.9667488518   Al  0.0 0.0    9.72787772e-07  9.72787773e-07  9.49009851e-15
atom     -0.0033709165     3.8207633635    26.7911694105   Al  0.0 0.0    1.92432489e-07  7.77405040e-07  1.92432687e-07
atom      3.8207633635    -0.0033709165    26.7911694105   Al  0.0 0.0    7.77405040e-07  1.92432489e-07  1.92432688e-07
atom      3.8109142967     3.8109142967    22.9667488518   Al  0.0 0.0    3.99762605e-07  3.99762605e-07 -9.99066604e-14
atom     -0.0022905808     7.6528295007    -0.0022207873   Al  0.0 0.0   -7.24764359e-08 -3.51376697e-07 -7.00673837e-07
atom     -0.0025613915    11.4833744259     3.8255826391   Al  0.0 0.0    6.85400415e-07 -1.09859253e-14  9.79465684e-08
atom      3.8253559416     7.6543643089     3.8265728336   Al  0.0 0.0    5.73470069e-07 -3.25212329e-07 -3.25212235e-07
atom      3.8248984742    11.4833744259    -0.0028930010   Al  0.0 0.0   -5.83888504e-07 -2.04395900e-14 -5.83888678e-07
atom     -0.0025613915     7.6533741144     7.6555829506   Al  0.0 0.0    6.85400591e-07  9.79465622e-08  3.04205539e-14
atom     -0.0025613915    11.4833744259    11.4855832620   Al  0.0 0.0    6.85400587e-07 -1.10509284e-14 -9.79466284e-08
atom      3.8253559416     7.6543643089    11.4845930675   Al  0.0 0.0    5.73470057e-07 -3.25212178e-07  3.25212212e-07
atom      3.8251652457    11.4833744259     7.6555829506   Al  0.0 0.0    1.82859540e-06  1.02140137e-14  1.42207484e-13
atom     -0.0022905808     7.6528295007    15.3133866885   Al  0.0 0.0   -7.24764310e-08 -3.51376690e-07  7.00673867e-07
atom     -0.0002001009    11.4833744259    19.1391574775   Al  0.0 0.0   -4.78054148e-07  8.04330974e-16  4.78054463e-07
atom      3.8255706880     7.6528295007    19.1412479573   Al  0.0 0.0   -7.00673877e-07 -3.51376692e-07  7.24764212e-08
atom      3.8248984742    11.4833744259    15.3140589022   Al  0.0 0.0   -5.83888507e-07 -2.02776030e-14  5.83888519e-07
atom     -0.0015554022     7.6543941796    22.9667488518   Al  0.0 0.0   -2.08393058e-07 -1.87795963e-06  2.87570304e-14
atom     -0.0002001009    11.4833744259    26.7943402262   Al  0.0 0.0   -4.78053973e-07  9.33835425e-16 -4.78054524e-07
atom      3.8255706880     7.6528295007    26.7922497463   Al  0.0 0.0   -7.00673893e-07 -3.51376544e-07 -7.24764473e-08
atom      3.8255233394    11.4833744259    22.9667488518   Al  0.0 0.0   -1.43957954e-07 -2.84346587e-14  1.43776505e-13
atom     -0.0022905808    15.3139193511    -0.0022207873   Al  0.0 0.0   -7.24764144e-08  3.51376674e-07 -7.00673794e-07
atom     -0.0022905808    19.1411781638     3.8250380254   Al  0.0 0.0   -7.24762812e-08  7.00673862e-07 -3.51376715e-07
atom      3.8253559416    15.3123845429     3.8265728336   Al  0.0 0.0    5.73470073e-07  3.25212264e-07 -3.25212199e-07
atom      3.8273367447    19.1394121071    -0.0004547306   Al  0.0 0.0    1.62501257e-07 -1.62501374e-07  1.62501837e-07
atom     -0.0025613915    15.3133747373     7.6555829506   Al  0.0 0.0    6.85400563e-07 -9.79466305e-08  3.03237510e-14
atom     -0.0022905808    19.1411781638    11.4861278758   Al  0.0 0.0   -7.24764385e-08  7.00673848e-07  3.51376692e-07
atom      3.8253559416    15.3123845429    11.4845930675   Al  0.0 0.0    5.73470061e-07  3.25212113e-07  3.25212175e-07
atom      3.8248984742    19.1418503775     7.6555829506   Al  0.0 0.0   -5.83888518e-07  5.83888569e-07 -1.00623867e-13
atom     -0.0022905808    15.3139193511    15.3133866885   Al  0.0 0.0   -7.24764098e-08  3.51376668e-07  7.00673825e-07
atom     -0.0033709165    19.1459854883    19.1423282931   Al  0.0 0.0    1.92432666e-07 -7.77404967e-07 -1.92432735e-07
atom      3.8255706880    15.3139193511    19.1412479573   Al  0.0 0.0   -7.00673834e-07  3.51376669e-07  7.24763996e-08
atom      3.8273367447    19.1394121071    15.3116206318   Al  0.0 0.0    1.62501262e-07 -1.62501378e-07 -1.62501371e-07
atom     -0.0015554022    15.3123546722    22.9667488518   Al  0.0 0.0   -2.08393120e-07  1.87795948e-06  2.90194596e-14
atom     -0.0033709165    19.1459854883    26.7911694105   Al  0.0 0.0    1.92432521e-07 -7.77404991e-07  1.92432720e-07
atom      3.8255706880    15.3139193511    26.7922497463   Al  0.0 0.0   -7.00673851e-07  3.51376522e-07 -7.24764257e-08
atom      3.8109142967    19.1558345551    22.9667488518   Al  0.0 0.0    3.99762707e-07 -3.99762604e-07 -9.96465644e-14
atom     -0.0033709165    22.9701197684    -0.0070281117   Al  0.0 0.0    1.92432681e-07 -1.92432719e-07  7.77405095e-07
atom     -0.0015554022    26.7945403271     3.8266027043   Al  0.0 0.0   -2.08393376e-07  2.57369719e-14 -1.87795962e-06
atom      3.8255706880    22.9690394326     3.8250380254   Al  0.0 0.0   -7.00673842e-07  7.24762755e-08 -3.51376654e-07
atom      3.8109142967    26.7945403271    -0.0168771785   Al  0.0 0.0    3.99762670e-07 -2.64786022e-14  3.99762388e-07
atom     -0.0002001009    22.9669489528     7.6555829506   Al  0.0 0.0   -4.78054184e-07  4.78054479e-07  1.17542695e-14
atom     -0.0015554022    26.7945403271    11.4845631969   Al  0.0 0.0   -2.08393197e-07  2.60056374e-14  1.87795954e-06
atom      3.8255706880    22.9690394326    11.4861278758   Al  0.0 0.0   -7.00673826e-07  7.24764331e-08  3.51376632e-07
atom      3.8255233394    26.7945403271     7.6555829506   Al  0.0 0.0   -1.43957890e-07 -1.71336021e-14  1.50591745e-13
atom     -0.0033709165    22.9701197684    15.3181940130   Al  0.0 0.0    1.92432680e-07 -1.92432719e-07 -7.77405052e-07
atom     -0.0661359912    26.7945403271    19.2050933677   Al  0.0 0.0    9.72787778e-07  6.60988763e-14 -9.72787844e-07
atom      3.8207633635    22.9701197684    19.1423282931   Al  0.0 0.0    7.77405066e-07 -1.92432709e-07 -1.92432739e-07
atom      3.8109142967    26.7945403271    15.3280430797   Al  0.0 0.0    3.99762655e-07 -2.67484822e-14 -3.99762560e-07
atom     -0.0661359912    23.0328848430    22.9667488518   Al  0.0 0.0    9.72787659e-07 -9.72787862e-07  1.02594653e-14
atom     -0.0661359912    26.7945403271    26.7284043359   Al  0.0 0.0    9.72787907e-07  6.62498741e-14  9.72787737e-07
atom      3.8207633635    22.9701197684    26.7911694105   Al  0.0 0.0    7.77405090e-07 -1.92432563e-07  1.92432723e-07
atom      3.8117905011    26.7945403271    22.9667488518   Al  0.0 0.0   -6.03943186e-07  5.27377919e-14  1.41124666e-13
atom      7.6528295007    -0.0022905808    -0.0022207873   Al  0.0 0.0   -3.51376697e-07 -7.24764361e-08 -7.00673837e-07
atom      7.6543643089     3.8253559416     3.8265728336   Al  0.0 0.0   -3.25212328e-07  5.73470069e-07 -3.25212235e-07
atom     11.4833744259    -0.0025613915     3.8255826391   Al  0.0 0.0   -1.16885706e-14  6.85400414e-07  9.79465687e-08
atom     11.4833744259     3.8248984742    -0.0028930010   Al  0.0 0.0   -2.08086594e-14 -5.83888504e-07 -5.83888679e-07
atom      7.6533741144    -0.0025613915     7.6555829506   Al  0.0 0.0    9.79465624e-08  6.85400592e-07  2.96211524e-14
atom      7.6543643089     3.8253559416    11.4845930675   Al  0.0 0.0   -3.25212178e-07  5.73470057e-07  3.25212212e-07
atom     11.4833744259    -0.0025613915    11.4855832620   Al  0.0 0.0   -1.12059239e-14  6.85400587e-07 -9.79466282e-08
atom     11.4833744259     3.8251652457     7.6555829506   Al  0.0 0.0    9.91788783e-15  1.82859540e-06  1.42496125e-13
atom      7.6528295007    -0.0022905808    15.3133866885   Al  0.0 0.0   -3.51376690e-07 -7.24764311e-08  7.00673867e-07
atom      7.6528295007     3.8255706880    19.1412479573   Al  0.0 0.0   -3.51376692e-07 -7.00673876e-07  7.24764209e-08
atom     11.4833744259    -0.0002001009    19.1391574775   Al  0.0 0.0    8.94989572e-16 -4.78054148e-07  4.78054463e-07
atom     11.4833744259     3.8248984742    15.3140589022   Al  0.0 0.0   -2.05298058e-14 -5.83888507e-07  5.83888519e-07
atom      7.6543941796    -0.0015554022    22.9667488518   Al  0.0 0.0   -1.87795963e-06 -2.08393058e-07  2.91855914e-14
atom      7.6528295007     3.8255706880    26.7922497463   Al  0.0 0.0   -3.51376544e-07 -7.00673893e-07 -7.24764471e-08
atom     11.4833744259    -0.0002001009    26.7943402262   Al  0.0 0.0    6.81649427e-16 -4.78053972e-07 -4.78054525e-07
atom     11.4833744259     3.8255233394    22.9667488518   Al  0.0 0.0   -2.82855837e-14 -1.43957954e-07  1.43505404e-13
atom      7.6543643089     7.6543643089    -0.0024355336   Al  0.0 0.0   -3.25212186e-07 -3.25212186e-07  5.73470186e-07
atom      7.6540183394    11.4833744259     3.8262268641   Al  0.0 0.0    2.71172070e-07 -1.87672533e-14  2.71171910e-07
atom     11.4833744259     7.6540183394     3.8262268641   Al  0.0 0.0   -1.91868829e-14  2.71172070e-07  2.71171910e-07
atom     11.4833744259    11.4833744259    -0.0026262296   Al  0.0 0.0    1.04543418e-14  1.04062737e-14  1.82859543e-06
atom      7.6540183394     7.6540183394     7.6555829506   Al  0.0 0.0    2.71172052e-07  2.71172052e-07  1.59577939e-14
atom      7.6540183394    11.4833744259    11.4849390371   Al  0.0 0.0    2.71171913e-07 -1.90015766e-14 -2.71172027e-07
atom     11.4833744259     7.6540183394    11.4849390371   Al  0.0 0.0   -1.95052064e-14  2.71171913e-07 -2.71172027e-07
atom     11.4833744259    11.4833744259     7.6555829506   Al  0.0 0.0   -8.03110948e-14 -8.05167265e-14 -6.43148324e-14
atom      7.6543643089     7.6543643089    15.3136014348   Al  0.0 0.0   -3.25212188e-07 -3.25212188e-07 -5.73470139e-07
atom      7.6533741144    11.4833744259    19.1415187681   Al  0.0 0.0    9.79465625e-08 -1.09342981e-14 -6.85400666e-07
atom     11.4833744259     7.6533741144    19.1415187681   Al  0.0 0.0   -1.13392784e-14  9.79465626e-08 -6.85400666e-07
atom     11.4833744259    11.4833744259    15.3137921308   Al  0.0 0.0    9.90297696e-15  9.96286502e-15 -1.82859537e-06
atom      7.6514126913     7.6514126913    22.9667488518   Al  0.0 0.0    2.27068757e-07  2.27068757e-07  1.42177342e-14
atom      7.6533741144    11.4833744259    26.7919789355   Al  0.0 0.0    9.79464044e-08 -1.07826171e-14  6.85400550e-07
atom     11.4833744259     7.6533741144    26.7919789355   Al  0.0 0.0   -1.09202896e-14  9.79464041e-08  6.85400550e-07
atom     11.4833744259    11.4833744259    22.9667488518   Al  0.0 0.0   -1.89020583e-15 -1.65214215e-15 -6.91724089e-14
atom      7.6543643089    15.3123845429    -0.0024355336   Al  0.0 0.0   -3.25212149e-07  3.25212122e-07  5.73470190e-07
atom      7.6543643089    19.1413929101     3.8265728336   Al  0.0 0.0   -3.25212277e-07 -5.73470151e-07 -3.25212183e-07
atom     11.4833744259    15.3127305124     3.8262268641   Al  0.0 0.0   -1.98248118e-14 -2.71172060e-07  2.71171809e-07
atom     11.4833744259    19.1418503775    -0.0028930010   Al  0.0 0.0   -2.01927594e-14  5.83888501e-07 -5.83888624e-07
atom      7.6540183394    15.3127305124     7.6555829506   Al  0.0 0.0    2.71171952e-07 -2.71172042e-07  1.54924239e-14
atom      7.6543643089    19.1413929101    11.4845930675   Al  0.0 0.0   -3.25212126e-07 -5.73470138e-07  3.25212159e-07
atom     11.4833744259    15.3127305124    11.4849390371   Al  0.0 0.0   -1.90067043e-14 -2.71171902e-07 -2.71171927e-07
atom     11.4833744259    19.1415836061     7.6555829506   Al  0.0 0.0    9.70441275e-15 -1.82859546e-06  1.43006400e-13
atom      7.6543643089    15.3123845429    15.3136014348   Al  0.0 0.0   -3.25212151e-07  3.25212122e-07 -5.73470141e-07
atom      7.6528295007    19.1411781638    19.1412479573   Al  0.0 0.0   -3.51376716e-07  7.00673897e-07  7.24765067e-08
atom     11.4833744259    15.3133747373    19.1415187681   Al  0.0 0.0   -1.06292241e-14 -9.79466307e-08 -6.85400638e-07
atom     11.4833744259    19.1418503775    15.3140589022   Al  0.0 0.0   -2.00965472e-14  5.83888504e-07  5.83888464e-07
atom      7.6514126913    15.3153361604    22.9667488518   Al  0.0 0.0    2.27068780e-07 -2.27068726e-07  1.43569298e-14
atom      7.6528295007    19.1411781638    26.7922497463   Al  0.0 0.0   -3.51376568e-07  7.00673913e-07 -7.24765325e-08
atom     11.4833744259    15.3133747373    26.7919789356   Al  0.0 0.0   -1.04750551e-14 -9.79464734e-08  6.85400523e-07
atom     11.4833744259    19.1412255124    22.9667488518   Al  0.0 0.0   -2.84627600e-14  1.43958037e-07  1.42899116e-13
atom      7.6528295007    22.9690394326    -0.0022207873   Al  0.0 0.0   -3.51376660e-07  7.24765158e-08 -7.00673836e-07
atom      7.6514126913    26.7945403271     3.8236212160   Al  0.0 0.0    2.27069016e-07 -6.45336650e-14  2.27068754e-07
atom     11.4833744259    22.9693102434     3.8255826391   Al  0.0 0.0   -1.05909011e-14 -6.85400374e-07  9.79464652e-08
atom     11.4833744259    26.7945403271    -0.0022681359   Al  0.0 0.0   -2.92242939e-14 -1.66246084e-14 -1.43957756e-07
atom      7.6533741144    22.9693102434     7.6555829506   Al  0.0 0.0    9.79464587e-08 -6.85400551e-07  3.07085032e-14
atom      7.6514126913    26.7945403271    11.4875446851   Al  0.0 0.0    2.27068843e-07 -6.59179808e-14 -2.27068822e-07
atom     11.4833744259    22.9693102434    11.4855832620   Al  0.0 0.0   -1.14931437e-14 -6.85400546e-07 -9.79465248e-08
atom     11.4833744259    26.7945403271     7.6555829506   Al  0.0 0.0   -1.94316978e-15  2.59555072e-14 -5.73453225e-14
atom      7.6528295007    22.9690394326    15.3133866885   Al  0.0 0.0   -3.51376654e-07  7.24765108e-08  7.00673866e-07
atom      7.6543941796    26.7945403271    19.1405127787   Al  0.0 0.0   -1.87795963e-06  2.55997885e-14  2.08393093e-07
atom     11.4833744259    22.9669489528    19.1391574775   Al  0.0 0.0    1.02166450e-15  4.78054469e-07  4.78054489e-07
atom     11.4833744259    26.7945403271    15.3134340371   Al  0.0 0.0   -2.90190501e-14 -1.70588285e-14  1.43957918e-07
atom      7.6543941796    22.9683042541    22.9667488518   Al  0.0 0.0   -1.87795960e-06  2.08393074e-07  2.88502971e-14
atom      7.6543941796    26.7945403271    26.7929849249   Al  0.0 0.0   -1.87795980e-06  2.59725518e-14 -2.08393144e-07
atom     11.4833744259    22.9669489528    26.7943402262   Al  0.0 0.0    9.54633053e-16  4.78054294e-07 -4.78054550e-07
atom     11.4833744259    26.7945403271    22.9667488518   Al  0.0 0.0    7.67660522e-14  8.28413042e-14 -6.33185134e-14
atom     15.3139193511    -0.0022905808    -0.0022207873   Al  0.0 0.0    3.51376675e-07 -7.24764144e-08 -7.00673795e-07
atom     15.3123845429     3.8253559416     3.8265728336   Al  0.0 0.0    3.25212264e-07  5.73470072e-07 -3.25212198e-07
atom     19.1411781638    -0.0022905808     3.8250380254   Al  0.0 0.0    7.00673862e-07 -7.24762812e-08 -3.51376714e-07
atom     19.1394121071     3.8273367447    -0.0004547306   Al  0.0 0.0   -1.62501374e-07  1.62501257e-07  1.62501837e-07
atom     15.3133747373    -0.0025613915     7.6555829506   Al  0.0 0.0   -9.79466304e-08  6.85400564e-07  3.03081313e-14
atom     15.3123845429     3.8253559416    11.4845930675   Al  0.0 0.0    3.25212113e-07  5.73470061e-07  3.25212175e-07
atom     19.1411781638    -0.0022905808    11.4861278758   Al  0.0 0.0    7.00673846e-07 -7.24764384e-08  3.51376692e-07
atom     19.1418503775     3.8248984742     7.6555829506   Al  0.0 0.0    5.83888568e-07 -5.83888518e-07 -1.00908329e-13
atom     15.3139193511    -0.0022905808    15.3133866885   Al  0.0 0.0    3.51376668e-07 -7.24764092e-08  7.00673825e-07
atom     15.3139193511     3.8255706880    19.1412479573   Al  0.0 0.0    3.51376670e-07 -7.00673834e-07  7.24763993e-08
atom     19.1459854883    -0.0033709165    19.1423282931   Al  0.0 0.0   -7.77404966e-07  1.92432667e-07 -1.92432735e-07
atom     19.1394121071     3.8273367447    15.3116206318   Al  0.0 0.0   -1.62501379e-07  1.62501262e-07 -1.62501371e-07
atom     15.3123546722    -0.0015554022    22.9667488518   Al  0.0 0.0    1.87795948e-06 -2.08393120e-07  2.94446710e-14
atom     15.3139193511     3.8255706880    26.7922497463   Al  0.0 0.0    3.51376521e-07 -7.00673850e-07 -7.24764253e-08
atom     19.1459854883    -0.0033709165    26.7911694105   Al  0.0 0.0   -7.77404991e-07  1.92432521e-07  1.92432720e-07
atom     19.1558345551     3.8109142967    22.9667488518   Al  0.0 0.0   -3.99762604e-07  3.99762707e-07 -1.00243116e-13
atom     15.3123845429     7.6543643089    -0.0024355336   Al  0.0 0.0    3.25212121e-07 -3.25212149e-07  5.73470190e-07
atom     15.3127305124    11.4833744259     3.8262268641   Al  0.0 0.0   -2.71172060e-07 -1.92156766e-14  2.71171810e-07
atom     19.1413929101     7.6543643089     3.8265728336   Al  0.0 0.0   -5.73470151e-07 -3.25212277e-07 -3.25212183e-07
atom     19.1418503775    11.4833744259    -0.0028930010   Al  0.0 0.0    5.83888500e-07 -1.99768378e-14 -5.83888624e-07
atom     15.3127305124     7.6540183394     7.6555829506   Al  0.0 0.0   -2.71172041e-07  2.71171952e-07  1.54418154e-14
atom     15.3127305124    11.4833744259    11.4849390371   Al  0.0 0.0   -2.71171902e-07 -1.94020772e-14 -2.71171927e-07
atom     19.1413929101     7.6543643089    11.4845930675   Al  0.0 0.0   -5.73470139e-07 -3.25212126e-07  3.25212160e-07
atom     19.1415836061    11.4833744259     7.6555829506   Al  0.0 0.0   -1.82859546e-06  1.00562970e-14  1.42383841e-13
atom     15.3123845429     7.6543643089    15.3136014348   Al  0.0 0.0    3.25212124e-07 -3.25212151e-07 -5.73470142e-07
atom     15.3133747373    11.4833744259    19.1415187681   Al  0.0 0.0   -9.79466305e-08 -1.06335855e-14 -6.85400638e-07
atom     19.1411781638     7.6528295007    19.1412479573   Al  0.0 0.0    7.00673896e-07 -3.51376716e-07  7.24765058e-08
atom     19.1418503775    11.4833744259    15.3140589022   Al  0.0 0.0    5.83888504e-07 -2.07318956e-14  5.83888465e-07
atom     15.3153361604     7.6514126913    22.9667488518   Al  0.0 0.0   -2.27068727e-07  2.27068780e-07  1.42805816e-14
atom     15.3133747373    11.4833744259    26.7919789356   Al  0.0 0.0   -9.79464727e-08 -1.08178376e-14  6.85400522e-07
atom     19.1411781638     7.6528295007    26.7922497463   Al  0.0 0.0    7.00673913e-07 -3.51376568e-07 -7.24765329e-08
atom     19.1412255124    11.4833744259    22.9667488518   Al  0.0 0.0    1.43958037e-07 -2.84633534e-14  1.43779914e-13
atom     15.3123845429    15.3123845429    -0.0024355336   Al  0.0 0.0    3.25212084e-07  3.25212084e-07  5.73470193e-07
atom     15.3123845429    19.1413929101     3.8265728336   Al  0.0 0.0    3.25212212e-07 -5.73470153e-07 -3.25212147e-07
atom     19.1413929101    15.3123845429     3.8265728336   Al  0.0 0.0   -5.73470153e-07  3.25212212e-07 -3.25212147e-07
atom     19.1394121071    19.1394121071    -0.0004547306   Al  0.0 0.0   -1.62501297e-07 -1.62501297e-07  1.62501760e-07
atom     15.3127305124    15.3127305124     7.6555829506   Al  0.0 0.0   -2.71171941e-07 -2.71171942e-07  1.60386645e-14
atom     15.3123845429    19.1413929101    11.4845930675   Al  0.0 0.0    3.25212060e-07 -5.73470142e-07  3.25212123e-07
atom     19.1413929101    15.3123845429    11.4845930675   Al  0.0 0.0   -5.73470142e-07  3.25212061e-07  3.25212123e-07
atom     19.1418503775    19.1418503775     7.6555829506   Al  0.0 0.0    5.83888514e-07  5.83888514e-07 -1.01281980e-13
atom     15.3123845429    15.3123845429    15.3136014348   Al  0.0 0.0    3.25212086e-07  3.25212087e-07 -5.73470144e-07
atom     15.3139193511    19.1411781638    19.1412479573   Al  0.0 0.0    3.51376693e-07  7.00673854e-07  7.24764845e-08
atom     19.1411781638    15.3139193511    19.1412479573   Al  0.0 0.0    7.00673854e-07  3.51376693e-07  7.24764846e-08
atom     19.1394121071    19.1394121071    15.3116206318   Al  0.0 0.0   -1.62501302e-07 -1.62501302e-07 -1.62501295e-07
atom     15.3153361604    15.3153361604    22.9667488518   Al  0.0 0.0   -2.27068750e-07 -2.27068750e-07  1.39428874e-14
atom     15.3139193511    19.1411781638    26.7922497463   Al  0.0 0.0    3.51376545e-07  7.00673871e-07 -7.24765107e-08
atom     19.1411781638    15.3139193511    26.7922497463   Al  0.0 0.0    7.00673870e-07  3.51376545e-07 -7.24765103e-08
atom     19.1558345551    19.1558345551    22.9667488518   Al  0.0 0.0   -3.99762707e-07 -3.99762706e-07 -1.00731721e-13
atom     15.3139193511    22.9690394326    -0.0022207873   Al  0.0 0.0    3.51376638e-07  7.24764939e-08 -7.00673794e-07
atom     15.3153361605    26.7945403271     3.8236212160   Al  0.0 0.0   -2.27068985e-07 -6.52801811e-14  2.27068777e-07
atom     19.1411781638    22.9690394326     3.8250380254   Al  0.0 0.0    7.00673862e-07  7.24763612e-08 -3.51376679e-07
atom     19.1558345551    26.7945403271    -0.0168771785   Al  0.0 0.0   -3.99762669e-07 -2.68414600e-14  3.99762490e-07
atom     15.3133747373    22.9693102434     7.6555829506   Al  0.0 0.0   -9.79465274e-08 -6.85400522e-07  2.99619927e-14
atom     15.3153361604    26.7945403271    11.4875446851   Al  0.0 0.0   -2.27068813e-07 -6.51797516e-14 -2.27068845e-07
atom     19.1411781638    22.9690394326    11.4861278758   Al  0.0 0.0    7.00673846e-07  7.24765184e-08  3.51376656e-07
atom     19.1412255124    26.7945403271     7.6555829506   Al  0.0 0.0    1.43957973e-07 -1.60595649e-14  1.50557995e-13
atom     15.3139193511    22.9690394326    15.3133866885   Al  0.0 0.0    3.51376631e-07  7.24764893e-08  7.00673824e-07
atom     15.3123546722    26.7945403271    19.1405127787   Al  0.0 0.0    1.87795947e-06  2.61642501e-14  2.08393156e-07
atom     19.1459854883    22.9701197684    19.1423282931   Al  0.0 0.0   -7.77405016e-07 -1.92432740e-07 -1.92432770e-07
atom     19.1558345551    26.7945403271    15.3280430797   Al  0.0 0.0   -3.99762654e-07 -2.70220683e-14 -3.99762661e-07
atom     15.3123546722    22.9683042541    22.9667488518   Al  0.0 0.0    1.87795945e-06  2.08393137e-07  2.95602000e-14
atom     15.3123546722    26.7945403271    26.7929849249   Al  0.0 0.0    1.87795965e-06  2.60700251e-14 -2.08393206e-07
atom     19.1459854883    22.9701197684    26.7911694105   Al  0.0 0.0   -7.77405041e-07 -1.92432596e-07  1.92432755e-07
atom     19.1549583507    26.7945403271    22.9667488518   Al  0.0 0.0    6.03943313e-07  5.22274019e-14  1.40305537e-13
atom     22.9701197684    -0.0033709165    -0.0070281117   Al  0.0 0.0   -1.92432719e-07  1.92432681e-07  7.77405094e-07
atom     22.9690394326     3.8255706880     3.8250380254   Al  0.0 0.0    7.24762760e-08 -7.00673842e-07 -3.51376655e-07
atom     26.7945403271    -0.0015554022     3.8266027043   Al  0.0 0.0    2.60274977e-14 -2.08393376e-07 -1.87795962e-06
atom     26.7945403271     3.8109142967    -0.0168771785   Al  0.0 0.0   -2.70538514e-14  3.99762670e-07  3.99762388e-07
atom     22.9669489528    -0.0002001009     7.6555829506   Al  0.0 0.0    4.78054479e-07 -4.78054184e-07  1.17249285e-14
atom     22.9690394326     3.8255706880    11.4861278758   Al  0.0 0.0    7.24764337e-08 -7.00673826e-07  3.51376632e-07
atom     26.7945403271    -0.0015554022    11.4845631969   Al  0.0 0.0    2.63629586e-14 -2.08393197e-07  1.87795954e-06
atom     26.7945403271     3.8255233394     7.6555829506   Al  0.0 0.0   -1.73392507e-14 -1.43957890e-07  1.50692925e-13
atom     22.9701197684    -0.0033709165    15.3181940130   Al  0.0 0.0   -1.92432719e-07  1.92432680e-07 -7.77405051e-07
atom     22.9701197684     3.8207633635    19.1423282931   Al  0.0 0.0   -1.92432709e-07  7.77405065e-07 -1.92432739e-07
atom     26.7945403271    -0.0661359912    19.2050933677   Al  0.0 0.0    6.61238402e-14  9.72787778e-07 -9.72787845e-07
atom     26.7945403271     3.8109142967    15.3280430797   Al  0.0 0.0   -2.71132250e-14  3.99762655e-07 -3.99762559e-07
atom     23.0328848430    -0.0661359912    22.9667488518   Al  0.0 0.0   -9.72787862e-07  9.72787659e-07  9.08991284e-15
atom     22.9701197684     3.8207633635    26.7911694105   Al  0.0 0.0   -1.92432564e-07  7.77405090e-07  1.92432723e-07
atom     26.7945403271    -0.0661359912    26.7284043359   Al  0.0 0.0    6.62976429e-14  9.72787907e-07  9.72787736e-07
atom     26.7945403271     3.8117905011    22.9667488518   Al  0.0 0.0    5.30808093e-14 -6.03943186e-07  1.40889390e-13
atom     22.9690394326     7.6528295007    -0.0022207873   Al  0.0 0.0    7.24765161e-08 -3.51376660e-07 -7.00673836e-07
atom     22.9693102434    11.4833744259     3.8255826391   Al  0.0 0.0   -6.85400374e-07 -1.10330615e-14  9.79464656e-08
atom     26.7945403271     7.6514126913     3.8236212160   Al  0.0 0.0   -6.52286482e-14  2.27069016e-07  2.27068754e-07
atom     26.7945403271    11.4833744259    -0.0022681359   Al  0.0 0.0   -1.71265852e-14 -2.85034444e-14 -1.43957756e-07
atom     22.9693102434     7.6533741144     7.6555829506   Al  0.0 0.0   -6.85400550e-07  9.79464586e-08  3.03569339e-14
atom     22.9693102434    11.4833744259    11.4855832620   Al  0.0 0.0   -6.85400546e-07 -1.11108713e-14 -9.79465252e-08
atom     26.7945403271     7.6514126913    11.4875446851   Al  0.0 0.0   -6.52944989e-14  2.27068843e-07 -2.27068822e-07
atom     26.7945403271    11.4833744259     7.6555829506   Al  0.0 0.0    2.57311695e-14 -1.40472543e-15 -5.72706205e-14
atom     22.9690394326     7.6528295007    15.3133866885   Al  0.0 0.0    7.24765113e-08 -3.51376654e-07  7.00673866e-07
atom     22.9669489528    11.4833744259    19.1391574775   Al  0.0 0.0    4.78054470e-07  1.35484824e-15  4.78054490e-07
atom     26.7945403271     7.6543941796    19.1405127787   Al  0.0 0.0    2.61775510e-14 -1.87795962e-06  2.08393094e-07
atom     26.7945403271    11.4833744259    15.3134340371   Al  0.0 0.0   -1.66575338e-14 -2.85641168e-14  1.43957919e-07
atom     22.9683042541     7.6543941796    22.9667488518   Al  0.0 0.0    2.08393074e-07 -1.87795960e-06  2.97950585e-14
atom     22.9669489528    11.4833744259    26.7943402262   Al  0.0 0.0    4.78054294e-07  6.94721740e-16 -4.78054550e-07
atom     26.7945403271     7.6543941796    26.7929849249   Al  0.0 0.0    2.60067170e-14 -1.87795980e-06 -2.08393144e-07
atom     26.7945403271    11.4833744259    22.9667488518   Al  0.0 0.0    8.25611519e-14  7.66227797e-14 -6.38730789e-14
atom     22.9690394326    15.3139193511    -0.0022207873   Al  0.0 0.0    7.24764940e-08  3.51376638e-07 -7.00673794e-07
atom     22.9690394326    19.1411781638     3.8250380254   Al  0.0 0.0    7.24763614e-08  7.00673862e-07 -3.51376679e-07
atom     26.7945403271    15.3153361605     3.8236212160   Al  0.0 0.0   -6.50756262e-14 -2.27068985e-07  2.27068777e-07
atom     26.7945403271    19.1558345551    -0.0168771785   Al  0.0 0.0   -2.68279618e-14 -3.99762670e-07  3.99762490e-07
atom     22.9693102434    15.3133747373     7.6555829506   Al  0.0 0.0   -6.85400522e-07 -9.79465277e-08  3.02523639e-14
atom     22.9690394326    19.1411781638    11.4861278758   Al  0.0 0.0    7.24765187e-08  7.00673846e-07  3.51376656e-07
atom     26.7945403271    15.3153361604    11.4875446851   Al  0.0 0.0   -6.56388658e-14 -2.27068813e-07 -2.27068845e-07
atom     26.7945403271    19.1412255124     7.6555829506   Al  0.0 0.0   -1.69441463e-14  1.43957973e-07  1.50689852e-13
atom     22.9690394326    15.3139193511    15.3133866885   Al  0.0 0.0    7.24764894e-08  3.51376632e-07  7.00673824e-07
atom     22.9701197684    19.1459854883    19.1423282931   Al  0.0 0.0   -1.92432740e-07 -7.77405016e-07 -1.92432770e-07
atom     26.7945403271    15.3123546722    19.1405127787   Al  0.0 0.0    2.60083362e-14  1.87795947e-06  2.08393156e-07
atom     26.7945403271    19.1558345551    15.3280430797   Al  0.0 0.0   -2.65227275e-14 -3.99762654e-07 -3.99762661e-07
atom     22.9683042541    15.3123546722    22.9667488518   Al  0.0 0.0    2.08393137e-07  1.87795945e-06  2.85468147e-14
atom     22.9701197684    19.1459854883    26.7911694105   Al  0.0 0.0   -1.92432595e-07 -7.77405041e-07  1.92432755e-07
atom     26.7945403271    15.3123546722    26.7929849249   Al  0.0 0.0    2.65049155e-14  1.87795964e-06 -2.08393206e-07
atom     26.7945403271    19.1549583507    22.9667488518   Al  0.0 0.0    5.24101575e-14  6.03943313e-07  1.40806920e-13
atom     22.9701197684    22.9701197684    -0.0070281117   Al  0.0 0.0   -1.92432756e-07 -1.92432755e-07  7.77405145e-07
atom     22.9683042541    26.7945403271     3.8266027043   Al  0.0 0.0    2.08393393e-07  2.56758947e-14 -1.87795959e-06
atom     26.7945403271    22.9683042541     3.8266027043   Al  0.0 0.0    2.54399689e-14  2.08393393e-07 -1.87795959e-06
atom     26.7945403271    26.7945403271    -0.0160009742   Al  0.0 0.0    5.30033538e-14  5.26073133e-14 -6.03943008e-07
atom     22.9669489528    22.9669489528     7.6555829506   Al  0.0 0.0    4.78054506e-07  4.78054506e-07  1.13640377e-14
atom     22.9683042541    26.7945403271    11.4845631969   Al  0.0 0.0    2.08393215e-07  2.55214474e-14  1.87795951e-06