begin
comment 108 atoms, species Al107Mg
lattice     22.9829112794    -0.0000000000     0.0000000000
lattice     -0.0000000000    22.9829112794     0.0000000000
lattice      0.0000000000     0.0000000000    22.9829112794
atom      0.0000000000     0.0000000000     0.0000000000   Mg  0.0 0.0   -2.24792773e-13 -1.64026591e-13 -9.38707434e-14
atom      0.0000000000     3.8805979431     3.8805979431   Al  0.0 0.0   -1.56889614e-13 -1.11098254e-06 -1.11098250e-06
atom      3.8805979431     0.0000000000     3.8805979431   Al  0.0 0.0   -1.11098240e-06 -2.22013870e-13 -1.11098262e-06
atom      3.8805979431     3.8805979431     0.0000000001   Al  0.0 0.0   -1.11098262e-06 -1.11098254e-06 -4.46471467e-13
atom      0.0000000000    -0.0000000000     7.6515458652   Al  0.0 0.0   -2.63123291e-13  2.35688909e-13 -1.41797790e-06
atom     -0.0000000001     3.8361640448    11.4914556397   Al  0.0 0.0    2.43990418e-13  3.21888127e-07 -9.27761306e-14
atom      3.8361640448    -0.0000000000    11.4914556397   Al  0.0 0.0    3.21888512e-07  3.68007159e-13 -7.11302001e-14
atom      3.8450903704     3.8450903704     7.6809590427   Al  0.0 0.0    3.74682608e-07  3.74682686e-07  2.64930768e-07
atom      0.0000000000    -0.0000000000    15.3313654142   Al  0.0 0.0   -3.32176948e-13  1.61445121e-13  1.41797784e-06
atom     -0.0000000001     3.8805979432    19.1023133362   Al  0.0 0.0    3.23498147e-13 -1.11098269e-06  1.11098251e-06
atom      3.8805979431    -0.0000000000    19.1023133362   Al  0.0 0.0   -1.11098260e-06  3.95956340e-13  1.11098269e-06
atom      3.8450903704     3.8450903704    15.3019522367   Al  0.0 0.0    3.74682420e-07  3.74682502e-07 -2.64930515e-07
atom     -0.0000000001     7.6515458652    -0.0000000001   Al  0.0 0.0    2.20822299e-13 -1.41797794e-06  2.51396467e-13
atom     -0.0000000001    11.4914556397     3.8361640448   Al  0.0 0.0    2.46301400e-13 -1.64691927e-13  3.21888488e-07
atom      3.8450903704     7.6809590427     3.8450903704   Al  0.0 0.0    3.74682602e-07  2.64930607e-07  3.74682480e-07
atom      3.8361640448    11.4914556397     0.0000000000   Al  0.0 0.0    3.21888392e-07 -1.33212008e-13 -1.78925368e-13
atom      0.0000000000     7.6796651138     7.6796651138   Al  0.0 0.0   -2.59992953e-13  1.26814527e-07  1.26814602e-07
atom      0.0000000000    11.4914556397    11.4914556397   Al  0.0 0.0   -1.89707293e-13 -8.22821550e-14 -9.84640980e-14
atom      3.8425628317     7.6770159287    11.4914556397   Al  0.0 0.0    1.51947781e-07  1.42464733e-07 -6.88064619e-14
atom      3.8425628317    11.4914556397     7.6770159287   Al  0.0 0.0    1.51947850e-07 -5.99887353e-14  1.42464757e-07
atom      0.0000000000     7.6796651138    15.3032461656   Al  0.0 0.0   -2.78610625e-13  1.26814496e-07 -1.26814528e-07
atom      0.0000000000    11.4914556397    19.1467472345   Al  0.0 0.0   -2.13605167e-13  1.68792124e-13 -3.21888391e-07
atom      3.8450903704     7.6809590427    19.1378209090   Al  0.0 0.0    3.74682613e-07  2.64930403e-07 -3.74682609e-07
atom      3.8425628317    11.4914556397    15.3058953507   Al  0.0 0.0    1.51947987e-07 -7.62325715e-14 -1.42464822e-07
atom      0.0000000000    15.3313654142     0.0000000000   Al  0.0 0.0   -3.00205613e-13  1.41797780e-06 -2.35407019e-13
atom     -0.0000000001    19.1023133362     3.8805979431   Al  0.0 0.0    3.36741429e-13  1.11098264e-06 -1.11098253e-06
atom      3.8450903703    15.3019522367     3.8450903703   Al  0.0 0.0    3.74682604e-07 -2.64930569e-07  3.74682872e-07
atom      3.8805979431    19.1023133362     0.0000000000   Al  0.0 0.0   -1.11098257e-06  1.11098259e-06  4.75260581e-14
atom      0.0000000000    15.3032461656     7.6796651138   Al  0.0 0.0   -2.87569022e-13 -1.26814536e-07  1.26814472e-07
atom      0.0000000000    19.1467472346    11.4914556397   Al  0.0 0.0   -1.95684325e-13 -3.21888747e-07 -2.88224937e-14
atom      3.8425628317    15.3058953507    11.4914556397   Al  0.0 0.0    1.51948011e-07 -1.42464870e-07 -1.12966721e-13
atom      3.8450903703    19.1378209090     7.6809590427   Al  0.0 0.0    3.74682888e-07 -3.74682622e-07  2.64930293e-07
atom      0.0000000000    15.3032461656    15.3032461656   Al  0.0 0.0   -2.84542318e-13 -1.26814429e-07 -1.26814381e-07
atom      0.0000000000    19.1023133362    19.1023133362   Al  0.0 0.0   -2.86128132e-13  1.11098249e-06  1.11098281e-06
atom      3.8450903703    15.3019522367    19.1378209090   Al  0.0 0.0    3.74682782e-07 -2.64930576e-07 -3.74682282e-07
atom      3.8450903703    19.1378209090    15.3019522367   Al  0.0 0.0    3.74682906e-07 -3.74682758e-07 -2.64930537e-07
atom      7.6515458652    -0.0000000001    -0.0000000001   Al  0.0 0.0   -1.41797790e-06  2.03212131e-13  2.35102309e-13
atom      7.6809590427     3.8450903703     3.8450903704   Al  0.0 0.0    2.64930484e-07  3.74682811e-07  3.74682510e-07
atom     11.4914556397     0.0000000000     3.8361640448   Al  0.0 0.0   -1.91253672e-13 -3.37889439e-13  3.21888366e-07
atom     11.4914556397     3.8361640448     0.0000000001   Al  0.0 0.0   -1.97016124e-13  3.21888373e-07 -3.81838367e-13
atom      7.6796651138     0.0000000000     7.6796651138   Al  0.0 0.0    1.26814574e-07 -2.29849106e-13  1.26814541e-07
atom      7.6770159287     3.8425628317    11.4914556397   Al  0.0 0.0    1.42464764e-07  1.51947886e-07 -1.96674836e-14
atom     11.4914556397     0.0000000000    11.4914556397   Al  0.0 0.0   -7.00251075e-14 -1.69739220e-13 -1.12238245e-13
atom     11.4914556397     3.8425628317     7.6770159287   Al  0.0 0.0   -7.24112431e-14  1.51947965e-07  1.42464854e-07
atom      7.6796651138     0.0000000001    15.3032461656   Al  0.0 0.0    1.26814508e-07 -2.42664484e-13 -1.26814502e-07
atom      7.6809590427     3.8450903704    19.1378209090   Al  0.0 0.0    2.64930500e-07  3.74682437e-07 -3.74682611e-07
atom     11.4914556397    -0.0000000001    19.1467472346   Al  0.0 0.0    8.05394639e-14  3.33000355e-13 -3.21888510e-07
atom     11.4914556397     3.8425628317    15.3058953507   Al  0.0 0.0   -1.22815273e-13  1.51947917e-07 -1.42464770e-07
atom      7.6796651138     7.6796651138    -0.0000000001   Al  0.0 0.0    1.26814575e-07  1.26814588e-07  2.51046825e-13
atom      7.6770159287    11.4914556397     3.8425628317   Al  0.0 0.0    1.42464884e-07 -8.62527330e-14  1.51947819e-07
atom     11.4914556397     7.6770159287     3.8425628317   Al  0.0 0.0   -1.78471345e-13  1.42464853e-07  1.51947756e-07
atom     11.4914556397    11.4914556397     0.0000000000   Al  0.0 0.0   -8.54252534e-14 -5.29073619e-14 -2.40448499e-13
atom      7.6747350633     7.6747350633     7.6747350633   Al  0.0 0.0   -3.14680924e-07 -3.14680850e-07 -3.14680906e-07
atom      7.6673988482    11.4914556397    11.4914556397   Al  0.0 0.0   -2.02410980e-07 -1.35228638e-14 -1.10794600e-13
atom     11.4914556397     7.6673988482    11.4914556397   Al  0.0 0.0   -5.45204842e-14 -2.02410980e-07 -2.64527422e-14
atom     11.4914556397    11.4914556397     7.6673988482   Al  0.0 0.0   -7.83748744e-14  6.47527048e-14 -2.02410976e-07
atom      7.6747350633     7.6747350633    15.3081762160   Al  0.0 0.0   -3.14680857e-07 -3.14680879e-07  3.14680939e-07
atom      7.6770159287    11.4914556397    19.1403484476   Al  0.0 0.0    1.42464820e-07  7.69651710e-15 -1.51947615e-07
atom     11.4914556397     7.6770159287    19.1403484476   Al  0.0 0.0   -2.89436187e-15  1.42464913e-07 -1.51947659e-07
atom     11.4914556397    11.4914556397    15.3155124312   Al  0.0 0.0   -2.38614998e-14 -2.71580683e-14  2.02411001e-07
atom      7.6796651138    15.3032461656     0.0000000000   Al  0.0 0.0    1.26814474e-07 -1.26814477e-07 -1.45767188e-13
atom      7.6809590427    19.1378209090     3.8450903704   Al  0.0 0.0    2.64930749e-07 -3.74682434e-07  3.74682667e-07
atom     11.4914556397    15.3058953507     3.8425628317   Al  0.0 0.0   -1.89899700e-13 -1.42464740e-07  1.51947888e-07
atom     11.4914556397    19.1467472346    -0.0000000001   Al  0.0 0.0    6.99168772e-14 -3.21888504e-07  3.12283694e-13
atom      7.6747350633    15.3081762160     7.6747350633   Al  0.0 0.0   -3.14680754e-07  3.14680888e-07 -3.14680866e-07
atom      7.6770159287    19.1403484476    11.4914556397   Al  0.0 0.0    1.42464991e-07 -1.51947566e-07 -1.71204074e-13
atom     11.4914556397    15.3155124312    11.4914556397   Al  0.0 0.0   -4.75549993e-14  2.02410997e-07 -1.32045954e-13
atom     11.4914556397    19.1403484476     7.6770159287   Al  0.0 0.0   -7.63772901e-14 -1.51947479e-07  1.42464893e-07
atom      7.6747350633    15.3081762160    15.3081762160   Al  0.0 0.0   -3.14680726e-07  3.14680795e-07  3.14680749e-07
atom      7.6809590427    19.1378209090    19.1378209090   Al  0.0 0.0    2.64930473e-07 -3.74682924e-07 -3.74682777e-07
atom     11.4914556397    15.3058953507    19.1403484476   Al  0.0 0.0    8.73143207e-14 -1.42464922e-07 -1.51947679e-07
atom     11.4914556397    19.1403484476    15.3058953507   Al  0.0 0.0    1.61576148e-14 -1.51947623e-07 -1.42464911e-07
atom     15.3313654142     0.0000000000     0.0000000000   Al  0.0 0.0    1.41797784e-06 -3.08538526e-13 -2.36613744e-13
atom     15.3019522367     3.8450903704     3.8450903703   Al  0.0 0.0   -2.64930532e-07  3.74682732e-07  3.74682902e-07
atom     19.1023133362    -0.0000000001     3.8805979431   Al  0.0 0.0    1.11098275e-06  2.60956424e-13 -1.11098236e-06
atom     19.1023133362     3.8805979431     0.0000000000   Al  0.0 0.0    1.11098260e-06 -1.11098255e-06 -1.00955017e-13
atom     15.3032461656     0.0000000000     7.6796651138   Al  0.0 0.0   -1.26814508e-07 -2.86049998e-13  1.26814486e-07
atom     15.3058953507     3.8425628317    11.4914556397   Al  0.0 0.0   -1.42464676e-07  1.51947883e-07 -9.93412621e-14
atom     19.1467472345    -0.0000000000    11.4914556397   Al  0.0 0.0   -3.21888363e-07  1.34200903e-13 -4.74007513e-14
atom     19.1378209090     3.8450903704     7.6809590427   Al  0.0 0.0   -3.74682354e-07  3.74682433e-07  2.64930557e-07
atom     15.3032461656     0.0000000000    15.3032461656   Al  0.0 0.0   -1.26814395e-07 -2.77647252e-13 -1.26814458e-07
atom     15.3019522367     3.8450903703    19.1378209090   Al  0.0 0.0   -2.64930562e-07  3.74682726e-07 -3.74682321e-07
atom     19.1023133362     0.0000000000    19.1023133362   Al  0.0 0.0    1.11098261e-06 -2.24854373e-13  1.11098269e-06
atom     19.1378209090     3.8450903704    15.3019522367   Al  0.0 0.0   -3.74682591e-07  3.74682598e-07 -2.64930630e-07
atom     15.3032461656     7.6796651138     0.0000000000   Al  0.0 0.0   -1.26814513e-07  1.26814513e-07 -1.81017967e-13
atom     15.3058953507    11.4914556397     3.8425628317   Al  0.0 0.0   -1.42464869e-07 -9.59772930e-14  1.51947985e-07
atom     19.1378209090     7.6809590427     3.8450903703   Al  0.0 0.0   -3.74682547e-07  2.64930527e-07  3.74682854e-07
atom     19.1467472346    11.4914556397     0.0000000000   Al  0.0 0.0   -3.21888487e-07  1.54355967e-13 -4.11736763e-13
atom     15.3081762160     7.6747350633     7.6747350633   Al  0.0 0.0    3.14680908e-07 -3.14680810e-07 -3.14680814e-07
atom     15.3155124312    11.4914556397    11.4914556397   Al  0.0 0.0    2.02410998e-07  3.49488518e-14 -3.07377012e-14
atom     19.1403484476     7.6770159287    11.4914556397   Al  0.0 0.0   -1.51947594e-07  1.42464946e-07 -1.40892950e-13
atom     19.1403484476    11.4914556397     7.6770159287   Al  0.0 0.0   -1.51947616e-07 -6.53089164e-14  1.42465022e-07
atom     15.3081762160     7.6747350633    15.3081762160   Al  0.0 0.0    3.14680867e-07 -3.14680794e-07  3.14680809e-07
atom     15.3058953507    11.4914556397    19.1403484476   Al  0.0 0.0   -1.42464855e-07  9.98789811e-14 -1.51947565e-07
atom     19.1378209090     7.6809590427    19.1378209090   Al  0.0 0.0   -3.74682808e-07  2.64930621e-07 -3.74682714e-07
atom     19.1403484476    11.4914556397    15.3058953507   Al  0.0 0.0   -1.51947529e-07  6.18013155e-14 -1.42464826e-07
atom     15.3032461656    15.3032461656     0.0000000000   Al  0.0 0.0   -1.26814424e-07 -1.26814405e-07 -3.08141029e-13
atom     15.3019522367    19.1378209090     3.8450903703   Al  0.0 0.0   -2.64930759e-07 -3.74682445e-07  3.74682672e-07
atom     19.1378209090    15.3019522367     3.8450903703   Al  0.0 0.0   -3.74682714e-07 -2.64930473e-07  3.74682804e-07
atom     19.1023133362    19.1023133362     0.0000000000   Al  0.0 0.0    1.11098258e-06  1.11098267e-06 -3.98463290e-13
atom     15.3081762160    15.3081762160     7.6747350633   Al  0.0 0.0    3.14680803e-07  3.14680881e-07 -3.14680779e-07
atom     15.3058953507    19.1403484476    11.4914556397   Al  0.0 0.0   -1.42464996e-07 -1.51947648e-07 -5.58958454e-14
atom     19.1403484476    15.3058953507    11.4914556397   Al  0.0 0.0   -1.51947598e-07 -1.42464880e-07  9.50793642e-15
atom     19.1378209090    19.1378209090     7.6809590427   Al  0.0 0.0   -3.74682768e-07 -3.74682833e-07  2.64930687e-07
atom     15.3081762160    15.3081762160    15.3081762160   Al  0.0 0.0    3.14680912e-07  3.14680855e-07  3.14680891e-07
atom     15.3019522367    19.1378209090    19.1378209090   Al  0.0 0.0   -2.64930272e-07 -3.74682556e-07 -3.74682603e-07
atom     19.1378209090    15.3019522367    19.1378209090   Al  0.0 0.0   -3.74682397e-07 -2.64930555e-07 -3.74682450e-07
atom     19.1378209090    19.1378209090    15.3019522367   Al  0.0 0.0   -3.74682526e-07 -3.74682633e-07 -2.64930344e-07
energy -2.130199336766882e+03
charge 0.0000
end
