
     Program PWSCF v.6.3 starts on 22Feb2020 at 14:12:33 

     This program is part of the open-source Quantum ESPRESSO suite
     for quantum simulation of materials; please cite
         "P. Giannozzi et al., J. Phys.:Condens. Matter 21 395502 (2009);
         "P. Giannozzi et al., J. Phys.:Condens. Matter 29 465901 (2017);
          URL http://www.quantum-espresso.org", 
     in publications or presentations arising from this work. More details at
     http://www.quantum-espresso.org/quote

 *** WARNING: using old-style file format, will disappear from next version ***

     Parallel version (MPI & OpenMP), running on      36 processor cores
     Number of MPI processes:                36
     Threads/MPI process:                     1

     MPI processes distributed on     1 nodes
     K-points division:     npool     =       4
     R & G space division:  proc/nbgrp/npool/nimage =       9
     Reading input from aiida.in
Warning: card &IONS ignored
Warning: card   !PRESS_CONV_THR = 0.05                 ! JUST FOR VOLUME RELAXATIONS ignored
Warning: card / ignored

     Current dimensions of program PWSCF are:
     Max number of different atomic species (ntypx) = 10
     Max number of k-points (npk) =  40000
     Max angular momentum in pseudopotentials (lmaxx) =  3
               file Al.pbe-n-kjpaw_psl.1.0.0.UPF: wavefunction(s)  3S 3P renormalized
               file Mg.pbe-n-kjpaw_psl.0.3.0.UPF: wavefunction(s)  3S renormalized

     Subspace diagonalization in iterative solution of the eigenvalue problem:
     one sub-group per band group will be used
     scalapack distributed-memory algorithm (size of sub-group:  2*  2 procs)

     Found symmetry operation: I + (  0.5000  0.5000 -0.0000)
     This is a supercell, fractional translations are disabled
 
     Parallelization info
     --------------------
     sticks:   dense  smooth     PW     G-vecs:    dense   smooth      PW
     Min         786     315     91                40266    10191    1590
     Max         787     316     92                40270    10193    1592
     Sum        7077    2841    821               362407    91727   14317
 


     bravais-lattice index     =            0
     lattice parameter (alat)  =      28.5890  a.u.
     unit-cell volume          =    2682.7729 (a.u.)^3
     number of atoms/cell      =           22
     number of atomic types    =            3
     number of electrons       =        66.00
     number of Kohn-Sham states=           40
     kinetic-energy cutoff     =      40.0000  Ry
     charge density cutoff     =     400.0000  Ry
     convergence threshold     =      1.0E-12
     mixing beta               =       0.4000
     number of iterations used =            8  local-TF  mixing
     Exchange-correlation      = PBE ( 1  4  3  4 0 0)

     celldm(1)=  28.588964  celldm(2)=   0.000000  celldm(3)=   0.000000
     celldm(4)=   0.000000  celldm(5)=   0.000000  celldm(6)=   0.000000

     crystal axes: (cart. coord. in units of alat)
               a(1) = (   0.958425   0.000000  -0.285344 )  
               a(2) = (   0.000000   0.272436   0.000000 )  
               a(3) = (   0.000000   0.000000   0.439709 )  

     reciprocal axes: (cart. coord. in units 2 pi/alat)
               b(1) = (  1.043378  0.000000  0.000000 )  
               b(2) = (  0.000000  3.670584  0.000000 )  
               b(3) = (  0.677087  0.000000  2.274231 )  


     PseudoPot. # 1 for Al read from file:
     /users/aglensk/Dropbox/Albert/scripts/dotfiles/scripts/potentials/quantum_espresso/pseudo_SSSPefV1.1_alalloy/Al.pbe-n-kjpaw_psl.1.0.0.UPF
     MD5 check sum: cfc449ca30b5f3223ec38ddd88ac046d
     Pseudo is Projector augmented-wave + core cor, Zval =  3.0
     Generated using "atomic" code by A. Dal Corso v.5.1
     Shape of augmentation charge: PSQ
     Using radial grid of 1135 points,  6 beta functions with: 
                l(1) =   0
                l(2) =   0
                l(3) =   1
                l(4) =   1
                l(5) =   2
                l(6) =   2
     Q(r) pseudized with 0 coefficients 


     PseudoPot. # 2 for Mg read from file:
     /users/aglensk/Dropbox/Albert/scripts/dotfiles/scripts/potentials/quantum_espresso/pseudo_SSSPefV1.1_alalloy/Mg.pbe-n-kjpaw_psl.0.3.0.UPF
     MD5 check sum: 24ecedc7f3e3cbe212e682f4413594e4
     Pseudo is Projector augmented-wave + core cor, Zval =  2.0
     Generated using "atomic" code by A. Dal Corso v.5.0.99 svn rev. 10869
     Shape of augmentation charge: PSQ
     Using radial grid of 1129 points,  4 beta functions with: 
                l(1) =   0
                l(2) =   0
                l(3) =   1
                l(4) =   1
     Q(r) pseudized with 0 coefficients 


     PseudoPot. # 3 for Si read from file:
     /users/aglensk/Dropbox/Albert/scripts/dotfiles/scripts/potentials/quantum_espresso/pseudo_SSSPefV1.1_alalloy/Si.pbe-n-rrkjus_psl.1.0.0.UPF
     MD5 check sum: 0b0bb1205258b0d07b9f9672cf965d36
     Pseudo is Ultrasoft + core correction, Zval =  4.0
     Generated using "atomic" code by A. Dal Corso v.5.1
     Using radial grid of 1141 points,  6 beta functions with: 
                l(1) =   0
                l(2) =   0
                l(3) =   1
                l(4) =   1
                l(5) =   2
                l(6) =   2
     Q(r) pseudized with 0 coefficients 


     atomic species   valence    mass     pseudopotential
        Al             3.00    26.98154     Al( 1.00)
        Mg             2.00    24.30500     Mg( 1.00)
        Si             4.00    28.08500     Si( 1.00)

     No symmetry found


                                    s                        frac. trans.

      isym =  1     identity                                     

 cryst.   s( 1) = (     1          0          0      )
                  (     0          1          0      )
                  (     0          0          1      )

 cart.    s( 1) = (  1.0000000  0.0000000  0.0000000 )
                  (  0.0000000  1.0000000  0.0000000 )
                  ( -0.0000000  0.0000000  1.0000000 )


   Cartesian axes

     site n.     atom                  positions (alat units)
         1           Al  tau(   1) = (   0.0013522   0.0000000   0.4342798  )
         2           Mg  tau(   2) = (   0.0702338   0.1362181   0.1265672  )
         3           Mg  tau(   3) = (   0.1482755   0.1362181   0.3520778  )
         4           Mg  tau(   4) = (   0.3336432   0.0000000  -0.0659025  )
         5           Mg  tau(   5) = (   0.4116858   0.0000000   0.1596111  )
         6           Si  tau(   6) = (   0.0566348   0.0000000   0.2704826  )
         7           Si  tau(   7) = (   0.1761643   0.0000000   0.0382475  )
         8           Al  tau(   8) = (   0.2102044   0.0000000   0.2049474  )
         9           Al  tau(   9) = (   0.2717116   0.1362181   0.0812280  )
        10           Si  tau(  10) = (   0.3057481   0.1362181   0.2479274  )
        11           Si  tau(  11) = (   0.4252795   0.1362181   0.0156958  )
        12           Al  tau(  12) = (   0.4805649   0.1362181   0.2916080  )
        13           Mg  tau(  13) = (   0.5494465   0.0000000  -0.0161046  )
        14           Mg  tau(  14) = (   0.6274882   0.0000000   0.2094060  )
        15           Mg  tau(  15) = (   0.8128559   0.1362181  -0.2085743  )
        16           Mg  tau(  16) = (   0.8908985   0.1362181   0.0169394  )
        17           Si  tau(  17) = (   0.5358474   0.1362181   0.1278108  )
        18           Si  tau(  18) = (   0.6553770   0.1362181  -0.1044243  )
        19           Al  tau(  19) = (   0.6894170   0.1362181   0.0622756  )
        20           Al  tau(  20) = (   0.7509243   0.0000000  -0.0614437  )
        21           Si  tau(  21) = (   0.7849607   0.0000000   0.1052557  )
        22           Si  tau(  22) = (   0.9044922   0.0000000  -0.1269760  )

   Crystallographic axes

     site n.     atom                  positions (cryst. coord.)
         1           Al  tau(   1) = (  0.0014109  0.0000000  0.9885680  )
         2           Mg  tau(   2) = (  0.0732804  0.5000000  0.3353975  )
         3           Mg  tau(   3) = (  0.1547075  0.5000000  0.9011015  )
         4           Mg  tau(   4) = (  0.3481160  0.0000000  0.0760279  )
         5           Mg  tau(   5) = (  0.4295440  0.0000000  0.6417395  )
         6           Si  tau(   6) = (  0.0590915  0.0000000  0.6534865  )
         7           Si  tau(   7) = (  0.1838060  0.0000000  0.2062621  )
         8           Al  tau(   8) = (  0.2193227  0.0000000  0.6084242  )
         9           Al  tau(   9) = (  0.2834980  0.5000000  0.3687036  )
        10           Si  tau(  10) = (  0.3190109  0.5000000  0.7708621  )
        11           Si  tau(  11) = (  0.4437274  0.5000000  0.3236470  )
        12           Al  tau(  12) = (  0.5014109  0.5000000  0.9885680  )
        13           Mg  tau(  13) = (  0.5732804  0.0000000  0.3353974  )
        14           Mg  tau(  14) = (  0.6547075  0.0000000  0.9011015  )
        15           Mg  tau(  15) = (  0.8481160  0.5000000  0.0760279  )
        16           Mg  tau(  16) = (  0.9295440  0.5000000  0.6417397  )
        17           Si  tau(  17) = (  0.5590915  0.5000000  0.6534865  )
        18           Si  tau(  18) = (  0.6838060  0.5000000  0.2062621  )
        19           Al  tau(  19) = (  0.7193227  0.5000000  0.6084242  )
        20           Al  tau(  20) = (  0.7834980  0.0000000  0.3687036  )
        21           Si  tau(  21) = (  0.8190109  0.0000000  0.7708621  )
        22           Si  tau(  22) = (  0.9437274  0.0000000  0.3236471  )

     number of k points=   782  Methfessel-Paxton smearing, width (Ry)=  0.0441
                       cart. coord. in units 2pi/alat
        k(    1) = (   0.0000000   0.0000000   0.0000000), wk =   0.0012821
        k(    2) = (   0.0520836   0.0000000   0.1749408), wk =   0.0025641
        k(    3) = (   0.1041672   0.0000000   0.3498816), wk =   0.0025641
        k(    4) = (   0.1562508   0.0000000   0.5248224), wk =   0.0025641
        k(    5) = (   0.2083344   0.0000000   0.6997633), wk =   0.0025641
        k(    6) = (   0.2604180   0.0000000   0.8747041), wk =   0.0025641
        k(    7) = (   0.3125016   0.0000000   1.0496449), wk =   0.0025641
        k(    8) = (   0.0000000   0.1835292   0.0000000), wk =   0.0025641
        k(    9) = (   0.0520836   0.1835292   0.1749408), wk =   0.0025641
        k(   10) = (   0.1041672   0.1835292   0.3498816), wk =   0.0025641
        k(   11) = (   0.1562508   0.1835292   0.5248224), wk =   0.0025641
        k(   12) = (   0.2083344   0.1835292   0.6997633), wk =   0.0025641
        k(   13) = (   0.2604180   0.1835292   0.8747041), wk =   0.0025641
        k(   14) = (   0.3125016   0.1835292   1.0496449), wk =   0.0025641
        k(   15) = (  -0.3125016   0.1835292  -1.0496449), wk =   0.0025641
        k(   16) = (  -0.2604180   0.1835292  -0.8747041), wk =   0.0025641
        k(   17) = (  -0.2083344   0.1835292  -0.6997633), wk =   0.0025641
        k(   18) = (  -0.1562508   0.1835292  -0.5248224), wk =   0.0025641
        k(   19) = (  -0.1041672   0.1835292  -0.3498816), wk =   0.0025641
        k(   20) = (  -0.0520836   0.1835292  -0.1749408), wk =   0.0025641
        k(   21) = (   0.0000000   0.3670584   0.0000000), wk =   0.0025641
        k(   22) = (   0.0520836   0.3670584   0.1749408), wk =   0.0025641
        k(   23) = (   0.1041672   0.3670584   0.3498816), wk =   0.0025641
        k(   24) = (   0.1562508   0.3670584   0.5248224), wk =   0.0025641
        k(   25) = (   0.2083344   0.3670584   0.6997633), wk =   0.0025641
        k(   26) = (   0.2604180   0.3670584   0.8747041), wk =   0.0025641
        k(   27) = (   0.3125016   0.3670584   1.0496449), wk =   0.0025641
        k(   28) = (  -0.3125016   0.3670584  -1.0496449), wk =   0.0025641
        k(   29) = (  -0.2604180   0.3670584  -0.8747041), wk =   0.0025641
        k(   30) = (  -0.2083344   0.3670584  -0.6997633), wk =   0.0025641
        k(   31) = (  -0.1562508   0.3670584  -0.5248224), wk =   0.0025641
        k(   32) = (  -0.1041672   0.3670584  -0.3498816), wk =   0.0025641
        k(   33) = (  -0.0520836   0.3670584  -0.1749408), wk =   0.0025641
        k(   34) = (   0.0000000   0.5505875   0.0000000), wk =   0.0025641
        k(   35) = (   0.0520836   0.5505875   0.1749408), wk =   0.0025641
        k(   36) = (   0.1041672   0.5505875   0.3498816), wk =   0.0025641
        k(   37) = (   0.1562508   0.5505875   0.5248224), wk =   0.0025641
        k(   38) = (   0.2083344   0.5505875   0.6997633), wk =   0.0025641
        k(   39) = (   0.2604180   0.5505875   0.8747041), wk =   0.0025641
        k(   40) = (   0.3125016   0.5505875   1.0496449), wk =   0.0025641
        k(   41) = (  -0.3125016   0.5505875  -1.0496449), wk =   0.0025641
        k(   42) = (  -0.2604180   0.5505875  -0.8747041), wk =   0.0025641
        k(   43) = (  -0.2083344   0.5505875  -0.6997633), wk =   0.0025641
        k(   44) = (  -0.1562508   0.5505875  -0.5248224), wk =   0.0025641
        k(   45) = (  -0.1041672   0.5505875  -0.3498816), wk =   0.0025641
        k(   46) = (  -0.0520836   0.5505875  -0.1749408), wk =   0.0025641
        k(   47) = (   0.0000000   0.7341167   0.0000000), wk =   0.0025641
        k(   48) = (   0.0520836   0.7341167   0.1749408), wk =   0.0025641
        k(   49) = (   0.1041672   0.7341167   0.3498816), wk =   0.0025641
        k(   50) = (   0.1562508   0.7341167   0.5248224), wk =   0.0025641
        k(   51) = (   0.2083344   0.7341167   0.6997633), wk =   0.0025641
        k(   52) = (   0.2604180   0.7341167   0.8747041), wk =   0.0025641
        k(   53) = (   0.3125016   0.7341167   1.0496449), wk =   0.0025641
        k(   54) = (  -0.3125016   0.7341167  -1.0496449), wk =   0.0025641
        k(   55) = (  -0.2604180   0.7341167  -0.8747041), wk =   0.0025641
        k(   56) = (  -0.2083344   0.7341167  -0.6997633), wk =   0.0025641
        k(   57) = (  -0.1562508   0.7341167  -0.5248224), wk =   0.0025641
        k(   58) = (  -0.1041672   0.7341167  -0.3498816), wk =   0.0025641
        k(   59) = (  -0.0520836   0.7341167  -0.1749408), wk =   0.0025641
        k(   60) = (   0.0000000   0.9176459   0.0000000), wk =   0.0025641
        k(   61) = (   0.0520836   0.9176459   0.1749408), wk =   0.0025641
        k(   62) = (   0.1041672   0.9176459   0.3498816), wk =   0.0025641
        k(   63) = (   0.1562508   0.9176459   0.5248224), wk =   0.0025641
        k(   64) = (   0.2083344   0.9176459   0.6997633), wk =   0.0025641
        k(   65) = (   0.2604180   0.9176459   0.8747041), wk =   0.0025641
        k(   66) = (   0.3125016   0.9176459   1.0496449), wk =   0.0025641
        k(   67) = (  -0.3125016   0.9176459  -1.0496449), wk =   0.0025641
        k(   68) = (  -0.2604180   0.9176459  -0.8747041), wk =   0.0025641
        k(   69) = (  -0.2083344   0.9176459  -0.6997633), wk =   0.0025641
        k(   70) = (  -0.1562508   0.9176459  -0.5248224), wk =   0.0025641
        k(   71) = (  -0.1041672   0.9176459  -0.3498816), wk =   0.0025641
        k(   72) = (  -0.0520836   0.9176459  -0.1749408), wk =   0.0025641
        k(   73) = (   0.0000000   1.1011751   0.0000000), wk =   0.0025641
        k(   74) = (   0.0520836   1.1011751   0.1749408), wk =   0.0025641
        k(   75) = (   0.1041672   1.1011751   0.3498816), wk =   0.0025641
        k(   76) = (   0.1562508   1.1011751   0.5248224), wk =   0.0025641
        k(   77) = (   0.2083344   1.1011751   0.6997633), wk =   0.0025641
        k(   78) = (   0.2604180   1.1011751   0.8747041), wk =   0.0025641
        k(   79) = (   0.3125016   1.1011751   1.0496449), wk =   0.0025641
        k(   80) = (  -0.3125016   1.1011751  -1.0496449), wk =   0.0025641
        k(   81) = (  -0.2604180   1.1011751  -0.8747041), wk =   0.0025641
        k(   82) = (  -0.2083344   1.1011751  -0.6997633), wk =   0.0025641
        k(   83) = (  -0.1562508   1.1011751  -0.5248224), wk =   0.0025641
        k(   84) = (  -0.1041672   1.1011751  -0.3498816), wk =   0.0025641
        k(   85) = (  -0.0520836   1.1011751  -0.1749408), wk =   0.0025641
        k(   86) = (   0.0000000   1.2847042   0.0000000), wk =   0.0025641
        k(   87) = (   0.0520836   1.2847042   0.1749408), wk =   0.0025641
        k(   88) = (   0.1041672   1.2847042   0.3498816), wk =   0.0025641
        k(   89) = (   0.1562508   1.2847042   0.5248224), wk =   0.0025641
        k(   90) = (   0.2083344   1.2847042   0.6997633), wk =   0.0025641
        k(   91) = (   0.2604180   1.2847042   0.8747041), wk =   0.0025641
        k(   92) = (   0.3125016   1.2847042   1.0496449), wk =   0.0025641
        k(   93) = (  -0.3125016   1.2847042  -1.0496449), wk =   0.0025641
        k(   94) = (  -0.2604180   1.2847042  -0.8747041), wk =   0.0025641
        k(   95) = (  -0.2083344   1.2847042  -0.6997633), wk =   0.0025641
        k(   96) = (  -0.1562508   1.2847042  -0.5248224), wk =   0.0025641
        k(   97) = (  -0.1041672   1.2847042  -0.3498816), wk =   0.0025641
        k(   98) = (  -0.0520836   1.2847042  -0.1749408), wk =   0.0025641
        k(   99) = (   0.0000000   1.4682334   0.0000000), wk =   0.0025641
        k(  100) = (   0.0520836   1.4682334   0.1749408), wk =   0.0025641
        k(  101) = (   0.1041672   1.4682334   0.3498816), wk =   0.0025641
        k(  102) = (   0.1562508   1.4682334   0.5248224), wk =   0.0025641
        k(  103) = (   0.2083344   1.4682334   0.6997633), wk =   0.0025641
        k(  104) = (   0.2604180   1.4682334   0.8747041), wk =   0.0025641
        k(  105) = (   0.3125016   1.4682334   1.0496449), wk =   0.0025641
        k(  106) = (  -0.3125016   1.4682334  -1.0496449), wk =   0.0025641
        k(  107) = (  -0.2604180   1.4682334  -0.8747041), wk =   0.0025641
        k(  108) = (  -0.2083344   1.4682334  -0.6997633), wk =   0.0025641
        k(  109) = (  -0.1562508   1.4682334  -0.5248224), wk =   0.0025641
        k(  110) = (  -0.1041672   1.4682334  -0.3498816), wk =   0.0025641
        k(  111) = (  -0.0520836   1.4682334  -0.1749408), wk =   0.0025641
        k(  112) = (   0.0000000   1.6517626   0.0000000), wk =   0.0025641
        k(  113) = (   0.0520836   1.6517626   0.1749408), wk =   0.0025641
        k(  114) = (   0.1041672   1.6517626   0.3498816), wk =   0.0025641
        k(  115) = (   0.1562508   1.6517626   0.5248224), wk =   0.0025641
        k(  116) = (   0.2083344   1.6517626   0.6997633), wk =   0.0025641
        k(  117) = (   0.2604180   1.6517626   0.8747041), wk =   0.0025641
        k(  118) = (   0.3125016   1.6517626   1.0496449), wk =   0.0025641
        k(  119) = (  -0.3125016   1.6517626  -1.0496449), wk =   0.0025641
        k(  120) = (  -0.2604180   1.6517626  -0.8747041), wk =   0.0025641
        k(  121) = (  -0.2083344   1.6517626  -0.6997633), wk =   0.0025641
        k(  122) = (  -0.1562508   1.6517626  -0.5248224), wk =   0.0025641
        k(  123) = (  -0.1041672   1.6517626  -0.3498816), wk =   0.0025641
        k(  124) = (  -0.0520836   1.6517626  -0.1749408), wk =   0.0025641
        k(  125) = (   0.0000000  -1.8352918   0.0000000), wk =   0.0012821
        k(  126) = (   0.0520836  -1.8352918   0.1749408), wk =   0.0025641
        k(  127) = (   0.1041672  -1.8352918   0.3498816), wk =   0.0025641
        k(  128) = (   0.1562508  -1.8352918   0.5248224), wk =   0.0025641
        k(  129) = (   0.2083344  -1.8352918   0.6997633), wk =   0.0025641
        k(  130) = (   0.2604180  -1.8352918   0.8747041), wk =   0.0025641
        k(  131) = (   0.3125016  -1.8352918   1.0496449), wk =   0.0025641
        k(  132) = (   0.1738964   0.0000000   0.0000000), wk =   0.0025641
        k(  133) = (   0.2259800   0.0000000   0.1749408), wk =   0.0025641
        k(  134) = (   0.2780635   0.0000000   0.3498816), wk =   0.0025641
        k(  135) = (   0.3301471   0.0000000   0.5248224), wk =   0.0025641
        k(  136) = (   0.3822307   0.0000000   0.6997633), wk =   0.0025641
        k(  137) = (   0.4343143   0.0000000   0.8747041), wk =   0.0025641
        k(  138) = (   0.4863979   0.0000000   1.0496449), wk =   0.0025641
        k(  139) = (  -0.1386052   0.0000000  -1.0496449), wk =   0.0025641
        k(  140) = (  -0.0865216   0.0000000  -0.8747041), wk =   0.0025641
        k(  141) = (  -0.0344380   0.0000000  -0.6997633), wk =   0.0025641
        k(  142) = (   0.0176456   0.0000000  -0.5248224), wk =   0.0025641
        k(  143) = (   0.0697292   0.0000000  -0.3498816), wk =   0.0025641
        k(  144) = (   0.1218128   0.0000000  -0.1749408), wk =   0.0025641
        k(  145) = (   0.1738964   0.1835292   0.0000000), wk =   0.0025641
        k(  146) = (   0.2259800   0.1835292   0.1749408), wk =   0.0025641
        k(  147) = (   0.2780635   0.1835292   0.3498816), wk =   0.0025641
        k(  148) = (   0.3301471   0.1835292   0.5248224), wk =   0.0025641
        k(  149) = (   0.3822307   0.1835292   0.6997633), wk =   0.0025641
        k(  150) = (   0.4343143   0.1835292   0.8747041), wk =   0.0025641
        k(  151) = (   0.4863979   0.1835292   1.0496449), wk =   0.0025641
        k(  152) = (  -0.1386052   0.1835292  -1.0496449), wk =   0.0025641
        k(  153) = (  -0.0865216   0.1835292  -0.8747041), wk =   0.0025641
        k(  154) = (  -0.0344380   0.1835292  -0.6997633), wk =   0.0025641
        k(  155) = (   0.0176456   0.1835292  -0.5248224), wk =   0.0025641
        k(  156) = (   0.0697292   0.1835292  -0.3498816), wk =   0.0025641
        k(  157) = (   0.1218128   0.1835292  -0.1749408), wk =   0.0025641
        k(  158) = (   0.1738964   0.3670584   0.0000000), wk =   0.0025641
        k(  159) = (   0.2259800   0.3670584   0.1749408), wk =   0.0025641
        k(  160) = (   0.2780635   0.3670584   0.3498816), wk =   0.0025641
        k(  161) = (   0.3301471   0.3670584   0.5248224), wk =   0.0025641
        k(  162) = (   0.3822307   0.3670584   0.6997633), wk =   0.0025641
        k(  163) = (   0.4343143   0.3670584   0.8747041), wk =   0.0025641
        k(  164) = (   0.4863979   0.3670584   1.0496449), wk =   0.0025641
        k(  165) = (  -0.1386052   0.3670584  -1.0496449), wk =   0.0025641
        k(  166) = (  -0.0865216   0.3670584  -0.8747041), wk =   0.0025641
        k(  167) = (  -0.0344380   0.3670584  -0.6997633), wk =   0.0025641
        k(  168) = (   0.0176456   0.3670584  -0.5248224), wk =   0.0025641
        k(  169) = (   0.0697292   0.3670584  -0.3498816), wk =   0.0025641
        k(  170) = (   0.1218128   0.3670584  -0.1749408), wk =   0.0025641
        k(  171) = (   0.1738964   0.5505875   0.0000000), wk =   0.0025641
        k(  172) = (   0.2259800   0.5505875   0.1749408), wk =   0.0025641
        k(  173) = (   0.2780635   0.5505875   0.3498816), wk =   0.0025641
        k(  174) = (   0.3301471   0.5505875   0.5248224), wk =   0.0025641
        k(  175) = (   0.3822307   0.5505875   0.6997633), wk =   0.0025641
        k(  176) = (   0.4343143   0.5505875   0.8747041), wk =   0.0025641
        k(  177) = (   0.4863979   0.5505875   1.0496449), wk =   0.0025641
        k(  178) = (  -0.1386052   0.5505875  -1.0496449), wk =   0.0025641
        k(  179) = (  -0.0865216   0.5505875  -0.8747041), wk =   0.0025641
        k(  180) = (  -0.0344380   0.5505875  -0.6997633), wk =   0.0025641
        k(  181) = (   0.0176456   0.5505875  -0.5248224), wk =   0.0025641
        k(  182) = (   0.0697292   0.5505875  -0.3498816), wk =   0.0025641
        k(  183) = (   0.1218128   0.5505875  -0.1749408), wk =   0.0025641
        k(  184) = (   0.1738964   0.7341167   0.0000000), wk =   0.0025641
        k(  185) = (   0.2259800   0.7341167   0.1749408), wk =   0.0025641
        k(  186) = (   0.2780635   0.7341167   0.3498816), wk =   0.0025641
        k(  187) = (   0.3301471   0.7341167   0.5248224), wk =   0.0025641
        k(  188) = (   0.3822307   0.7341167   0.6997633), wk =   0.0025641
        k(  189) = (   0.4343143   0.7341167   0.8747041), wk =   0.0025641
        k(  190) = (   0.4863979   0.7341167   1.0496449), wk =   0.0025641
        k(  191) = (  -0.1386052   0.7341167  -1.0496449), wk =   0.0025641
        k(  192) = (  -0.0865216   0.7341167  -0.8747041), wk =   0.0025641
        k(  193) = (  -0.0344380   0.7341167  -0.6997633), wk =   0.0025641
        k(  194) = (   0.0176456   0.7341167  -0.5248224), wk =   0.0025641
        k(  195) = (   0.0697292   0.7341167  -0.3498816), wk =   0.0025641
        k(  196) = (   0.1218128   0.7341167  -0.1749408), wk =   0.0025641
        k(  197) = (   0.1738964   0.9176459   0.0000000), wk =   0.0025641
        k(  198) = (   0.2259800   0.9176459   0.1749408), wk =   0.0025641
        k(  199) = (   0.2780635   0.9176459   0.3498816), wk =   0.0025641
        k(  200) = (   0.3301471   0.9176459   0.5248224), wk =   0.0025641
        k(  201) = (   0.3822307   0.9176459   0.6997633), wk =   0.0025641
        k(  202) = (   0.4343143   0.9176459   0.8747041), wk =   0.0025641
        k(  203) = (   0.4863979   0.9176459   1.0496449), wk =   0.0025641
        k(  204) = (  -0.1386052   0.9176459  -1.0496449), wk =   0.0025641
        k(  205) = (  -0.0865216   0.9176459  -0.8747041), wk =   0.0025641
        k(  206) = (  -0.0344380   0.9176459  -0.6997633), wk =   0.0025641
        k(  207) = (   0.0176456   0.9176459  -0.5248224), wk =   0.0025641
        k(  208) = (   0.0697292   0.9176459  -0.3498816), wk =   0.0025641
        k(  209) = (   0.1218128   0.9176459  -0.1749408), wk =   0.0025641
        k(  210) = (   0.1738964   1.1011751   0.0000000), wk =   0.0025641
        k(  211) = (   0.2259800   1.1011751   0.1749408), wk =   0.0025641
        k(  212) = (   0.2780635   1.1011751   0.3498816), wk =   0.0025641
        k(  213) = (   0.3301471   1.1011751   0.5248224), wk =   0.0025641
        k(  214) = (   0.3822307   1.1011751   0.6997633), wk =   0.0025641
        k(  215) = (   0.4343143   1.1011751   0.8747041), wk =   0.0025641
        k(  216) = (   0.4863979   1.1011751   1.0496449), wk =   0.0025641
        k(  217) = (  -0.1386052   1.1011751  -1.0496449), wk =   0.0025641
        k(  218) = (  -0.0865216   1.1011751  -0.8747041), wk =   0.0025641
        k(  219) = (  -0.0344380   1.1011751  -0.6997633), wk =   0.0025641
        k(  220) = (   0.0176456   1.1011751  -0.5248224), wk =   0.0025641
        k(  221) = (   0.0697292   1.1011751  -0.3498816), wk =   0.0025641
        k(  222) = (   0.1218128   1.1011751  -0.1749408), wk =   0.0025641
        k(  223) = (   0.1738964   1.2847042   0.0000000), wk =   0.0025641
        k(  224) = (   0.2259800   1.2847042   0.1749408), wk =   0.0025641
        k(  225) = (   0.2780635   1.2847042   0.3498816), wk =   0.0025641
        k(  226) = (   0.3301471   1.2847042   0.5248224), wk =   0.0025641
        k(  227) = (   0.3822307   1.2847042   0.6997633), wk =   0.0025641
        k(  228) = (   0.4343143   1.2847042   0.8747041), wk =   0.0025641
        k(  229) = (   0.4863979   1.2847042   1.0496449), wk =   0.0025641
        k(  230) = (  -0.1386052   1.2847042  -1.0496449), wk =   0.0025641
        k(  231) = (  -0.0865216   1.2847042  -0.8747041), wk =   0.0025641
        k(  232) = (  -0.0344380   1.2847042  -0.6997633), wk =   0.0025641
        k(  233) = (   0.0176456   1.2847042  -0.5248224), wk =   0.0025641
        k(  234) = (   0.0697292   1.2847042  -0.3498816), wk =   0.0025641
        k(  235) = (   0.1218128   1.2847042  -0.1749408), wk =   0.0025641
        k(  236) = (   0.1738964   1.4682334   0.0000000), wk =   0.0025641
        k(  237) = (   0.2259800   1.4682334   0.1749408), wk =   0.0025641
        k(  238) = (   0.2780635   1.4682334   0.3498816), wk =   0.0025641
        k(  239) = (   0.3301471   1.4682334   0.5248224), wk =   0.0025641
        k(  240) = (   0.3822307   1.4682334   0.6997633), wk =   0.0025641
        k(  241) = (   0.4343143   1.4682334   0.8747041), wk =   0.0025641
        k(  242) = (   0.4863979   1.4682334   1.0496449), wk =   0.0025641
        k(  243) = (  -0.1386052   1.4682334  -1.0496449), wk =   0.0025641
        k(  244) = (  -0.0865216   1.4682334  -0.8747041), wk =   0.0025641
        k(  245) = (  -0.0344380   1.4682334  -0.6997633), wk =   0.0025641
        k(  246) = (   0.0176456   1.4682334  -0.5248224), wk =   0.0025641
        k(  247) = (   0.0697292   1.4682334  -0.3498816), wk =   0.0025641
        k(  248) = (   0.1218128   1.4682334  -0.1749408), wk =   0.0025641
        k(  249) = (   0.1738964   1.6517626   0.0000000), wk =   0.0025641
        k(  250) = (   0.2259800   1.6517626   0.1749408), wk =   0.0025641
        k(  251) = (   0.2780635   1.6517626   0.3498816), wk =   0.0025641
        k(  252) = (   0.3301471   1.6517626   0.5248224), wk =   0.0025641
        k(  253) = (   0.3822307   1.6517626   0.6997633), wk =   0.0025641
        k(  254) = (   0.4343143   1.6517626   0.8747041), wk =   0.0025641
        k(  255) = (   0.4863979   1.6517626   1.0496449), wk =   0.0025641
        k(  256) = (  -0.1386052   1.6517626  -1.0496449), wk =   0.0025641
        k(  257) = (  -0.0865216   1.6517626  -0.8747041), wk =   0.0025641
        k(  258) = (  -0.0344380   1.6517626  -0.6997633), wk =   0.0025641
        k(  259) = (   0.0176456   1.6517626  -0.5248224), wk =   0.0025641
        k(  260) = (   0.0697292   1.6517626  -0.3498816), wk =   0.0025641
        k(  261) = (   0.1218128   1.6517626  -0.1749408), wk =   0.0025641
        k(  262) = (   0.1738964  -1.8352918   0.0000000), wk =   0.0025641
        k(  263) = (   0.2259800  -1.8352918   0.1749408), wk =   0.0025641
        k(  264) = (   0.2780635  -1.8352918   0.3498816), wk =   0.0025641
        k(  265) = (   0.3301471  -1.8352918   0.5248224), wk =   0.0025641
        k(  266) = (   0.3822307  -1.8352918   0.6997633), wk =   0.0025641
        k(  267) = (   0.4343143  -1.8352918   0.8747041), wk =   0.0025641
        k(  268) = (   0.4863979  -1.8352918   1.0496449), wk =   0.0025641
        k(  269) = (  -0.1386052  -1.8352918  -1.0496449), wk =   0.0025641
        k(  270) = (  -0.0865216  -1.8352918  -0.8747041), wk =   0.0025641
        k(  271) = (  -0.0344380  -1.8352918  -0.6997633), wk =   0.0025641
        k(  272) = (   0.0176456  -1.8352918  -0.5248224), wk =   0.0025641
        k(  273) = (   0.0697292  -1.8352918  -0.3498816), wk =   0.0025641
        k(  274) = (   0.1218128  -1.8352918  -0.1749408), wk =   0.0025641
        k(  275) = (   0.1738964  -1.6517626   0.0000000), wk =   0.0025641
        k(  276) = (   0.2259800  -1.6517626   0.1749408), wk =   0.0025641
        k(  277) = (   0.2780635  -1.6517626   0.3498816), wk =   0.0025641
        k(  278) = (   0.3301471  -1.6517626   0.5248224), wk =   0.0025641
        k(  279) = (   0.3822307  -1.6517626   0.6997633), wk =   0.0025641
        k(  280) = (   0.4343143  -1.6517626   0.8747041), wk =   0.0025641
        k(  281) = (   0.4863979  -1.6517626   1.0496449), wk =   0.0025641
        k(  282) = (  -0.1386052  -1.6517626  -1.0496449), wk =   0.0025641
        k(  283) = (  -0.0865216  -1.6517626  -0.8747041), wk =   0.0025641
        k(  284) = (  -0.0344380  -1.6517626  -0.6997633), wk =   0.0025641
        k(  285) = (   0.0176456  -1.6517626  -0.5248224), wk =   0.0025641
        k(  286) = (   0.0697292  -1.6517626  -0.3498816), wk =   0.0025641
        k(  287) = (   0.1218128  -1.6517626  -0.1749408), wk =   0.0025641
        k(  288) = (   0.1738964  -1.4682334   0.0000000), wk =   0.0025641
        k(  289) = (   0.2259800  -1.4682334   0.1749408), wk =   0.0025641
        k(  290) = (   0.2780635  -1.4682334   0.3498816), wk =   0.0025641
        k(  291) = (   0.3301471  -1.4682334   0.5248224), wk =   0.0025641
        k(  292) = (   0.3822307  -1.4682334   0.6997633), wk =   0.0025641
        k(  293) = (   0.4343143  -1.4682334   0.8747041), wk =   0.0025641
        k(  294) = (   0.4863979  -1.4682334   1.0496449), wk =   0.0025641
        k(  295) = (  -0.1386052  -1.4682334  -1.0496449), wk =   0.0025641
        k(  296) = (  -0.0865216  -1.4682334  -0.8747041), wk =   0.0025641
        k(  297) = (  -0.0344380  -1.4682334  -0.6997633), wk =   0.0025641
        k(  298) = (   0.0176456  -1.4682334  -0.5248224), wk =   0.0025641
        k(  299) = (   0.0697292  -1.4682334  -0.3498816), wk =   0.0025641
        k(  300) = (   0.1218128  -1.4682334  -0.1749408), wk =   0.0025641
        k(  301) = (   0.1738964  -1.2847042   0.0000000), wk =   0.0025641
        k(  302) = (   0.2259800  -1.2847042   0.1749408), wk =   0.0025641
        k(  303) = (   0.2780635  -1.2847042   0.3498816), wk =   0.0025641
        k(  304) = (   0.3301471  -1.2847042   0.5248224), wk =   0.0025641
        k(  305) = (   0.3822307  -1.2847042   0.6997633), wk =   0.0025641
        k(  306) = (   0.4343143  -1.2847042   0.8747041), wk =   0.0025641
        k(  307) = (   0.4863979  -1.2847042   1.0496449), wk =   0.0025641
        k(  308) = (  -0.1386052  -1.2847042  -1.0496449), wk =   0.0025641
        k(  309) = (  -0.0865216  -1.2847042  -0.8747041), wk =   0.0025641
        k(  310) = (  -0.0344380  -1.2847042  -0.6997633), wk =   0.0025641
        k(  311) = (   0.0176456  -1.2847042  -0.5248224), wk =   0.0025641
        k(  312) = (   0.0697292  -1.2847042  -0.3498816), wk =   0.0025641
        k(  313) = (   0.1218128  -1.2847042  -0.1749408), wk =   0.0025641
        k(  314) = (   0.1738964  -1.1011751   0.0000000), wk =   0.0025641
        k(  315) = (   0.2259800  -1.1011751   0.1749408), wk =   0.0025641
        k(  316) = (   0.2780635  -1.1011751   0.3498816), wk =   0.0025641
        k(  317) = (   0.3301471  -1.1011751   0.5248224), wk =   0.0025641
        k(  318) = (   0.3822307  -1.1011751   0.6997633), wk =   0.0025641
        k(  319) = (   0.4343143  -1.1011751   0.8747041), wk =   0.0025641
        k(  320) = (   0.4863979  -1.1011751   1.0496449), wk =   0.0025641
        k(  321) = (  -0.1386052  -1.1011751  -1.0496449), wk =   0.0025641
        k(  322) = (  -0.0865216  -1.1011751  -0.8747041), wk =   0.0025641
        k(  323) = (  -0.0344380  -1.1011751  -0.6997633), wk =   0.0025641
        k(  324) = (   0.0176456  -1.1011751  -0.5248224), wk =   0.0025641
        k(  325) = (   0.0697292  -1.1011751  -0.3498816), wk =   0.0025641
        k(  326) = (   0.1218128  -1.1011751  -0.1749408), wk =   0.0025641
        k(  327) = (   0.1738964  -0.9176459   0.0000000), wk =   0.0025641
        k(  328) = (   0.2259800  -0.9176459   0.1749408), wk =   0.0025641
        k(  329) = (   0.2780635  -0.9176459   0.3498816), wk =   0.0025641
        k(  330) = (   0.3301471  -0.9176459   0.5248224), wk =   0.0025641
        k(  331) = (   0.3822307  -0.9176459   0.6997633), wk =   0.0025641
        k(  332) = (   0.4343143  -0.9176459   0.8747041), wk =   0.0025641
        k(  333) = (   0.4863979  -0.9176459   1.0496449), wk =   0.0025641
        k(  334) = (  -0.1386052  -0.9176459  -1.0496449), wk =   0.0025641
        k(  335) = (  -0.0865216  -0.9176459  -0.8747041), wk =   0.0025641
        k(  336) = (  -0.0344380  -0.9176459  -0.6997633), wk =   0.0025641
        k(  337) = (   0.0176456  -0.9176459  -0.5248224), wk =   0.0025641
        k(  338) = (   0.0697292  -0.9176459  -0.3498816), wk =   0.0025641
        k(  339) = (   0.1218128  -0.9176459  -0.1749408), wk =   0.0025641
        k(  340) = (   0.1738964  -0.7341167   0.0000000), wk =   0.0025641
        k(  341) = (   0.2259800  -0.7341167   0.1749408), wk =   0.0025641
        k(  342) = (   0.2780635  -0.7341167   0.3498816), wk =   0.0025641
        k(  343) = (   0.3301471  -0.7341167   0.5248224), wk =   0.0025641
        k(  344) = (   0.3822307  -0.7341167   0.6997633), wk =   0.0025641
        k(  345) = (   0.4343143  -0.7341167   0.8747041), wk =   0.0025641
        k(  346) = (   0.4863979  -0.7341167   1.0496449), wk =   0.0025641
        k(  347) = (  -0.1386052  -0.7341167  -1.0496449), wk =   0.0025641
        k(  348) = (  -0.0865216  -0.7341167  -0.8747041), wk =   0.0025641
        k(  349) = (  -0.0344380  -0.7341167  -0.6997633), wk =   0.0025641
        k(  350) = (   0.0176456  -0.7341167  -0.5248224), wk =   0.0025641
        k(  351) = (   0.0697292  -0.7341167  -0.3498816), wk =   0.0025641
        k(  352) = (   0.1218128  -0.7341167  -0.1749408), wk =   0.0025641
        k(  353) = (   0.1738964  -0.5505875   0.0000000), wk =   0.0025641
        k(  354) = (   0.2259800  -0.5505875   0.1749408), wk =   0.0025641
        k(  355) = (   0.2780635  -0.5505875   0.3498816), wk =   0.0025641
        k(  356) = (   0.3301471  -0.5505875   0.5248224), wk =   0.0025641
        k(  357) = (   0.3822307  -0.5505875   0.6997633), wk =   0.0025641
        k(  358) = (   0.4343143  -0.5505875   0.8747041), wk =   0.0025641
        k(  359) = (   0.4863979  -0.5505875   1.0496449), wk =   0.0025641
        k(  360) = (  -0.1386052  -0.5505875  -1.0496449), wk =   0.0025641
        k(  361) = (  -0.0865216  -0.5505875  -0.8747041), wk =   0.0025641
        k(  362) = (  -0.0344380  -0.5505875  -0.6997633), wk =   0.0025641
        k(  363) = (   0.0176456  -0.5505875  -0.5248224), wk =   0.0025641
        k(  364) = (   0.0697292  -0.5505875  -0.3498816), wk =   0.0025641
        k(  365) = (   0.1218128  -0.5505875  -0.1749408), wk =   0.0025641
        k(  366) = (   0.1738964  -0.3670584   0.0000000), wk =   0.0025641
        k(  367) = (   0.2259800  -0.3670584   0.1749408), wk =   0.0025641
        k(  368) = (   0.2780635  -0.3670584   0.3498816), wk =   0.0025641
        k(  369) = (   0.3301471  -0.3670584   0.5248224), wk =   0.0025641
        k(  370) = (   0.3822307  -0.3670584   0.6997633), wk =   0.0025641
        k(  371) = (   0.4343143  -0.3670584   0.8747041), wk =   0.0025641
        k(  372) = (   0.4863979  -0.3670584   1.0496449), wk =   0.0025641
        k(  373) = (  -0.1386052  -0.3670584  -1.0496449), wk =   0.0025641
        k(  374) = (  -0.0865216  -0.3670584  -0.8747041), wk =   0.0025641
        k(  375) = (  -0.0344380  -0.3670584  -0.6997633), wk =   0.0025641
        k(  376) = (   0.0176456  -0.3670584  -0.5248224), wk =   0.0025641
        k(  377) = (   0.0697292  -0.3670584  -0.3498816), wk =   0.0025641
        k(  378) = (   0.1218128  -0.3670584  -0.1749408), wk =   0.0025641
        k(  379) = (   0.1738964  -0.1835292   0.0000000), wk =   0.0025641
        k(  380) = (   0.2259800  -0.1835292   0.1749408), wk =   0.0025641
        k(  381) = (   0.2780635  -0.1835292   0.3498816), wk =   0.0025641
        k(  382) = (   0.3301471  -0.1835292   0.5248224), wk =   0.0025641
        k(  383) = (   0.3822307  -0.1835292   0.6997633), wk =   0.0025641
        k(  384) = (   0.4343143  -0.1835292   0.8747041), wk =   0.0025641
        k(  385) = (   0.4863979  -0.1835292   1.0496449), wk =   0.0025641
        k(  386) = (  -0.1386052  -0.1835292  -1.0496449), wk =   0.0025641
        k(  387) = (  -0.0865216  -0.1835292  -0.8747041), wk =   0.0025641
        k(  388) = (  -0.0344380  -0.1835292  -0.6997633), wk =   0.0025641
        k(  389) = (   0.0176456  -0.1835292  -0.5248224), wk =   0.0025641
        k(  390) = (   0.0697292  -0.1835292  -0.3498816), wk =   0.0025641
        k(  391) = (   0.1218128  -0.1835292  -0.1749408), wk =   0.0025641
        k(  392) = (   0.3477927   0.0000000   0.0000000), wk =   0.0025641
        k(  393) = (   0.3998763   0.0000000   0.1749408), wk =   0.0025641
        k(  394) = (   0.4519599   0.0000000   0.3498816), wk =   0.0025641
        k(  395) = (   0.5040435   0.0000000   0.5248224), wk =   0.0025641
        k(  396) = (   0.5561271   0.0000000   0.6997633), wk =   0.0025641
        k(  397) = (   0.6082107   0.0000000   0.8747041), wk =   0.0025641
        k(  398) = (   0.6602943   0.0000000   1.0496449), wk =   0.0025641
        k(  399) = (   0.0352911   0.0000000  -1.0496449), wk =   0.0025641
        k(  400) = (   0.0873747   0.0000000  -0.8747041), wk =   0.0025641
        k(  401) = (   0.1394583   0.0000000  -0.6997633), wk =   0.0025641
        k(  402) = (   0.1915419   0.0000000  -0.5248224), wk =   0.0025641
        k(  403) = (   0.2436255   0.0000000  -0.3498816), wk =   0.0025641
        k(  404) = (   0.2957091   0.0000000  -0.1749408), wk =   0.0025641
        k(  405) = (   0.3477927   0.1835292   0.0000000), wk =   0.0025641
        k(  406) = (   0.3998763   0.1835292   0.1749408), wk =   0.0025641
        k(  407) = (   0.4519599   0.1835292   0.3498816), wk =   0.0025641
        k(  408) = (   0.5040435   0.1835292   0.5248224), wk =   0.0025641
        k(  409) = (   0.5561271   0.1835292   0.6997633), wk =   0.0025641
        k(  410) = (   0.6082107   0.1835292   0.8747041), wk =   0.0025641
        k(  411) = (   0.6602943   0.1835292   1.0496449), wk =   0.0025641
        k(  412) = (   0.0352911   0.1835292  -1.0496449), wk =   0.0025641
        k(  413) = (   0.0873747   0.1835292  -0.8747041), wk =   0.0025641
        k(  414) = (   0.1394583   0.1835292  -0.6997633), wk =   0.0025641
        k(  415) = (   0.1915419   0.1835292  -0.5248224), wk =   0.0025641
        k(  416) = (   0.2436255   0.1835292  -0.3498816), wk =   0.0025641
        k(  417) = (   0.2957091   0.1835292  -0.1749408), wk =   0.0025641
        k(  418) = (   0.3477927   0.3670584   0.0000000), wk =   0.0025641
        k(  419) = (   0.3998763   0.3670584   0.1749408), wk =   0.0025641
        k(  420) = (   0.4519599   0.3670584   0.3498816), wk =   0.0025641
        k(  421) = (   0.5040435   0.3670584   0.5248224), wk =   0.0025641
        k(  422) = (   0.5561271   0.3670584   0.6997633), wk =   0.0025641
        k(  423) = (   0.6082107   0.3670584   0.8747041), wk =   0.0025641
        k(  424) = (   0.6602943   0.3670584   1.0496449), wk =   0.0025641
        k(  425) = (   0.0352911   0.3670584  -1.0496449), wk =   0.0025641
        k(  426) = (   0.0873747   0.3670584  -0.8747041), wk =   0.0025641
        k(  427) = (   0.1394583   0.3670584  -0.6997633), wk =   0.0025641
        k(  428) = (   0.1915419   0.3670584  -0.5248224), wk =   0.0025641
        k(  429) = (   0.2436255   0.3670584  -0.3498816), wk =   0.0025641
        k(  430) = (   0.2957091   0.3670584  -0.1749408), wk =   0.0025641
        k(  431) = (   0.3477927   0.5505875   0.0000000), wk =   0.0025641
        k(  432) = (   0.3998763   0.5505875   0.1749408), wk =   0.0025641
        k(  433) = (   0.4519599   0.5505875   0.3498816), wk =   0.0025641
        k(  434) = (   0.5040435   0.5505875   0.5248224), wk =   0.0025641
        k(  435) = (   0.5561271   0.5505875   0.6997633), wk =   0.0025641
        k(  436) = (   0.6082107   0.5505875   0.8747041), wk =   0.0025641
        k(  437) = (   0.6602943   0.5505875   1.0496449), wk =   0.0025641
        k(  438) = (   0.0352911   0.5505875  -1.0496449), wk =   0.0025641
        k(  439) = (   0.0873747   0.5505875  -0.8747041), wk =   0.0025641
        k(  440) = (   0.1394583   0.5505875  -0.6997633), wk =   0.0025641
        k(  441) = (   0.1915419   0.5505875  -0.5248224), wk =   0.0025641
        k(  442) = (   0.2436255   0.5505875  -0.3498816), wk =   0.0025641
        k(  443) = (   0.2957091   0.5505875  -0.1749408), wk =   0.0025641
        k(  444) = (   0.3477927   0.7341167   0.0000000), wk =   0.0025641
        k(  445) = (   0.3998763   0.7341167   0.1749408), wk =   0.0025641
        k(  446) = (   0.4519599   0.7341167   0.3498816), wk =   0.0025641
        k(  447) = (   0.5040435   0.7341167   0.5248224), wk =   0.0025641
        k(  448) = (   0.5561271   0.7341167   0.6997633), wk =   0.0025641
        k(  449) = (   0.6082107   0.7341167   0.8747041), wk =   0.0025641
        k(  450) = (   0.6602943   0.7341167   1.0496449), wk =   0.0025641
        k(  451) = (   0.0352911   0.7341167  -1.0496449), wk =   0.0025641
        k(  452) = (   0.0873747   0.7341167  -0.8747041), wk =   0.0025641
        k(  453) = (   0.1394583   0.7341167  -0.6997633), wk =   0.0025641
        k(  454) = (   0.1915419   0.7341167  -0.5248224), wk =   0.0025641
        k(  455) = (   0.2436255   0.7341167  -0.3498816), wk =   0.0025641
        k(  456) = (   0.2957091   0.7341167  -0.1749408), wk =   0.0025641
        k(  457) = (   0.3477927   0.9176459   0.0000000), wk =   0.0025641
        k(  458) = (   0.3998763   0.9176459   0.1749408), wk =   0.0025641
        k(  459) = (   0.4519599   0.9176459   0.3498816), wk =   0.0025641
        k(  460) = (   0.5040435   0.9176459   0.5248224), wk =   0.0025641
        k(  461) = (   0.5561271   0.9176459   0.6997633), wk =   0.0025641
        k(  462) = (   0.6082107   0.9176459   0.8747041), wk =   0.0025641
        k(  463) = (   0.6602943   0.9176459   1.0496449), wk =   0.0025641
        k(  464) = (   0.0352911   0.9176459  -1.0496449), wk =   0.0025641
        k(  465) = (   0.0873747   0.9176459  -0.8747041), wk =   0.0025641
        k(  466) = (   0.1394583   0.9176459  -0.6997633), wk =   0.0025641
        k(  467) = (   0.1915419   0.9176459  -0.5248224), wk =   0.0025641
        k(  468) = (   0.2436255   0.9176459  -0.3498816), wk =   0.0025641
        k(  469) = (   0.2957091   0.9176459  -0.1749408), wk =   0.0025641
        k(  470) = (   0.3477927   1.1011751   0.0000000), wk =   0.0025641
        k(  471) = (   0.3998763   1.1011751   0.1749408), wk =   0.0025641
        k(  472) = (   0.4519599   1.1011751   0.3498816), wk =   0.0025641
        k(  473) = (   0.5040435   1.1011751   0.5248224), wk =   0.0025641
        k(  474) = (   0.5561271   1.1011751   0.6997633), wk =   0.0025641
        k(  475) = (   0.6082107   1.1011751   0.8747041), wk =   0.0025641
        k(  476) = (   0.6602943   1.1011751   1.0496449), wk =   0.0025641
        k(  477) = (   0.0352911   1.1011751  -1.0496449), wk =   0.0025641
        k(  478) = (   0.0873747   1.1011751  -0.8747041), wk =   0.0025641
        k(  479) = (   0.1394583   1.1011751  -0.6997633), wk =   0.0025641
        k(  480) = (   0.1915419   1.1011751  -0.5248224), wk =   0.0025641
        k(  481) = (   0.2436255   1.1011751  -0.3498816), wk =   0.0025641
        k(  482) = (   0.2957091   1.1011751  -0.1749408), wk =   0.0025641
        k(  483) = (   0.3477927   1.2847042   0.0000000), wk =   0.0025641
        k(  484) = (   0.3998763   1.2847042   0.1749408), wk =   0.0025641
        k(  485) = (   0.4519599   1.2847042   0.3498816), wk =   0.0025641
        k(  486) = (   0.5040435   1.2847042   0.5248224), wk =   0.0025641
        k(  487) = (   0.5561271   1.2847042   0.6997633), wk =   0.0025641
        k(  488) = (   0.6082107   1.2847042   0.8747041), wk =   0.0025641
        k(  489) = (   0.6602943   1.2847042   1.0496449), wk =   0.0025641
        k(  490) = (   0.0352911   1.2847042  -1.0496449), wk =   0.0025641
        k(  491) = (   0.0873747   1.2847042  -0.8747041), wk =   0.0025641
        k(  492) = (   0.1394583   1.2847042  -0.6997633), wk =   0.0025641
        k(  493) = (   0.1915419   1.2847042  -0.5248224), wk =   0.0025641
        k(  494) = (   0.2436255   1.2847042  -0.3498816), wk =   0.0025641
        k(  495) = (   0.2957091   1.2847042  -0.1749408), wk =   0.0025641
        k(  496) = (   0.3477927   1.4682334   0.0000000), wk =   0.0025641
        k(  497) = (   0.3998763   1.4682334   0.1749408), wk =   0.0025641
        k(  498) = (   0.4519599   1.4682334   0.3498816), wk =   0.0025641
        k(  499) = (   0.5040435   1.4682334   0.5248224), wk =   0.0025641
        k(  500) = (   0.5561271   1.4682334   0.6997633), wk =   0.0025641
        k(  501) = (   0.6082107   1.4682334   0.8747041), wk =   0.0025641
        k(  502) = (   0.6602943   1.4682334   1.0496449), wk =   0.0025641
        k(  503) = (   0.0352911   1.4682334  -1.0496449), wk =   0.0025641
        k(  504) = (   0.0873747   1.4682334  -0.8747041), wk =   0.0025641
        k(  505) = (   0.1394583   1.4682334  -0.6997633), wk =   0.0025641
        k(  506) = (   0.1915419   1.4682334  -0.5248224), wk =   0.0025641
        k(  507) = (   0.2436255   1.4682334  -0.3498816), wk =   0.0025641
        k(  508) = (   0.2957091   1.4682334  -0.1749408), wk =   0.0025641
        k(  509) = (   0.3477927   1.6517626   0.0000000), wk =   0.0025641
        k(  510) = (   0.3998763   1.6517626   0.1749408), wk =   0.0025641
        k(  511) = (   0.4519599   1.6517626   0.3498816), wk =   0.0025641
        k(  512) = (   0.5040435   1.6517626   0.5248224), wk =   0.0025641
        k(  513) = (   0.5561271   1.6517626   0.6997633), wk =   0.0025641
        k(  514) = (   0.6082107   1.6517626   0.8747041), wk =   0.0025641
        k(  515) = (   0.6602943   1.6517626   1.0496449), wk =   0.0025641
        k(  516) = (   0.0352911   1.6517626  -1.0496449), wk =   0.0025641
        k(  517) = (   0.0873747   1.6517626  -0.8747041), wk =   0.0025641
        k(  518) = (   0.1394583   1.6517626  -0.6997633), wk =   0.0025641
        k(  519) = (   0.1915419   1.6517626  -0.5248224), wk =   0.0025641
        k(  520) = (   0.2436255   1.6517626  -0.3498816), wk =   0.0025641
        k(  521) = (   0.2957091   1.6517626  -0.1749408), wk =   0.0025641
        k(  522) = (   0.3477927  -1.8352918   0.0000000), wk =   0.0025641
        k(  523) = (   0.3998763  -1.8352918   0.1749408), wk =   0.0025641
        k(  524) = (   0.4519599  -1.8352918   0.3498816), wk =   0.0025641
        k(  525) = (   0.5040435  -1.8352918   0.5248224), wk =   0.0025641
        k(  526) = (   0.5561271  -1.8352918   0.6997633), wk =   0.0025641
        k(  527) = (   0.6082107  -1.8352918   0.8747041), wk =   0.0025641
        k(  528) = (   0.6602943  -1.8352918   1.0496449), wk =   0.0025641
        k(  529) = (   0.0352911  -1.8352918  -1.0496449), wk =   0.0025641
        k(  530) = (   0.0873747  -1.8352918  -0.8747041), wk =   0.0025641
        k(  531) = (   0.1394583  -1.8352918  -0.6997633), wk =   0.0025641
        k(  532) = (   0.1915419  -1.8352918  -0.5248224), wk =   0.0025641
        k(  533) = (   0.2436255  -1.8352918  -0.3498816), wk =   0.0025641
        k(  534) = (   0.2957091  -1.8352918  -0.1749408), wk =   0.0025641
        k(  535) = (   0.3477927  -1.6517626   0.0000000), wk =   0.0025641
        k(  536) = (   0.3998763  -1.6517626   0.1749408), wk =   0.0025641
        k(  537) = (   0.4519599  -1.6517626   0.3498816), wk =   0.0025641
        k(  538) = (   0.5040435  -1.6517626   0.5248224), wk =   0.0025641
        k(  539) = (   0.5561271  -1.6517626   0.6997633), wk =   0.0025641
        k(  540) = (   0.6082107  -1.6517626   0.8747041), wk =   0.0025641
        k(  541) = (   0.6602943  -1.6517626   1.0496449), wk =   0.0025641
        k(  542) = (   0.0352911  -1.6517626  -1.0496449), wk =   0.0025641
        k(  543) = (   0.0873747  -1.6517626  -0.8747041), wk =   0.0025641
        k(  544) = (   0.1394583  -1.6517626  -0.6997633), wk =   0.0025641
        k(  545) = (   0.1915419  -1.6517626  -0.5248224), wk =   0.0025641
        k(  546) = (   0.2436255  -1.6517626  -0.3498816), wk =   0.0025641
        k(  547) = (   0.2957091  -1.6517626  -0.1749408), wk =   0.0025641
        k(  548) = (   0.3477927  -1.4682334   0.0000000), wk =   0.0025641
        k(  549) = (   0.3998763  -1.4682334   0.1749408), wk =   0.0025641
        k(  550) = (   0.4519599  -1.4682334   0.3498816), wk =   0.0025641
        k(  551) = (   0.5040435  -1.4682334   0.5248224), wk =   0.0025641
        k(  552) = (   0.5561271  -1.4682334   0.6997633), wk =   0.0025641
        k(  553) = (   0.6082107  -1.4682334   0.8747041), wk =   0.0025641
        k(  554) = (   0.6602943  -1.4682334   1.0496449), wk =   0.0025641
        k(  555) = (   0.0352911  -1.4682334  -1.0496449), wk =   0.0025641
        k(  556) = (   0.0873747  -1.4682334  -0.8747041), wk =   0.0025641
        k(  557) = (   0.1394583  -1.4682334  -0.6997633), wk =   0.0025641
        k(  558) = (   0.1915419  -1.4682334  -0.5248224), wk =   0.0025641
        k(  559) = (   0.2436255  -1.4682334  -0.3498816), wk =   0.0025641
        k(  560) = (   0.2957091  -1.4682334  -0.1749408), wk =   0.0025641
        k(  561) = (   0.3477927  -1.2847042   0.0000000), wk =   0.0025641
        k(  562) = (   0.3998763  -1.2847042   0.1749408), wk =   0.0025641
        k(  563) = (   0.4519599  -1.2847042   0.3498816), wk =   0.0025641
        k(  564) = (   0.5040435  -1.2847042   0.5248224), wk =   0.0025641
        k(  565) = (   0.5561271  -1.2847042   0.6997633), wk =   0.0025641
        k(  566) = (   0.6082107  -1.2847042   0.8747041), wk =   0.0025641
        k(  567) = (   0.6602943  -1.2847042   1.0496449), wk =   0.0025641
        k(  568) = (   0.0352911  -1.2847042  -1.0496449), wk =   0.0025641
        k(  569) = (   0.0873747  -1.2847042  -0.8747041), wk =   0.0025641
        k(  570) = (   0.1394583  -1.2847042  -0.6997633), wk =   0.0025641
        k(  571) = (   0.1915419  -1.2847042  -0.5248224), wk =   0.0025641
        k(  572) = (   0.2436255  -1.2847042  -0.3498816), wk =   0.0025641
        k(  573) = (   0.2957091  -1.2847042  -0.1749408), wk =   0.0025641
        k(  574) = (   0.3477927  -1.1011751   0.0000000), wk =   0.0025641
        k(  575) = (   0.3998763  -1.1011751   0.1749408), wk =   0.0025641
        k(  576) = (   0.4519599  -1.1011751   0.3498816), wk =   0.0025641
        k(  577) = (   0.5040435  -1.1011751   0.5248224), wk =   0.0025641
        k(  578) = (   0.5561271  -1.1011751   0.6997633), wk =   0.0025641
        k(  579) = (   0.6082107  -1.1011751   0.8747041), wk =   0.0025641
        k(  580) = (   0.6602943  -1.1011751   1.0496449), wk =   0.0025641
        k(  581) = (   0.0352911  -1.1011751  -1.0496449), wk =   0.0025641
        k(  582) = (   0.0873747  -1.1011751  -0.8747041), wk =   0.0025641
        k(  583) = (   0.1394583  -1.1011751  -0.6997633), wk =   0.0025641
        k(  584) = (   0.1915419  -1.1011751  -0.5248224), wk =   0.0025641
        k(  585) = (   0.2436255  -1.1011751  -0.3498816), wk =   0.0025641
        k(  586) = (   0.2957091  -1.1011751  -0.1749408), wk =   0.0025641
        k(  587) = (   0.3477927  -0.9176459   0.0000000), wk =   0.0025641
        k(  588) = (   0.3998763  -0.9176459   0.1749408), wk =   0.0025641
        k(  589) = (   0.4519599  -0.9176459   0.3498816), wk =   0.0025641
        k(  590) = (   0.5040435  -0.9176459   0.5248224), wk =   0.0025641
        k(  591) = (   0.5561271  -0.9176459   0.6997633), wk =   0.0025641
        k(  592) = (   0.6082107  -0.9176459   0.8747041), wk =   0.0025641
        k(  593) = (   0.6602943  -0.9176459   1.0496449), wk =   0.0025641
        k(  594) = (   0.0352911  -0.9176459  -1.0496449), wk =   0.0025641
        k(  595) = (   0.0873747  -0.9176459  -0.8747041), wk =   0.0025641
        k(  596) = (   0.1394583  -0.9176459  -0.6997633), wk =   0.0025641
        k(  597) = (   0.1915419  -0.9176459  -0.5248224), wk =   0.0025641
        k(  598) = (   0.2436255  -0.9176459  -0.3498816), wk =   0.0025641
        k(  599) = (   0.2957091  -0.9176459  -0.1749408), wk =   0.0025641
        k(  600) = (   0.3477927  -0.7341167   0.0000000), wk =   0.0025641
        k(  601) = (   0.3998763  -0.7341167   0.1749408), wk =   0.0025641
        k(  602) = (   0.4519599  -0.7341167   0.3498816), wk =   0.0025641
        k(  603) = (   0.5040435  -0.7341167   0.5248224), wk =   0.0025641
        k(  604) = (   0.5561271  -0.7341167   0.6997633), wk =   0.0025641
        k(  605) = (   0.6082107  -0.7341167   0.8747041), wk =   0.0025641
        k(  606) = (   0.6602943  -0.7341167   1.0496449), wk =   0.0025641
        k(  607) = (   0.0352911  -0.7341167  -1.0496449), wk =   0.0025641
        k(  608) = (   0.0873747  -0.7341167  -0.8747041), wk =   0.0025641
        k(  609) = (   0.1394583  -0.7341167  -0.6997633), wk =   0.0025641
        k(  610) = (   0.1915419  -0.7341167  -0.5248224), wk =   0.0025641
        k(  611) = (   0.2436255  -0.7341167  -0.3498816), wk =   0.0025641
        k(  612) = (   0.2957091  -0.7341167  -0.1749408), wk =   0.0025641
        k(  613) = (   0.3477927  -0.5505875   0.0000000), wk =   0.0025641
        k(  614) = (   0.3998763  -0.5505875   0.1749408), wk =   0.0025641
        k(  615) = (   0.4519599  -0.5505875   0.3498816), wk =   0.0025641
        k(  616) = (   0.5040435  -0.5505875   0.5248224), wk =   0.0025641
        k(  617) = (   0.5561271  -0.5505875   0.6997633), wk =   0.0025641
        k(  618) = (   0.6082107  -0.5505875   0.8747041), wk =   0.0025641
        k(  619) = (   0.6602943  -0.5505875   1.0496449), wk =   0.0025641
        k(  620) = (   0.0352911  -0.5505875  -1.0496449), wk =   0.0025641
        k(  621) = (   0.0873747  -0.5505875  -0.8747041), wk =   0.0025641
        k(  622) = (   0.1394583  -0.5505875  -0.6997633), wk =   0.0025641
        k(  623) = (   0.1915419  -0.5505875  -0.5248224), wk =   0.0025641
        k(  624) = (   0.2436255  -0.5505875  -0.3498816), wk =   0.0025641
        k(  625) = (   0.2957091  -0.5505875  -0.1749408), wk =   0.0025641
        k(  626) = (   0.3477927  -0.3670584   0.0000000), wk =   0.0025641
        k(  627) = (   0.3998763  -0.3670584   0.1749408), wk =   0.0025641
        k(  628) = (   0.4519599  -0.3670584   0.3498816), wk =   0.0025641
        k(  629) = (   0.5040435  -0.3670584   0.5248224), wk =   0.0025641
        k(  630) = (   0.5561271  -0.3670584   0.6997633), wk =   0.0025641
        k(  631) = (   0.6082107  -0.3670584   0.8747041), wk =   0.0025641
        k(  632) = (   0.6602943  -0.3670584   1.0496449), wk =   0.0025641
        k(  633) = (   0.0352911  -0.3670584  -1.0496449), wk =   0.0025641
        k(  634) = (   0.0873747  -0.3670584  -0.8747041), wk =   0.0025641
        k(  635) = (   0.1394583  -0.3670584  -0.6997633), wk =   0.0025641
        k(  636) = (   0.1915419  -0.3670584  -0.5248224), wk =   0.0025641
        k(  637) = (   0.2436255  -0.3670584  -0.3498816), wk =   0.0025641
        k(  638) = (   0.2957091  -0.3670584  -0.1749408), wk =   0.0025641
        k(  639) = (   0.3477927  -0.1835292   0.0000000), wk =   0.0025641
        k(  640) = (   0.3998763  -0.1835292   0.1749408), wk =   0.0025641
        k(  641) = (   0.4519599  -0.1835292   0.3498816), wk =   0.0025641
        k(  642) = (   0.5040435  -0.1835292   0.5248224), wk =   0.0025641
        k(  643) = (   0.5561271  -0.1835292   0.6997633), wk =   0.0025641
        k(  644) = (   0.6082107  -0.1835292   0.8747041), wk =   0.0025641
        k(  645) = (   0.6602943  -0.1835292   1.0496449), wk =   0.0025641
        k(  646) = (   0.0352911  -0.1835292  -1.0496449), wk =   0.0025641
        k(  647) = (   0.0873747  -0.1835292  -0.8747041), wk =   0.0025641
        k(  648) = (   0.1394583  -0.1835292  -0.6997633), wk =   0.0025641
        k(  649) = (   0.1915419  -0.1835292  -0.5248224), wk =   0.0025641
        k(  650) = (   0.2436255  -0.1835292  -0.3498816), wk =   0.0025641
        k(  651) = (   0.2957091  -0.1835292  -0.1749408), wk =   0.0025641
        k(  652) = (  -0.5216891   0.0000000   0.0000000), wk =   0.0012821
        k(  653) = (  -0.4696055   0.0000000   0.1749408), wk =   0.0025641
        k(  654) = (  -0.4175219   0.0000000   0.3498816), wk =   0.0025641
        k(  655) = (  -0.3654383   0.0000000   0.5248224), wk =   0.0025641
        k(  656) = (  -0.3133547   0.0000000   0.6997633), wk =   0.0025641
        k(  657) = (  -0.2612711   0.0000000   0.8747041), wk =   0.0025641
        k(  658) = (  -0.2091875   0.0000000   1.0496449), wk =   0.0025641
        k(  659) = (  -0.5216891   0.1835292   0.0000000), wk =   0.0025641
        k(  660) = (  -0.4696055   0.1835292   0.1749408), wk =   0.0025641
        k(  661) = (  -0.4175219   0.1835292   0.3498816), wk =   0.0025641
        k(  662) = (  -0.3654383   0.1835292   0.5248224), wk =   0.0025641
        k(  663) = (  -0.3133547   0.1835292   0.6997633), wk =   0.0025641
        k(  664) = (  -0.2612711   0.1835292   0.8747041), wk =   0.0025641
        k(  665) = (  -0.2091875   0.1835292   1.0496449), wk =   0.0025641
        k(  666) = (  -0.8341906   0.1835292  -1.0496449), wk =   0.0025641
        k(  667) = (  -0.7821071   0.1835292  -0.8747041), wk =   0.0025641
        k(  668) = (  -0.7300235   0.1835292  -0.6997633), wk =   0.0025641
        k(  669) = (  -0.6779399   0.1835292  -0.5248224), wk =   0.0025641
        k(  670) = (  -0.6258563   0.1835292  -0.3498816), wk =   0.0025641
        k(  671) = (  -0.5737727   0.1835292  -0.1749408), wk =   0.0025641
        k(  672) = (  -0.5216891   0.3670584   0.0000000), wk =   0.0025641
        k(  673) = (  -0.4696055   0.3670584   0.1749408), wk =   0.0025641
        k(  674) = (  -0.4175219   0.3670584   0.3498816), wk =   0.0025641
        k(  675) = (  -0.3654383   0.3670584   0.5248224), wk =   0.0025641
        k(  676) = (  -0.3133547   0.3670584   0.6997633), wk =   0.0025641
        k(  677) = (  -0.2612711   0.3670584   0.8747041), wk =   0.0025641
        k(  678) = (  -0.2091875   0.3670584   1.0496449), wk =   0.0025641
        k(  679) = (  -0.8341906   0.3670584  -1.0496449), wk =   0.0025641
        k(  680) = (  -0.7821071   0.3670584  -0.8747041), wk =   0.0025641
        k(  681) = (  -0.7300235   0.3670584  -0.6997633), wk =   0.0025641
        k(  682) = (  -0.6779399   0.3670584  -0.5248224), wk =   0.0025641
        k(  683) = (  -0.6258563   0.3670584  -0.3498816), wk =   0.0025641
        k(  684) = (  -0.5737727   0.3670584  -0.1749408), wk =   0.0025641
        k(  685) = (  -0.5216891   0.5505875   0.0000000), wk =   0.0025641
        k(  686) = (  -0.4696055   0.5505875   0.1749408), wk =   0.0025641
        k(  687) = (  -0.4175219   0.5505875   0.3498816), wk =   0.0025641
        k(  688) = (  -0.3654383   0.5505875   0.5248224), wk =   0.0025641
        k(  689) = (  -0.3133547   0.5505875   0.6997633), wk =   0.0025641
        k(  690) = (  -0.2612711   0.5505875   0.8747041), wk =   0.0025641
        k(  691) = (  -0.2091875   0.5505875   1.0496449), wk =   0.0025641
        k(  692) = (  -0.8341906   0.5505875  -1.0496449), wk =   0.0025641
        k(  693) = (  -0.7821071   0.5505875  -0.8747041), wk =   0.0025641
        k(  694) = (  -0.7300235   0.5505875  -0.6997633), wk =   0.0025641
        k(  695) = (  -0.6779399   0.5505875  -0.5248224), wk =   0.0025641
        k(  696) = (  -0.6258563   0.5505875  -0.3498816), wk =   0.0025641
        k(  697) = (  -0.5737727   0.5505875  -0.1749408), wk =   0.0025641
        k(  698) = (  -0.5216891   0.7341167   0.0000000), wk =   0.0025641
        k(  699) = (  -0.4696055   0.7341167   0.1749408), wk =   0.0025641
        k(  700) = (  -0.4175219   0.7341167   0.3498816), wk =   0.0025641
        k(  701) = (  -0.3654383   0.7341167   0.5248224), wk =   0.0025641
        k(  702) = (  -0.3133547   0.7341167   0.6997633), wk =   0.0025641
        k(  703) = (  -0.2612711   0.7341167   0.8747041), wk =   0.0025641
        k(  704) = (  -0.2091875   0.7341167   1.0496449), wk =   0.0025641
        k(  705) = (  -0.8341906   0.7341167  -1.0496449), wk =   0.0025641
        k(  706) = (  -0.7821071   0.7341167  -0.8747041), wk =   0.0025641
        k(  707) = (  -0.7300235   0.7341167  -0.6997633), wk =   0.0025641
        k(  708) = (  -0.6779399   0.7341167  -0.5248224), wk =   0.0025641
        k(  709) = (  -0.6258563   0.7341167  -0.3498816), wk =   0.0025641
        k(  710) = (  -0.5737727   0.7341167  -0.1749408), wk =   0.0025641
        k(  711) = (  -0.5216891   0.9176459   0.0000000), wk =   0.0025641
        k(  712) = (  -0.4696055   0.9176459   0.1749408), wk =   0.0025641
        k(  713) = (  -0.4175219   0.9176459   0.3498816), wk =   0.0025641
        k(  714) = (  -0.3654383   0.9176459   0.5248224), wk =   0.0025641
        k(  715) = (  -0.3133547   0.9176459   0.6997633), wk =   0.0025641
        k(  716) = (  -0.2612711   0.9176459   0.8747041), wk =   0.0025641
        k(  717) = (  -0.2091875   0.9176459   1.0496449), wk =   0.0025641
        k(  718) = (  -0.8341906   0.9176459  -1.0496449), wk =   0.0025641
        k(  719) = (  -0.7821071   0.9176459  -0.8747041), wk =   0.0025641
        k(  720) = (  -0.7300235   0.9176459  -0.6997633), wk =   0.0025641
        k(  721) = (  -0.6779399   0.9176459  -0.5248224), wk =   0.0025641
        k(  722) = (  -0.6258563   0.9176459  -0.3498816), wk =   0.0025641
        k(  723) = (  -0.5737727   0.9176459  -0.1749408), wk =   0.0025641
        k(  724) = (  -0.5216891   1.1011751   0.0000000), wk =   0.0025641
        k(  725) = (  -0.4696055   1.1011751   0.1749408), wk =   0.0025641
        k(  726) = (  -0.4175219   1.1011751   0.3498816), wk =   0.0025641
        k(  727) = (  -0.3654383   1.1011751   0.5248224), wk =   0.0025641
        k(  728) = (  -0.3133547   1.1011751   0.6997633), wk =   0.0025641
        k(  729) = (  -0.2612711   1.1011751   0.8747041), wk =   0.0025641
        k(  730) = (  -0.2091875   1.1011751   1.0496449), wk =   0.0025641
        k(  731) = (  -0.8341906   1.1011751  -1.0496449), wk =   0.0025641
        k(  732) = (  -0.7821071   1.1011751  -0.8747041), wk =   0.0025641
        k(  733) = (  -0.7300235   1.1011751  -0.6997633), wk =   0.0025641
        k(  734) = (  -0.6779399   1.1011751  -0.5248224), wk =   0.0025641
        k(  735) = (  -0.6258563   1.1011751  -0.3498816), wk =   0.0025641
        k(  736) = (  -0.5737727   1.1011751  -0.1749408), wk =   0.0025641
        k(  737) = (  -0.5216891   1.2847042   0.0000000), wk =   0.0025641
        k(  738) = (  -0.4696055   1.2847042   0.1749408), wk =   0.0025641
        k(  739) = (  -0.4175219   1.2847042   0.3498816), wk =   0.0025641
        k(  740) = (  -0.3654383   1.2847042   0.5248224), wk =   0.0025641
        k(  741) = (  -0.3133547   1.2847042   0.6997633), wk =   0.0025641
        k(  742) = (  -0.2612711   1.2847042   0.8747041), wk =   0.0025641
        k(  743) = (  -0.2091875   1.2847042   1.0496449), wk =   0.0025641
        k(  744) = (  -0.8341906   1.2847042  -1.0496449), wk =   0.0025641
        k(  745) = (  -0.7821071   1.2847042  -0.8747041), wk =   0.0025641
        k(  746) = (  -0.7300235   1.2847042  -0.6997633), wk =   0.0025641
        k(  747) = (  -0.6779399   1.2847042  -0.5248224), wk =   0.0025641
        k(  748) = (  -0.6258563   1.2847042  -0.3498816), wk =   0.0025641
        k(  749) = (  -0.5737727   1.2847042  -0.1749408), wk =   0.0025641
        k(  750) = (  -0.5216891   1.4682334   0.0000000), wk =   0.0025641
        k(  751) = (  -0.4696055   1.4682334   0.1749408), wk =   0.0025641
        k(  752) = (  -0.4175219   1.4682334   0.3498816), wk =   0.0025641
        k(  753) = (  -0.3654383   1.4682334   0.5248224), wk =   0.0025641
        k(  754) = (  -0.3133547   1.4682334   0.6997633), wk =   0.0025641
        k(  755) = (  -0.2612711   1.4682334   0.8747041), wk =   0.0025641
        k(  756) = (  -0.2091875   1.4682334   1.0496449), wk =   0.0025641
        k(  757) = (  -0.8341906   1.4682334  -1.0496449), wk =   0.0025641
        k(  758) = (  -0.7821071   1.4682334  -0.8747041), wk =   0.0025641
        k(  759) = (  -0.7300235   1.4682334  -0.6997633), wk =   0.0025641
        k(  760) = (  -0.6779399   1.4682334  -0.5248224), wk =   0.0025641
        k(  761) = (  -0.6258563   1.4682334  -0.3498816), wk =   0.0025641
        k(  762) = (  -0.5737727   1.4682334  -0.1749408), wk =   0.0025641
        k(  763) = (  -0.5216891   1.6517626   0.0000000), wk =   0.0025641
        k(  764) = (  -0.4696055   1.6517626   0.1749408), wk =   0.0025641
        k(  765) = (  -0.4175219   1.6517626   0.3498816), wk =   0.0025641
        k(  766) = (  -0.3654383   1.6517626   0.5248224), wk =   0.0025641
        k(  767) = (  -0.3133547   1.6517626   0.6997633), wk =   0.0025641
        k(  768) = (  -0.2612711   1.6517626   0.8747041), wk =   0.0025641
        k(  769) = (  -0.2091875   1.6517626   1.0496449), wk =   0.0025641
        k(  770) = (  -0.8341906   1.6517626  -1.0496449), wk =   0.0025641
        k(  771) = (  -0.7821071   1.6517626  -0.8747041), wk =   0.0025641
        k(  772) = (  -0.7300235   1.6517626  -0.6997633), wk =   0.0025641
        k(  773) = (  -0.6779399   1.6517626  -0.5248224), wk =   0.0025641
        k(  774) = (  -0.6258563   1.6517626  -0.3498816), wk =   0.0025641
        k(  775) = (  -0.5737727   1.6517626  -0.1749408), wk =   0.0025641
        k(  776) = (  -0.5216891  -1.8352918   0.0000000), wk =   0.0012821
        k(  777) = (  -0.4696055  -1.8352918   0.1749408), wk =   0.0025641
        k(  778) = (  -0.4175219  -1.8352918   0.3498816), wk =   0.0025641
        k(  779) = (  -0.3654383  -1.8352918   0.5248224), wk =   0.0025641
        k(  780) = (  -0.3133547  -1.8352918   0.6997633), wk =   0.0025641
        k(  781) = (  -0.2612711  -1.8352918   0.8747041), wk =   0.0025641
        k(  782) = (  -0.2091875  -1.8352918   1.0496449), wk =   0.0025641

                       cryst. coord.
        k(    1) = (   0.0000000   0.0000000   0.0000000), wk =   0.0012821
        k(    2) = (  -0.0000000   0.0000000   0.0769231), wk =   0.0025641
        k(    3) = (  -0.0000000   0.0000000   0.1538462), wk =   0.0025641
        k(    4) = (  -0.0000000   0.0000000   0.2307692), wk =   0.0025641
        k(    5) = (  -0.0000000   0.0000000   0.3076923), wk =   0.0025641
        k(    6) = (  -0.0000000   0.0000000   0.3846154), wk =   0.0025641
        k(    7) = (  -0.0000000   0.0000000   0.4615385), wk =   0.0025641
        k(    8) = (   0.0000000   0.0500000   0.0000000), wk =   0.0025641
        k(    9) = (  -0.0000000   0.0500000   0.0769231), wk =   0.0025641
        k(   10) = (  -0.0000000   0.0500000   0.1538462), wk =   0.0025641
        k(   11) = (  -0.0000000   0.0500000   0.2307692), wk =   0.0025641
        k(   12) = (  -0.0000000   0.0500000   0.3076923), wk =   0.0025641
        k(   13) = (  -0.0000000   0.0500000   0.3846154), wk =   0.0025641
        k(   14) = (  -0.0000000   0.0500000   0.4615385), wk =   0.0025641
        k(   15) = (   0.0000000   0.0500000  -0.4615385), wk =   0.0025641
        k(   16) = (   0.0000000   0.0500000  -0.3846154), wk =   0.0025641
        k(   17) = (   0.0000000   0.0500000  -0.3076923), wk =   0.0025641
        k(   18) = (   0.0000000   0.0500000  -0.2307692), wk =   0.0025641
        k(   19) = (   0.0000000   0.0500000  -0.1538462), wk =   0.0025641
        k(   20) = (   0.0000000   0.0500000  -0.0769231), wk =   0.0025641
        k(   21) = (   0.0000000   0.1000000   0.0000000), wk =   0.0025641
        k(   22) = (  -0.0000000   0.1000000   0.0769231), wk =   0.0025641
        k(   23) = (  -0.0000000   0.1000000   0.1538462), wk =   0.0025641
        k(   24) = (  -0.0000000   0.1000000   0.2307692), wk =   0.0025641
        k(   25) = (  -0.0000000   0.1000000   0.3076923), wk =   0.0025641
        k(   26) = (  -0.0000000   0.1000000   0.3846154), wk =   0.0025641
        k(   27) = (  -0.0000000   0.1000000   0.4615385), wk =   0.0025641
        k(   28) = (   0.0000000   0.1000000  -0.4615385), wk =   0.0025641
        k(   29) = (   0.0000000   0.1000000  -0.3846154), wk =   0.0025641
        k(   30) = (   0.0000000   0.1000000  -0.3076923), wk =   0.0025641
        k(   31) = (   0.0000000   0.1000000  -0.2307692), wk =   0.0025641
        k(   32) = (   0.0000000   0.1000000  -0.1538462), wk =   0.0025641
        k(   33) = (   0.0000000   0.1000000  -0.0769231), wk =   0.0025641
        k(   34) = (   0.0000000   0.1500000   0.0000000), wk =   0.0025641
        k(   35) = (  -0.0000000   0.1500000   0.0769231), wk =   0.0025641
        k(   36) = (  -0.0000000   0.1500000   0.1538462), wk =   0.0025641
        k(   37) = (  -0.0000000   0.1500000   0.2307692), wk =   0.0025641
        k(   38) = (  -0.0000000   0.1500000   0.3076923), wk =   0.0025641
        k(   39) = (  -0.0000000   0.1500000   0.3846154), wk =   0.0025641
        k(   40) = (  -0.0000000   0.1500000   0.4615385), wk =   0.0025641
        k(   41) = (   0.0000000   0.1500000  -0.4615385), wk =   0.0025641
        k(   42) = (   0.0000000   0.1500000  -0.3846154), wk =   0.0025641
        k(   43) = (   0.0000000   0.1500000  -0.3076923), wk =   0.0025641
        k(   44) = (   0.0000000   0.1500000  -0.2307692), wk =   0.0025641
        k(   45) = (   0.0000000   0.1500000  -0.1538462), wk =   0.0025641
        k(   46) = (   0.0000000   0.1500000  -0.0769231), wk =   0.0025641
        k(   47) = (   0.0000000   0.2000000   0.0000000), wk =   0.0025641
        k(   48) = (  -0.0000000   0.2000000   0.0769231), wk =   0.0025641
        k(   49) = (  -0.0000000   0.2000000   0.1538462), wk =   0.0025641
        k(   50) = (  -0.0000000   0.2000000   0.2307692), wk =   0.0025641
        k(   51) = (  -0.0000000   0.2000000   0.3076923), wk =   0.0025641
        k(   52) = (  -0.0000000   0.2000000   0.3846154), wk =   0.0025641
        k(   53) = (  -0.0000000   0.2000000   0.4615385), wk =   0.0025641
        k(   54) = (   0.0000000   0.2000000  -0.4615385), wk =   0.0025641
        k(   55) = (   0.0000000   0.2000000  -0.3846154), wk =   0.0025641
        k(   56) = (   0.0000000   0.2000000  -0.3076923), wk =   0.0025641
        k(   57) = (   0.0000000   0.2000000  -0.2307692), wk =   0.0025641
        k(   58) = (   0.0000000   0.2000000  -0.1538462), wk =   0.0025641
        k(   59) = (   0.0000000   0.2000000  -0.0769231), wk =   0.0025641
        k(   60) = (   0.0000000   0.2500000   0.0000000), wk =   0.0025641
        k(   61) = (  -0.0000000   0.2500000   0.0769231), wk =   0.0025641
        k(   62) = (  -0.0000000   0.2500000   0.1538462), wk =   0.0025641
        k(   63) = (  -0.0000000   0.2500000   0.2307692), wk =   0.0025641
        k(   64) = (  -0.0000000   0.2500000   0.3076923), wk =   0.0025641
        k(   65) = (  -0.0000000   0.2500000   0.3846154), wk =   0.0025641
        k(   66) = (  -0.0000000   0.2500000   0.4615385), wk =   0.0025641
        k(   67) = (   0.0000000   0.2500000  -0.4615385), wk =   0.0025641
        k(   68) = (   0.0000000   0.2500000  -0.3846154), wk =   0.0025641
        k(   69) = (   0.0000000   0.2500000  -0.3076923), wk =   0.0025641
        k(   70) = (   0.0000000   0.2500000  -0.2307692), wk =   0.0025641
        k(   71) = (   0.0000000   0.2500000  -0.1538462), wk =   0.0025641
        k(   72) = (   0.0000000   0.2500000  -0.0769231), wk =   0.0025641
        k(   73) = (   0.0000000   0.3000000   0.0000000), wk =   0.0025641
        k(   74) = (  -0.0000000   0.3000000   0.0769231), wk =   0.0025641
        k(   75) = (  -0.0000000   0.3000000   0.1538462), wk =   0.0025641
        k(   76) = (  -0.0000000   0.3000000   0.2307692), wk =   0.0025641
        k(   77) = (  -0.0000000   0.3000000   0.3076923), wk =   0.0025641
        k(   78) = (  -0.0000000   0.3000000   0.3846154), wk =   0.0025641
        k(   79) = (  -0.0000000   0.3000000   0.4615385), wk =   0.0025641
        k(   80) = (   0.0000000   0.3000000  -0.4615385), wk =   0.0025641
        k(   81) = (   0.0000000   0.3000000  -0.3846154), wk =   0.0025641
        k(   82) = (   0.0000000   0.3000000  -0.3076923), wk =   0.0025641
        k(   83) = (   0.0000000   0.3000000  -0.2307692), wk =   0.0025641
        k(   84) = (   0.0000000   0.3000000  -0.1538462), wk =   0.0025641
        k(   85) = (   0.0000000   0.3000000  -0.0769231), wk =   0.0025641
        k(   86) = (   0.0000000   0.3500000   0.0000000), wk =   0.0025641
        k(   87) = (  -0.0000000   0.3500000   0.0769231), wk =   0.0025641
        k(   88) = (  -0.0000000   0.3500000   0.1538462), wk =   0.0025641
        k(   89) = (  -0.0000000   0.3500000   0.2307692), wk =   0.0025641
        k(   90) = (  -0.0000000   0.3500000   0.3076923), wk =   0.0025641
        k(   91) = (  -0.0000000   0.3500000   0.3846154), wk =   0.0025641
        k(   92) = (  -0.0000000   0.3500000   0.4615385), wk =   0.0025641
        k(   93) = (   0.0000000   0.3500000  -0.4615385), wk =   0.0025641
        k(   94) = (   0.0000000   0.3500000  -0.3846154), wk =   0.0025641
        k(   95) = (   0.0000000   0.3500000  -0.3076923), wk =   0.0025641
        k(   96) = (   0.0000000   0.3500000  -0.2307692), wk =   0.0025641
        k(   97) = (   0.0000000   0.3500000  -0.1538462), wk =   0.0025641
        k(   98) = (   0.0000000   0.3500000  -0.0769231), wk =   0.0025641
        k(   99) = (   0.0000000   0.4000000   0.0000000), wk =   0.0025641
        k(  100) = (  -0.0000000   0.4000000   0.0769231), wk =   0.0025641
        k(  101) = (  -0.0000000   0.4000000   0.1538462), wk =   0.0025641
        k(  102) = (  -0.0000000   0.4000000   0.2307692), wk =   0.0025641
        k(  103) = (  -0.0000000   0.4000000   0.3076923), wk =   0.0025641
        k(  104) = (  -0.0000000   0.4000000   0.3846154), wk =   0.0025641
        k(  105) = (  -0.0000000   0.4000000   0.4615385), wk =   0.0025641
        k(  106) = (   0.0000000   0.4000000  -0.4615385), wk =   0.0025641
        k(  107) = (   0.0000000   0.4000000  -0.3846154), wk =   0.0025641
        k(  108) = (   0.0000000   0.4000000  -0.3076923), wk =   0.0025641
        k(  109) = (   0.0000000   0.4000000  -0.2307692), wk =   0.0025641
        k(  110) = (   0.0000000   0.4000000  -0.1538462), wk =   0.0025641
        k(  111) = (   0.0000000   0.4000000  -0.0769231), wk =   0.0025641
        k(  112) = (   0.0000000   0.4500000   0.0000000), wk =   0.0025641
        k(  113) = (  -0.0000000   0.4500000   0.0769231), wk =   0.0025641
        k(  114) = (  -0.0000000   0.4500000   0.1538462), wk =   0.0025641
        k(  115) = (  -0.0000000   0.4500000   0.2307692), wk =   0.0025641
        k(  116) = (  -0.0000000   0.4500000   0.3076923), wk =   0.0025641
        k(  117) = (  -0.0000000   0.4500000   0.3846154), wk =   0.0025641
        k(  118) = (  -0.0000000   0.4500000   0.4615385), wk =   0.0025641
        k(  119) = (   0.0000000   0.4500000  -0.4615385), wk =   0.0025641
        k(  120) = (   0.0000000   0.4500000  -0.3846154), wk =   0.0025641
        k(  121) = (   0.0000000   0.4500000  -0.3076923), wk =   0.0025641
        k(  122) = (   0.0000000   0.4500000  -0.2307692), wk =   0.0025641
        k(  123) = (   0.0000000   0.4500000  -0.1538462), wk =   0.0025641
        k(  124) = (   0.0000000   0.4500000  -0.0769231), wk =   0.0025641
        k(  125) = (   0.0000000  -0.5000000   0.0000000), wk =   0.0012821
        k(  126) = (  -0.0000000  -0.5000000   0.0769231), wk =   0.0025641
        k(  127) = (  -0.0000000  -0.5000000   0.1538462), wk =   0.0025641
        k(  128) = (  -0.0000000  -0.5000000   0.2307692), wk =   0.0025641
        k(  129) = (  -0.0000000  -0.5000000   0.3076923), wk =   0.0025641
        k(  130) = (  -0.0000000  -0.5000000   0.3846154), wk =   0.0025641
        k(  131) = (  -0.0000000  -0.5000000   0.4615385), wk =   0.0025641
        k(  132) = (   0.1666667   0.0000000   0.0000000), wk =   0.0025641
        k(  133) = (   0.1666667   0.0000000   0.0769231), wk =   0.0025641
        k(  134) = (   0.1666667   0.0000000   0.1538462), wk =   0.0025641
        k(  135) = (   0.1666667   0.0000000   0.2307692), wk =   0.0025641
        k(  136) = (   0.1666667   0.0000000   0.3076923), wk =   0.0025641
        k(  137) = (   0.1666667   0.0000000   0.3846154), wk =   0.0025641
        k(  138) = (   0.1666667   0.0000000   0.4615385), wk =   0.0025641
        k(  139) = (   0.1666667   0.0000000  -0.4615385), wk =   0.0025641
        k(  140) = (   0.1666667   0.0000000  -0.3846154), wk =   0.0025641
        k(  141) = (   0.1666667   0.0000000  -0.3076923), wk =   0.0025641
        k(  142) = (   0.1666667   0.0000000  -0.2307692), wk =   0.0025641
[...]

          k =-0.2092-1.8353 1.0496 ( 11454 PWs)   bands (ev):

    -2.8992  -2.8992  -2.0950  -2.0950  -1.7283  -1.7283  -1.1370  -1.1370
     0.2466   0.2467   0.8127   0.8127   1.1052   1.1052   1.9563   1.9563
     2.0611   2.0611   3.0342   3.0342   3.4937   3.4937   4.0127   4.0127
     4.3800   4.3800   4.8045   4.8045   5.2759   5.2759   5.7792   5.7792
     6.4065   6.4065   6.7312   6.7312   7.0185   7.0185   7.3196   7.3196

     occupation numbers 
     1.0000   1.0000   1.0000   1.0000   1.0000   1.0000   1.0000   1.0000
     1.0000   1.0000   1.0000   1.0000   1.0000   1.0000   1.0000   1.0000
     1.0000   1.0000   1.0000   1.0000   1.0000   1.0000   1.0000   1.0000
     1.0000   1.0000   1.0000   1.0000   1.0010   1.0010   1.0192   1.0192
     0.9373   0.9373   0.5835   0.5835   0.2030   0.2030  -0.0081  -0.0081

     the Fermi energy is     6.7907 ev

!    total energy              =    -597.36826704 Ry
     Harris-Foulkes estimate   =    -597.36826704 Ry
     estimated scf accuracy    <          9.4E-13 Ry

     The total energy is the sum of the following terms:

     one-electron contribution =      48.78020272 Ry
     hartree contribution      =       6.72383123 Ry
     xc contribution           =     -77.81408506 Ry
     ewald contribution        =    -116.70584988 Ry
     one-center paw contrib.   =    -458.35190688 Ry
      -> PAW hartree energy AE =       1.25151579 Ry
      -> PAW hartree energy PS =      -1.24707534 Ry
      -> PAW xc energy AE      =     -36.51009955 Ry
      -> PAW xc energy PS      =       1.83174671 Ry
      -> total E_H with PAW    =       6.72827169 Ry
      -> total E_XC with PAW   =    -112.49243790 Ry
     smearing contrib. (-TS)   =      -0.00045918 Ry

     convergence has been achieved in  15 iterations

     Forces acting on atoms (cartesian axes, Ry/au):

     atom    1 type  1   force =    -0.00000078    0.00000004    0.00000002
     atom    2 type  2   force =    -0.00088265   -0.00000009   -0.00006806
     atom    3 type  2   force =    -0.00163192    0.00000003   -0.00065423
     atom    4 type  2   force =     0.00163504   -0.00000002    0.00065454
     atom    5 type  2   force =     0.00088209   -0.00000010    0.00006883
     atom    6 type  3   force =    -0.00052735   -0.00000024   -0.00008942
     atom    7 type  3   force =     0.00089274   -0.00000017    0.00084550
     atom    8 type  1   force =    -0.00079616    0.00000003   -0.00118942
     atom    9 type  1   force =     0.00079543   -0.00000004    0.00118889
     atom   10 type  3   force =    -0.00089312    0.00000001   -0.00084634
     atom   11 type  3   force =     0.00052713   -0.00000033    0.00008996
     atom   12 type  1   force =    -0.00000076   -0.00000004    0.00000000
     atom   13 type  2   force =    -0.00088285    0.00000008   -0.00006794
     atom   14 type  2   force =    -0.00163201    0.00000001   -0.00065435
     atom   15 type  2   force =     0.00163499   -0.00000002    0.00065434
     atom   16 type  2   force =     0.00088183    0.00000011    0.00006900
     atom   17 type  3   force =    -0.00052753    0.00000030   -0.00008973
     atom   18 type  3   force =     0.00089262   -0.00000004    0.00084553
     atom   19 type  1   force =    -0.00079602    0.00000004   -0.00118930
     atom   20 type  1   force =     0.00079540   -0.00000004    0.00118894
     atom   21 type  3   force =    -0.00089312    0.00000021   -0.00084640
     atom   22 type  3   force =     0.00052702    0.00000028    0.00008963
     The non-local contrib.  to forces
     atom    1 type  1   force =    -0.00000604    0.00000028    0.00000013
     atom    2 type  2   force =     0.01197431   -0.00000011    0.01033952
     atom    3 type  2   force =     0.00894410    0.00000001    0.01238516
     atom    4 type  2   force =    -0.00895754   -0.00000012   -0.01238340
     atom    5 type  2   force =    -0.01199290   -0.00000102   -0.01033738
     atom    6 type  3   force =    -0.03088615    0.00000009   -0.04021325
     atom    7 type  3   force =     0.00651990    0.00000001    0.01791346
     atom    8 type  1   force =     0.00684585   -0.00000021   -0.00248164
     atom    9 type  1   force =    -0.00685650    0.00000003    0.00248041
     atom   10 type  3   force =    -0.00651054   -0.00000011   -0.01791215
     atom   11 type  3   force =     0.03089350   -0.00000054    0.04021065
     atom   12 type  1   force =    -0.00000625   -0.00000027   -0.00000006
     atom   13 type  2   force =     0.01197424    0.00000077    0.01033870
     atom   14 type  2   force =     0.00894385    0.00000009    0.01238523
     atom   15 type  2   force =    -0.00895740    0.00000003   -0.01238336
     atom   16 type  2   force =    -0.01199306    0.00000037   -0.01033814
     atom   17 type  3   force =    -0.03088603    0.00000038   -0.04021298
     atom   18 type  3   force =     0.00652008    0.00000007    0.01791367
     atom   19 type  1   force =     0.00684574    0.00000004   -0.00248189
     atom   20 type  1   force =    -0.00685667    0.00000014    0.00248004
     atom   21 type  3   force =    -0.00651018    0.00000002   -0.01791212
     atom   22 type  3   force =     0.03089352    0.00000008    0.04021074
     The ionic contribution  to forces
     atom    1 type  1   force =    -0.00005409   -0.00000000    0.00000351
     atom    2 type  2   force =    -0.06464650    0.00000000   -0.13140373
     atom    3 type  2   force =    -0.02460902    0.00000000    0.07549299
     atom    4 type  2   force =     0.02460745   -0.00000000   -0.07548985
     atom    5 type  2   force =     0.06460191   -0.00000000    0.13142234
     atom    6 type  3   force =     0.27968979   -0.00000000    0.47208934
     atom    7 type  3   force =    -0.22188123   -0.00000000   -0.58680787
     atom    8 type  1   force =    -0.01633725   -0.00000000    0.30420918
     atom    9 type  1   force =     0.01632918    0.00000000   -0.30423181
     atom   10 type  3   force =     0.22197389    0.00000000    0.58683892
     atom   11 type  3   force =    -0.27967317    0.00000000   -0.47212300
     atom   12 type  1   force =    -0.00005400    0.00000000    0.00000329
     atom   13 type  2   force =    -0.06464652   -0.00000000   -0.13140378
     atom   14 type  2   force =    -0.02460952   -0.00000000    0.07549305
     atom   15 type  2   force =     0.02460742    0.00000000   -0.07548983
     atom   16 type  2   force =     0.06460149    0.00000000    0.13142219
     atom   17 type  3   force =     0.27968969    0.00000000    0.47208968
     atom   18 type  3   force =    -0.22188144    0.00000000   -0.58680785
     atom   19 type  1   force =    -0.01633733    0.00000000    0.30420906
     atom   20 type  1   force =     0.01632908   -0.00000000   -0.30423170
     atom   21 type  3   force =     0.22197359   -0.00000000    0.58683870
     atom   22 type  3   force =    -0.27967342   -0.00000000   -0.47212283
     The local contribution  to forces
     atom    1 type  1   force =     0.00005542   -0.00000021   -0.00000356
     atom    2 type  2   force =     0.05341458    0.00000001    0.12206481
     atom    3 type  2   force =     0.01506776    0.00000003   -0.08700465
     atom    4 type  2   force =    -0.01505737    0.00000009    0.08700036
     atom    5 type  2   force =    -0.05336039    0.00000082   -0.12208436
     atom    6 type  3   force =    -0.25231869   -0.00000032   -0.43593075
     atom    7 type  3   force =     0.21687822   -0.00000017    0.57141948
     atom    8 type  1   force =     0.00952043    0.00000022   -0.30284684
     atom    9 type  1   force =    -0.00950994   -0.00000007    0.30287007
     atom   10 type  3   force =    -0.21696797    0.00000010   -0.57145019
     atom   11 type  3   force =     0.25230551    0.00000015    0.43596446
     atom   12 type  1   force =     0.00005553    0.00000020   -0.00000319
     atom   13 type  2   force =     0.05341443   -0.00000061    0.12206571
     atom   14 type  2   force =     0.01506834   -0.00000007   -0.08700489
     atom   15 type  2   force =    -0.01505753   -0.00000005    0.08700010
     atom   16 type  2   force =    -0.05336010   -0.00000023   -0.12208336
     atom   17 type  3   force =    -0.25231893   -0.00000004   -0.43593162
     atom   18 type  3   force =     0.21687802   -0.00000010    0.57141931
     atom   19 type  1   force =     0.00952066    0.00000002   -0.30284637
     atom   20 type  1   force =    -0.00950978   -0.00000016    0.30287034
     atom   21 type  3   force =    -0.21696809    0.00000018   -0.57145007
     atom   22 type  3   force =     0.25230558    0.00000021    0.43596392
     The core correction contribution to forces
     atom    1 type  1   force =     0.00000081   -0.00000003   -0.00000001
     atom    2 type  2   force =    -0.00162827    0.00000001   -0.00106861
     atom    3 type  2   force =    -0.00103794   -0.00000000   -0.00152769
     atom    4 type  2   force =     0.00103946    0.00000001    0.00152748
     atom    5 type  2   force =     0.00163047    0.00000010    0.00106828
     atom    6 type  3   force =     0.00298444   -0.00000001    0.00396529
     atom    7 type  3   force =    -0.00062738   -0.00000000   -0.00167969
     atom    8 type  1   force =    -0.00082839    0.00000002   -0.00006995
     atom    9 type  1   force =     0.00082970   -0.00000000    0.00007015
     atom   10 type  3   force =     0.00060858    0.00000001    0.00167730
     atom   11 type  3   force =    -0.00300164    0.00000006   -0.00396212
     atom   12 type  1   force =     0.00000084    0.00000003    0.00000001
     atom   13 type  2   force =    -0.00162826   -0.00000007   -0.00106852
     atom   14 type  2   force =    -0.00103791   -0.00000001   -0.00152770
     atom   15 type  2   force =     0.00103945   -0.00000000    0.00152747
     atom   16 type  2   force =     0.00163049   -0.00000003    0.00106836
     atom   17 type  3   force =     0.00298442   -0.00000004    0.00396526
     atom   18 type  3   force =    -0.00062740   -0.00000001   -0.00167971
     atom   19 type  1   force =    -0.00082838   -0.00000000   -0.00006993
     atom   20 type  1   force =     0.00082972   -0.00000001    0.00007019
     atom   21 type  3   force =     0.00060854   -0.00000000    0.00167730
     atom   22 type  3   force =    -0.00300165   -0.00000001   -0.00396213
     The Hubbard contrib.    to forces
     atom    1 type  1   force =     0.00000000    0.00000000    0.00000000
     atom    2 type  2   force =     0.00000000    0.00000000    0.00000000
     atom    3 type  2   force =     0.00000000    0.00000000    0.00000000
     atom    4 type  2   force =     0.00000000    0.00000000    0.00000000
     atom    5 type  2   force =     0.00000000    0.00000000    0.00000000
     atom    6 type  3   force =     0.00000000    0.00000000    0.00000000
     atom    7 type  3   force =     0.00000000    0.00000000    0.00000000
     atom    8 type  1   force =     0.00000000    0.00000000    0.00000000
     atom    9 type  1   force =     0.00000000    0.00000000    0.00000000
     atom   10 type  3   force =     0.00000000    0.00000000    0.00000000
     atom   11 type  3   force =     0.00000000    0.00000000    0.00000000
     atom   12 type  1   force =     0.00000000    0.00000000    0.00000000
     atom   13 type  2   force =     0.00000000    0.00000000    0.00000000
     atom   14 type  2   force =     0.00000000    0.00000000    0.00000000
     atom   15 type  2   force =     0.00000000    0.00000000    0.00000000
     atom   16 type  2   force =     0.00000000    0.00000000    0.00000000
     atom   17 type  3   force =     0.00000000    0.00000000    0.00000000
     atom   18 type  3   force =     0.00000000    0.00000000    0.00000000
     atom   19 type  1   force =     0.00000000    0.00000000    0.00000000
     atom   20 type  1   force =     0.00000000    0.00000000    0.00000000
     atom   21 type  3   force =     0.00000000    0.00000000    0.00000000
     atom   22 type  3   force =     0.00000000    0.00000000    0.00000000
     The SCF correction term to forces
     atom    1 type  1   force =    -0.00000001   -0.00000000    0.00000000
     atom    2 type  2   force =     0.00000010   -0.00000000   -0.00000000
     atom    3 type  2   force =     0.00000005    0.00000000    0.00000000
     atom    4 type  2   force =    -0.00000009   -0.00000000   -0.00000000
     atom    5 type  2   force =    -0.00000013   -0.00000000   -0.00000001
     atom    6 type  3   force =     0.00000014    0.00000000    0.00000000
     atom    7 type  3   force =     0.00000010   -0.00000001    0.00000016
     atom    8 type  1   force =     0.00000008   -0.00000000   -0.00000011
     atom    9 type  1   force =    -0.00000014    0.00000000    0.00000012
     atom   10 type  3   force =    -0.00000020    0.00000001   -0.00000017
     atom   11 type  3   force =    -0.00000019    0.00000000    0.00000002
     atom   12 type  1   force =     0.00000000    0.00000000   -0.00000000
     atom   13 type  2   force =     0.00000014    0.00000000    0.00000000
     atom   14 type  2   force =     0.00000010    0.00000000    0.00000001
     atom   15 type  2   force =    -0.00000006   -0.00000000   -0.00000001
     atom   16 type  2   force =    -0.00000011   -0.00000000    0.00000001
     atom   17 type  3   force =     0.00000019   -0.00000000   -0.00000001
     atom   18 type  3   force =     0.00000023   -0.00000001    0.00000016
     atom   19 type  1   force =     0.00000016   -0.00000001   -0.00000012
     atom   20 type  1   force =    -0.00000009    0.00000000    0.00000011
     atom   21 type  3   force =    -0.00000012    0.00000001   -0.00000016
     atom   22 type  3   force =    -0.00000015   -0.00000000   -0.00000001

     Total force =     0.005559     Total SCF correction =     0.000001


     Computing stress (Cartesian axis) and pressure

          total   stress  (Ry/bohr**3)                   (kbar)     P=   -4.12
  -0.00002092  -0.00000000  -0.00000838         -3.08     -0.00     -1.23
  -0.00000000  -0.00001578   0.00000000         -0.00     -2.32      0.00
  -0.00000838   0.00000000  -0.00004740         -1.23      0.00     -6.97

     kinetic stress (kbar)   1461.16     -0.00    -14.49
                               -0.00   1482.97      0.00
                              -14.49      0.00   1459.59

     local   stress (kbar)    -48.33     -0.00   -124.33
                               -0.00    491.02      0.00
                             -124.33      0.00     16.89

     nonloc. stress (kbar)   1132.85     -0.00      3.49
                               -0.00   1128.29     -0.00
                                3.49     -0.00   1127.33

     hartree stress (kbar)    184.46      0.00     29.85
                                0.00     20.85     -0.00
                               29.85     -0.00    163.38

     exc-cor stress (kbar)   1485.38      0.00      0.22
                                0.00   1484.84     -0.00
                                0.22     -0.00   1485.00

     corecor stress (kbar)  -2229.96      0.00     -0.29
                                0.00  -2229.57      0.00
                               -0.29      0.00  -2229.17

     ewald   stress (kbar)  -1988.64     -0.00    104.32
                               -0.00  -2380.72      0.00
                              104.32      0.00  -2030.00

     hubbard stress (kbar)      0.00      0.00      0.00
                                0.00      0.00      0.00
                                0.00      0.00      0.00

     london  stress (kbar)      0.00      0.00      0.00
                                0.00      0.00      0.00
                                0.00      0.00      0.00

     DFT-D3  stress (kbar)      0.00      0.00      0.00
                                0.00      0.00      0.00
                                0.00      0.00      0.00

     XDM     stress (kbar)      0.00      0.00      0.00
                                0.00      0.00      0.00
                                0.00      0.00      0.00

     dft-nl  stress (kbar)      0.00      0.00      0.00
                                0.00      0.00      0.00
                                0.00      0.00      0.00

     TS-vdW  stress (kbar)      0.00      0.00      0.00
                                0.00      0.00      0.00
                                0.00      0.00      0.00



     Writing output data file aiida.save/
 
     init_run     :     23.91s CPU     24.32s WALL (       1 calls)
     electrons    :    771.89s CPU    783.77s WALL (       1 calls)
     forces       :      9.33s CPU      9.41s WALL (       1 calls)
     stress       :     64.32s CPU     65.36s WALL (       1 calls)

     Called by init_run:
     wfcinit      :     21.39s CPU     21.72s WALL (       1 calls)
     wfcinit:atom :      0.17s CPU      0.18s WALL (     196 calls)
     wfcinit:wfcr :     19.86s CPU     20.14s WALL (     196 calls)
     potinit      :      0.86s CPU      0.88s WALL (       1 calls)
     hinit0       :      1.49s CPU      1.50s WALL (       1 calls)

     Called by electrons:
     c_bands      :    693.56s CPU    702.98s WALL (      16 calls)
     sum_band     :     73.44s CPU     75.09s WALL (      16 calls)
     v_of_rho     :      1.20s CPU      1.28s WALL (      16 calls)
     v_h          :      0.07s CPU      0.09s WALL (      16 calls)
     v_xc         :      1.25s CPU      1.32s WALL (      18 calls)
     newd         :      1.22s CPU      1.90s WALL (      16 calls)
     PAW_pot      :      2.00s CPU      2.05s WALL (      16 calls)
     mix_rho      :      0.47s CPU      0.51s WALL (      16 calls)

     Called by c_bands:
     init_us_2    :     21.44s CPU     21.70s WALL (    6860 calls)
     cegterg      :    543.22s CPU    550.07s WALL (    3136 calls)

     Called by sum_band:
     sum_band:bec :      0.48s CPU      0.48s WALL (    3136 calls)
     addusdens    :      1.25s CPU      2.03s WALL (      16 calls)

     Called by *egterg:
     h_psi        :    369.37s CPU    374.82s WALL (   15930 calls)
     s_psi        :     55.85s CPU     56.02s WALL (   15930 calls)
     g_psi        :      2.54s CPU      2.56s WALL (   12598 calls)
     cdiaghg      :     64.87s CPU     65.91s WALL (   15538 calls)
     cegterg:over :     26.64s CPU     26.83s WALL (   12598 calls)
     cegterg:upda :     23.00s CPU     23.20s WALL (   12598 calls)
     cegterg:last :      8.96s CPU      9.01s WALL (    3573 calls)
     cdiaghg:chol :      4.31s CPU      4.34s WALL (   15538 calls)
     cdiaghg:inve :      0.86s CPU      0.87s WALL (   15538 calls)
     cdiaghg:para :      8.49s CPU      8.56s WALL (   31076 calls)

     Called by h_psi:
     h_psi:pot    :    367.54s CPU    372.99s WALL (   15930 calls)
     h_psi:calbec :     53.70s CPU     54.29s WALL (   15930 calls)
     vloc_psi     :    257.30s CPU    262.03s WALL (   15930 calls)
     add_vuspsi   :     56.39s CPU     56.55s WALL (   15930 calls)

     General routines
     calbec       :    106.17s CPU    107.88s WALL (   20046 calls)
     fft          :      0.98s CPU      1.04s WALL (     233 calls)
     ffts         :      0.17s CPU      0.19s WALL (     254 calls)
     fftw         :    271.31s CPU    276.13s WALL (  891778 calls)
     interpolate  :      0.10s CPU      0.10s WALL (      16 calls)
 
     Parallel routines
     fft_scatt_xy :     34.09s CPU     34.71s WALL (  892265 calls)
     fft_scatt_yz :    105.00s CPU    107.04s WALL (  892265 calls)

     PAW routines
     PAW_pot      :      2.00s CPU      2.05s WALL (      16 calls)
 
     PWSCF        :  14m53.88s CPU  15m27.03s WALL

 
   This run was terminated on:  14:28: 0  22Feb2020            

=------------------------------------------------------------------------------=
   JOB DONE.
=------------------------------------------------------------------------------=
