
     Program PWSCF v.6.3 starts on 22Feb2020 at 14:12:21 

     This program is part of the open-source Quantum ESPRESSO suite
     for quantum simulation of materials; please cite
         "P. Giannozzi et al., J. Phys.:Condens. Matter 21 395502 (2009);
         "P. Giannozzi et al., J. Phys.:Condens. Matter 29 465901 (2017);
          URL http://www.quantum-espresso.org", 
     in publications or presentations arising from this work. More details at
     http://www.quantum-espresso.org/quote

 *** WARNING: using old-style file format, will disappear from next version ***

     Parallel version (MPI & OpenMP), running on      36 processor cores
     Number of MPI processes:                36
     Threads/MPI process:                     1

     MPI processes distributed on     1 nodes
     K-points division:     npool     =       4
     R & G space division:  proc/nbgrp/npool/nimage =       9
     Reading input from aiida.in
Warning: card &IONS ignored
Warning: card   !PRESS_CONV_THR = 0.05                 ! JUST FOR VOLUME RELAXATIONS ignored
Warning: card / ignored

     Current dimensions of program PWSCF are:
     Max number of different atomic species (ntypx) = 10
     Max number of k-points (npk) =  40000
     Max angular momentum in pseudopotentials (lmaxx) =  3
               file Mg.pbe-n-kjpaw_psl.0.3.0.UPF: wavefunction(s)  3S renormalized

     Subspace diagonalization in iterative solution of the eigenvalue problem:
     one sub-group per band group will be used
     scalapack distributed-memory algorithm (size of sub-group:  2*  2 procs)

 
     Parallelization info
     --------------------
     sticks:   dense  smooth     PW     G-vecs:    dense   smooth      PW
     Min         781     312     91                40815    10332    1614
     Max         782     313     91                40817    10334    1615
     Sum        7035    2813    819               367341    92995   14533
 


     bravais-lattice index     =            0
     lattice parameter (alat)  =      28.6265  a.u.
     unit-cell volume          =    2717.6460 (a.u.)^3
     number of atoms/cell      =           22
     number of atomic types    =            2
     number of electrons       =        68.00
     number of Kohn-Sham states=           41
     kinetic-energy cutoff     =      40.0000  Ry
     charge density cutoff     =     400.0000  Ry
     convergence threshold     =      1.0E-12
     mixing beta               =       0.4000
     number of iterations used =            8  local-TF  mixing
     Exchange-correlation      = PBE ( 1  4  3  4 0 0)

     celldm(1)=  28.626477  celldm(2)=   0.000000  celldm(3)=   0.000000
     celldm(4)=   0.000000  celldm(5)=   0.000000  celldm(6)=   0.000000

     crystal axes: (cart. coord. in units of alat)
               a(1) = (   0.940405   0.000000  -0.340057 )  
               a(2) = (   0.000000   0.269376   0.000000 )  
               a(3) = (   0.000000   0.000000   0.457316 )  

     reciprocal axes: (cart. coord. in units 2 pi/alat)
               b(1) = (  1.063372  0.000000  0.000000 )  
               b(2) = (  0.000000  3.712289  0.000000 )  
               b(3) = (  0.790716  0.000000  2.186673 )  


     PseudoPot. # 1 for Mg read from file:
     /users/aglensk/Dropbox/Albert/scripts/dotfiles/scripts/potentials/quantum_espresso/pseudo_SSSPefV1.1_alalloy/Mg.pbe-n-kjpaw_psl.0.3.0.UPF
     MD5 check sum: 24ecedc7f3e3cbe212e682f4413594e4
     Pseudo is Projector augmented-wave + core cor, Zval =  2.0
     Generated using "atomic" code by A. Dal Corso v.5.0.99 svn rev. 10869
     Shape of augmentation charge: PSQ
     Using radial grid of 1129 points,  4 beta functions with: 
                l(1) =   0
                l(2) =   0
                l(3) =   1
                l(4) =   1
     Q(r) pseudized with 0 coefficients 


     PseudoPot. # 2 for Si read from file:
     /users/aglensk/Dropbox/Albert/scripts/dotfiles/scripts/potentials/quantum_espresso/pseudo_SSSPefV1.1_alalloy/Si.pbe-n-rrkjus_psl.1.0.0.UPF
     MD5 check sum: 0b0bb1205258b0d07b9f9672cf965d36
     Pseudo is Ultrasoft + core correction, Zval =  4.0
     Generated using "atomic" code by A. Dal Corso v.5.1
     Using radial grid of 1141 points,  6 beta functions with: 
                l(1) =   0
                l(2) =   0
                l(3) =   1
                l(4) =   1
                l(5) =   2
                l(6) =   2
     Q(r) pseudized with 0 coefficients 


     atomic species   valence    mass     pseudopotential
        Mg             2.00    24.30500     Mg( 1.00)
        Si             4.00    28.08500     Si( 1.00)

     No symmetry found


                                    s                        frac. trans.

      isym =  1     identity                                     

 cryst.   s( 1) = (     1          0          0      )
                  (     0          1          0      )
                  (     0          0          1      )

 cart.    s( 1) = (  1.0000000  0.0000000  0.0000000 )
                  (  0.0000000  1.0000000  0.0000000 )
                  (  0.0000000  0.0000000  1.0000000 )


   Cartesian axes

     site n.     atom                  positions (alat units)
         1           Mg  tau(   1) = (   0.0010931   0.0000000   0.4516119  )
         2           Mg  tau(   2) = (   0.0744317   0.1346878   0.1384143  )
         3           Mg  tau(   3) = (   0.1482844   0.1346878   0.3679359  )
         4           Mg  tau(   4) = (   0.3241028   0.0000000  -0.0920791  )
         5           Mg  tau(   5) = (   0.3979522   0.0000000   0.1374472  )
         6           Si  tau(   6) = (   0.0553769   0.0000000   0.2807479  )
         7           Si  tau(   7) = (   0.1821513   0.0000000   0.0467749  )
         8           Si  tau(   8) = (   0.1977898   0.0000000   0.2121965  )
         9           Si  tau(   9) = (   0.2745904   0.1346878   0.0636627  )
        10           Si  tau(  10) = (   0.2902299   0.1346878   0.2290839  )
        11           Si  tau(  11) = (   0.4170026   0.1346878  -0.0048891  )
        12           Mg  tau(  12) = (   0.4712945   0.1346878   0.2815637  )
        13           Mg  tau(  13) = (   0.5446204   0.0000000  -0.0316367  )
        14           Mg  tau(  14) = (   0.6184829   0.0000000   0.1978918  )
        15           Mg  tau(  15) = (   0.7943093   0.1346878  -0.2620918  )
        16           Mg  tau(  16) = (   0.8681684   0.1346878  -0.0325586  )
        17           Si  tau(  17) = (   0.5255701   0.1346878   0.1107015  )
        18           Si  tau(  18) = (   0.6523528   0.1346878  -0.1232565  )
        19           Si  tau(  19) = (   0.6679889   0.1346878   0.0421642  )
        20           Si  tau(  20) = (   0.7447962   0.0000000  -0.1063617  )
        21           Si  tau(  21) = (   0.7604332   0.0000000   0.0590585  )
        22           Si  tau(  22) = (   0.8872142   0.0000000  -0.1748995  )

   Crystallographic axes

     site n.     atom                  positions (cryst. coord.)
         1           Mg  tau(   1) = (  0.0011624  0.0000000  0.9883920  )
         2           Mg  tau(   2) = (  0.0791486  0.4999999  0.3615213  )
         3           Mg  tau(   3) = (  0.1576815  0.4999999  0.9218065  )
         4           Mg  tau(   4) = (  0.3446418  0.0000000  0.0549263  )
         5           Mg  tau(   5) = (  0.4231712  0.0000000  0.6152193  )
         6           Si  tau(   6) = (  0.0588862  0.0000000  0.6576913  )
         7           Si  tau(   7) = (  0.1936946  0.0000000  0.2463113  )
         8           Si  tau(   8) = (  0.2103241  0.0000000  0.6204000  )
         9           Si  tau(   9) = (  0.2919917  0.4999999  0.3563327  )
        10           Si  tau(  10) = (  0.3086222  0.4999999  0.7304211  )
        11           Si  tau(  11) = (  0.4434288  0.4999999  0.3190398  )
        12           Mg  tau(  12) = (  0.5011613  0.4999999  0.9883480  )
        13           Mg  tau(  13) = (  0.5791340  0.0000000  0.3614610  )
        14           Mg  tau(  14) = (  0.6576772  0.0000000  0.9217689  )
        15           Mg  tau(  15) = (  0.8446461  0.4999999  0.0549641  )
        16           Mg  tau(  16) = (  0.9231857  0.4999999  0.6152796  )
        17           Si  tau(  17) = (  0.5588764  0.4999999  0.6576447  )
        18           Si  tau(  18) = (  0.6936936  0.4999999  0.2463041  )
        19           Si  tau(  19) = (  0.7103205  0.4999999  0.6203889  )
        20           Si  tau(  20) = (  0.7919953  0.0000000  0.3563440  )
        21           Si  tau(  21) = (  0.8086232  0.0000000  0.7304285  )
        22           Si  tau(  22) = (  0.9434386  0.0000000  0.3190864  )

     number of k points=   782  Methfessel-Paxton smearing, width (Ry)=  0.0441
                       cart. coord. in units 2pi/alat
        k(    1) = (   0.0000000   0.0000000   0.0000000), wk =   0.0012821
        k(    2) = (   0.0608243   0.0000000   0.1682056), wk =   0.0025641
        k(    3) = (   0.1216486   0.0000000   0.3364112), wk =   0.0025641
        k(    4) = (   0.1824729   0.0000000   0.5046169), wk =   0.0025641
        k(    5) = (   0.2432972   0.0000000   0.6728225), wk =   0.0025641
        k(    6) = (   0.3041215   0.0000000   0.8410281), wk =   0.0025641
        k(    7) = (   0.3649459   0.0000000   1.0092337), wk =   0.0025641
        k(    8) = (   0.0000000   0.1856145   0.0000000), wk =   0.0025641
        k(    9) = (   0.0608243   0.1856145   0.1682056), wk =   0.0025641
        k(   10) = (   0.1216486   0.1856145   0.3364112), wk =   0.0025641
        k(   11) = (   0.1824729   0.1856145   0.5046169), wk =   0.0025641
        k(   12) = (   0.2432972   0.1856145   0.6728225), wk =   0.0025641
        k(   13) = (   0.3041215   0.1856145   0.8410281), wk =   0.0025641
        k(   14) = (   0.3649459   0.1856145   1.0092337), wk =   0.0025641
        k(   15) = (  -0.3649459   0.1856145  -1.0092337), wk =   0.0025641
        k(   16) = (  -0.3041215   0.1856145  -0.8410281), wk =   0.0025641
        k(   17) = (  -0.2432972   0.1856145  -0.6728225), wk =   0.0025641
        k(   18) = (  -0.1824729   0.1856145  -0.5046169), wk =   0.0025641
        k(   19) = (  -0.1216486   0.1856145  -0.3364112), wk =   0.0025641
        k(   20) = (  -0.0608243   0.1856145  -0.1682056), wk =   0.0025641
        k(   21) = (   0.0000000   0.3712289   0.0000000), wk =   0.0025641
        k(   22) = (   0.0608243   0.3712289   0.1682056), wk =   0.0025641
        k(   23) = (   0.1216486   0.3712289   0.3364112), wk =   0.0025641
        k(   24) = (   0.1824729   0.3712289   0.5046169), wk =   0.0025641
        k(   25) = (   0.2432972   0.3712289   0.6728225), wk =   0.0025641
        k(   26) = (   0.3041215   0.3712289   0.8410281), wk =   0.0025641
        k(   27) = (   0.3649459   0.3712289   1.0092337), wk =   0.0025641
        k(   28) = (  -0.3649459   0.3712289  -1.0092337), wk =   0.0025641
        k(   29) = (  -0.3041215   0.3712289  -0.8410281), wk =   0.0025641
        k(   30) = (  -0.2432972   0.3712289  -0.6728225), wk =   0.0025641
        k(   31) = (  -0.1824729   0.3712289  -0.5046169), wk =   0.0025641
        k(   32) = (  -0.1216486   0.3712289  -0.3364112), wk =   0.0025641
        k(   33) = (  -0.0608243   0.3712289  -0.1682056), wk =   0.0025641
        k(   34) = (   0.0000000   0.5568434   0.0000000), wk =   0.0025641
        k(   35) = (   0.0608243   0.5568434   0.1682056), wk =   0.0025641
        k(   36) = (   0.1216486   0.5568434   0.3364112), wk =   0.0025641
        k(   37) = (   0.1824729   0.5568434   0.5046169), wk =   0.0025641
        k(   38) = (   0.2432972   0.5568434   0.6728225), wk =   0.0025641
        k(   39) = (   0.3041215   0.5568434   0.8410281), wk =   0.0025641
        k(   40) = (   0.3649459   0.5568434   1.0092337), wk =   0.0025641
        k(   41) = (  -0.3649459   0.5568434  -1.0092337), wk =   0.0025641
        k(   42) = (  -0.3041215   0.5568434  -0.8410281), wk =   0.0025641
        k(   43) = (  -0.2432972   0.5568434  -0.6728225), wk =   0.0025641
        k(   44) = (  -0.1824729   0.5568434  -0.5046169), wk =   0.0025641
        k(   45) = (  -0.1216486   0.5568434  -0.3364112), wk =   0.0025641
        k(   46) = (  -0.0608243   0.5568434  -0.1682056), wk =   0.0025641
        k(   47) = (   0.0000000   0.7424579   0.0000000), wk =   0.0025641
        k(   48) = (   0.0608243   0.7424579   0.1682056), wk =   0.0025641
        k(   49) = (   0.1216486   0.7424579   0.3364112), wk =   0.0025641
        k(   50) = (   0.1824729   0.7424579   0.5046169), wk =   0.0025641
        k(   51) = (   0.2432972   0.7424579   0.6728225), wk =   0.0025641
        k(   52) = (   0.3041215   0.7424579   0.8410281), wk =   0.0025641
        k(   53) = (   0.3649459   0.7424579   1.0092337), wk =   0.0025641
        k(   54) = (  -0.3649459   0.7424579  -1.0092337), wk =   0.0025641
        k(   55) = (  -0.3041215   0.7424579  -0.8410281), wk =   0.0025641
        k(   56) = (  -0.2432972   0.7424579  -0.6728225), wk =   0.0025641
        k(   57) = (  -0.1824729   0.7424579  -0.5046169), wk =   0.0025641
        k(   58) = (  -0.1216486   0.7424579  -0.3364112), wk =   0.0025641
        k(   59) = (  -0.0608243   0.7424579  -0.1682056), wk =   0.0025641
        k(   60) = (   0.0000000   0.9280723   0.0000000), wk =   0.0025641
        k(   61) = (   0.0608243   0.9280723   0.1682056), wk =   0.0025641
        k(   62) = (   0.1216486   0.9280723   0.3364112), wk =   0.0025641
        k(   63) = (   0.1824729   0.9280723   0.5046169), wk =   0.0025641
        k(   64) = (   0.2432972   0.9280723   0.6728225), wk =   0.0025641
        k(   65) = (   0.3041215   0.9280723   0.8410281), wk =   0.0025641
        k(   66) = (   0.3649459   0.9280723   1.0092337), wk =   0.0025641
        k(   67) = (  -0.3649459   0.9280723  -1.0092337), wk =   0.0025641
        k(   68) = (  -0.3041215   0.9280723  -0.8410281), wk =   0.0025641
        k(   69) = (  -0.2432972   0.9280723  -0.6728225), wk =   0.0025641
        k(   70) = (  -0.1824729   0.9280723  -0.5046169), wk =   0.0025641
        k(   71) = (  -0.1216486   0.9280723  -0.3364112), wk =   0.0025641
        k(   72) = (  -0.0608243   0.9280723  -0.1682056), wk =   0.0025641
        k(   73) = (   0.0000000   1.1136868   0.0000000), wk =   0.0025641
        k(   74) = (   0.0608243   1.1136868   0.1682056), wk =   0.0025641
        k(   75) = (   0.1216486   1.1136868   0.3364112), wk =   0.0025641
        k(   76) = (   0.1824729   1.1136868   0.5046169), wk =   0.0025641
        k(   77) = (   0.2432972   1.1136868   0.6728225), wk =   0.0025641
        k(   78) = (   0.3041215   1.1136868   0.8410281), wk =   0.0025641
        k(   79) = (   0.3649459   1.1136868   1.0092337), wk =   0.0025641
        k(   80) = (  -0.3649459   1.1136868  -1.0092337), wk =   0.0025641
        k(   81) = (  -0.3041215   1.1136868  -0.8410281), wk =   0.0025641
        k(   82) = (  -0.2432972   1.1136868  -0.6728225), wk =   0.0025641
        k(   83) = (  -0.1824729   1.1136868  -0.5046169), wk =   0.0025641
        k(   84) = (  -0.1216486   1.1136868  -0.3364112), wk =   0.0025641
        k(   85) = (  -0.0608243   1.1136868  -0.1682056), wk =   0.0025641
        k(   86) = (   0.0000000   1.2993013   0.0000000), wk =   0.0025641
        k(   87) = (   0.0608243   1.2993013   0.1682056), wk =   0.0025641
        k(   88) = (   0.1216486   1.2993013   0.3364112), wk =   0.0025641
        k(   89) = (   0.1824729   1.2993013   0.5046169), wk =   0.0025641
        k(   90) = (   0.2432972   1.2993013   0.6728225), wk =   0.0025641
        k(   91) = (   0.3041215   1.2993013   0.8410281), wk =   0.0025641
        k(   92) = (   0.3649459   1.2993013   1.0092337), wk =   0.0025641
        k(   93) = (  -0.3649459   1.2993013  -1.0092337), wk =   0.0025641
        k(   94) = (  -0.3041215   1.2993013  -0.8410281), wk =   0.0025641
        k(   95) = (  -0.2432972   1.2993013  -0.6728225), wk =   0.0025641
        k(   96) = (  -0.1824729   1.2993013  -0.5046169), wk =   0.0025641
        k(   97) = (  -0.1216486   1.2993013  -0.3364112), wk =   0.0025641
        k(   98) = (  -0.0608243   1.2993013  -0.1682056), wk =   0.0025641
        k(   99) = (   0.0000000   1.4849157   0.0000000), wk =   0.0025641
        k(  100) = (   0.0608243   1.4849157   0.1682056), wk =   0.0025641
        k(  101) = (   0.1216486   1.4849157   0.3364112), wk =   0.0025641
        k(  102) = (   0.1824729   1.4849157   0.5046169), wk =   0.0025641
        k(  103) = (   0.2432972   1.4849157   0.6728225), wk =   0.0025641
        k(  104) = (   0.3041215   1.4849157   0.8410281), wk =   0.0025641
        k(  105) = (   0.3649459   1.4849157   1.0092337), wk =   0.0025641
        k(  106) = (  -0.3649459   1.4849157  -1.0092337), wk =   0.0025641
        k(  107) = (  -0.3041215   1.4849157  -0.8410281), wk =   0.0025641
        k(  108) = (  -0.2432972   1.4849157  -0.6728225), wk =   0.0025641
        k(  109) = (  -0.1824729   1.4849157  -0.5046169), wk =   0.0025641
        k(  110) = (  -0.1216486   1.4849157  -0.3364112), wk =   0.0025641
        k(  111) = (  -0.0608243   1.4849157  -0.1682056), wk =   0.0025641
        k(  112) = (   0.0000000   1.6705302   0.0000000), wk =   0.0025641
        k(  113) = (   0.0608243   1.6705302   0.1682056), wk =   0.0025641
        k(  114) = (   0.1216486   1.6705302   0.3364112), wk =   0.0025641
        k(  115) = (   0.1824729   1.6705302   0.5046169), wk =   0.0025641
        k(  116) = (   0.2432972   1.6705302   0.6728225), wk =   0.0025641
        k(  117) = (   0.3041215   1.6705302   0.8410281), wk =   0.0025641
        k(  118) = (   0.3649459   1.6705302   1.0092337), wk =   0.0025641
        k(  119) = (  -0.3649459   1.6705302  -1.0092337), wk =   0.0025641
        k(  120) = (  -0.3041215   1.6705302  -0.8410281), wk =   0.0025641
        k(  121) = (  -0.2432972   1.6705302  -0.6728225), wk =   0.0025641
        k(  122) = (  -0.1824729   1.6705302  -0.5046169), wk =   0.0025641
        k(  123) = (  -0.1216486   1.6705302  -0.3364112), wk =   0.0025641
        k(  124) = (  -0.0608243   1.6705302  -0.1682056), wk =   0.0025641
        k(  125) = (   0.0000000  -1.8561447   0.0000000), wk =   0.0012821
        k(  126) = (   0.0608243  -1.8561447   0.1682056), wk =   0.0025641
        k(  127) = (   0.1216486  -1.8561447   0.3364112), wk =   0.0025641
        k(  128) = (   0.1824729  -1.8561447   0.5046169), wk =   0.0025641
        k(  129) = (   0.2432972  -1.8561447   0.6728225), wk =   0.0025641
        k(  130) = (   0.3041215  -1.8561447   0.8410281), wk =   0.0025641
        k(  131) = (   0.3649459  -1.8561447   1.0092337), wk =   0.0025641
        k(  132) = (   0.1772286   0.0000000   0.0000000), wk =   0.0025641
        k(  133) = (   0.2380529   0.0000000   0.1682056), wk =   0.0025641
        k(  134) = (   0.2988772   0.0000000   0.3364112), wk =   0.0025641
        k(  135) = (   0.3597016   0.0000000   0.5046169), wk =   0.0025641
        k(  136) = (   0.4205259   0.0000000   0.6728225), wk =   0.0025641
        k(  137) = (   0.4813502   0.0000000   0.8410281), wk =   0.0025641
        k(  138) = (   0.5421745   0.0000000   1.0092337), wk =   0.0025641
        k(  139) = (  -0.1877172   0.0000000  -1.0092337), wk =   0.0025641
        k(  140) = (  -0.1268929   0.0000000  -0.8410281), wk =   0.0025641
        k(  141) = (  -0.0660686   0.0000000  -0.6728225), wk =   0.0025641
        k(  142) = (  -0.0052443   0.0000000  -0.5046169), wk =   0.0025641
        k(  143) = (   0.0555800   0.0000000  -0.3364112), wk =   0.0025641
        k(  144) = (   0.1164043   0.0000000  -0.1682056), wk =   0.0025641
        k(  145) = (   0.1772286   0.1856145   0.0000000), wk =   0.0025641
        k(  146) = (   0.2380529   0.1856145   0.1682056), wk =   0.0025641
        k(  147) = (   0.2988772   0.1856145   0.3364112), wk =   0.0025641
        k(  148) = (   0.3597016   0.1856145   0.5046169), wk =   0.0025641
        k(  149) = (   0.4205259   0.1856145   0.6728225), wk =   0.0025641
        k(  150) = (   0.4813502   0.1856145   0.8410281), wk =   0.0025641
        k(  151) = (   0.5421745   0.1856145   1.0092337), wk =   0.0025641
        k(  152) = (  -0.1877172   0.1856145  -1.0092337), wk =   0.0025641
        k(  153) = (  -0.1268929   0.1856145  -0.8410281), wk =   0.0025641
        k(  154) = (  -0.0660686   0.1856145  -0.6728225), wk =   0.0025641
        k(  155) = (  -0.0052443   0.1856145  -0.5046169), wk =   0.0025641
        k(  156) = (   0.0555800   0.1856145  -0.3364112), wk =   0.0025641
        k(  157) = (   0.1164043   0.1856145  -0.1682056), wk =   0.0025641
        k(  158) = (   0.1772286   0.3712289   0.0000000), wk =   0.0025641
        k(  159) = (   0.2380529   0.3712289   0.1682056), wk =   0.0025641
        k(  160) = (   0.2988772   0.3712289   0.3364112), wk =   0.0025641
        k(  161) = (   0.3597016   0.3712289   0.5046169), wk =   0.0025641
        k(  162) = (   0.4205259   0.3712289   0.6728225), wk =   0.0025641
        k(  163) = (   0.4813502   0.3712289   0.8410281), wk =   0.0025641
        k(  164) = (   0.5421745   0.3712289   1.0092337), wk =   0.0025641
        k(  165) = (  -0.1877172   0.3712289  -1.0092337), wk =   0.0025641
        k(  166) = (  -0.1268929   0.3712289  -0.8410281), wk =   0.0025641
        k(  167) = (  -0.0660686   0.3712289  -0.6728225), wk =   0.0025641
        k(  168) = (  -0.0052443   0.3712289  -0.5046169), wk =   0.0025641
        k(  169) = (   0.0555800   0.3712289  -0.3364112), wk =   0.0025641
        k(  170) = (   0.1164043   0.3712289  -0.1682056), wk =   0.0025641
        k(  171) = (   0.1772286   0.5568434   0.0000000), wk =   0.0025641
        k(  172) = (   0.2380529   0.5568434   0.1682056), wk =   0.0025641
        k(  173) = (   0.2988772   0.5568434   0.3364112), wk =   0.0025641
        k(  174) = (   0.3597016   0.5568434   0.5046169), wk =   0.0025641
        k(  175) = (   0.4205259   0.5568434   0.6728225), wk =   0.0025641
        k(  176) = (   0.4813502   0.5568434   0.8410281), wk =   0.0025641
        k(  177) = (   0.5421745   0.5568434   1.0092337), wk =   0.0025641
        k(  178) = (  -0.1877172   0.5568434  -1.0092337), wk =   0.0025641
        k(  179) = (  -0.1268929   0.5568434  -0.8410281), wk =   0.0025641
        k(  180) = (  -0.0660686   0.5568434  -0.6728225), wk =   0.0025641
        k(  181) = (  -0.0052443   0.5568434  -0.5046169), wk =   0.0025641
        k(  182) = (   0.0555800   0.5568434  -0.3364112), wk =   0.0025641
        k(  183) = (   0.1164043   0.5568434  -0.1682056), wk =   0.0025641
        k(  184) = (   0.1772286   0.7424579   0.0000000), wk =   0.0025641
        k(  185) = (   0.2380529   0.7424579   0.1682056), wk =   0.0025641
        k(  186) = (   0.2988772   0.7424579   0.3364112), wk =   0.0025641
        k(  187) = (   0.3597016   0.7424579   0.5046169), wk =   0.0025641
        k(  188) = (   0.4205259   0.7424579   0.6728225), wk =   0.0025641
        k(  189) = (   0.4813502   0.7424579   0.8410281), wk =   0.0025641
        k(  190) = (   0.5421745   0.7424579   1.0092337), wk =   0.0025641
        k(  191) = (  -0.1877172   0.7424579  -1.0092337), wk =   0.0025641
        k(  192) = (  -0.1268929   0.7424579  -0.8410281), wk =   0.0025641
        k(  193) = (  -0.0660686   0.7424579  -0.6728225), wk =   0.0025641
        k(  194) = (  -0.0052443   0.7424579  -0.5046169), wk =   0.0025641
        k(  195) = (   0.0555800   0.7424579  -0.3364112), wk =   0.0025641
        k(  196) = (   0.1164043   0.7424579  -0.1682056), wk =   0.0025641
        k(  197) = (   0.1772286   0.9280723   0.0000000), wk =   0.0025641
        k(  198) = (   0.2380529   0.9280723   0.1682056), wk =   0.0025641
        k(  199) = (   0.2988772   0.9280723   0.3364112), wk =   0.0025641
        k(  200) = (   0.3597016   0.9280723   0.5046169), wk =   0.0025641
        k(  201) = (   0.4205259   0.9280723   0.6728225), wk =   0.0025641
        k(  202) = (   0.4813502   0.9280723   0.8410281), wk =   0.0025641
        k(  203) = (   0.5421745   0.9280723   1.0092337), wk =   0.0025641
        k(  204) = (  -0.1877172   0.9280723  -1.0092337), wk =   0.0025641
        k(  205) = (  -0.1268929   0.9280723  -0.8410281), wk =   0.0025641
        k(  206) = (  -0.0660686   0.9280723  -0.6728225), wk =   0.0025641
        k(  207) = (  -0.0052443   0.9280723  -0.5046169), wk =   0.0025641
        k(  208) = (   0.0555800   0.9280723  -0.3364112), wk =   0.0025641
        k(  209) = (   0.1164043   0.9280723  -0.1682056), wk =   0.0025641
        k(  210) = (   0.1772286   1.1136868   0.0000000), wk =   0.0025641
        k(  211) = (   0.2380529   1.1136868   0.1682056), wk =   0.0025641
        k(  212) = (   0.2988772   1.1136868   0.3364112), wk =   0.0025641
        k(  213) = (   0.3597016   1.1136868   0.5046169), wk =   0.0025641
        k(  214) = (   0.4205259   1.1136868   0.6728225), wk =   0.0025641
        k(  215) = (   0.4813502   1.1136868   0.8410281), wk =   0.0025641
        k(  216) = (   0.5421745   1.1136868   1.0092337), wk =   0.0025641
        k(  217) = (  -0.1877172   1.1136868  -1.0092337), wk =   0.0025641
        k(  218) = (  -0.1268929   1.1136868  -0.8410281), wk =   0.0025641
        k(  219) = (  -0.0660686   1.1136868  -0.6728225), wk =   0.0025641
        k(  220) = (  -0.0052443   1.1136868  -0.5046169), wk =   0.0025641
        k(  221) = (   0.0555800   1.1136868  -0.3364112), wk =   0.0025641
        k(  222) = (   0.1164043   1.1136868  -0.1682056), wk =   0.0025641
        k(  223) = (   0.1772286   1.2993013   0.0000000), wk =   0.0025641
        k(  224) = (   0.2380529   1.2993013   0.1682056), wk =   0.0025641
        k(  225) = (   0.2988772   1.2993013   0.3364112), wk =   0.0025641
        k(  226) = (   0.3597016   1.2993013   0.5046169), wk =   0.0025641
        k(  227) = (   0.4205259   1.2993013   0.6728225), wk =   0.0025641
        k(  228) = (   0.4813502   1.2993013   0.8410281), wk =   0.0025641
        k(  229) = (   0.5421745   1.2993013   1.0092337), wk =   0.0025641
        k(  230) = (  -0.1877172   1.2993013  -1.0092337), wk =   0.0025641
        k(  231) = (  -0.1268929   1.2993013  -0.8410281), wk =   0.0025641
        k(  232) = (  -0.0660686   1.2993013  -0.6728225), wk =   0.0025641
        k(  233) = (  -0.0052443   1.2993013  -0.5046169), wk =   0.0025641
        k(  234) = (   0.0555800   1.2993013  -0.3364112), wk =   0.0025641
        k(  235) = (   0.1164043   1.2993013  -0.1682056), wk =   0.0025641
        k(  236) = (   0.1772286   1.4849157   0.0000000), wk =   0.0025641
        k(  237) = (   0.2380529   1.4849157   0.1682056), wk =   0.0025641
        k(  238) = (   0.2988772   1.4849157   0.3364112), wk =   0.0025641
        k(  239) = (   0.3597016   1.4849157   0.5046169), wk =   0.0025641
        k(  240) = (   0.4205259   1.4849157   0.6728225), wk =   0.0025641
        k(  241) = (   0.4813502   1.4849157   0.8410281), wk =   0.0025641
        k(  242) = (   0.5421745   1.4849157   1.0092337), wk =   0.0025641
        k(  243) = (  -0.1877172   1.4849157  -1.0092337), wk =   0.0025641
        k(  244) = (  -0.1268929   1.4849157  -0.8410281), wk =   0.0025641
        k(  245) = (  -0.0660686   1.4849157  -0.6728225), wk =   0.0025641
        k(  246) = (  -0.0052443   1.4849157  -0.5046169), wk =   0.0025641
        k(  247) = (   0.0555800   1.4849157  -0.3364112), wk =   0.0025641
        k(  248) = (   0.1164043   1.4849157  -0.1682056), wk =   0.0025641
        k(  249) = (   0.1772286   1.6705302   0.0000000), wk =   0.0025641
        k(  250) = (   0.2380529   1.6705302   0.1682056), wk =   0.0025641
        k(  251) = (   0.2988772   1.6705302   0.3364112), wk =   0.0025641
        k(  252) = (   0.3597016   1.6705302   0.5046169), wk =   0.0025641
        k(  253) = (   0.4205259   1.6705302   0.6728225), wk =   0.0025641
        k(  254) = (   0.4813502   1.6705302   0.8410281), wk =   0.0025641
        k(  255) = (   0.5421745   1.6705302   1.0092337), wk =   0.0025641
        k(  256) = (  -0.1877172   1.6705302  -1.0092337), wk =   0.0025641
        k(  257) = (  -0.1268929   1.6705302  -0.8410281), wk =   0.0025641
        k(  258) = (  -0.0660686   1.6705302  -0.6728225), wk =   0.0025641
        k(  259) = (  -0.0052443   1.6705302  -0.5046169), wk =   0.0025641
        k(  260) = (   0.0555800   1.6705302  -0.3364112), wk =   0.0025641
        k(  261) = (   0.1164043   1.6705302  -0.1682056), wk =   0.0025641
        k(  262) = (   0.1772286  -1.8561447   0.0000000), wk =   0.0025641
        k(  263) = (   0.2380529  -1.8561447   0.1682056), wk =   0.0025641
        k(  264) = (   0.2988772  -1.8561447   0.3364112), wk =   0.0025641
        k(  265) = (   0.3597016  -1.8561447   0.5046169), wk =   0.0025641
        k(  266) = (   0.4205259  -1.8561447   0.6728225), wk =   0.0025641
        k(  267) = (   0.4813502  -1.8561447   0.8410281), wk =   0.0025641
        k(  268) = (   0.5421745  -1.8561447   1.0092337), wk =   0.0025641
        k(  269) = (  -0.1877172  -1.8561447  -1.0092337), wk =   0.0025641
        k(  270) = (  -0.1268929  -1.8561447  -0.8410281), wk =   0.0025641
        k(  271) = (  -0.0660686  -1.8561447  -0.6728225), wk =   0.0025641
        k(  272) = (  -0.0052443  -1.8561447  -0.5046169), wk =   0.0025641
        k(  273) = (   0.0555800  -1.8561447  -0.3364112), wk =   0.0025641
        k(  274) = (   0.1164043  -1.8561447  -0.1682056), wk =   0.0025641
        k(  275) = (   0.1772286  -1.6705302   0.0000000), wk =   0.0025641
        k(  276) = (   0.2380529  -1.6705302   0.1682056), wk =   0.0025641
        k(  277) = (   0.2988772  -1.6705302   0.3364112), wk =   0.0025641
        k(  278) = (   0.3597016  -1.6705302   0.5046169), wk =   0.0025641
        k(  279) = (   0.4205259  -1.6705302   0.6728225), wk =   0.0025641
        k(  280) = (   0.4813502  -1.6705302   0.8410281), wk =   0.0025641
        k(  281) = (   0.5421745  -1.6705302   1.0092337), wk =   0.0025641
        k(  282) = (  -0.1877172  -1.6705302  -1.0092337), wk =   0.0025641
        k(  283) = (  -0.1268929  -1.6705302  -0.8410281), wk =   0.0025641
        k(  284) = (  -0.0660686  -1.6705302  -0.6728225), wk =   0.0025641
        k(  285) = (  -0.0052443  -1.6705302  -0.5046169), wk =   0.0025641
        k(  286) = (   0.0555800  -1.6705302  -0.3364112), wk =   0.0025641
        k(  287) = (   0.1164043  -1.6705302  -0.1682056), wk =   0.0025641
        k(  288) = (   0.1772286  -1.4849157   0.0000000), wk =   0.0025641
        k(  289) = (   0.2380529  -1.4849157   0.1682056), wk =   0.0025641
        k(  290) = (   0.2988772  -1.4849157   0.3364112), wk =   0.0025641
        k(  291) = (   0.3597016  -1.4849157   0.5046169), wk =   0.0025641
        k(  292) = (   0.4205259  -1.4849157   0.6728225), wk =   0.0025641
        k(  293) = (   0.4813502  -1.4849157   0.8410281), wk =   0.0025641
        k(  294) = (   0.5421745  -1.4849157   1.0092337), wk =   0.0025641
        k(  295) = (  -0.1877172  -1.4849157  -1.0092337), wk =   0.0025641
        k(  296) = (  -0.1268929  -1.4849157  -0.8410281), wk =   0.0025641
        k(  297) = (  -0.0660686  -1.4849157  -0.6728225), wk =   0.0025641
        k(  298) = (  -0.0052443  -1.4849157  -0.5046169), wk =   0.0025641
        k(  299) = (   0.0555800  -1.4849157  -0.3364112), wk =   0.0025641
        k(  300) = (   0.1164043  -1.4849157  -0.1682056), wk =   0.0025641
        k(  301) = (   0.1772286  -1.2993013   0.0000000), wk =   0.0025641
        k(  302) = (   0.2380529  -1.2993013   0.1682056), wk =   0.0025641
        k(  303) = (   0.2988772  -1.2993013   0.3364112), wk =   0.0025641
        k(  304) = (   0.3597016  -1.2993013   0.5046169), wk =   0.0025641
        k(  305) = (   0.4205259  -1.2993013   0.6728225), wk =   0.0025641
        k(  306) = (   0.4813502  -1.2993013   0.8410281), wk =   0.0025641
        k(  307) = (   0.5421745  -1.2993013   1.0092337), wk =   0.0025641
        k(  308) = (  -0.1877172  -1.2993013  -1.0092337), wk =   0.0025641
        k(  309) = (  -0.1268929  -1.2993013  -0.8410281), wk =   0.0025641
        k(  310) = (  -0.0660686  -1.2993013  -0.6728225), wk =   0.0025641
        k(  311) = (  -0.0052443  -1.2993013  -0.5046169), wk =   0.0025641
        k(  312) = (   0.0555800  -1.2993013  -0.3364112), wk =   0.0025641
        k(  313) = (   0.1164043  -1.2993013  -0.1682056), wk =   0.0025641
        k(  314) = (   0.1772286  -1.1136868   0.0000000), wk =   0.0025641
        k(  315) = (   0.2380529  -1.1136868   0.1682056), wk =   0.0025641
        k(  316) = (   0.2988772  -1.1136868   0.3364112), wk =   0.0025641
        k(  317) = (   0.3597016  -1.1136868   0.5046169), wk =   0.0025641
        k(  318) = (   0.4205259  -1.1136868   0.6728225), wk =   0.0025641
        k(  319) = (   0.4813502  -1.1136868   0.8410281), wk =   0.0025641
        k(  320) = (   0.5421745  -1.1136868   1.0092337), wk =   0.0025641
        k(  321) = (  -0.1877172  -1.1136868  -1.0092337), wk =   0.0025641
        k(  322) = (  -0.1268929  -1.1136868  -0.8410281), wk =   0.0025641
        k(  323) = (  -0.0660686  -1.1136868  -0.6728225), wk =   0.0025641
        k(  324) = (  -0.0052443  -1.1136868  -0.5046169), wk =   0.0025641
        k(  325) = (   0.0555800  -1.1136868  -0.3364112), wk =   0.0025641
        k(  326) = (   0.1164043  -1.1136868  -0.1682056), wk =   0.0025641
        k(  327) = (   0.1772286  -0.9280723   0.0000000), wk =   0.0025641
        k(  328) = (   0.2380529  -0.9280723   0.1682056), wk =   0.0025641
        k(  329) = (   0.2988772  -0.9280723   0.3364112), wk =   0.0025641
        k(  330) = (   0.3597016  -0.9280723   0.5046169), wk =   0.0025641
        k(  331) = (   0.4205259  -0.9280723   0.6728225), wk =   0.0025641
        k(  332) = (   0.4813502  -0.9280723   0.8410281), wk =   0.0025641
        k(  333) = (   0.5421745  -0.9280723   1.0092337), wk =   0.0025641
        k(  334) = (  -0.1877172  -0.9280723  -1.0092337), wk =   0.0025641
        k(  335) = (  -0.1268929  -0.9280723  -0.8410281), wk =   0.0025641
        k(  336) = (  -0.0660686  -0.9280723  -0.6728225), wk =   0.0025641
        k(  337) = (  -0.0052443  -0.9280723  -0.5046169), wk =   0.0025641
        k(  338) = (   0.0555800  -0.9280723  -0.3364112), wk =   0.0025641
        k(  339) = (   0.1164043  -0.9280723  -0.1682056), wk =   0.0025641
        k(  340) = (   0.1772286  -0.7424579   0.0000000), wk =   0.0025641
        k(  341) = (   0.2380529  -0.7424579   0.1682056), wk =   0.0025641
        k(  342) = (   0.2988772  -0.7424579   0.3364112), wk =   0.0025641
        k(  343) = (   0.3597016  -0.7424579   0.5046169), wk =   0.0025641
        k(  344) = (   0.4205259  -0.7424579   0.6728225), wk =   0.0025641
        k(  345) = (   0.4813502  -0.7424579   0.8410281), wk =   0.0025641
        k(  346) = (   0.5421745  -0.7424579   1.0092337), wk =   0.0025641
        k(  347) = (  -0.1877172  -0.7424579  -1.0092337), wk =   0.0025641
        k(  348) = (  -0.1268929  -0.7424579  -0.8410281), wk =   0.0025641
        k(  349) = (  -0.0660686  -0.7424579  -0.6728225), wk =   0.0025641
        k(  350) = (  -0.0052443  -0.7424579  -0.5046169), wk =   0.0025641
        k(  351) = (   0.0555800  -0.7424579  -0.3364112), wk =   0.0025641
        k(  352) = (   0.1164043  -0.7424579  -0.1682056), wk =   0.0025641
        k(  353) = (   0.1772286  -0.5568434   0.0000000), wk =   0.0025641
        k(  354) = (   0.2380529  -0.5568434   0.1682056), wk =   0.0025641
        k(  355) = (   0.2988772  -0.5568434   0.3364112), wk =   0.0025641
        k(  356) = (   0.3597016  -0.5568434   0.5046169), wk =   0.0025641
        k(  357) = (   0.4205259  -0.5568434   0.6728225), wk =   0.0025641
        k(  358) = (   0.4813502  -0.5568434   0.8410281), wk =   0.0025641
        k(  359) = (   0.5421745  -0.5568434   1.0092337), wk =   0.0025641
        k(  360) = (  -0.1877172  -0.5568434  -1.0092337), wk =   0.0025641
        k(  361) = (  -0.1268929  -0.5568434  -0.8410281), wk =   0.0025641
        k(  362) = (  -0.0660686  -0.5568434  -0.6728225), wk =   0.0025641
        k(  363) = (  -0.0052443  -0.5568434  -0.5046169), wk =   0.0025641
        k(  364) = (   0.0555800  -0.5568434  -0.3364112), wk =   0.0025641
        k(  365) = (   0.1164043  -0.5568434  -0.1682056), wk =   0.0025641
        k(  366) = (   0.1772286  -0.3712289   0.0000000), wk =   0.0025641
        k(  367) = (   0.2380529  -0.3712289   0.1682056), wk =   0.0025641
        k(  368) = (   0.2988772  -0.3712289   0.3364112), wk =   0.0025641
        k(  369) = (   0.3597016  -0.3712289   0.5046169), wk =   0.0025641
        k(  370) = (   0.4205259  -0.3712289   0.6728225), wk =   0.0025641
        k(  371) = (   0.4813502  -0.3712289   0.8410281), wk =   0.0025641
        k(  372) = (   0.5421745  -0.3712289   1.0092337), wk =   0.0025641
        k(  373) = (  -0.1877172  -0.3712289  -1.0092337), wk =   0.0025641
        k(  374) = (  -0.1268929  -0.3712289  -0.8410281), wk =   0.0025641
        k(  375) = (  -0.0660686  -0.3712289  -0.6728225), wk =   0.0025641
        k(  376) = (  -0.0052443  -0.3712289  -0.5046169), wk =   0.0025641
        k(  377) = (   0.0555800  -0.3712289  -0.3364112), wk =   0.0025641
        k(  378) = (   0.1164043  -0.3712289  -0.1682056), wk =   0.0025641
        k(  379) = (   0.1772286  -0.1856145   0.0000000), wk =   0.0025641
        k(  380) = (   0.2380529  -0.1856145   0.1682056), wk =   0.0025641
        k(  381) = (   0.2988772  -0.1856145   0.3364112), wk =   0.0025641
        k(  382) = (   0.3597016  -0.1856145   0.5046169), wk =   0.0025641
        k(  383) = (   0.4205259  -0.1856145   0.6728225), wk =   0.0025641
        k(  384) = (   0.4813502  -0.1856145   0.8410281), wk =   0.0025641
        k(  385) = (   0.5421745  -0.1856145   1.0092337), wk =   0.0025641
        k(  386) = (  -0.1877172  -0.1856145  -1.0092337), wk =   0.0025641
        k(  387) = (  -0.1268929  -0.1856145  -0.8410281), wk =   0.0025641
        k(  388) = (  -0.0660686  -0.1856145  -0.6728225), wk =   0.0025641
        k(  389) = (  -0.0052443  -0.1856145  -0.5046169), wk =   0.0025641
        k(  390) = (   0.0555800  -0.1856145  -0.3364112), wk =   0.0025641
        k(  391) = (   0.1164043  -0.1856145  -0.1682056), wk =   0.0025641
        k(  392) = (   0.3544573   0.0000000   0.0000000), wk =   0.0025641
        k(  393) = (   0.4152816   0.0000000   0.1682056), wk =   0.0025641
        k(  394) = (   0.4761059   0.0000000   0.3364112), wk =   0.0025641
        k(  395) = (   0.5369302   0.0000000   0.5046169), wk =   0.0025641
        k(  396) = (   0.5977545   0.0000000   0.6728225), wk =   0.0025641
        k(  397) = (   0.6585788   0.0000000   0.8410281), wk =   0.0025641
        k(  398) = (   0.7194031   0.0000000   1.0092337), wk =   0.0025641
        k(  399) = (  -0.0104886   0.0000000  -1.0092337), wk =   0.0025641
        k(  400) = (   0.0503357   0.0000000  -0.8410281), wk =   0.0025641
        k(  401) = (   0.1111600   0.0000000  -0.6728225), wk =   0.0025641
        k(  402) = (   0.1719843   0.0000000  -0.5046169), wk =   0.0025641
        k(  403) = (   0.2328086   0.0000000  -0.3364112), wk =   0.0025641
        k(  404) = (   0.2936329   0.0000000  -0.1682056), wk =   0.0025641
        k(  405) = (   0.3544573   0.1856145   0.0000000), wk =   0.0025641
        k(  406) = (   0.4152816   0.1856145   0.1682056), wk =   0.0025641
        k(  407) = (   0.4761059   0.1856145   0.3364112), wk =   0.0025641
        k(  408) = (   0.5369302   0.1856145   0.5046169), wk =   0.0025641
        k(  409) = (   0.5977545   0.1856145   0.6728225), wk =   0.0025641
        k(  410) = (   0.6585788   0.1856145   0.8410281), wk =   0.0025641
        k(  411) = (   0.7194031   0.1856145   1.0092337), wk =   0.0025641
        k(  412) = (  -0.0104886   0.1856145  -1.0092337), wk =   0.0025641
        k(  413) = (   0.0503357   0.1856145  -0.8410281), wk =   0.0025641
        k(  414) = (   0.1111600   0.1856145  -0.6728225), wk =   0.0025641
        k(  415) = (   0.1719843   0.1856145  -0.5046169), wk =   0.0025641
        k(  416) = (   0.2328086   0.1856145  -0.3364112), wk =   0.0025641
        k(  417) = (   0.2936329   0.1856145  -0.1682056), wk =   0.0025641
        k(  418) = (   0.3544573   0.3712289   0.0000000), wk =   0.0025641
        k(  419) = (   0.4152816   0.3712289   0.1682056), wk =   0.0025641
        k(  420) = (   0.4761059   0.3712289   0.3364112), wk =   0.0025641
        k(  421) = (   0.5369302   0.3712289   0.5046169), wk =   0.0025641
        k(  422) = (   0.5977545   0.3712289   0.6728225), wk =   0.0025641
        k(  423) = (   0.6585788   0.3712289   0.8410281), wk =   0.0025641
        k(  424) = (   0.7194031   0.3712289   1.0092337), wk =   0.0025641
        k(  425) = (  -0.0104886   0.3712289  -1.0092337), wk =   0.0025641
        k(  426) = (   0.0503357   0.3712289  -0.8410281), wk =   0.0025641
        k(  427) = (   0.1111600   0.3712289  -0.6728225), wk =   0.0025641
        k(  428) = (   0.1719843   0.3712289  -0.5046169), wk =   0.0025641
        k(  429) = (   0.2328086   0.3712289  -0.3364112), wk =   0.0025641
        k(  430) = (   0.2936329   0.3712289  -0.1682056), wk =   0.0025641
        k(  431) = (   0.3544573   0.5568434   0.0000000), wk =   0.0025641
        k(  432) = (   0.4152816   0.5568434   0.1682056), wk =   0.0025641
        k(  433) = (   0.4761059   0.5568434   0.3364112), wk =   0.0025641
        k(  434) = (   0.5369302   0.5568434   0.5046169), wk =   0.0025641
        k(  435) = (   0.5977545   0.5568434   0.6728225), wk =   0.0025641
        k(  436) = (   0.6585788   0.5568434   0.8410281), wk =   0.0025641
        k(  437) = (   0.7194031   0.5568434   1.0092337), wk =   0.0025641
        k(  438) = (  -0.0104886   0.5568434  -1.0092337), wk =   0.0025641
        k(  439) = (   0.0503357   0.5568434  -0.8410281), wk =   0.0025641
        k(  440) = (   0.1111600   0.5568434  -0.6728225), wk =   0.0025641
        k(  441) = (   0.1719843   0.5568434  -0.5046169), wk =   0.0025641
        k(  442) = (   0.2328086   0.5568434  -0.3364112), wk =   0.0025641
        k(  443) = (   0.2936329   0.5568434  -0.1682056), wk =   0.0025641
        k(  444) = (   0.3544573   0.7424579   0.0000000), wk =   0.0025641
        k(  445) = (   0.4152816   0.7424579   0.1682056), wk =   0.0025641
        k(  446) = (   0.4761059   0.7424579   0.3364112), wk =   0.0025641
        k(  447) = (   0.5369302   0.7424579   0.5046169), wk =   0.0025641
        k(  448) = (   0.5977545   0.7424579   0.6728225), wk =   0.0025641
        k(  449) = (   0.6585788   0.7424579   0.8410281), wk =   0.0025641
        k(  450) = (   0.7194031   0.7424579   1.0092337), wk =   0.0025641
        k(  451) = (  -0.0104886   0.7424579  -1.0092337), wk =   0.0025641
        k(  452) = (   0.0503357   0.7424579  -0.8410281), wk =   0.0025641
        k(  453) = (   0.1111600   0.7424579  -0.6728225), wk =   0.0025641
        k(  454) = (   0.1719843   0.7424579  -0.5046169), wk =   0.0025641
        k(  455) = (   0.2328086   0.7424579  -0.3364112), wk =   0.0025641
        k(  456) = (   0.2936329   0.7424579  -0.1682056), wk =   0.0025641
        k(  457) = (   0.3544573   0.9280723   0.0000000), wk =   0.0025641
        k(  458) = (   0.4152816   0.9280723   0.1682056), wk =   0.0025641
        k(  459) = (   0.4761059   0.9280723   0.3364112), wk =   0.0025641
        k(  460) = (   0.5369302   0.9280723   0.5046169), wk =   0.0025641
        k(  461) = (   0.5977545   0.9280723   0.6728225), wk =   0.0025641
        k(  462) = (   0.6585788   0.9280723   0.8410281), wk =   0.0025641
        k(  463) = (   0.7194031   0.9280723   1.0092337), wk =   0.0025641
        k(  464) = (  -0.0104886   0.9280723  -1.0092337), wk =   0.0025641
        k(  465) = (   0.0503357   0.9280723  -0.8410281), wk =   0.0025641
        k(  466) = (   0.1111600   0.9280723  -0.6728225), wk =   0.0025641
        k(  467) = (   0.1719843   0.9280723  -0.5046169), wk =   0.0025641
        k(  468) = (   0.2328086   0.9280723  -0.3364112), wk =   0.0025641
        k(  469) = (   0.2936329   0.9280723  -0.1682056), wk =   0.0025641
        k(  470) = (   0.3544573   1.1136868   0.0000000), wk =   0.0025641
        k(  471) = (   0.4152816   1.1136868   0.1682056), wk =   0.0025641
        k(  472) = (   0.4761059   1.1136868   0.3364112), wk =   0.0025641
        k(  473) = (   0.5369302   1.1136868   0.5046169), wk =   0.0025641
        k(  474) = (   0.5977545   1.1136868   0.6728225), wk =   0.0025641
        k(  475) = (   0.6585788   1.1136868   0.8410281), wk =   0.0025641
        k(  476) = (   0.7194031   1.1136868   1.0092337), wk =   0.0025641
        k(  477) = (  -0.0104886   1.1136868  -1.0092337), wk =   0.0025641
        k(  478) = (   0.0503357   1.1136868  -0.8410281), wk =   0.0025641
        k(  479) = (   0.1111600   1.1136868  -0.6728225), wk =   0.0025641
        k(  480) = (   0.1719843   1.1136868  -0.5046169), wk =   0.0025641
        k(  481) = (   0.2328086   1.1136868  -0.3364112), wk =   0.0025641
        k(  482) = (   0.2936329   1.1136868  -0.1682056), wk =   0.0025641
        k(  483) = (   0.3544573   1.2993013   0.0000000), wk =   0.0025641
        k(  484) = (   0.4152816   1.2993013   0.1682056), wk =   0.0025641
        k(  485) = (   0.4761059   1.2993013   0.3364112), wk =   0.0025641
        k(  486) = (   0.5369302   1.2993013   0.5046169), wk =   0.0025641
        k(  487) = (   0.5977545   1.2993013   0.6728225), wk =   0.0025641
        k(  488) = (   0.6585788   1.2993013   0.8410281), wk =   0.0025641
        k(  489) = (   0.7194031   1.2993013   1.0092337), wk =   0.0025641
        k(  490) = (  -0.0104886   1.2993013  -1.0092337), wk =   0.0025641
        k(  491) = (   0.0503357   1.2993013  -0.8410281), wk =   0.0025641
        k(  492) = (   0.1111600   1.2993013  -0.6728225), wk =   0.0025641
        k(  493) = (   0.1719843   1.2993013  -0.5046169), wk =   0.0025641
        k(  494) = (   0.2328086   1.2993013  -0.3364112), wk =   0.0025641
        k(  495) = (   0.2936329   1.2993013  -0.1682056), wk =   0.0025641
        k(  496) = (   0.3544573   1.4849157   0.0000000), wk =   0.0025641
        k(  497) = (   0.4152816   1.4849157   0.1682056), wk =   0.0025641
        k(  498) = (   0.4761059   1.4849157   0.3364112), wk =   0.0025641
        k(  499) = (   0.5369302   1.4849157   0.5046169), wk =   0.0025641
        k(  500) = (   0.5977545   1.4849157   0.6728225), wk =   0.0025641
        k(  501) = (   0.6585788   1.4849157   0.8410281), wk =   0.0025641
        k(  502) = (   0.7194031   1.4849157   1.0092337), wk =   0.0025641
        k(  503) = (  -0.0104886   1.4849157  -1.0092337), wk =   0.0025641
        k(  504) = (   0.0503357   1.4849157  -0.8410281), wk =   0.0025641
        k(  505) = (   0.1111600   1.4849157  -0.6728225), wk =   0.0025641
        k(  506) = (   0.1719843   1.4849157  -0.5046169), wk =   0.0025641
        k(  507) = (   0.2328086   1.4849157  -0.3364112), wk =   0.0025641
        k(  508) = (   0.2936329   1.4849157  -0.1682056), wk =   0.0025641
        k(  509) = (   0.3544573   1.6705302   0.0000000), wk =   0.0025641
        k(  510) = (   0.4152816   1.6705302   0.1682056), wk =   0.0025641
        k(  511) = (   0.4761059   1.6705302   0.3364112), wk =   0.0025641
        k(  512) = (   0.5369302   1.6705302   0.5046169), wk =   0.0025641
        k(  513) = (   0.5977545   1.6705302   0.6728225), wk =   0.0025641
        k(  514) = (   0.6585788   1.6705302   0.8410281), wk =   0.0025641
        k(  515) = (   0.7194031   1.6705302   1.0092337), wk =   0.0025641
        k(  516) = (  -0.0104886   1.6705302  -1.0092337), wk =   0.0025641
        k(  517) = (   0.0503357   1.6705302  -0.8410281), wk =   0.0025641
        k(  518) = (   0.1111600   1.6705302  -0.6728225), wk =   0.0025641
        k(  519) = (   0.1719843   1.6705302  -0.5046169), wk =   0.0025641
        k(  520) = (   0.2328086   1.6705302  -0.3364112), wk =   0.0025641
        k(  521) = (   0.2936329   1.6705302  -0.1682056), wk =   0.0025641
        k(  522) = (   0.3544573  -1.8561447   0.0000000), wk =   0.0025641
        k(  523) = (   0.4152816  -1.8561447   0.1682056), wk =   0.0025641
        k(  524) = (   0.4761059  -1.8561447   0.3364112), wk =   0.0025641
        k(  525) = (   0.5369302  -1.8561447   0.5046169), wk =   0.0025641
        k(  526) = (   0.5977545  -1.8561447   0.6728225), wk =   0.0025641
        k(  527) = (   0.6585788  -1.8561447   0.8410281), wk =   0.0025641
        k(  528) = (   0.7194031  -1.8561447   1.0092337), wk =   0.0025641
        k(  529) = (  -0.0104886  -1.8561447  -1.0092337), wk =   0.0025641
        k(  530) = (   0.0503357  -1.8561447  -0.8410281), wk =   0.0025641
        k(  531) = (   0.1111600  -1.8561447  -0.6728225), wk =   0.0025641
        k(  532) = (   0.1719843  -1.8561447  -0.5046169), wk =   0.0025641
        k(  533) = (   0.2328086  -1.8561447  -0.3364112), wk =   0.0025641
        k(  534) = (   0.2936329  -1.8561447  -0.1682056), wk =   0.0025641
        k(  535) = (   0.3544573  -1.6705302   0.0000000), wk =   0.0025641
        k(  536) = (   0.4152816  -1.6705302   0.1682056), wk =   0.0025641
        k(  537) = (   0.4761059  -1.6705302   0.3364112), wk =   0.0025641
        k(  538) = (   0.5369302  -1.6705302   0.5046169), wk =   0.0025641
        k(  539) = (   0.5977545  -1.6705302   0.6728225), wk =   0.0025641
        k(  540) = (   0.6585788  -1.6705302   0.8410281), wk =   0.0025641
        k(  541) = (   0.7194031  -1.6705302   1.0092337), wk =   0.0025641
        k(  542) = (  -0.0104886  -1.6705302  -1.0092337), wk =   0.0025641
        k(  543) = (   0.0503357  -1.6705302  -0.8410281), wk =   0.0025641
        k(  544) = (   0.1111600  -1.6705302  -0.6728225), wk =   0.0025641
        k(  545) = (   0.1719843  -1.6705302  -0.5046169), wk =   0.0025641
        k(  546) = (   0.2328086  -1.6705302  -0.3364112), wk =   0.0025641
        k(  547) = (   0.2936329  -1.6705302  -0.1682056), wk =   0.0025641
        k(  548) = (   0.3544573  -1.4849157   0.0000000), wk =   0.0025641
        k(  549) = (   0.4152816  -1.4849157   0.1682056), wk =   0.0025641
        k(  550) = (   0.4761059  -1.4849157   0.3364112), wk =   0.0025641
        k(  551) = (   0.5369302  -1.4849157   0.5046169), wk =   0.0025641
        k(  552) = (   0.5977545  -1.4849157   0.6728225), wk =   0.0025641
        k(  553) = (   0.6585788  -1.4849157   0.8410281), wk =   0.0025641
        k(  554) = (   0.7194031  -1.4849157   1.0092337), wk =   0.0025641
        k(  555) = (  -0.0104886  -1.4849157  -1.0092337), wk =   0.0025641
        k(  556) = (   0.0503357  -1.4849157  -0.8410281), wk =   0.0025641
        k(  557) = (   0.1111600  -1.4849157  -0.6728225), wk =   0.0025641
        k(  558) = (   0.1719843  -1.4849157  -0.5046169), wk =   0.0025641
        k(  559) = (   0.2328086  -1.4849157  -0.3364112), wk =   0.0025641
        k(  560) = (   0.2936329  -1.4849157  -0.1682056), wk =   0.0025641
        k(  561) = (   0.3544573  -1.2993013   0.0000000), wk =   0.0025641
        k(  562) = (   0.4152816  -1.2993013   0.1682056), wk =   0.0025641
        k(  563) = (   0.4761059  -1.2993013   0.3364112), wk =   0.0025641
        k(  564) = (   0.5369302  -1.2993013   0.5046169), wk =   0.0025641
        k(  565) = (   0.5977545  -1.2993013   0.6728225), wk =   0.0025641
        k(  566) = (   0.6585788  -1.2993013   0.8410281), wk =   0.0025641
        k(  567) = (   0.7194031  -1.2993013   1.0092337), wk =   0.0025641
        k(  568) = (  -0.0104886  -1.2993013  -1.0092337), wk =   0.0025641
        k(  569) = (   0.0503357  -1.2993013  -0.8410281), wk =   0.0025641
        k(  570) = (   0.1111600  -1.2993013  -0.6728225), wk =   0.0025641
        k(  571) = (   0.1719843  -1.2993013  -0.5046169), wk =   0.0025641
        k(  572) = (   0.2328086  -1.2993013  -0.3364112), wk =   0.0025641
        k(  573) = (   0.2936329  -1.2993013  -0.1682056), wk =   0.0025641
        k(  574) = (   0.3544573  -1.1136868   0.0000000), wk =   0.0025641
        k(  575) = (   0.4152816  -1.1136868   0.1682056), wk =   0.0025641
        k(  576) = (   0.4761059  -1.1136868   0.3364112), wk =   0.0025641
        k(  577) = (   0.5369302  -1.1136868   0.5046169), wk =   0.0025641
        k(  578) = (   0.5977545  -1.1136868   0.6728225), wk =   0.0025641
        k(  579) = (   0.6585788  -1.1136868   0.8410281), wk =   0.0025641
        k(  580) = (   0.7194031  -1.1136868   1.0092337), wk =   0.0025641
        k(  581) = (  -0.0104886  -1.1136868  -1.0092337), wk =   0.0025641
        k(  582) = (   0.0503357  -1.1136868  -0.8410281), wk =   0.0025641
        k(  583) = (   0.1111600  -1.1136868  -0.6728225), wk =   0.0025641
        k(  584) = (   0.1719843  -1.1136868  -0.5046169), wk =   0.0025641
        k(  585) = (   0.2328086  -1.1136868  -0.3364112), wk =   0.0025641
        k(  586) = (   0.2936329  -1.1136868  -0.1682056), wk =   0.0025641
        k(  587) = (   0.3544573  -0.9280723   0.0000000), wk =   0.0025641
        k(  588) = (   0.4152816  -0.9280723   0.1682056), wk =   0.0025641
        k(  589) = (   0.4761059  -0.9280723   0.3364112), wk =   0.0025641
        k(  590) = (   0.5369302  -0.9280723   0.5046169), wk =   0.0025641
        k(  591) = (   0.5977545  -0.9280723   0.6728225), wk =   0.0025641
        k(  592) = (   0.6585788  -0.9280723   0.8410281), wk =   0.0025641
        k(  593) = (   0.7194031  -0.9280723   1.0092337), wk =   0.0025641
        k(  594) = (  -0.0104886  -0.9280723  -1.0092337), wk =   0.0025641
        k(  595) = (   0.0503357  -0.9280723  -0.8410281), wk =   0.0025641
        k(  596) = (   0.1111600  -0.9280723  -0.6728225), wk =   0.0025641
        k(  597) = (   0.1719843  -0.9280723  -0.5046169), wk =   0.0025641
        k(  598) = (   0.2328086  -0.9280723  -0.3364112), wk =   0.0025641
        k(  599) = (   0.2936329  -0.9280723  -0.1682056), wk =   0.0025641
        k(  600) = (   0.3544573  -0.7424579   0.0000000), wk =   0.0025641
        k(  601) = (   0.4152816  -0.7424579   0.1682056), wk =   0.0025641
        k(  602) = (   0.4761059  -0.7424579   0.3364112), wk =   0.0025641
        k(  603) = (   0.5369302  -0.7424579   0.5046169), wk =   0.0025641
        k(  604) = (   0.5977545  -0.7424579   0.6728225), wk =   0.0025641
        k(  605) = (   0.6585788  -0.7424579   0.8410281), wk =   0.0025641
        k(  606) = (   0.7194031  -0.7424579   1.0092337), wk =   0.0025641
        k(  607) = (  -0.0104886  -0.7424579  -1.0092337), wk =   0.0025641
        k(  608) = (   0.0503357  -0.7424579  -0.8410281), wk =   0.0025641
        k(  609) = (   0.1111600  -0.7424579  -0.6728225), wk =   0.0025641
        k(  610) = (   0.1719843  -0.7424579  -0.5046169), wk =   0.0025641
        k(  611) = (   0.2328086  -0.7424579  -0.3364112), wk =   0.0025641
        k(  612) = (   0.2936329  -0.7424579  -0.1682056), wk =   0.0025641
        k(  613) = (   0.3544573  -0.5568434   0.0000000), wk =   0.0025641
        k(  614) = (   0.4152816  -0.5568434   0.1682056), wk =   0.0025641
        k(  615) = (   0.4761059  -0.5568434   0.3364112), wk =   0.0025641
        k(  616) = (   0.5369302  -0.5568434   0.5046169), wk =   0.0025641
        k(  617) = (   0.5977545  -0.5568434   0.6728225), wk =   0.0025641
        k(  618) = (   0.6585788  -0.5568434   0.8410281), wk =   0.0025641
        k(  619) = (   0.7194031  -0.5568434   1.0092337), wk =   0.0025641
        k(  620) = (  -0.0104886  -0.5568434  -1.0092337), wk =   0.0025641
        k(  621) = (   0.0503357  -0.5568434  -0.8410281), wk =   0.0025641
        k(  622) = (   0.1111600  -0.5568434  -0.6728225), wk =   0.0025641
        k(  623) = (   0.1719843  -0.5568434  -0.5046169), wk =   0.0025641
        k(  624) = (   0.2328086  -0.5568434  -0.3364112), wk =   0.0025641
        k(  625) = (   0.2936329  -0.5568434  -0.1682056), wk =   0.0025641
        k(  626) = (   0.3544573  -0.3712289   0.0000000), wk =   0.0025641
        k(  627) = (   0.4152816  -0.3712289   0.1682056), wk =   0.0025641
        k(  628) = (   0.4761059  -0.3712289   0.3364112), wk =   0.0025641
        k(  629) = (   0.5369302  -0.3712289   0.5046169), wk =   0.0025641
        k(  630) = (   0.5977545  -0.3712289   0.6728225), wk =   0.0025641
        k(  631) = (   0.6585788  -0.3712289   0.8410281), wk =   0.0025641
        k(  632) = (   0.7194031  -0.3712289   1.0092337), wk =   0.0025641
        k(  633) = (  -0.0104886  -0.3712289  -1.0092337), wk =   0.0025641
        k(  634) = (   0.0503357  -0.3712289  -0.8410281), wk =   0.0025641
        k(  635) = (   0.1111600  -0.3712289  -0.6728225), wk =   0.0025641
        k(  636) = (   0.1719843  -0.3712289  -0.5046169), wk =   0.0025641
        k(  637) = (   0.2328086  -0.3712289  -0.3364112), wk =   0.0025641
        k(  638) = (   0.2936329  -0.3712289  -0.1682056), wk =   0.0025641
        k(  639) = (   0.3544573  -0.1856145   0.0000000), wk =   0.0025641
        k(  640) = (   0.4152816  -0.1856145   0.1682056), wk =   0.0025641
        k(  641) = (   0.4761059  -0.1856145   0.3364112), wk =   0.0025641
        k(  642) = (   0.5369302  -0.1856145   0.5046169), wk =   0.0025641
        k(  643) = (   0.5977545  -0.1856145   0.6728225), wk =   0.0025641
        k(  644) = (   0.6585788  -0.1856145   0.8410281), wk =   0.0025641
        k(  645) = (   0.7194031  -0.1856145   1.0092337), wk =   0.0025641
        k(  646) = (  -0.0104886  -0.1856145  -1.0092337), wk =   0.0025641
        k(  647) = (   0.0503357  -0.1856145  -0.8410281), wk =   0.0025641
        k(  648) = (   0.1111600  -0.1856145  -0.6728225), wk =   0.0025641
        k(  649) = (   0.1719843  -0.1856145  -0.5046169), wk =   0.0025641
        k(  650) = (   0.2328086  -0.1856145  -0.3364112), wk =   0.0025641
        k(  651) = (   0.2936329  -0.1856145  -0.1682056), wk =   0.0025641
        k(  652) = (  -0.5316859   0.0000000   0.0000000), wk =   0.0012821
        k(  653) = (  -0.4708616   0.0000000   0.1682056), wk =   0.0025641
        k(  654) = (  -0.4100373   0.0000000   0.3364112), wk =   0.0025641
        k(  655) = (  -0.3492130   0.0000000   0.5046169), wk =   0.0025641
        k(  656) = (  -0.2883886   0.0000000   0.6728225), wk =   0.0025641
        k(  657) = (  -0.2275643   0.0000000   0.8410281), wk =   0.0025641
        k(  658) = (  -0.1667400   0.0000000   1.0092337), wk =   0.0025641
        k(  659) = (  -0.5316859   0.1856145   0.0000000), wk =   0.0025641
        k(  660) = (  -0.4708616   0.1856145   0.1682056), wk =   0.0025641
        k(  661) = (  -0.4100373   0.1856145   0.3364112), wk =   0.0025641
        k(  662) = (  -0.3492130   0.1856145   0.5046169), wk =   0.0025641
        k(  663) = (  -0.2883886   0.1856145   0.6728225), wk =   0.0025641
        k(  664) = (  -0.2275643   0.1856145   0.8410281), wk =   0.0025641
        k(  665) = (  -0.1667400   0.1856145   1.0092337), wk =   0.0025641
        k(  666) = (  -0.8966317   0.1856145  -1.0092337), wk =   0.0025641
        k(  667) = (  -0.8358074   0.1856145  -0.8410281), wk =   0.0025641
        k(  668) = (  -0.7749831   0.1856145  -0.6728225), wk =   0.0025641
        k(  669) = (  -0.7141588   0.1856145  -0.5046169), wk =   0.0025641
        k(  670) = (  -0.6533345   0.1856145  -0.3364112), wk =   0.0025641
        k(  671) = (  -0.5925102   0.1856145  -0.1682056), wk =   0.0025641
        k(  672) = (  -0.5316859   0.3712289   0.0000000), wk =   0.0025641
        k(  673) = (  -0.4708616   0.3712289   0.1682056), wk =   0.0025641
        k(  674) = (  -0.4100373   0.3712289   0.3364112), wk =   0.0025641
        k(  675) = (  -0.3492130   0.3712289   0.5046169), wk =   0.0025641
        k(  676) = (  -0.2883886   0.3712289   0.6728225), wk =   0.0025641
        k(  677) = (  -0.2275643   0.3712289   0.8410281), wk =   0.0025641
        k(  678) = (  -0.1667400   0.3712289   1.0092337), wk =   0.0025641
        k(  679) = (  -0.8966317   0.3712289  -1.0092337), wk =   0.0025641
        k(  680) = (  -0.8358074   0.3712289  -0.8410281), wk =   0.0025641
        k(  681) = (  -0.7749831   0.3712289  -0.6728225), wk =   0.0025641
        k(  682) = (  -0.7141588   0.3712289  -0.5046169), wk =   0.0025641
        k(  683) = (  -0.6533345   0.3712289  -0.3364112), wk =   0.0025641
        k(  684) = (  -0.5925102   0.3712289  -0.1682056), wk =   0.0025641
        k(  685) = (  -0.5316859   0.5568434   0.0000000), wk =   0.0025641
        k(  686) = (  -0.4708616   0.5568434   0.1682056), wk =   0.0025641
        k(  687) = (  -0.4100373   0.5568434   0.3364112), wk =   0.0025641
        k(  688) = (  -0.3492130   0.5568434   0.5046169), wk =   0.0025641
        k(  689) = (  -0.2883886   0.5568434   0.6728225), wk =   0.0025641
        k(  690) = (  -0.2275643   0.5568434   0.8410281), wk =   0.0025641
        k(  691) = (  -0.1667400   0.5568434   1.0092337), wk =   0.0025641
        k(  692) = (  -0.8966317   0.5568434  -1.0092337), wk =   0.0025641
        k(  693) = (  -0.8358074   0.5568434  -0.8410281), wk =   0.0025641
        k(  694) = (  -0.7749831   0.5568434  -0.6728225), wk =   0.0025641
        k(  695) = (  -0.7141588   0.5568434  -0.5046169), wk =   0.0025641
        k(  696) = (  -0.6533345   0.5568434  -0.3364112), wk =   0.0025641
        k(  697) = (  -0.5925102   0.5568434  -0.1682056), wk =   0.0025641
        k(  698) = (  -0.5316859   0.7424579   0.0000000), wk =   0.0025641
        k(  699) = (  -0.4708616   0.7424579   0.1682056), wk =   0.0025641
        k(  700) = (  -0.4100373   0.7424579   0.3364112), wk =   0.0025641
        k(  701) = (  -0.3492130   0.7424579   0.5046169), wk =   0.0025641
        k(  702) = (  -0.2883886   0.7424579   0.6728225), wk =   0.0025641
        k(  703) = (  -0.2275643   0.7424579   0.8410281), wk =   0.0025641
        k(  704) = (  -0.1667400   0.7424579   1.0092337), wk =   0.0025641
        k(  705) = (  -0.8966317   0.7424579  -1.0092337), wk =   0.0025641
        k(  706) = (  -0.8358074   0.7424579  -0.8410281), wk =   0.0025641
        k(  707) = (  -0.7749831   0.7424579  -0.6728225), wk =   0.0025641
        k(  708) = (  -0.7141588   0.7424579  -0.5046169), wk =   0.0025641
        k(  709) = (  -0.6533345   0.7424579  -0.3364112), wk =   0.0025641
        k(  710) = (  -0.5925102   0.7424579  -0.1682056), wk =   0.0025641
        k(  711) = (  -0.5316859   0.9280723   0.0000000), wk =   0.0025641
        k(  712) = (  -0.4708616   0.9280723   0.1682056), wk =   0.0025641
        k(  713) = (  -0.4100373   0.9280723   0.3364112), wk =   0.0025641
        k(  714) = (  -0.3492130   0.9280723   0.5046169), wk =   0.0025641
        k(  715) = (  -0.2883886   0.9280723   0.6728225), wk =   0.0025641
        k(  716) = (  -0.2275643   0.9280723   0.8410281), wk =   0.0025641
        k(  717) = (  -0.1667400   0.9280723   1.0092337), wk =   0.0025641
        k(  718) = (  -0.8966317   0.9280723  -1.0092337), wk =   0.0025641
        k(  719) = (  -0.8358074   0.9280723  -0.8410281), wk =   0.0025641
        k(  720) = (  -0.7749831   0.9280723  -0.6728225), wk =   0.0025641
        k(  721) = (  -0.7141588   0.9280723  -0.5046169), wk =   0.0025641
        k(  722) = (  -0.6533345   0.9280723  -0.3364112), wk =   0.0025641
        k(  723) = (  -0.5925102   0.9280723  -0.1682056), wk =   0.0025641
        k(  724) = (  -0.5316859   1.1136868   0.0000000), wk =   0.0025641
        k(  725) = (  -0.4708616   1.1136868   0.1682056), wk =   0.0025641
        k(  726) = (  -0.4100373   1.1136868   0.3364112), wk =   0.0025641
        k(  727) = (  -0.3492130   1.1136868   0.5046169), wk =   0.0025641
        k(  728) = (  -0.2883886   1.1136868   0.6728225), wk =   0.0025641
        k(  729) = (  -0.2275643   1.1136868   0.8410281), wk =   0.0025641
        k(  730) = (  -0.1667400   1.1136868   1.0092337), wk =   0.0025641
        k(  731) = (  -0.8966317   1.1136868  -1.0092337), wk =   0.0025641
        k(  732) = (  -0.8358074   1.1136868  -0.8410281), wk =   0.0025641
        k(  733) = (  -0.7749831   1.1136868  -0.6728225), wk =   0.0025641
        k(  734) = (  -0.7141588   1.1136868  -0.5046169), wk =   0.0025641
        k(  735) = (  -0.6533345   1.1136868  -0.3364112), wk =   0.0025641
        k(  736) = (  -0.5925102   1.1136868  -0.1682056), wk =   0.0025641
        k(  737) = (  -0.5316859   1.2993013   0.0000000), wk =   0.0025641
        k(  738) = (  -0.4708616   1.2993013   0.1682056), wk =   0.0025641
        k(  739) = (  -0.4100373   1.2993013   0.3364112), wk =   0.0025641
        k(  740) = (  -0.3492130   1.2993013   0.5046169), wk =   0.0025641
        k(  741) = (  -0.2883886   1.2993013   0.6728225), wk =   0.0025641
        k(  742) = (  -0.2275643   1.2993013   0.8410281), wk =   0.0025641
        k(  743) = (  -0.1667400   1.2993013   1.0092337), wk =   0.0025641
        k(  744) = (  -0.8966317   1.2993013  -1.0092337), wk =   0.0025641
        k(  745) = (  -0.8358074   1.2993013  -0.8410281), wk =   0.0025641
        k(  746) = (  -0.7749831   1.2993013  -0.6728225), wk =   0.0025641
        k(  747) = (  -0.7141588   1.2993013  -0.5046169), wk =   0.0025641
        k(  748) = (  -0.6533345   1.2993013  -0.3364112), wk =   0.0025641
        k(  749) = (  -0.5925102   1.2993013  -0.1682056), wk =   0.0025641
        k(  750) = (  -0.5316859   1.4849157   0.0000000), wk =   0.0025641
        k(  751) = (  -0.4708616   1.4849157   0.1682056), wk =   0.0025641
        k(  752) = (  -0.4100373   1.4849157   0.3364112), wk =   0.0025641
        k(  753) = (  -0.3492130   1.4849157   0.5046169), wk =   0.0025641
        k(  754) = (  -0.2883886   1.4849157   0.6728225), wk =   0.0025641
        k(  755) = (  -0.2275643   1.4849157   0.8410281), wk =   0.0025641
        k(  756) = (  -0.1667400   1.4849157   1.0092337), wk =   0.0025641
        k(  757) = (  -0.8966317   1.4849157  -1.0092337), wk =   0.0025641
        k(  758) = (  -0.8358074   1.4849157  -0.8410281), wk =   0.0025641
        k(  759) = (  -0.7749831   1.4849157  -0.6728225), wk =   0.0025641
        k(  760) = (  -0.7141588   1.4849157  -0.5046169), wk =   0.0025641
        k(  761) = (  -0.6533345   1.4849157  -0.3364112), wk =   0.0025641
        k(  762) = (  -0.5925102   1.4849157  -0.1682056), wk =   0.0025641
        k(  763) = (  -0.5316859   1.6705302   0.0000000), wk =   0.0025641
        k(  764) = (  -0.4708616   1.6705302   0.1682056), wk =   0.0025641
        k(  765) = (  -0.4100373   1.6705302   0.3364112), wk =   0.0025641
        k(  766) = (  -0.3492130   1.6705302   0.5046169), wk =   0.0025641
        k(  767) = (  -0.2883886   1.6705302   0.6728225), wk =   0.0025641
        k(  768) = (  -0.2275643   1.6705302   0.8410281), wk =   0.0025641
        k(  769) = (  -0.1667400   1.6705302   1.0092337), wk =   0.0025641
        k(  770) = (  -0.8966317   1.6705302  -1.0092337), wk =   0.0025641
        k(  771) = (  -0.8358074   1.6705302  -0.8410281), wk =   0.0025641
        k(  772) = (  -0.7749831   1.6705302  -0.6728225), wk =   0.0025641
        k(  773) = (  -0.7141588   1.6705302  -0.5046169), wk =   0.0025641
        k(  774) = (  -0.6533345   1.6705302  -0.3364112), wk =   0.0025641
        k(  775) = (  -0.5925102   1.6705302  -0.1682056), wk =   0.0025641
        k(  776) = (  -0.5316859  -1.8561447   0.0000000), wk =   0.0012821
        k(  777) = (  -0.4708616  -1.8561447   0.1682056), wk =   0.0025641
        k(  778) = (  -0.4100373  -1.8561447   0.3364112), wk =   0.0025641
        k(  779) = (  -0.3492130  -1.8561447   0.5046169), wk =   0.0025641
        k(  780) = (  -0.2883886  -1.8561447   0.6728225), wk =   0.0025641
        k(  781) = (  -0.2275643  -1.8561447   0.8410281), wk =   0.0025641
        k(  782) = (  -0.1667400  -1.8561447   1.0092337), wk =   0.0025641

                       cryst. coord.
        k(    1) = (   0.0000000   0.0000000   0.0000000), wk =   0.0012821
        k(    2) = (  -0.0000000   0.0000000   0.0769231), wk =   0.0025641
        k(    3) = (  -0.0000000   0.0000000   0.1538462), wk =   0.0025641
        k(    4) = (  -0.0000000   0.0000000   0.2307692), wk =   0.0025641
        k(    5) = (  -0.0000000   0.0000000   0.3076923), wk =   0.0025641
        k(    6) = (  -0.0000000   0.0000000   0.3846154), wk =   0.0025641
        k(    7) = (  -0.0000000   0.0000000   0.4615385), wk =   0.0025641
        k(    8) = (   0.0000000   0.0500000   0.0000000), wk =   0.0025641
        k(    9) = (  -0.0000000   0.0500000   0.0769231), wk =   0.0025641
        k(   10) = (  -0.0000000   0.0500000   0.1538462), wk =   0.0025641
        k(   11) = (  -0.0000000   0.0500000   0.2307692), wk =   0.0025641
        k(   12) = (  -0.0000000   0.0500000   0.3076923), wk =   0.0025641
        k(   13) = (  -0.0000000   0.0500000   0.3846154), wk =   0.0025641
        k(   14) = (  -0.0000000   0.0500000   0.4615385), wk =   0.0025641
        k(   15) = (   0.0000000   0.0500000  -0.4615385), wk =   0.0025641
        k(   16) = (   0.0000000   0.0500000  -0.3846154), wk =   0.0025641
        k(   17) = (   0.0000000   0.0500000  -0.3076923), wk =   0.0025641
        k(   18) = (   0.0000000   0.0500000  -0.2307692), wk =   0.0025641
        k(   19) = (   0.0000000   0.0500000  -0.1538462), wk =   0.0025641
        k(   20) = (   0.0000000   0.0500000  -0.0769231), wk =   0.0025641
        k(   21) = (   0.0000000   0.1000000   0.0000000), wk =   0.0025641
        k(   22) = (  -0.0000000   0.1000000   0.0769231), wk =   0.0025641
        k(   23) = (  -0.0000000   0.1000000   0.1538462), wk =   0.0025641
        k(   24) = (  -0.0000000   0.1000000   0.2307692), wk =   0.0025641
        k(   25) = (  -0.0000000   0.1000000   0.3076923), wk =   0.0025641
        k(   26) = (  -0.0000000   0.1000000   0.3846154), wk =   0.0025641
        k(   27) = (  -0.0000000   0.1000000   0.4615385), wk =   0.0025641
        k(   28) = (   0.0000000   0.1000000  -0.4615385), wk =   0.0025641
        k(   29) = (   0.0000000   0.1000000  -0.3846154), wk =   0.0025641
        k(   30) = (   0.0000000   0.1000000  -0.3076923), wk =   0.0025641
        k(   31) = (   0.0000000   0.1000000  -0.2307692), wk =   0.0025641
        k(   32) = (   0.0000000   0.1000000  -0.1538462), wk =   0.0025641
        k(   33) = (   0.0000000   0.1000000  -0.0769231), wk =   0.0025641
        k(   34) = (   0.0000000   0.1500000   0.0000000), wk =   0.0025641
        k(   35) = (  -0.0000000   0.1500000   0.0769231), wk =   0.0025641
        k(   36) = (  -0.0000000   0.1500000   0.1538462), wk =   0.0025641
        k(   37) = (  -0.0000000   0.1500000   0.2307692), wk =   0.0025641
        k(   38) = (  -0.0000000   0.1500000   0.3076923), wk =   0.0025641
        k(   39) = (  -0.0000000   0.1500000   0.3846154), wk =   0.0025641
        k(   40) = (  -0.0000000   0.1500000   0.4615385), wk =   0.0025641
        k(   41) = (   0.0000000   0.1500000  -0.4615385), wk =   0.0025641
        k(   42) = (   0.0000000   0.1500000  -0.3846154), wk =   0.0025641
        k(   43) = (   0.0000000   0.1500000  -0.3076923), wk =   0.0025641
        k(   44) = (   0.0000000   0.1500000  -0.2307692), wk =   0.0025641
        k(   45) = (   0.0000000   0.1500000  -0.1538462), wk =   0.0025641
        k(   46) = (   0.0000000   0.1500000  -0.0769231), wk =   0.0025641
        k(   47) = (   0.0000000   0.2000000   0.0000000), wk =   0.0025641
        k(   48) = (  -0.0000000   0.2000000   0.0769231), wk =   0.0025641
        k(   49) = (  -0.0000000   0.2000000   0.1538462), wk =   0.0025641
        k(   50) = (  -0.0000000   0.2000000   0.2307692), wk =   0.0025641
        k(   51) = (  -0.0000000   0.2000000   0.3076923), wk =   0.0025641
        k(   52) = (  -0.0000000   0.2000000   0.3846154), wk =   0.0025641
        k(   53) = (  -0.0000000   0.2000000   0.4615385), wk =   0.0025641
        k(   54) = (   0.0000000   0.2000000  -0.4615385), wk =   0.0025641
        k(   55) = (   0.0000000   0.2000000  -0.3846154), wk =   0.0025641
        k(   56) = (   0.0000000   0.2000000  -0.3076923), wk =   0.0025641
        k(   57) = (   0.0000000   0.2000000  -0.2307692), wk =   0.0025641
        k(   58) = (   0.0000000   0.2000000  -0.1538462), wk =   0.0025641
        k(   59) = (   0.0000000   0.2000000  -0.0769231), wk =   0.0025641
        k(   60) = (   0.0000000   0.2500000   0.0000000), wk =   0.0025641
        k(   61) = (  -0.0000000   0.2500000   0.0769231), wk =   0.0025641
        k(   62) = (  -0.0000000   0.2500000   0.1538462), wk =   0.0025641
        k(   63) = (  -0.0000000   0.2500000   0.2307692), wk =   0.0025641
        k(   64) = (  -0.0000000   0.2500000   0.3076923), wk =   0.0025641
        k(   65) = (  -0.0000000   0.2500000   0.3846154), wk =   0.0025641
        k(   66) = (  -0.0000000   0.2500000   0.4615385), wk =   0.0025641
        k(   67) = (   0.0000000   0.2500000  -0.4615385), wk =   0.0025641
        k(   68) = (   0.0000000   0.2500000  -0.3846154), wk =   0.0025641
        k(   69) = (   0.0000000   0.2500000  -0.3076923), wk =   0.0025641
        k(   70) = (   0.0000000   0.2500000  -0.2307692), wk =   0.0025641
        k(   71) = (   0.0000000   0.2500000  -0.1538462), wk =   0.0025641
        k(   72) = (   0.0000000   0.2500000  -0.0769231), wk =   0.0025641
        k(   73) = (   0.0000000   0.3000000   0.0000000), wk =   0.0025641
        k(   74) = (  -0.0000000   0.3000000   0.0769231), wk =   0.0025641
        k(   75) = (  -0.0000000   0.3000000   0.1538462), wk =   0.0025641
        k(   76) = (  -0.0000000   0.3000000   0.2307692), wk =   0.0025641
        k(   77) = (  -0.0000000   0.3000000   0.3076923), wk =   0.0025641
        k(   78) = (  -0.0000000   0.3000000   0.3846154), wk =   0.0025641
        k(   79) = (  -0.0000000   0.3000000   0.4615385), wk =   0.0025641
        k(   80) = (   0.0000000   0.3000000  -0.4615385), wk =   0.0025641
        k(   81) = (   0.0000000   0.3000000  -0.3846154), wk =   0.0025641
        k(   82) = (   0.0000000   0.3000000  -0.3076923), wk =   0.0025641
        k(   83) = (   0.0000000   0.3000000  -0.2307692), wk =   0.0025641
        k(   84) = (   0.0000000   0.3000000  -0.1538462), wk =   0.0025641
        k(   85) = (   0.0000000   0.3000000  -0.0769231), wk =   0.0025641
        k(   86) = (   0.0000000   0.3500000   0.0000000), wk =   0.0025641
        k(   87) = (  -0.0000000   0.3500000   0.0769231), wk =   0.0025641
        k(   88) = (  -0.0000000   0.3500000   0.1538462), wk =   0.0025641
        k(   89) = (  -0.0000000   0.3500000   0.2307692), wk =   0.0025641
        k(   90) = (  -0.0000000   0.3500000   0.3076923), wk =   0.0025641
        k(   91) = (  -0.0000000   0.3500000   0.3846154), wk =   0.0025641
        k(   92) = (  -0.0000000   0.3500000   0.4615385), wk =   0.0025641
        k(   93) = (   0.0000000   0.3500000  -0.4615385), wk =   0.0025641
        k(   94) = (   0.0000000   0.3500000  -0.3846154), wk =   0.0025641
        k(   95) = (   0.0000000   0.3500000  -0.3076923), wk =   0.0025641
        k(   96) = (   0.0000000   0.3500000  -0.2307692), wk =   0.0025641
        k(   97) = (   0.0000000   0.3500000  -0.1538462), wk =   0.0025641
        k(   98) = (   0.0000000   0.3500000  -0.0769231), wk =   0.0025641
        k(   99) = (   0.0000000   0.4000000   0.0000000), wk =   0.0025641
        k(  100) = (  -0.0000000   0.4000000   0.0769231), wk =   0.0025641
        k(  101) = (  -0.0000000   0.4000000   0.1538462), wk =   0.0025641
        k(  102) = (  -0.0000000   0.4000000   0.2307692), wk =   0.0025641
        k(  103) = (  -0.0000000   0.4000000   0.3076923), wk =   0.0025641
        k(  104) = (  -0.0000000   0.4000000   0.3846154), wk =   0.0025641
        k(  105) = (  -0.0000000   0.4000000   0.4615385), wk =   0.0025641
        k(  106) = (   0.0000000   0.4000000  -0.4615385), wk =   0.0025641
        k(  107) = (   0.0000000   0.4000000  -0.3846154), wk =   0.0025641
        k(  108) = (   0.0000000   0.4000000  -0.3076923), wk =   0.0025641
        k(  109) = (   0.0000000   0.4000000  -0.2307692), wk =   0.0025641
        k(  110) = (   0.0000000   0.4000000  -0.1538462), wk =   0.0025641
        k(  111) = (   0.0000000   0.4000000  -0.0769231), wk =   0.0025641
        k(  112) = (   0.0000000   0.4500000   0.0000000), wk =   0.0025641
        k(  113) = (  -0.0000000   0.4500000   0.0769231), wk =   0.0025641
        k(  114) = (  -0.0000000   0.4500000   0.1538462), wk =   0.0025641
        k(  115) = (  -0.0000000   0.4500000   0.2307692), wk =   0.0025641
        k(  116) = (  -0.0000000   0.4500000   0.3076923), wk =   0.0025641
        k(  117) = (  -0.0000000   0.4500000   0.3846154), wk =   0.0025641
        k(  118) = (  -0.0000000   0.4500000   0.4615385), wk =   0.0025641
        k(  119) = (   0.0000000   0.4500000  -0.4615385), wk =   0.0025641
        k(  120) = (   0.0000000   0.4500000  -0.3846154), wk =   0.0025641
        k(  121) = (   0.0000000   0.4500000  -0.3076923), wk =   0.0025641
        k(  122) = (   0.0000000   0.4500000  -0.2307692), wk =   0.0025641
        k(  123) = (   0.0000000   0.4500000  -0.1538462), wk =   0.0025641
        k(  124) = (   0.0000000   0.4500000  -0.0769231), wk =   0.0025641
        k(  125) = (   0.0000000  -0.5000000   0.0000000), wk =   0.0012821
        k(  126) = (  -0.0000000  -0.5000000   0.0769231), wk =   0.0025641
        k(  127) = (  -0.0000000  -0.5000000   0.1538462), wk =   0.0025641
        k(  128) = (  -0.0000000  -0.5000000   0.2307692), wk =   0.0025641
        k(  129) = (  -0.0000000  -0.5000000   0.3076923), wk =   0.0025641
        k(  130) = (  -0.0000000  -0.5000000   0.3846154), wk =   0.0025641
        k(  131) = (  -0.0000000  -0.5000000   0.4615385), wk =   0.0025641
        k(  132) = (   0.1666667   0.0000000   0.0000000), wk =   0.0025641
        k(  133) = (   0.1666667   0.0000000   0.0769231), wk =   0.0025641
        k(  134) = (   0.1666667   0.0000000   0.1538462), wk =   0.0025641
        k(  135) = (   0.1666667   0.0000000   0.2307692), wk =   0.0025641
        k(  136) = (   0.1666667   0.0000000   0.3076923), wk =   0.0025641
        k(  137) = (   0.1666667   0.0000000   0.3846154), wk =   0.0025641
        k(  138) = (   0.1666667   0.0000000   0.4615385), wk =   0.0025641
        k(  139) = (   0.1666667   0.0000000  -0.4615385), wk =   0.0025641
        k(  140) = (   0.1666667   0.0000000  -0.3846154), wk =   0.0025641
        k(  141) = (   0.1666667   0.0000000  -0.3076923), wk =   0.0025641
        k(  142) = (   0.1666667   0.0000000  -0.2307692), wk =   0.0025641
        k(  143) = (   0.1666667   0.0000000  -0.1538462), wk =   0.0025641
        k(  144) = (   0.1666667   0.0000000  -0.0769231), wk =   0.0025641
        k(  145) = (   0.1666667   0.0500000   0.0000000), wk =   0.0025641
        k(  146) = (   0.1666667   0.0500000   0.0769231), wk =   0.0025641
        k(  147) = (   0.1666667   0.0500000   0.1538462), wk =   0.0025641
        k(  148) = (   0.1666667   0.0500000   0.2307692), wk =   0.0025641
        k(  149) = (   0.1666667   0.0500000   0.3076923), wk =   0.0025641
        k(  150) = (   0.1666667   0.0500000   0.3846154), wk =   0.0025641
        k(  151) = (   0.1666667   0.0500000   0.4615385), wk =   0.0025641
        k(  152) = (   0.1666667   0.0500000  -0.4615385), wk =   0.0025641
        k(  153) = (   0.1666667   0.0500000  -0.3846154), wk =   0.0025641
        k(  154) = (   0.1666667   0.0500000  -0.3076923), wk =   0.0025641
[...]
    -0.0108

          k =-0.1667-1.8561 1.0092 ( 11608 PWs)   bands (ev):

    -3.6553  -3.6553  -3.1024  -3.1024  -2.2147  -2.2147  -1.7078  -1.7078
    -0.7865  -0.7865   0.5536   0.5536   0.8485   0.8485   1.8668   1.8668
     2.2556   2.2556   2.3521   2.3521   3.4944   3.4944   3.7993   3.7993
     3.9416   3.9416   4.4562   4.4562   4.6367   4.6367   5.6378   5.6378
     5.7139   5.7139   6.0587   6.0587   6.8097   6.8097   7.4982   7.4982
     7.7540

     occupation numbers 
     1.0000   1.0000   1.0000   1.0000   1.0000   1.0000   1.0000   1.0000
     1.0000   1.0000   1.0000   1.0000   1.0000   1.0000   1.0000   1.0000
     1.0000   1.0000   1.0000   1.0000   1.0000   1.0000   1.0000   1.0000
     1.0000   1.0000   1.0000   1.0000   1.0000   1.0000   1.0162   1.0162
     1.0217   1.0217   1.0299   1.0299   0.3368   0.3368  -0.0336  -0.0336
    -0.0156

     the Fermi energy is     6.6915 ev

!    total energy              =    -473.15915946 Ry
     Harris-Foulkes estimate   =    -473.15915946 Ry
     estimated scf accuracy    <          6.0E-13 Ry

     The total energy is the sum of the following terms:

     one-electron contribution =      36.40948167 Ry
     hartree contribution      =      13.20421693 Ry
     xc contribution           =     -90.16107414 Ry
     ewald contribution        =    -119.74024175 Ry
     one-center paw contrib.   =    -312.87019243 Ry
      -> PAW hartree energy AE =       0.81427694 Ry
      -> PAW hartree energy PS =      -0.81242510 Ry
      -> PAW xc energy AE      =     -32.61974190 Ry
      -> PAW xc energy PS      =       1.32375265 Ry
      -> total E_H with PAW    =      13.20606877 Ry
      -> total E_XC with PAW   =    -121.45706339 Ry
     smearing contrib. (-TS)   =      -0.00134975 Ry

     convergence has been achieved in  18 iterations

     Forces acting on atoms (cartesian axes, Ry/au):

     atom    1 type  1   force =    -0.00000148   -0.00000030   -0.00000190
     atom    2 type  1   force =    -0.00044732    0.00000018    0.00001143
     atom    3 type  1   force =    -0.00063485    0.00000012   -0.00010117
     atom    4 type  1   force =     0.00063435   -0.00000010    0.00010023
     atom    5 type  1   force =     0.00044782   -0.00000016   -0.00001108
     atom    6 type  2   force =     0.00006271   -0.00000105    0.00042408
     atom    7 type  2   force =    -0.00009841   -0.00000020    0.00103831
     atom    8 type  2   force =    -0.00059808    0.00000063   -0.00059925
     atom    9 type  2   force =     0.00059741   -0.00000068    0.00059969
     atom   10 type  2   force =     0.00009882    0.00000016   -0.00103759
     atom   11 type  2   force =    -0.00006112    0.00000114   -0.00042397
     atom   12 type  1   force =    -0.00000282    0.00000030    0.00000233
     atom   13 type  1   force =    -0.00043530   -0.00000033    0.00002134
     atom   14 type  1   force =    -0.00063120   -0.00000045   -0.00009471
     atom   15 type  1   force =     0.00063122    0.00000044    0.00009429
     atom   16 type  1   force =     0.00043534    0.00000032   -0.00002121
     atom   17 type  2   force =     0.00006731    0.00000015    0.00042891
     atom   18 type  2   force =    -0.00009432    0.00000089    0.00103072
     atom   19 type  2   force =    -0.00058975    0.00000122   -0.00060118
     atom   20 type  2   force =     0.00059198   -0.00000122    0.00060087
     atom   21 type  2   force =     0.00009486   -0.00000082   -0.00103122
     atom   22 type  2   force =    -0.00006717   -0.00000024   -0.00042892
     The non-local contrib.  to forces
     atom    1 type  1   force =    -0.00001620    0.00000081   -0.00001421
     atom    2 type  1   force =     0.00718666    0.00000076    0.01098015
     atom    3 type  1   force =     0.01705981   -0.00000033    0.00307770
     atom    4 type  1   force =    -0.01707788    0.00000027   -0.00307966
     atom    5 type  1   force =    -0.00719734   -0.00000067   -0.01098606
     atom    6 type  2   force =     0.00001297    0.00000033   -0.06327336
     atom    7 type  2   force =     0.04419662   -0.00000143    0.01450747
     atom    8 type  2   force =    -0.01394771   -0.00000113    0.02668290
     atom    9 type  2   force =     0.01394679    0.00000125   -0.02667984
     atom   10 type  2   force =    -0.04419524    0.00000119   -0.01450748
     atom   11 type  2   force =    -0.00000997   -0.00000044    0.06327406
     atom   12 type  1   force =    -0.00001078   -0.00000069    0.00001358
     atom   13 type  1   force =     0.00721174    0.00000208    0.01100762
     atom   14 type  1   force =     0.01706950    0.00000072    0.00309665
     atom   15 type  1   force =    -0.01708693   -0.00000059   -0.00309933
     atom   16 type  1   force =    -0.00722418   -0.00000208   -0.01101100
     atom   17 type  2   force =     0.00002140   -0.00000073   -0.06326676
     atom   18 type  2   force =     0.04418643   -0.00000067    0.01449884
     atom   19 type  2   force =    -0.01394418   -0.00000189    0.02668445
     atom   20 type  2   force =     0.01394409    0.00000176   -0.02668093
     atom   21 type  2   force =    -0.04418857    0.00000090   -0.01449774
     atom   22 type  2   force =    -0.00001824    0.00000082    0.06326661
     The ionic contribution  to forces
     atom    1 type  1   force =    -0.00019235   -0.00000007   -0.00002026
     atom    2 type  1   force =    -0.41751915    0.00000028   -0.39006940
     atom    3 type  1   force =    -0.25475616    0.00000022    0.19885447
     atom    4 type  1   force =     0.25475184   -0.00000022   -0.19885172
     atom    5 type  1   force =     0.41748554   -0.00000028    0.39007791
     atom    6 type  2   force =    -0.24499506   -0.00000024    1.17986786
     atom    7 type  2   force =    -1.16275521   -0.00000053   -1.24592363
     atom    8 type  2   force =    -0.10225197   -0.00000053    0.73699417
     atom    9 type  2   force =     0.10227069    0.00000053   -0.73698650
     atom   10 type  2   force =     1.16279813    0.00000053    1.24591044
     atom   11 type  2   force =     0.24500789    0.00000024   -1.17986638
     atom   12 type  1   force =     0.00011907    0.00000007    0.00000543
     atom   13 type  1   force =    -0.41720540   -0.00000028   -0.39010377
     atom   14 type  1   force =    -0.25460316   -0.00000022    0.19901807
     atom   15 type  1   force =     0.25459848    0.00000022   -0.19901546
     atom   16 type  1   force =     0.41717210    0.00000028    0.39011229
     atom   17 type  2   force =    -0.24456540    0.00000024    1.17984210
     atom   18 type  2   force =    -1.16252100    0.00000053   -1.24608592
     atom   19 type  2   force =    -0.10212594    0.00000053    0.73708579
     atom   20 type  2   force =     0.10214461   -0.00000053   -0.73707789
     atom   21 type  2   force =     1.16256409   -0.00000053    1.24607274
     atom   22 type  2   force =     0.24457836   -0.00000024   -1.17984035
     The local contribution  to forces
     atom    1 type  1   force =     0.00020295   -0.00000095    0.00003065
     atom    2 type  1   force =     0.41085877   -0.00000079    0.37960781
     atom    3 type  1   force =     0.23897125    0.00000020   -0.20148454
     atom    4 type  1   force =    -0.23895565   -0.00000012    0.20148183
     atom    5 type  1   force =    -0.41081957    0.00000073   -0.37961149
     atom    6 type  2   force =     0.24489702   -0.00000109   -1.12230228
     atom    7 type  2   force =     1.12273018    0.00000159    1.23354618
     atom    8 type  2   force =     0.11416483    0.00000217   -0.76131744
     atom    9 type  2   force =    -0.11418271   -0.00000232    0.76130951
     atom   10 type  2   force =    -1.12277344   -0.00000142   -1.23353199
     atom   11 type  2   force =    -0.24490902    0.00000128    1.12230063
     atom   12 type  1   force =    -0.00011440    0.00000084   -0.00001560
     atom   13 type  1   force =     0.41053513   -0.00000192    0.37962767
     atom   14 type  1   force =     0.23881323   -0.00000087   -0.20165781
     atom   15 type  1   force =    -0.23879734    0.00000075    0.20165640
     atom   16 type  1   force =    -0.41049512    0.00000192   -0.37963387
     atom   17 type  2   force =     0.24446444    0.00000055   -1.12227759
     atom   18 type  2   force =     1.12250928    0.00000095    1.23370857
     atom   19 type  2   force =     0.11404417    0.00000237   -0.76141229
     atom   20 type  2   force =    -0.11405979   -0.00000226    0.76140299
     atom   21 type  2   force =    -1.12254945   -0.00000109   -1.23369656
     atom   22 type  2   force =    -0.24447809   -0.00000072    1.12227641
     The core correction contribution to forces
     atom    1 type  1   force =     0.00000197   -0.00000008    0.00000151
     atom    2 type  1   force =    -0.00097583   -0.00000007   -0.00050761
     atom    3 type  1   force =    -0.00191195    0.00000003   -0.00054914
     atom    4 type  1   force =     0.00191395   -0.00000003    0.00054931
     atom    5 type  1   force =     0.00097714    0.00000007    0.00050826
     atom    6 type  2   force =     0.00014553   -0.00000004    0.00613169
     atom    7 type  2   force =    -0.00427240    0.00000016   -0.00109235
     atom    8 type  2   force =     0.00143461    0.00000012   -0.00295915
     atom    9 type  2   force =    -0.00143951   -0.00000014    0.00295599
     atom   10 type  2   force =     0.00426750   -0.00000013    0.00109127
     atom   11 type  2   force =    -0.00015207    0.00000005   -0.00613291
     atom   12 type  1   force =     0.00000114    0.00000007   -0.00000147
     atom   13 type  1   force =    -0.00097900   -0.00000021   -0.00051067
     atom   14 type  1   force =    -0.00191298   -0.00000008   -0.00055197
     atom   15 type  1   force =     0.00191492    0.00000006    0.00055221
     atom   16 type  1   force =     0.00098046    0.00000021    0.00051106
     atom   17 type  2   force =     0.00014464    0.00000008    0.00613099
     atom   18 type  2   force =    -0.00427143    0.00000008   -0.00109140
     atom   19 type  2   force =     0.00143406    0.00000021   -0.00295939
     atom   20 type  2   force =    -0.00143907   -0.00000019    0.00295618
     atom   21 type  2   force =     0.00426691   -0.00000010    0.00109017
     atom   22 type  2   force =    -0.00015126   -0.00000009   -0.00613221
     The Hubbard contrib.    to forces
     atom    1 type  1   force =     0.00000000    0.00000000    0.00000000
     atom    2 type  1   force =     0.00000000    0.00000000    0.00000000
     atom    3 type  1   force =     0.00000000    0.00000000    0.00000000
     atom    4 type  1   force =     0.00000000    0.00000000    0.00000000
     atom    5 type  1   force =     0.00000000    0.00000000    0.00000000
     atom    6 type  2   force =     0.00000000    0.00000000    0.00000000
     atom    7 type  2   force =     0.00000000    0.00000000    0.00000000
     atom    8 type  2   force =     0.00000000    0.00000000    0.00000000
     atom    9 type  2   force =     0.00000000    0.00000000    0.00000000
     atom   10 type  2   force =     0.00000000    0.00000000    0.00000000
     atom   11 type  2   force =     0.00000000    0.00000000    0.00000000
     atom   12 type  1   force =     0.00000000    0.00000000    0.00000000
     atom   13 type  1   force =     0.00000000    0.00000000    0.00000000
     atom   14 type  1   force =     0.00000000    0.00000000    0.00000000
     atom   15 type  1   force =     0.00000000    0.00000000    0.00000000
     atom   16 type  1   force =     0.00000000    0.00000000    0.00000000
     atom   17 type  2   force =     0.00000000    0.00000000    0.00000000
     atom   18 type  2   force =     0.00000000    0.00000000    0.00000000
     atom   19 type  2   force =     0.00000000    0.00000000    0.00000000
     atom   20 type  2   force =     0.00000000    0.00000000    0.00000000
     atom   21 type  2   force =     0.00000000    0.00000000    0.00000000
     atom   22 type  2   force =     0.00000000    0.00000000    0.00000000
     The SCF correction term to forces
     atom    1 type  1   force =     0.00000000   -0.00000000    0.00000000
     atom    2 type  1   force =     0.00000008    0.00000000    0.00000009
     atom    3 type  1   force =     0.00000006    0.00000000   -0.00000006
     atom    4 type  1   force =    -0.00000006   -0.00000000    0.00000006
     atom    5 type  1   force =    -0.00000008    0.00000000   -0.00000009
     atom    6 type  2   force =     0.00000010   -0.00000000   -0.00000023
     atom    7 type  2   force =     0.00000027   -0.00000000    0.00000024
     atom    8 type  2   force =     0.00000000   -0.00000000   -0.00000014
     atom    9 type  2   force =    -0.00000000    0.00000000    0.00000014
     atom   10 type  2   force =    -0.00000027    0.00000000   -0.00000024
     atom   11 type  2   force =    -0.00000010    0.00000000    0.00000022
     atom   12 type  1   force =    -0.00000000   -0.00000000   -0.00000000
     atom   13 type  1   force =     0.00000008    0.00000000    0.00000009
     atom   14 type  1   force =     0.00000006   -0.00000000   -0.00000006
     atom   15 type  1   force =    -0.00000006    0.00000000    0.00000006
     atom   16 type  1   force =    -0.00000007    0.00000000   -0.00000009
     atom   17 type  2   force =     0.00000009   -0.00000000   -0.00000022
     atom   18 type  2   force =     0.00000026   -0.00000000    0.00000023
     atom   19 type  2   force =    -0.00000000    0.00000000   -0.00000013
     atom   20 type  2   force =    -0.00000000   -0.00000000    0.00000013
     atom   21 type  2   force =    -0.00000026    0.00000000   -0.00000023
     atom   22 type  2   force =    -0.00000008    0.00000000    0.00000022

     Total force =     0.003215     Total SCF correction =     0.000001


     Computing stress (Cartesian axis) and pressure

          total   stress  (Ry/bohr**3)                   (kbar)     P=   -4.15
  -0.00003223   0.00000002  -0.00000744         -4.74      0.00     -1.09
   0.00000002  -0.00002606  -0.00000001          0.00     -3.83     -0.00
  -0.00000744  -0.00000001  -0.00002634         -1.09     -0.00     -3.87

     kinetic stress (kbar)   1566.74      0.00      0.24
                                0.00   1590.19     -0.00
                                0.24     -0.00   1587.69

     local   stress (kbar)   -146.16     -0.00    278.57
                               -0.00   -381.42      0.00
                              278.57      0.00    183.04

     nonloc. stress (kbar)   1239.17     -0.00      2.61
                               -0.00   1224.09      0.00
                                2.61      0.00   1224.50

     hartree stress (kbar)    215.61      0.00   -125.20
                                0.00    386.28     -0.00
                             -125.20     -0.00    112.85

     exc-cor stress (kbar)   1970.08     -0.00      0.09
                               -0.00   1969.42     -0.00
                                0.09     -0.00   1969.46

     corecor stress (kbar)  -2748.67      0.00     -0.40
                                0.00  -2746.88     -0.00
                               -0.40     -0.00  -2746.95

     ewald   stress (kbar)  -2101.51      0.00   -157.01
                                0.00  -2045.51     -0.00
                             -157.01     -0.00  -2334.47

     hubbard stress (kbar)      0.00      0.00      0.00
                                0.00      0.00      0.00
                                0.00      0.00      0.00

     london  stress (kbar)      0.00      0.00      0.00
                                0.00      0.00      0.00
                                0.00      0.00      0.00

     DFT-D3  stress (kbar)      0.00      0.00      0.00
                                0.00      0.00      0.00
                                0.00      0.00      0.00

     XDM     stress (kbar)      0.00      0.00      0.00
                                0.00      0.00      0.00
                                0.00      0.00      0.00

     dft-nl  stress (kbar)      0.00      0.00      0.00
                                0.00      0.00      0.00
                                0.00      0.00      0.00

     TS-vdW  stress (kbar)      0.00      0.00      0.00
                                0.00      0.00      0.00
                                0.00      0.00      0.00



     Writing output data file aiida.save/
 
     init_run     :     22.69s CPU     23.09s WALL (       1 calls)
     electrons    :    854.79s CPU    867.94s WALL (       1 calls)
     forces       :      9.03s CPU      9.09s WALL (       1 calls)
     stress       :     68.93s CPU     69.00s WALL (       1 calls)

     Called by init_run:
     wfcinit      :     20.96s CPU     21.30s WALL (       1 calls)
     wfcinit:atom :      0.16s CPU      0.18s WALL (     196 calls)
     wfcinit:wfcr :     19.52s CPU     19.78s WALL (     196 calls)
     potinit      :      0.58s CPU      0.59s WALL (       1 calls)
     hinit0       :      1.01s CPU      1.02s WALL (       1 calls)

     Called by electrons:
     c_bands      :    763.89s CPU    774.47s WALL (      19 calls)
     sum_band     :     86.82s CPU     88.66s WALL (      19 calls)
     v_of_rho     :      1.73s CPU      1.85s WALL (      19 calls)
     v_h          :      0.12s CPU      0.13s WALL (      19 calls)
     v_xc         :      1.76s CPU      1.87s WALL (      21 calls)
     newd         :      0.93s CPU      1.48s WALL (      19 calls)
     PAW_pot      :      0.63s CPU      0.63s WALL (      19 calls)
     mix_rho      :      0.61s CPU      0.67s WALL (      19 calls)

     Called by c_bands:
     init_us_2    :     24.86s CPU     25.25s WALL (    8036 calls)
     cegterg      :    596.96s CPU    604.96s WALL (    3724 calls)

     Called by sum_band:
     sum_band:bec :      0.51s CPU      0.52s WALL (    3724 calls)
     addusdens    :      0.89s CPU      1.46s WALL (      19 calls)

     Called by *egterg:
     h_psi        :    409.32s CPU    415.75s WALL (   17166 calls)
     s_psi        :     58.29s CPU     58.45s WALL (   17166 calls)
     g_psi        :      2.78s CPU      2.80s WALL (   13246 calls)
     cdiaghg      :     66.67s CPU     67.82s WALL (   16774 calls)
     cegterg:over :     30.43s CPU     30.60s WALL (   13246 calls)
     cegterg:upda :     24.55s CPU     24.78s WALL (   13246 calls)
     cegterg:last :      9.91s CPU      9.98s WALL (    4118 calls)
     cdiaghg:chol :      4.23s CPU      4.27s WALL (   16774 calls)
     cdiaghg:inve :      0.87s CPU      0.89s WALL (   16774 calls)
     cdiaghg:para :      8.50s CPU      8.57s WALL (   33548 calls)

     Called by h_psi:
     h_psi:pot    :    407.17s CPU    413.60s WALL (   17166 calls)
     h_psi:calbec :     57.93s CPU     58.56s WALL (   17166 calls)
     vloc_psi     :    290.00s CPU    295.63s WALL (   17166 calls)
     add_vuspsi   :     59.08s CPU     59.28s WALL (   17166 calls)

     General routines
     calbec       :     82.26s CPU     83.09s WALL (   21870 calls)
     fft          :      1.46s CPU      1.57s WALL (     272 calls)
     ffts         :      0.21s CPU      0.23s WALL (     305 calls)
     fftw         :    309.58s CPU    315.48s WALL ( 1013970 calls)
     interpolate  :      0.15s CPU      0.16s WALL (      19 calls)
 
     Parallel routines
     fft_scatt_xy :     39.25s CPU     40.05s WALL ( 1014547 calls)
     fft_scatt_yz :    120.56s CPU    123.02s WALL ( 1014547 calls)

     PAW routines
     PAW_pot      :      0.63s CPU      0.63s WALL (      19 calls)
 
     PWSCF        :  16m19.88s CPU  16m53.73s WALL

 
   This run was terminated on:  14:29:15  22Feb2020            

=------------------------------------------------------------------------------=
   JOB DONE.
=------------------------------------------------------------------------------=
