begin
comment 22 atoms, species Mg10Si12
lattice     26.9204819907     0.0000000000    -9.7346338485
lattice      0.0000000000     7.7112858361     0.0000000000
lattice      0.0000000000     0.0000000000    13.0913459011
atom      0.0312916019     0.0000000000    12.9280576143   Mg  0.0 0.0   -7.39999944e-07 -1.49999989e-07 -9.49999929e-07
atom      2.1307173392     3.8556371928     3.9623137589   Mg  0.0 0.0   -2.23659983e-04  8.99999932e-08  5.71499957e-06
atom      4.2448599483     3.8556371928    10.5327085348   Mg  0.0 0.0   -3.17424976e-04  5.99999955e-08 -5.05849962e-05
atom      9.2779213111     0.0000000000    -2.6359002273   Mg  0.0 0.0    3.17174976e-04 -4.99999962e-08  5.01149962e-05
atom     11.3919694528     0.0000000000     3.9346290931   Mg  0.0 0.0    2.23909983e-04 -7.99999940e-08 -5.53999958e-06
atom      1.5852455476     0.0000000000     8.0368232686   Si  0.0 0.0    3.13549976e-05 -5.24999961e-07  2.12039984e-04
atom      5.2143499782     0.0000000000     1.3390005934   Si  0.0 0.0   -4.92049963e-05 -9.99999925e-08  5.19154961e-04
atom      5.6620251369     0.0000000000     6.0744382014   Si  0.0 0.0   -2.99039978e-04  3.14999976e-07 -2.99624977e-04
atom      7.8605557372     3.8556371928     1.8224388097   Si  0.0 0.0    2.98704978e-04 -3.39999974e-07  2.99844977e-04
atom      8.3082595224     3.8556371928     6.5578649670   Si  0.0 0.0    4.94099963e-05  7.99999940e-08 -5.18794961e-04
atom     11.9373152880     3.8556371928    -0.1399577081   Si  0.0 0.0   -3.05599977e-05  5.69999957e-07 -2.11984984e-04
atom     13.4915011081     3.8556371928     8.0601767484   Mg  0.0 0.0   -1.40999989e-06  1.49999989e-07  1.16499991e-06
atom     15.5905632892     0.0000000000    -0.9056472611   Mg  0.0 0.0   -2.17649984e-04 -1.64999988e-07  1.06699992e-05
atom     17.7049864378     0.0000000000     5.6649450375   Mg  0.0 0.0   -3.15599976e-04 -2.24999983e-07 -4.73549964e-05
atom     22.7382768124     3.8556371928    -7.5027648533   Mg  0.0 0.0    3.15609976e-04  2.19999983e-07  4.71449965e-05
atom     24.8526026309     3.8556371928    -0.9320380102   Mg  0.0 0.0    2.17669984e-04  1.59999988e-07 -1.06049992e-05
atom     15.0452203167     3.8556371928     3.1689939304   Si  0.0 0.0    3.36549975e-05  7.49999944e-08  2.14454984e-04
atom     18.6745623471     3.8556371928    -3.5283993476   Si  0.0 0.0   -4.71599965e-05  4.44999967e-07  5.15359961e-04
atom     19.1221688022     3.8556371928     1.2070124965   Si  0.0 0.0   -2.94874978e-04  6.09999954e-07 -3.00589977e-04
atom     21.3208911999     0.0000000000    -3.0447607460   Si  0.0 0.0    2.95989978e-04 -6.09999954e-07  3.00434977e-04
atom     21.7685234189     0.0000000000     1.6906367848   Si  0.0 0.0    4.74299964e-05 -4.09999969e-07 -5.15609961e-04
atom     25.3978167843     0.0000000000    -5.0067564931   Si  0.0 0.0   -3.35849975e-05 -1.19999991e-07 -2.14459984e-04
energy -2.365795609610700e+02
charge 0.0000
end
