
     Program PWSCF v.6.3 starts on 28Feb2020 at  6:43:57 

     This program is part of the open-source Quantum ESPRESSO suite
     for quantum simulation of materials; please cite
         "P. Giannozzi et al., J. Phys.:Condens. Matter 21 395502 (2009);
         "P. Giannozzi et al., J. Phys.:Condens. Matter 29 465901 (2017);
          URL http://www.quantum-espresso.org", 
     in publications or presentations arising from this work. More details at
     http://www.quantum-espresso.org/quote

 *** WARNING: using old-style file format, will disappear from next version ***

     Parallel version (MPI & OpenMP), running on     396 processor cores
     Number of MPI processes:               396
     Threads/MPI process:                     1

     MPI processes distributed on    11 nodes
     K-points division:     npool     =      36
     R & G space division:  proc/nbgrp/npool/nimage =      11
     Reading input from aiida.in
Warning: card &IONS ignored
Warning: card   !PRESS_CONV_THR = 0.05                 ! JUST FOR VOLUME RELAXATIONS ignored
Warning: card / ignored

     Current dimensions of program PWSCF are:
     Max number of different atomic species (ntypx) = 10
     Max number of k-points (npk) =  40000
     Max angular momentum in pseudopotentials (lmaxx) =  3
               file Al.pbe-n-kjpaw_psl.1.0.0.UPF: wavefunction(s)  3S 3P renormalized
               file Mg.pbe-n-kjpaw_psl.0.3.0.UPF: wavefunction(s)  3S renormalized

     Subspace diagonalization in iterative solution of the eigenvalue problem:
     one sub-group per band group will be used
     scalapack distributed-memory algorithm (size of sub-group:  2*  2 procs)

 
     Parallelization info
     --------------------
     sticks:   dense  smooth     PW     G-vecs:    dense   smooth      PW
     Min        2552    1021    268               415108   104993   14176
     Max        2553    1021    269               415113   104995   14179
     Sum       28079   11231   2949              4566219  1154937  155951
 


     bravais-lattice index     =            0
     lattice parameter (alat)  =      38.3331  a.u.
     unit-cell volume          =   33796.5840 (a.u.)^3
     number of atoms/cell      =          300
     number of atomic types    =            3
     number of electrons       =       901.00
     number of Kohn-Sham states=          541
     kinetic-energy cutoff     =      40.0000  Ry
     charge density cutoff     =     400.0000  Ry
     convergence threshold     =      1.0E-12
     mixing beta               =       0.4000
     number of iterations used =            8  local-TF  mixing
     Exchange-correlation      = PBE ( 1  4  3  4 0 0)

     celldm(1)=  38.333092  celldm(2)=   0.000000  celldm(3)=   0.000000
     celldm(4)=   0.000000  celldm(5)=   0.000000  celldm(6)=   0.000000

     crystal axes: (cart. coord. in units of alat)
               a(1) = (   1.000000   0.000000   0.000000 )  
               a(2) = (   0.000000   0.600000   0.000000 )  
               a(3) = (   0.000000   0.000000   1.000000 )  

     reciprocal axes: (cart. coord. in units 2 pi/alat)
               b(1) = (  1.000000  0.000000  0.000000 )  
               b(2) = (  0.000000  1.666667  0.000000 )  
               b(3) = (  0.000000  0.000000  1.000000 )  


     PseudoPot. # 1 for Al read from file:
     /users/aglensk/Dropbox/Albert/scripts/dotfiles/scripts/potentials/quantum_espresso/pseudo_SSSPefV1.1_alalloy/Al.pbe-n-kjpaw_psl.1.0.0.UPF
     MD5 check sum: cfc449ca30b5f3223ec38ddd88ac046d
     Pseudo is Projector augmented-wave + core cor, Zval =  3.0
     Generated using "atomic" code by A. Dal Corso v.5.1
     Shape of augmentation charge: PSQ
     Using radial grid of 1135 points,  6 beta functions with: 
                l(1) =   0
                l(2) =   0
                l(3) =   1
                l(4) =   1
                l(5) =   2
                l(6) =   2
     Q(r) pseudized with 0 coefficients 


     PseudoPot. # 2 for Mg read from file:
     /users/aglensk/Dropbox/Albert/scripts/dotfiles/scripts/potentials/quantum_espresso/pseudo_SSSPefV1.1_alalloy/Mg.pbe-n-kjpaw_psl.0.3.0.UPF
     MD5 check sum: 24ecedc7f3e3cbe212e682f4413594e4
     Pseudo is Projector augmented-wave + core cor, Zval =  2.0
     Generated using "atomic" code by A. Dal Corso v.5.0.99 svn rev. 10869
     Shape of augmentation charge: PSQ
     Using radial grid of 1129 points,  4 beta functions with: 
                l(1) =   0
                l(2) =   0
                l(3) =   1
                l(4) =   1
     Q(r) pseudized with 0 coefficients 


     PseudoPot. # 3 for Si read from file:
     /users/aglensk/Dropbox/Albert/scripts/dotfiles/scripts/potentials/quantum_espresso/pseudo_SSSPefV1.1_alalloy/Si.pbe-n-rrkjus_psl.1.0.0.UPF
     MD5 check sum: 0b0bb1205258b0d07b9f9672cf965d36
     Pseudo is Ultrasoft + core correction, Zval =  4.0
     Generated using "atomic" code by A. Dal Corso v.5.1
     Using radial grid of 1141 points,  6 beta functions with: 
                l(1) =   0
                l(2) =   0
                l(3) =   1
                l(4) =   1
                l(5) =   2
                l(6) =   2
     Q(r) pseudized with 0 coefficients 


     atomic species   valence    mass     pseudopotential
        Al             3.00    26.98154     Al( 1.00)
        Mg             2.00    24.30500     Mg( 1.00)
        Si             4.00    28.08500     Si( 1.00)

     No symmetry found


                                    s                        frac. trans.

      isym =  1     identity                                     

 cryst.   s( 1) = (     1          0          0      )
                  (     0          1          0      )
                  (     0          0          1      )

 cart.    s( 1) = (  1.0000000  0.0000000  0.0000000 )
                  (  0.0000000  1.0000000  0.0000000 )
                  (  0.0000000  0.0000000  1.0000000 )


   Cartesian axes

     site n.     atom                  positions (alat units)
         1           Al  tau(   1) = (   0.0988071   0.0996766   0.9982170  )
         2           Al  tau(   2) = (   0.9981572   0.5998838   0.9981194  )
         3           Al  tau(   3) = (   0.0986612   0.5999287   0.0986709  )
         4           Al  tau(   4) = (   0.9981416   0.0996683   0.0987687  )
         5           Al  tau(   5) = (   0.0987243   0.0997848   0.1988973  )
         6           Al  tau(   6) = (   0.9981723   0.5998746   0.1988465  )
         7           Al  tau(   7) = (   0.0984662   0.5998776   0.2986170  )
         8           Al  tau(   8) = (   0.9981742   0.0996751   0.2986702  )
         9           Al  tau(   9) = (   0.0983972   0.0998296   0.3983260  )
        10           Al  tau(  10) = (   0.9982136   0.5998924   0.3983248  )
        11           Al  tau(  11) = (   0.0984598   0.5998711   0.4979881  )
        12           Al  tau(  12) = (   0.9981767   0.0996685   0.4979373  )
        13           Al  tau(  13) = (   0.0987192   0.0997855   0.5975915  )
        14           Al  tau(  14) = (   0.9981464   0.5998722   0.5976182  )
        15           Al  tau(  15) = (   0.0986385   0.5999289   0.6973346  )
        16           Al  tau(  16) = (   0.9981353   0.0996642   0.6972573  )
        17           Al  tau(  17) = (   0.0988072   0.0996752   0.7974089  )
        18           Al  tau(  18) = (   0.9981419   0.5998854   0.7974972  )
        19           Al  tau(  19) = (   0.0987398   0.5998699   0.8981020  )
        20           Al  tau(  20) = (   0.9981402   0.0997400   0.8980974  )
        21           Al  tau(  21) = (   0.2986797   0.0998068   0.9981352  )
        22           Al  tau(  22) = (   0.1988172   0.5999275   0.9980475  )
        23           Al  tau(  23) = (   0.2974698   0.5999189   0.0976248  )
        24           Al  tau(  24) = (   0.1992797   0.0998322   0.0990041  )
        25           Al  tau(  25) = (   0.3001794   0.1003584   0.2001326  )
        26           Al  tau(  26) = (   0.1982841   0.5999294   0.1979879  )
        27           Al  tau(  27) = (   0.2960195   0.0005297   0.2958901  )
        28           Al  tau(  28) = (   0.1987752   0.0996147   0.2987260  )
        29           Al  tau(  29) = (   0.2955142   0.1027113   0.3986104  )
        30           Al  tau(  30) = (   0.1976431   0.5997976   0.3983173  )
        31           Al  tau(  31) = (   0.2962201   0.0007118   0.5007207  )
        32           Al  tau(  32) = (   0.1986945   0.0995927   0.4980230  )
        33           Al  tau(  33) = (   0.3003273   0.1004873   0.5962468  )
        34           Al  tau(  34) = (   0.1983620   0.5999405   0.5984052  )
        35           Al  tau(  35) = (   0.2972674   0.5999241   0.6985761  )
        36           Al  tau(  36) = (   0.1993003   0.0998446   0.6969619  )
        37           Al  tau(  37) = (   0.2987134   0.0998269   0.7975012  )
        38           Al  tau(  38) = (   0.1987653   0.5999306   0.7976417  )
        39           Al  tau(  39) = (   0.2985943   0.5998497   0.8981087  )
        40           Al  tau(  40) = (   0.1989673   0.0996615   0.8980964  )
        41           Al  tau(  41) = (   0.4978687   0.0998184   0.9975606  )
        42           Al  tau(  42) = (   0.3982896   0.5999341   0.9979535  )
        43           Al  tau(  43) = (   0.4982755   0.5999605   0.0980131  )
        44           Al  tau(  44) = (   0.3989192   0.0995010   0.0986057  )
        45           Al  tau(  45) = (   0.3946946   0.5996989   0.1955434  )
        46           Al  tau(  46) = (   0.3946568   0.5996458   0.6007367  )
        47           Al  tau(  47) = (   0.4982499   0.5998649   0.6980392  )
        48           Al  tau(  48) = (   0.3991157   0.0995522   0.6973194  )
        49           Al  tau(  49) = (   0.4979100   0.0998278   0.7982074  )
        50           Al  tau(  50) = (   0.3982723   0.5999609   0.7977508  )
        51           Al  tau(  51) = (   0.4978918   0.5998611   0.8981459  )
        52           Al  tau(  52) = (   0.3982059   0.0996664   0.8981205  )
        53           Al  tau(  53) = (   0.6976696   0.0999192   0.9976186  )
        54           Al  tau(  54) = (   0.5975168   0.5998450   0.9977237  )
        55           Al  tau(  55) = (   0.7000244   0.5998009   0.0961163  )
        56           Al  tau(  56) = (   0.5981822   0.0997861   0.0972386  )
        57           Al  tau(  57) = (   0.6968838   0.1013701   0.1996279  )
        58           Al  tau(  58) = (   0.6023833   0.5998120   0.1950014  )
        59           Al  tau(  59) = (   0.7013593   0.0005505   0.2947992  )
        60           Al  tau(  60) = (   0.7021820   0.1033820   0.3977000  )
        61           Al  tau(  61) = (   0.7011740   0.5999702   0.5005242  )
        62           Al  tau(  62) = (   0.6972770   0.1009019   0.5965641  )
        63           Al  tau(  63) = (   0.6030963   0.5995042   0.6015897  )
        64           Al  tau(  64) = (   0.7000391   0.5997476   0.6997036  )
        65           Al  tau(  65) = (   0.5987102   0.0996503   0.6991543  )
        66           Al  tau(  66) = (   0.6979130   0.0999082   0.7982660  )
        67           Al  tau(  67) = (   0.5975143   0.5997673   0.7980212  )
        68           Al  tau(  68) = (   0.6973835   0.5997783   0.8980992  )
        69           Al  tau(  69) = (   0.5976397   0.0996769   0.8981541  )
        70           Al  tau(  70) = (   0.8980438   0.0996864   0.9982072  )
        71           Al  tau(  71) = (   0.7979483   0.5999012   0.9977155  )
        72           Al  tau(  72) = (   0.8983620   0.5999235   0.0985146  )
        73           Al  tau(  73) = (   0.7973975   0.1000033   0.0988940  )
        74           Al  tau(  74) = (   0.8982822   0.0998401   0.1988322  )
        75           Al  tau(  75) = (   0.7992309   0.5998644   0.1971091  )
        76           Al  tau(  76) = (   0.8985957   0.5998620   0.2986159  )
        77           Al  tau(  77) = (   0.7986143   0.0998757   0.2983731  )
        78           Al  tau(  78) = (   0.8986315   0.0998263   0.3983428  )
        79           Al  tau(  79) = (   0.7991564   0.5997089   0.3981343  )
        80           Al  tau(  80) = (   0.8985127   0.5998646   0.4979828  )
        81           Al  tau(  81) = (   0.7981742   0.0995679   0.4979899  )
        82           Al  tau(  82) = (   0.8982260   0.0997915   0.5976189  )
        83           Al  tau(  83) = (   0.7984541   0.5998664   0.5985720  )
        84           Al  tau(  84) = (   0.8982179   0.5999169   0.6973602  )
        85           Al  tau(  85) = (   0.7974958   0.0999342   0.6971429  )
        86           Al  tau(  86) = (   0.8980543   0.0996806   0.7974299  )
        87           Al  tau(  87) = (   0.7979418   0.5998771   0.7978798  )
        88           Al  tau(  88) = (   0.8981299   0.5998705   0.8980828  )
        89           Al  tau(  89) = (   0.7975838   0.0996757   0.8981345  )
        90           Mg  tau(  90) = (   0.4087391   0.0954276   0.3050751  )
        91           Mg  tau(  91) = (   0.5891604   0.0964553   0.3047540  )
        92           Si  tau(  92) = (   0.4990812   0.1031934   0.1905059  )
        93           Si  tau(  93) = (   0.4987522   0.5972576   0.2693641  )
        94           Si  tau(  94) = (   0.3730788   0.5944413   0.3983942  )
        95           Mg  tau(  95) = (   0.4990937   0.0220328   0.3988706  )
        96           Mg  tau(  96) = (   0.4087619   0.0957024   0.4912454  )
        97           Mg  tau(  97) = (   0.5899081   0.0959462   0.4923021  )
        98           Si  tau(  98) = (   0.6267431   0.5952660   0.3977230  )
        99           Si  tau(  99) = (   0.4997440   0.5980175   0.5284554  )
       100           Si  tau( 100) = (   0.4997415   0.1031924   0.6062195  )
       101           Al  tau( 101) = (   0.0987195   0.2998677   0.9981051  )
       102           Al  tau( 102) = (   0.9981345   0.1996641   0.9982075  )
       103           Al  tau( 103) = (   0.0987169   0.1996951   0.0987105  )
       104           Al  tau( 104) = (   0.9981465   0.2998700   0.0987164  )
       105           Al  tau( 105) = (   0.0987690   0.2998086   0.1989083  )
       106           Al  tau( 106) = (   0.9981387   0.1997858   0.1989304  )
       107           Al  tau( 107) = (   0.0986440   0.1997399   0.2985964  )
       108           Al  tau( 108) = (   0.9981438   0.2998954   0.2987002  )
       109           Al  tau( 109) = (   0.0985356   0.2998730   0.3983230  )
       110           Al  tau( 110) = (   0.9981560   0.1997878   0.3983227  )
       111           Al  tau( 111) = (   0.0986595   0.1997412   0.4980109  )
       112           Al  tau( 112) = (   0.9981399   0.2998956   0.4979012  )
       113           Al  tau( 113) = (   0.0987673   0.2998058   0.5975553  )
       114           Al  tau( 114) = (   0.9981361   0.1997754   0.5975398  )
       115           Al  tau( 115) = (   0.0986906   0.1997047   0.6973208  )
       116           Al  tau( 116) = (   0.9981375   0.2998713   0.6973018  )
       117           Al  tau( 117) = (   0.0987180   0.2998674   0.7975208  )
       118           Al  tau( 118) = (   0.9981304   0.1996670   0.7974207  )
       119           Al  tau( 119) = (   0.0988040   0.1996497   0.8980966  )
       120           Al  tau( 120) = (   0.9981470   0.2998778   0.8980833  )
       121           Al  tau( 121) = (   0.2986671   0.2998593   0.9981679  )
       122           Al  tau( 122) = (   0.1989052   0.1997059   0.9981408  )
       123           Al  tau( 123) = (   0.2989723   0.1995190   0.0988207  )
       124           Al  tau( 124) = (   0.1987672   0.2998755   0.0985671  )
       125           Al  tau( 125) = (   0.2987530   0.2996035   0.1988759  )
       126           Al  tau( 126) = (   0.1990781   0.1994993   0.1990049  )
       127           Al  tau( 127) = (   0.2995624   0.1990241   0.2981767  )
       128           Al  tau( 128) = (   0.1991279   0.2996124   0.2985306  )
       129           Al  tau( 129) = (   0.2972003   0.3000686   0.3983335  )
       130           Al  tau( 130) = (   0.1979526   0.2006493   0.3983474  )
       131           Al  tau( 131) = (   0.2997609   0.1989747   0.4986258  )
       132           Al  tau( 132) = (   0.1991996   0.2995531   0.4980691  )
       133           Al  tau( 133) = (   0.2988015   0.2995539   0.5975936  )
       134           Al  tau( 134) = (   0.1990937   0.1995139   0.5974629  )
       135           Al  tau( 135) = (   0.2990280   0.1995255   0.6971399  )
       136           Al  tau( 136) = (   0.1987681   0.2998831   0.6974465  )
       137           Al  tau( 137) = (   0.2986713   0.2998558   0.7974722  )
       138           Al  tau( 138) = (   0.1989151   0.1996936   0.7974833  )
       139           Al  tau( 139) = (   0.2986501   0.1998015   0.8981069  )
       140           Al  tau( 140) = (   0.1988924   0.2998689   0.8980945  )
       141           Al  tau( 141) = (   0.4978845   0.2999697   0.9976607  )
       142           Al  tau( 142) = (   0.3980986   0.1997115   0.9980492  )
       143           Al  tau( 143) = (   0.4979419   0.2013631   0.0969549  )
       144           Al  tau( 144) = (   0.3980102   0.2995002   0.0990458  )
       145           Al  tau( 145) = (   0.4979148   0.3000711   0.1972982  )
       146           Al  tau( 146) = (   0.3992595   0.1980358   0.1993390  )
       147           Al  tau( 147) = (   0.4976215   0.2071438   0.2985455  )
       148           Al  tau( 148) = (   0.3969042   0.3015924   0.2977146  )
       149           Al  tau( 149) = (   0.4978469   0.3032969   0.3983938  )
       150           Al  tau( 150) = (   0.3981581   0.2050202   0.3985506  )
       151           Al  tau( 151) = (   0.4988428   0.2066410   0.4981498  )
       152           Al  tau( 152) = (   0.3972706   0.3013545   0.4989791  )
       153           Al  tau( 153) = (   0.4979314   0.3000084   0.5990751  )
       154           Al  tau( 154) = (   0.3997691   0.1978056   0.5967868  )
       155           Al  tau( 155) = (   0.4979805   0.2014967   0.6992253  )
       156           Al  tau( 156) = (   0.3979735   0.2994770   0.6969384  )
       157           Al  tau( 157) = (   0.4978669   0.3000294   0.7980894  )
       158           Al  tau( 158) = (   0.3980638   0.1996998   0.7976235  )
       159           Al  tau( 159) = (   0.4978909   0.1998202   0.8981225  )
       160           Al  tau( 160) = (   0.3983389   0.2998515   0.8981028  )
       161           Al  tau( 161) = (   0.6973052   0.2998426   0.9981887  )
       162           Al  tau( 162) = (   0.5976855   0.1999005   0.9978910  )
       163           Al  tau( 163) = (   0.6971438   0.1997223   0.0987287  )
       164           Al  tau( 164) = (   0.5977922   0.2995205   0.0990209  )
       165           Al  tau( 165) = (   0.6973843   0.2998196   0.1987888  )
       166           Al  tau( 166) = (   0.5971104   0.1985790   0.1992927  )
       167           Al  tau( 167) = (   0.6965631   0.1994721   0.2979443  )
       168           Al  tau( 168) = (   0.5987420   0.3015687   0.2976570  )
       169           Al  tau( 169) = (   0.6986855   0.3000840   0.3982824  )
       170           Al  tau( 170) = (   0.5977897   0.2053614   0.3984337  )
       171           Al  tau( 171) = (   0.6970609   0.1996019   0.4984945  )
       172           Al  tau( 172) = (   0.5989879   0.3017735   0.4989458  )
       173           Al  tau( 173) = (   0.6974691   0.2998966   0.5977066  )
       174           Al  tau( 174) = (   0.5976640   0.1987745   0.5975980  )
       175           Al  tau( 175) = (   0.6972819   0.1997080   0.6972718  )
       176           Al  tau( 176) = (   0.5978055   0.2996119   0.6970648  )
       177           Al  tau( 177) = (   0.6973021   0.2998239   0.7974356  )
       178           Al  tau( 178) = (   0.5977063   0.1999606   0.7978552  )
       179           Al  tau( 179) = (   0.6973269   0.1999084   0.8981195  )
       180           Al  tau( 180) = (   0.5975178   0.2999065   0.8981105  )
       181           Al  tau( 181) = (   0.8981437   0.2998663   0.9980765  )
       182           Al  tau( 182) = (   0.7975167   0.1997156   0.9981537  )
       183           Al  tau( 183) = (   0.8981088   0.1997022   0.0987162  )
       184           Al  tau( 184) = (   0.7976949   0.2999011   0.0985380  )
       185           Al  tau( 185) = (   0.8980604   0.2998131   0.1989142  )
       186           Al  tau( 186) = (   0.7975559   0.1996861   0.1990223  )
       187           Al  tau( 187) = (   0.8982528   0.1998079   0.2985799  )
       188           Al  tau( 188) = (   0.7972886   0.2996168   0.2985177  )
       189           Al  tau( 189) = (   0.8984244   0.2999030   0.3983206  )
       190           Al  tau( 190) = (   0.7991395   0.2012089   0.3983176  )
       191           Al  tau( 191) = (   0.8982280   0.1997498   0.4980382  )
       192           Al  tau( 192) = (   0.7974107   0.2997240   0.4980953  )
       193           Al  tau( 193) = (   0.8980731   0.2998193   0.5975577  )
       194           Al  tau( 194) = (   0.7976686   0.1996841   0.5974938  )
       195           Al  tau( 195) = (   0.8981354   0.1997360   0.6973363  )
       196           Al  tau( 196) = (   0.7976968   0.2999096   0.6974913  )
       197           Al  tau( 197) = (   0.8981459   0.2998795   0.7975347  )
       198           Al  tau( 198) = (   0.7975383   0.1997341   0.7974710  )
       199           Al  tau( 199) = (   0.8980115   0.1996306   0.8980863  )
       200           Al  tau( 200) = (   0.7975593   0.2998669   0.8980942  )
       201           Al  tau( 201) = (   0.0987876   0.4999306   0.9981765  )
       202           Al  tau( 202) = (   0.9981399   0.3997496   0.9982378  )
       203           Al  tau( 203) = (   0.0986768   0.3996482   0.0987347  )
       204           Al  tau( 204) = (   0.9981311   0.4999725   0.0987803  )
       205           Al  tau( 205) = (   0.0986386   0.4998077   0.1988662  )
       206           Al  tau( 206) = (   0.9981434   0.3996477   0.1989170  )
       207           Al  tau( 207) = (   0.0986657   0.3996680   0.2985686  )
       208           Al  tau( 208) = (   0.9981629   0.4999050   0.2987059  )
       209           Al  tau( 209) = (   0.0984484   0.4997227   0.3983223  )
       210           Al  tau( 210) = (   0.9981562   0.3996640   0.3983205  )
       211           Al  tau( 211) = (   0.0986797   0.3996762   0.4980369  )
       212           Al  tau( 212) = (   0.9981525   0.4999101   0.4979045  )
       213           Al  tau( 213) = (   0.0986422   0.4998107   0.5976020  )
       214           Al  tau( 214) = (   0.9981344   0.3996581   0.5975565  )
       215           Al  tau( 215) = (   0.0986489   0.3996468   0.6973007  )
       216           Al  tau( 216) = (   0.9981305   0.4999638   0.6972544  )
       217           Al  tau( 217) = (   0.0987830   0.4999314   0.7974559  )
       218           Al  tau( 218) = (   0.9981354   0.3997397   0.7973891  )
       219           Al  tau( 219) = (   0.0988372   0.3997258   0.8980909  )
       220           Al  tau( 220) = (   0.9981279   0.4997918   0.8980943  )
       221           Al  tau( 221) = (   0.2985855   0.4997899   0.9980142  )
       222           Al  tau( 222) = (   0.1989429   0.3996789   0.9980589  )
       223           Al  tau( 223) = (   0.2987791   0.3998459   0.0987024  )
       224           Al  tau( 224) = (   0.1987338   0.4996599   0.0985763  )
       225           Al  tau( 225) = (   0.2989456   0.4993801   0.1992988  )
       226           Al  tau( 226) = (   0.1989145   0.3997424   0.1990980  )
       227           Al  tau( 227) = (   0.2987009   0.4001547   0.2981114  )
       228           Al  tau( 228) = (   0.1989929   0.5002722   0.2985740  )
       229           Al  tau( 229) = (   0.2943926   0.4953470   0.3983300  )
       230           Al  tau( 230) = (   0.1976387   0.3987983   0.3983407  )
       231           Al  tau( 231) = (   0.2987599   0.4000981   0.4984937  )
       232           Al  tau( 232) = (   0.1990679   0.5003639   0.4980255  )
       233           Al  tau( 233) = (   0.2988119   0.4992929   0.5971501  )
       234           Al  tau( 234) = (   0.1988919   0.3997135   0.5973562  )
       235           Al  tau( 235) = (   0.2987524   0.3998424   0.6973201  )
       236           Al  tau( 236) = (   0.1987085   0.4996333   0.6974321  )
       237           Al  tau( 237) = (   0.2985933   0.4997717   0.7976476  )
       238           Al  tau( 238) = (   0.1989535   0.3996883   0.7975734  )
       239           Al  tau( 239) = (   0.2986615   0.3996346   0.8980984  )
       240           Al  tau( 240) = (   0.1989530   0.4999384   0.8980994  )
       241           Al  tau( 241) = (   0.4978367   0.4996349   0.9976420  )
       242           Al  tau( 242) = (   0.3981123   0.3996393   0.9980398  )
       243           Al  tau( 243) = (   0.4978528   0.3982883   0.0969369  )
       244           Al  tau( 244) = (   0.3981429   0.5001623   0.0984081  )
       245           Al  tau( 245) = (   0.4980761   0.4959695   0.1950122  )
       246           Al  tau( 246) = (   0.3974912   0.3995688   0.1987724  )
       247           Al  tau( 247) = (   0.4979157   0.3969936   0.2948635  )
       248           Al  tau( 248) = (   0.4007389   0.5020233   0.3001621  )
       249           Al  tau( 249) = (   0.4975891   0.4845804   0.3982269  )
       250           Al  tau( 250) = (   0.3944975   0.3969616   0.3983412  )
       251           Al  tau( 251) = (   0.4979317   0.3970009   0.5017079  )
       252           Al  tau( 252) = (   0.4008676   0.5020989   0.4965101  )
       253           Al  tau( 253) = (   0.4979863   0.4961278   0.6012500  )
       254           Al  tau( 254) = (   0.3974666   0.3995285   0.5977093  )
       255           Al  tau( 255) = (   0.4978682   0.3982312   0.6990714  )
       256           Al  tau( 256) = (   0.3981270   0.5000836   0.6976512  )
       257           Al  tau( 257) = (   0.4978317   0.4995679   0.7980963  )
       258           Al  tau( 258) = (   0.3980974   0.3996218   0.7976024  )
       259           Al  tau( 259) = (   0.4978970   0.3997045   0.8981176  )
       260           Al  tau( 260) = (   0.3982324   0.4999180   0.8981099  )
       261           Al  tau( 261) = (   0.6973544   0.4997180   0.9979233  )
       262           Al  tau( 262) = (   0.5977124   0.3995568   0.9979532  )
       263           Al  tau( 263) = (   0.6971724   0.3997453   0.0986116  )
       264           Al  tau( 264) = (   0.5976664   0.4998229   0.0980231  )
       265           Al  tau( 265) = (   0.6977679   0.4983401   0.1989883  )
       266           Al  tau( 266) = (   0.5982455   0.3996486   0.1987932  )
       267           Al  tau( 267) = (   0.6972771   0.3999050   0.2981048  )
       268           Al  tau( 268) = (   0.5952313   0.5027708   0.3000284  )
       269           Al  tau( 269) = (   0.7018473   0.4948987   0.3982243  )
       270           Al  tau( 270) = (   0.6011141   0.3972473   0.3983095  )
       271           Al  tau( 271) = (   0.6973004   0.3999164   0.4985469  )
       272           Al  tau( 272) = (   0.5948254   0.5028281   0.4962222  )
       273           Al  tau( 273) = (   0.6978418   0.4984778   0.5971722  )
       274           Al  tau( 274) = (   0.5983057   0.3997439   0.5975998  )
       275           Al  tau( 275) = (   0.6971790   0.3998003   0.6973766  )
       276           Al  tau( 276) = (   0.5976561   0.4997946   0.6979759  )
       277           Al  tau( 277) = (   0.6973425   0.4997443   0.7976944  )
       278           Al  tau( 278) = (   0.5977348   0.3995725   0.7976966  )
       279           Al  tau( 279) = (   0.6973715   0.3995992   0.8980912  )
       280           Al  tau( 280) = (   0.5976112   0.4998505   0.8981254  )
       281           Al  tau( 281) = (   0.8980495   0.4999225   0.9981720  )
       282           Al  tau( 282) = (   0.7974606   0.3996911   0.9980735  )
       283           Al  tau( 283) = (   0.8981683   0.3996372   0.0987364  )
       284           Al  tau( 284) = (   0.7978625   0.4994590   0.0984926  )
       285           Al  tau( 285) = (   0.8982647   0.4997423   0.1988603  )
       286           Al  tau( 286) = (   0.7976854   0.3996343   0.1991238  )
       287           Al  tau( 287) = (   0.8982065   0.3996193   0.2985545  )
       288           Al  tau( 288) = (   0.7978965   0.5000566   0.2986002  )
       289           Al  tau( 289) = (   0.8985151   0.4997060   0.3983412  )
       290           Al  tau( 290) = (   0.7991231   0.3984780   0.3983490  )
       291           Al  tau( 291) = (   0.8982009   0.3996669   0.4980660  )
       292           Al  tau( 292) = (   0.7977963   0.5001625   0.4980421  )
       293           Al  tau( 293) = (   0.8982231   0.4997867   0.5976296  )
       294           Al  tau( 294) = (   0.7977335   0.3996259   0.5973873  )
       295           Al  tau( 295) = (   0.8981760   0.3996282   0.6973102  )
       296           Al  tau( 296) = (   0.7978681   0.4995241   0.6974848  )
       297           Al  tau( 297) = (   0.8980674   0.4999176   0.7974484  )
       298           Al  tau( 298) = (   0.7974539   0.3997030   0.7975459  )
       299           Al  tau( 299) = (   0.8980063   0.3997455   0.8980915  )
       300           Al  tau( 300) = (   0.7974539   0.4999237   0.8980998  )

   Crystallographic axes

     site n.     atom                  positions (cryst. coord.)
         1           Al  tau(   1) = (  0.0988071  0.1661276  0.9982170  )
         2           Al  tau(   2) = (  0.9981572  0.9998063  0.9981194  )
         3           Al  tau(   3) = (  0.0986612  0.9998812  0.0986709  )
         4           Al  tau(   4) = (  0.9981416  0.1661138  0.0987687  )
         5           Al  tau(   5) = (  0.0987243  0.1663080  0.1988973  )
         6           Al  tau(   6) = (  0.9981723  0.9997910  0.1988465  )
         7           Al  tau(   7) = (  0.0984662  0.9997960  0.2986170  )
         8           Al  tau(   8) = (  0.9981742  0.1661252  0.2986702  )
         9           Al  tau(   9) = (  0.0983972  0.1663827  0.3983260  )
        10           Al  tau(  10) = (  0.9982136  0.9998207  0.3983248  )
        11           Al  tau(  11) = (  0.0984598  0.9997852  0.4979881  )
        12           Al  tau(  12) = (  0.9981767  0.1661142  0.4979373  )
        13           Al  tau(  13) = (  0.0987192  0.1663092  0.5975915  )
        14           Al  tau(  14) = (  0.9981464  0.9997870  0.5976182  )
        15           Al  tau(  15) = (  0.0986385  0.9998814  0.6973346  )
        16           Al  tau(  16) = (  0.9981353  0.1661070  0.6972573  )
        17           Al  tau(  17) = (  0.0988072  0.1661254  0.7974089  )
        18           Al  tau(  18) = (  0.9981419  0.9998090  0.7974972  )
        19           Al  tau(  19) = (  0.0987398  0.9997831  0.8981020  )
        20           Al  tau(  20) = (  0.9981402  0.1662334  0.8980974  )
        21           Al  tau(  21) = (  0.2986797  0.1663447  0.9981352  )
        22           Al  tau(  22) = (  0.1988172  0.9998792  0.9980475  )
        23           Al  tau(  23) = (  0.2974698  0.9998648  0.0976248  )
        24           Al  tau(  24) = (  0.1992797  0.1663870  0.0990041  )
        25           Al  tau(  25) = (  0.3001794  0.1672641  0.2001326  )
        26           Al  tau(  26) = (  0.1982841  0.9998823  0.1979879  )
        27           Al  tau(  27) = (  0.2960195  0.0008828  0.2958901  )
        28           Al  tau(  28) = (  0.1987752  0.1660245  0.2987260  )
        29           Al  tau(  29) = (  0.2955142  0.1711855  0.3986104  )
        30           Al  tau(  30) = (  0.1976431  0.9996627  0.3983173  )
        31           Al  tau(  31) = (  0.2962201  0.0011863  0.5007207  )
        32           Al  tau(  32) = (  0.1986945  0.1659878  0.4980230  )
        33           Al  tau(  33) = (  0.3003273  0.1674788  0.5962468  )
        34           Al  tau(  34) = (  0.1983620  0.9999008  0.5984052  )
        35           Al  tau(  35) = (  0.2972674  0.9998734  0.6985761  )
        36           Al  tau(  36) = (  0.1993003  0.1664077  0.6969619  )
        37           Al  tau(  37) = (  0.2987134  0.1663781  0.7975012  )
        38           Al  tau(  38) = (  0.1987653  0.9998843  0.7976417  )
        39           Al  tau(  39) = (  0.2985943  0.9997494  0.8981087  )
        40           Al  tau(  40) = (  0.1989673  0.1661025  0.8980964  )
        41           Al  tau(  41) = (  0.4978687  0.1663640  0.9975606  )
        42           Al  tau(  42) = (  0.3982896  0.9998901  0.9979535  )
        43           Al  tau(  43) = (  0.4982755  0.9999342  0.0980131  )
        44           Al  tau(  44) = (  0.3989192  0.1658350  0.0986057  )
        45           Al  tau(  45) = (  0.3946946  0.9994982  0.1955434  )
        46           Al  tau(  46) = (  0.3946568  0.9994097  0.6007367  )
        47           Al  tau(  47) = (  0.4982499  0.9997749  0.6980392  )
        48           Al  tau(  48) = (  0.3991157  0.1659203  0.6973194  )
        49           Al  tau(  49) = (  0.4979100  0.1663797  0.7982074  )
        50           Al  tau(  50) = (  0.3982723  0.9999349  0.7977508  )
        51           Al  tau(  51) = (  0.4978918  0.9997684  0.8981459  )
        52           Al  tau(  52) = (  0.3982059  0.1661107  0.8981205  )
        53           Al  tau(  53) = (  0.6976696  0.1665320  0.9976186  )
        54           Al  tau(  54) = (  0.5975168  0.9997417  0.9977237  )
        55           Al  tau(  55) = (  0.7000244  0.9996682  0.0961163  )
        56           Al  tau(  56) = (  0.5981822  0.1663102  0.0972386  )
        57           Al  tau(  57) = (  0.6968838  0.1689502  0.1996279  )
        58           Al  tau(  58) = (  0.6023833  0.9996867  0.1950014  )
        59           Al  tau(  59) = (  0.7013593  0.0009175  0.2947992  )
        60           Al  tau(  60) = (  0.7021820  0.1723034  0.3977000  )
        61           Al  tau(  61) = (  0.7011740  0.9999503  0.5005242  )
        62           Al  tau(  62) = (  0.6972770  0.1681698  0.5965641  )
        63           Al  tau(  63) = (  0.6030963  0.9991736  0.6015897  )
        64           Al  tau(  64) = (  0.7000391  0.9995794  0.6997036  )
        65           Al  tau(  65) = (  0.5987102  0.1660839  0.6991543  )
        66           Al  tau(  66) = (  0.6979130  0.1665137  0.7982660  )
        67           Al  tau(  67) = (  0.5975143  0.9996122  0.7980212  )
        68           Al  tau(  68) = (  0.6973835  0.9996305  0.8980992  )
        69           Al  tau(  69) = (  0.5976397  0.1661282  0.8981541  )
        70           Al  tau(  70) = (  0.8980438  0.1661440  0.9982072  )
        71           Al  tau(  71) = (  0.7979483  0.9998353  0.9977155  )
        72           Al  tau(  72) = (  0.8983620  0.9998725  0.0985146  )
        73           Al  tau(  73) = (  0.7973975  0.1666721  0.0988940  )
        74           Al  tau(  74) = (  0.8982822  0.1664001  0.1988322  )
        75           Al  tau(  75) = (  0.7992309  0.9997741  0.1971091  )
        76           Al  tau(  76) = (  0.8985957  0.9997700  0.2986159  )
        77           Al  tau(  77) = (  0.7986143  0.1664594  0.2983731  )
        78           Al  tau(  78) = (  0.8986315  0.1663771  0.3983428  )
        79           Al  tau(  79) = (  0.7991564  0.9995148  0.3981343  )
        80           Al  tau(  80) = (  0.8985127  0.9997744  0.4979828  )
        81           Al  tau(  81) = (  0.7981742  0.1659465  0.4979899  )
        82           Al  tau(  82) = (  0.8982260  0.1663191  0.5976189  )
        83           Al  tau(  83) = (  0.7984541  0.9997773  0.5985720  )
        84           Al  tau(  84) = (  0.8982179  0.9998614  0.6973602  )
        85           Al  tau(  85) = (  0.7974958  0.1665569  0.6971429  )
        86           Al  tau(  86) = (  0.8980543  0.1661343  0.7974299  )
        87           Al  tau(  87) = (  0.7979418  0.9997952  0.7978798  )
        88           Al  tau(  88) = (  0.8981299  0.9997842  0.8980828  )
        89           Al  tau(  89) = (  0.7975838  0.1661261  0.8981345  )
        90           Mg  tau(  90) = (  0.4087391  0.1590460  0.3050751  )
        91           Mg  tau(  91) = (  0.5891604  0.1607588  0.3047540  )
        92           Si  tau(  92) = (  0.4990812  0.1719890  0.1905059  )
        93           Si  tau(  93) = (  0.4987522  0.9954293  0.2693641  )
        94           Si  tau(  94) = (  0.3730788  0.9907355  0.3983942  )
        95           Mg  tau(  95) = (  0.4990937  0.0367214  0.3988706  )
        96           Mg  tau(  96) = (  0.4087619  0.1595040  0.4912454  )
        97           Mg  tau(  97) = (  0.5899081  0.1599104  0.4923021  )
        98           Si  tau(  98) = (  0.6267431  0.9921100  0.3977230  )
        99           Si  tau(  99) = (  0.4997440  0.9966958  0.5284554  )
       100           Si  tau( 100) = (  0.4997415  0.1719873  0.6062195  )
       101           Al  tau( 101) = (  0.0987195  0.4997795  0.9981051  )
       102           Al  tau( 102) = (  0.9981345  0.3327736  0.9982075  )
       103           Al  tau( 103) = (  0.0987169  0.3328252  0.0987105  )
       104           Al  tau( 104) = (  0.9981465  0.4997834  0.0987164  )
       105           Al  tau( 105) = (  0.0987690  0.4996810  0.1989083  )
       106           Al  tau( 106) = (  0.9981387  0.3329764  0.1989304  )
       107           Al  tau( 107) = (  0.0986440  0.3328999  0.2985964  )
       108           Al  tau( 108) = (  0.9981438  0.4998256  0.2987002  )
       109           Al  tau( 109) = (  0.0985356  0.4997884  0.3983230  )
       110           Al  tau( 110) = (  0.9981560  0.3329796  0.3983227  )
       111           Al  tau( 111) = (  0.0986595  0.3329020  0.4980109  )
       112           Al  tau( 112) = (  0.9981399  0.4998260  0.4979012  )
       113           Al  tau( 113) = (  0.0987673  0.4996763  0.5975553  )
       114           Al  tau( 114) = (  0.9981361  0.3329591  0.5975398  )
       115           Al  tau( 115) = (  0.0986906  0.3328411  0.6973208  )
       116           Al  tau( 116) = (  0.9981375  0.4997856  0.6973018  )
       117           Al  tau( 117) = (  0.0987180  0.4997790  0.7975208  )
       118           Al  tau( 118) = (  0.9981304  0.3327784  0.7974207  )
       119           Al  tau( 119) = (  0.0988040  0.3327495  0.8980966  )
       120           Al  tau( 120) = (  0.9981470  0.4997963  0.8980833  )
       121           Al  tau( 121) = (  0.2986671  0.4997655  0.9981679  )
       122           Al  tau( 122) = (  0.1989052  0.3328432  0.9981408  )
       123           Al  tau( 123) = (  0.2989723  0.3325317  0.0988207  )
       124           Al  tau( 124) = (  0.1987672  0.4997925  0.0985671  )
       125           Al  tau( 125) = (  0.2987530  0.4993392  0.1988759  )
       126           Al  tau( 126) = (  0.1990781  0.3324989  0.1990049  )
       127           Al  tau( 127) = (  0.2995624  0.3317069  0.2981767  )
       128           Al  tau( 128) = (  0.1991279  0.4993540  0.2985306  )
       129           Al  tau( 129) = (  0.2972003  0.5001143  0.3983335  )
       130           Al  tau( 130) = (  0.1979526  0.3344155  0.3983474  )
       131           Al  tau( 131) = (  0.2997609  0.3316246  0.4986258  )
       132           Al  tau( 132) = (  0.1991996  0.4992551  0.4980691  )
       133           Al  tau( 133) = (  0.2988015  0.4992565  0.5975936  )
       134           Al  tau( 134) = (  0.1990937  0.3325232  0.5974629  )
       135           Al  tau( 135) = (  0.2990280  0.3325425  0.6971399  )
       136           Al  tau( 136) = (  0.1987681  0.4998051  0.6974465  )
       137           Al  tau( 137) = (  0.2986713  0.4997597  0.7974722  )
       138           Al  tau( 138) = (  0.1989151  0.3328227  0.7974833  )
       139           Al  tau( 139) = (  0.2986501  0.3330025  0.8981069  )
       140           Al  tau( 140) = (  0.1988924  0.4997815  0.8980945  )
       141           Al  tau( 141) = (  0.4978845  0.4999495  0.9976607  )
       142           Al  tau( 142) = (  0.3980986  0.3328526  0.9980492  )
       143           Al  tau( 143) = (  0.4979419  0.3356052  0.0969549  )
       144           Al  tau( 144) = (  0.3980102  0.4991669  0.0990458  )
       145           Al  tau( 145) = (  0.4979148  0.5001185  0.1972982  )
       146           Al  tau( 146) = (  0.3992595  0.3300597  0.1993390  )
       147           Al  tau( 147) = (  0.4976215  0.3452397  0.2985455  )
       148           Al  tau( 148) = (  0.3969042  0.5026540  0.2977146  )
       149           Al  tau( 149) = (  0.4978469  0.5054949  0.3983938  )
       150           Al  tau( 150) = (  0.3981581  0.3417003  0.3985506  )
       151           Al  tau( 151) = (  0.4988428  0.3444017  0.4981498  )
       152           Al  tau( 152) = (  0.3972706  0.5022575  0.4989791  )
       153           Al  tau( 153) = (  0.4979314  0.5000140  0.5990751  )
       154           Al  tau( 154) = (  0.3997691  0.3296761  0.5967868  )
       155           Al  tau( 155) = (  0.4979805  0.3358279  0.6992253  )
       156           Al  tau( 156) = (  0.3979735  0.4991283  0.6969384  )
       157           Al  tau( 157) = (  0.4978669  0.5000490  0.7980894  )
       158           Al  tau( 158) = (  0.3980638  0.3328330  0.7976235  )
       159           Al  tau( 159) = (  0.4978909  0.3330337  0.8981225  )
       160           Al  tau( 160) = (  0.3983389  0.4997526  0.8981028  )
       161           Al  tau( 161) = (  0.6973052  0.4997377  0.9981887  )
       162           Al  tau( 162) = (  0.5976855  0.3331676  0.9978910  )
       163           Al  tau( 163) = (  0.6971438  0.3328706  0.0987287  )
       164           Al  tau( 164) = (  0.5977922  0.4992008  0.0990209  )
       165           Al  tau( 165) = (  0.6973843  0.4996993  0.1987888  )
       166           Al  tau( 166) = (  0.5971104  0.3309650  0.1992927  )
       167           Al  tau( 167) = (  0.6965631  0.3324534  0.2979443  )
       168           Al  tau( 168) = (  0.5987420  0.5026145  0.2976570  )
       169           Al  tau( 169) = (  0.6986855  0.5001401  0.3982824  )
       170           Al  tau( 170) = (  0.5977897  0.3422690  0.3984337  )
       171           Al  tau( 171) = (  0.6970609  0.3326698  0.4984945  )
       172           Al  tau( 172) = (  0.5989879  0.5029558  0.4989458  )
       173           Al  tau( 173) = (  0.6974691  0.4998277  0.5977066  )
       174           Al  tau( 174) = (  0.5976640  0.3312909  0.5975980  )
       175           Al  tau( 175) = (  0.6972819  0.3328467  0.6972718  )
       176           Al  tau( 176) = (  0.5978055  0.4993531  0.6970648  )
       177           Al  tau( 177) = (  0.6973021  0.4997065  0.7974356  )
       178           Al  tau( 178) = (  0.5977063  0.3332677  0.7978552  )
       179           Al  tau( 179) = (  0.6973269  0.3331808  0.8981195  )
       180           Al  tau( 180) = (  0.5975178  0.4998441  0.8981105  )
       181           Al  tau( 181) = (  0.8981437  0.4997772  0.9980765  )
       182           Al  tau( 182) = (  0.7975167  0.3328594  0.9981537  )
       183           Al  tau( 183) = (  0.8981088  0.3328370  0.0987162  )
       184           Al  tau( 184) = (  0.7976949  0.4998352  0.0985380  )
       185           Al  tau( 185) = (  0.8980604  0.4996886  0.1989142  )
       186           Al  tau( 186) = (  0.7975559  0.3328101  0.1990223  )
       187           Al  tau( 187) = (  0.8982528  0.3330131  0.2985799  )
       188           Al  tau( 188) = (  0.7972886  0.4993613  0.2985177  )
       189           Al  tau( 189) = (  0.8984244  0.4998383  0.3983206  )
       190           Al  tau( 190) = (  0.7991395  0.3353482  0.3983176  )
       191           Al  tau( 191) = (  0.8982280  0.3329163  0.4980382  )
       192           Al  tau( 192) = (  0.7974107  0.4995400  0.4980953  )
       193           Al  tau( 193) = (  0.8980731  0.4996989  0.5975577  )
       194           Al  tau( 194) = (  0.7976686  0.3328068  0.5974938  )
       195           Al  tau( 195) = (  0.8981354  0.3328933  0.6973363  )
       196           Al  tau( 196) = (  0.7976968  0.4998494  0.6974913  )
       197           Al  tau( 197) = (  0.8981459  0.4997992  0.7975347  )
       198           Al  tau( 198) = (  0.7975383  0.3328901  0.7974710  )
       199           Al  tau( 199) = (  0.8980115  0.3327176  0.8980863  )
       200           Al  tau( 200) = (  0.7975593  0.4997782  0.8980942  )
       201           Al  tau( 201) = (  0.0987876  0.8332176  0.9981765  )
       202           Al  tau( 202) = (  0.9981399  0.6662494  0.9982378  )
       203           Al  tau( 203) = (  0.0986768  0.6660803  0.0987347  )
       204           Al  tau( 204) = (  0.9981311  0.8332875  0.0987803  )
       205           Al  tau( 205) = (  0.0986386  0.8330128  0.1988662  )
       206           Al  tau( 206) = (  0.9981434  0.6660795  0.1989170  )
       207           Al  tau( 207) = (  0.0986657  0.6661134  0.2985686  )
       208           Al  tau( 208) = (  0.9981629  0.8331751  0.2987059  )
       209           Al  tau( 209) = (  0.0984484  0.8328712  0.3983223  )
       210           Al  tau( 210) = (  0.9981562  0.6661066  0.3983205  )
       211           Al  tau( 211) = (  0.0986797  0.6661269  0.4980369  )
       212           Al  tau( 212) = (  0.9981525  0.8331835  0.4979045  )
       213           Al  tau( 213) = (  0.0986422  0.8330179  0.5976020  )
       214           Al  tau( 214) = (  0.9981344  0.6660969  0.5975565  )
       215           Al  tau( 215) = (  0.0986489  0.6660779  0.6973007  )
       216           Al  tau( 216) = (  0.9981305  0.8332731  0.6972544  )
       217           Al  tau( 217) = (  0.0987830  0.8332190  0.7974559  )
       218           Al  tau( 218) = (  0.9981354  0.6662328  0.7973891  )
       219           Al  tau( 219) = (  0.0988372  0.6662097  0.8980909  )
       220           Al  tau( 220) = (  0.9981279  0.8329864  0.8980943  )
       221           Al  tau( 221) = (  0.2985855  0.8329831  0.9980142  )
       222           Al  tau( 222) = (  0.1989429  0.6661315  0.9980589  )
       223           Al  tau( 223) = (  0.2987791  0.6664098  0.0987024  )
       224           Al  tau( 224) = (  0.1987338  0.8327665  0.0985763  )
       225           Al  tau( 225) = (  0.2989456  0.8323002  0.1992988  )
       226           Al  tau( 226) = (  0.1989145  0.6662373  0.1990980  )
       227           Al  tau( 227) = (  0.2987009  0.6669246  0.2981114  )
       228           Al  tau( 228) = (  0.1989929  0.8337871  0.2985740  )
       229           Al  tau( 229) = (  0.2943926  0.8255784  0.3983300  )
       230           Al  tau( 230) = (  0.1976387  0.6646638  0.3983407  )
       231           Al  tau( 231) = (  0.2987599  0.6668302  0.4984937  )
       232           Al  tau( 232) = (  0.1990679  0.8339399  0.4980255  )
       233           Al  tau( 233) = (  0.2988119  0.8321549  0.5971501  )
       234           Al  tau( 234) = (  0.1988919  0.6661892  0.5973562  )
       235           Al  tau( 235) = (  0.2987524  0.6664041  0.6973201  )
       236           Al  tau( 236) = (  0.1987085  0.8327222  0.6974321  )
       237           Al  tau( 237) = (  0.2985933  0.8329529  0.7976476  )
       238           Al  tau( 238) = (  0.1989535  0.6661472  0.7975734  )
       239           Al  tau( 239) = (  0.2986615  0.6660576  0.8980984  )
       240           Al  tau( 240) = (  0.1989530  0.8332307  0.8980994  )
       241           Al  tau( 241) = (  0.4978367  0.8327249  0.9976420  )
       242           Al  tau( 242) = (  0.3981123  0.6660655  0.9980398  )
       243           Al  tau( 243) = (  0.4978528  0.6638139  0.0969369  )
       244           Al  tau( 244) = (  0.3981429  0.8336038  0.0984081  )
       245           Al  tau( 245) = (  0.4980761  0.8266158  0.1950122  )
       246           Al  tau( 246) = (  0.3974912  0.6659481  0.1987724  )
       247           Al  tau( 247) = (  0.4979157  0.6616560  0.2948635  )
       248           Al  tau( 248) = (  0.4007389  0.8367056  0.3001621  )
       249           Al  tau( 249) = (  0.4975891  0.8076340  0.3982269  )
       250           Al  tau( 250) = (  0.3944975  0.6616026  0.3983412  )
       251           Al  tau( 251) = (  0.4979317  0.6616682  0.5017079  )
       252           Al  tau( 252) = (  0.4008676  0.8368315  0.4965101  )
       253           Al  tau( 253) = (  0.4979863  0.8268796  0.6012500  )
       254           Al  tau( 254) = (  0.3974666  0.6658809  0.5977093  )
       255           Al  tau( 255) = (  0.4978682  0.6637187  0.6990714  )
       256           Al  tau( 256) = (  0.3981270  0.8334726  0.6976512  )
       257           Al  tau( 257) = (  0.4978317  0.8326132  0.7980963  )
       258           Al  tau( 258) = (  0.3980974  0.6660364  0.7976024  )
       259           Al  tau( 259) = (  0.4978970  0.6661742  0.8981176  )
       260           Al  tau( 260) = (  0.3982324  0.8331967  0.8981099  )
       261           Al  tau( 261) = (  0.6973544  0.8328633  0.9979233  )
       262           Al  tau( 262) = (  0.5977124  0.6659279  0.9979532  )
       263           Al  tau( 263) = (  0.6971724  0.6662422  0.0986116  )
       264           Al  tau( 264) = (  0.5976664  0.8330381  0.0980231  )
       265           Al  tau( 265) = (  0.6977679  0.8305668  0.1989883  )
       266           Al  tau( 266) = (  0.5982455  0.6660810  0.1987932  )
       267           Al  tau( 267) = (  0.6972771  0.6665083  0.2981048  )
       268           Al  tau( 268) = (  0.5952313  0.8379514  0.3000284  )
       269           Al  tau( 269) = (  0.7018473  0.8248312  0.3982243  )
       270           Al  tau( 270) = (  0.6011141  0.6620788  0.3983095  )
       271           Al  tau( 271) = (  0.6973004  0.6665273  0.4985469  )
       272           Al  tau( 272) = (  0.5948254  0.8380468  0.4962222  )
       273           Al  tau( 273) = (  0.6978418  0.8307963  0.5971722  )
       274           Al  tau( 274) = (  0.5983057  0.6662399  0.5975998  )
       275           Al  tau( 275) = (  0.6971790  0.6663338  0.6973766  )
       276           Al  tau( 276) = (  0.5976561  0.8329909  0.6979759  )
       277           Al  tau( 277) = (  0.6973425  0.8329072  0.7976944  )
       278           Al  tau( 278) = (  0.5977348  0.6659542  0.7976966  )
       279           Al  tau( 279) = (  0.6973715  0.6659986  0.8980912  )
       280           Al  tau( 280) = (  0.5976112  0.8330842  0.8981254  )
       281           Al  tau( 281) = (  0.8980495  0.8332042  0.9981720  )
       282           Al  tau( 282) = (  0.7974606  0.6661519  0.9980735  )
       283           Al  tau( 283) = (  0.8981683  0.6660620  0.0987364  )
       284           Al  tau( 284) = (  0.7978625  0.8324316  0.0984926  )
       285           Al  tau( 285) = (  0.8982647  0.8329038  0.1988603  )
       286           Al  tau( 286) = (  0.7976854  0.6660572  0.1991238  )
       287           Al  tau( 287) = (  0.8982065  0.6660322  0.2985545  )
       288           Al  tau( 288) = (  0.7978965  0.8334277  0.2986002  )
       289           Al  tau( 289) = (  0.8985151  0.8328433  0.3983412  )
       290           Al  tau( 290) = (  0.7991231  0.6641299  0.3983490  )
       291           Al  tau( 291) = (  0.8982009  0.6661115  0.4980660  )
       292           Al  tau( 292) = (  0.7977963  0.8336043  0.4980421  )
       293           Al  tau( 293) = (  0.8982231  0.8329779  0.5976296  )
       294           Al  tau( 294) = (  0.7977335  0.6660432  0.5973873  )
       295           Al  tau( 295) = (  0.8981760  0.6660469  0.6973102  )
       296           Al  tau( 296) = (  0.7978681  0.8325402  0.6974848  )
       297           Al  tau( 297) = (  0.8980674  0.8331961  0.7974484  )
       298           Al  tau( 298) = (  0.7974539  0.6661717  0.7975459  )
       299           Al  tau( 299) = (  0.8980063  0.6662425  0.8980915  )
       300           Al  tau( 300) = (  0.7974539  0.8332062  0.8980998  )

     number of k points=    58  Methfessel-Paxton smearing, width (Ry)=  0.0441
                       cart. coord. in units 2pi/alat
        k(    1) = (   0.0000000   0.0000000   0.0000000), wk =   0.0178571
        k(    2) = (   0.0000000   0.0000000   0.2500000), wk =   0.0357143
        k(    3) = (   0.0000000   0.0000000  -0.5000000), wk =   0.0178571
        k(    4) = (   0.0000000   0.2380952   0.0000000), wk =   0.0357143
        k(    5) = (   0.0000000   0.2380952   0.2500000), wk =   0.0357143
        k(    6) = (   0.0000000   0.2380952  -0.5000000), wk =   0.0357143
        k(    7) = (   0.0000000   0.2380952  -0.2500000), wk =   0.0357143
        k(    8) = (   0.0000000   0.4761905   0.0000000), wk =   0.0357143
        k(    9) = (   0.0000000   0.4761905   0.2500000), wk =   0.0357143
        k(   10) = (   0.0000000   0.4761905  -0.5000000), wk =   0.0357143
        k(   11) = (   0.0000000   0.4761905  -0.2500000), wk =   0.0357143
        k(   12) = (   0.0000000   0.7142857   0.0000000), wk =   0.0357143
        k(   13) = (   0.0000000   0.7142857   0.2500000), wk =   0.0357143
        k(   14) = (   0.0000000   0.7142857  -0.5000000), wk =   0.0357143
        k(   15) = (   0.0000000   0.7142857  -0.2500000), wk =   0.0357143
        k(   16) = (   0.2500000   0.0000000   0.0000000), wk =   0.0357143
        k(   17) = (   0.2500000   0.0000000   0.2500000), wk =   0.0357143
        k(   18) = (   0.2500000   0.0000000  -0.5000000), wk =   0.0357143
        k(   19) = (   0.2500000   0.0000000  -0.2500000), wk =   0.0357143
        k(   20) = (   0.2500000   0.2380952   0.0000000), wk =   0.0357143
        k(   21) = (   0.2500000   0.2380952   0.2500000), wk =   0.0357143
        k(   22) = (   0.2500000   0.2380952  -0.5000000), wk =   0.0357143
        k(   23) = (   0.2500000   0.2380952  -0.2500000), wk =   0.0357143
        k(   24) = (   0.2500000   0.4761905   0.0000000), wk =   0.0357143
        k(   25) = (   0.2500000   0.4761905   0.2500000), wk =   0.0357143
        k(   26) = (   0.2500000   0.4761905  -0.5000000), wk =   0.0357143
        k(   27) = (   0.2500000   0.4761905  -0.2500000), wk =   0.0357143
        k(   28) = (   0.2500000   0.7142857   0.0000000), wk =   0.0357143
        k(   29) = (   0.2500000   0.7142857   0.2500000), wk =   0.0357143
        k(   30) = (   0.2500000   0.7142857  -0.5000000), wk =   0.0357143
        k(   31) = (   0.2500000   0.7142857  -0.2500000), wk =   0.0357143
        k(   32) = (   0.2500000  -0.7142857   0.0000000), wk =   0.0357143
        k(   33) = (   0.2500000  -0.7142857   0.2500000), wk =   0.0357143
        k(   34) = (   0.2500000  -0.7142857  -0.5000000), wk =   0.0357143
        k(   35) = (   0.2500000  -0.7142857  -0.2500000), wk =   0.0357143
        k(   36) = (   0.2500000  -0.4761905   0.0000000), wk =   0.0357143
        k(   37) = (   0.2500000  -0.4761905   0.2500000), wk =   0.0357143
        k(   38) = (   0.2500000  -0.4761905  -0.5000000), wk =   0.0357143
        k(   39) = (   0.2500000  -0.4761905  -0.2500000), wk =   0.0357143
        k(   40) = (   0.2500000  -0.2380952   0.0000000), wk =   0.0357143
        k(   41) = (   0.2500000  -0.2380952   0.2500000), wk =   0.0357143
        k(   42) = (   0.2500000  -0.2380952  -0.5000000), wk =   0.0357143
        k(   43) = (   0.2500000  -0.2380952  -0.2500000), wk =   0.0357143
        k(   44) = (  -0.5000000   0.0000000   0.0000000), wk =   0.0178571
        k(   45) = (  -0.5000000   0.0000000   0.2500000), wk =   0.0357143
        k(   46) = (  -0.5000000   0.0000000  -0.5000000), wk =   0.0178571
        k(   47) = (  -0.5000000   0.2380952   0.0000000), wk =   0.0357143
        k(   48) = (  -0.5000000   0.2380952   0.2500000), wk =   0.0357143
        k(   49) = (  -0.5000000   0.2380952  -0.5000000), wk =   0.0357143
        k(   50) = (  -0.5000000   0.2380952  -0.2500000), wk =   0.0357143
        k(   51) = (  -0.5000000   0.4761905   0.0000000), wk =   0.0357143
        k(   52) = (  -0.5000000   0.4761905   0.2500000), wk =   0.0357143
        k(   53) = (  -0.5000000   0.4761905  -0.5000000), wk =   0.0357143
        k(   54) = (  -0.5000000   0.4761905  -0.2500000), wk =   0.0357143
        k(   55) = (  -0.5000000   0.7142857   0.0000000), wk =   0.0357143
        k(   56) = (  -0.5000000   0.7142857   0.2500000), wk =   0.0357143
        k(   57) = (  -0.5000000   0.7142857  -0.5000000), wk =   0.0357143
        k(   58) = (  -0.5000000   0.7142857  -0.2500000), wk =   0.0357143

                       cryst. coord.
        k(    1) = (   0.0000000   0.0000000   0.0000000), wk =   0.0178571
        k(    2) = (   0.0000000   0.0000000   0.2500000), wk =   0.0357143
        k(    3) = (   0.0000000   0.0000000  -0.5000000), wk =   0.0178571
        k(    4) = (   0.0000000   0.1428571   0.0000000), wk =   0.0357143
        k(    5) = (   0.0000000   0.1428571   0.2500000), wk =   0.0357143
        k(    6) = (   0.0000000   0.1428571  -0.5000000), wk =   0.0357143
        k(    7) = (   0.0000000   0.1428571  -0.2500000), wk =   0.0357143
        k(    8) = (   0.0000000   0.2857143   0.0000000), wk =   0.0357143
        k(    9) = (   0.0000000   0.2857143   0.2500000), wk =   0.0357143
        k(   10) = (   0.0000000   0.2857143  -0.5000000), wk =   0.0357143
        k(   11) = (   0.0000000   0.2857143  -0.2500000), wk =   0.0357143
        k(   12) = (   0.0000000   0.4285714   0.0000000), wk =   0.0357143
        k(   13) = (   0.0000000   0.4285714   0.2500000), wk =   0.0357143
        k(   14) = (   0.0000000   0.4285714  -0.5000000), wk =   0.0357143
        k(   15) = (   0.0000000   0.4285714  -0.2500000), wk =   0.0357143
        k(   16) = (   0.2500000   0.0000000   0.0000000), wk =   0.0357143
        k(   17) = (   0.2500000   0.0000000   0.2500000), wk =   0.0357143
        k(   18) = (   0.2500000   0.0000000  -0.5000000), wk =   0.0357143
        k(   19) = (   0.2500000   0.0000000  -0.2500000), wk =   0.0357143
        k(   20) = (   0.2500000   0.1428571   0.0000000), wk =   0.0357143
        k(   21) = (   0.2500000   0.1428571   0.2500000), wk =   0.0357143
        k(   22) = (   0.2500000   0.1428571  -0.5000000), wk =   0.0357143
        k(   23) = (   0.2500000   0.1428571  -0.2500000), wk =   0.0357143
        k(   24) = (   0.2500000   0.2857143   0.0000000), wk =   0.0357143
        k(   25) = (   0.2500000   0.2857143   0.2500000), wk =   0.0357143
        k(   26) = (   0.2500000   0.2857143  -0.5000000), wk =   0.0357143
        k(   27) = (   0.2500000   0.2857143  -0.2500000), wk =   0.0357143
        k(   28) = (   0.2500000   0.4285714   0.0000000), wk =   0.0357143
        k(   29) = (   0.2500000   0.4285714   0.2500000), wk =   0.0357143
        k(   30) = (   0.2500000   0.4285714  -0.5000000), wk =   0.0357143
        k(   31) = (   0.2500000   0.4285714  -0.2500000), wk =   0.0357143
        k(   32) = (   0.2500000  -0.4285714   0.0000000), wk =   0.0357143
        k(   33) = (   0.2500000  -0.4285714   0.2500000), wk =   0.0357143
        k(   34) = (   0.2500000  -0.4285714  -0.5000000), wk =   0.0357143
        k(   35) = (   0.2500000  -0.4285714  -0.2500000), wk =   0.0357143
        k(   36) = (   0.2500000  -0.2857143   0.0000000), wk =   0.0357143
        k(   37) = (   0.2500000  -0.2857143   0.2500000), wk =   0.0357143
        k(   38) = (   0.2500000  -0.2857143  -0.5000000), wk =   0.0357143
        k(   39) = (   0.2500000  -0.2857143  -0.2500000), wk =   0.0357143
        k(   40) = (   0.2500000  -0.1428571   0.0000000), wk =   0.0357143
        k(   41) = (   0.2500000  -0.1428571   0.2500000), wk =   0.0357143
        k(   42) = (   0.2500000  -0.1428571  -0.5000000), wk =   0.0357143
        k(   43) = (   0.2500000  -0.1428571  -0.2500000), wk =   0.0357143
        k(   44) = (  -0.5000000   0.0000000   0.0000000), wk =   0.0178571
        k(   45) = (  -0.5000000   0.0000000   0.2500000), wk =   0.0357143
        k(   46) = (  -0.5000000   0.0000000  -0.5000000), wk =   0.0178571
        k(   47) = (  -0.5000000   0.1428571   0.0000000), wk =   0.0357143
        k(   48) = (  -0.5000000   0.1428571   0.2500000), wk =   0.0357143
        k(   49) = (  -0.5000000   0.1428571  -0.5000000), wk =   0.0357143
        k(   50) = (  -0.5000000   0.1428571  -0.2500000), wk =   0.0357143
        k(   51) = (  -0.5000000   0.2857143   0.0000000), wk =   0.0357143
        k(   52) = (  -0.5000000   0.2857143   0.2500000), wk =   0.0357143
        k(   53) = (  -0.5000000   0.2857143  -0.5000000), wk =   0.0357143
        k(   54) = (  -0.5000000   0.2857143  -0.2500000), wk =   0.0357143
        k(   55) = (  -0.5000000   0.4285714   0.0000000), wk =   0.0357143
        k(   56) = (  -0.5000000   0.4285714   0.2500000), wk =   0.0357143
        k(   57) = (  -0.5000000   0.4285714  -0.5000000), wk =   0.0357143
        k(   58) = (  -0.5000000   0.4285714  -0.2500000), wk =   0.0357143

     Dense  grid:  4566219 G-vectors     FFT dimensions: ( 250, 150, 250)

     Smooth grid:  1154937 G-vectors     FFT dimensions: ( 160,  96, 160)

     Dynamical RAM for                 wfc:     108.35 MB

     Dynamical RAM for     wfc (w. buffer):     325.04 MB

     Dynamical RAM for           str. fact:      19.00 MB

     Dynamical RAM for           local pot:       0.00 MB

     Dynamical RAM for          nlocal pot:    1071.45 MB

     Dynamical RAM for                qrad:      29.33 MB

     Dynamical RAM for          rho,v,vnew:      38.74 MB

     Dynamical RAM for               rhoin:      12.91 MB

     Dynamical RAM for            rho*nmix:     101.35 MB

     Dynamical RAM for           G-vectors:      24.55 MB

     Dynamical RAM for          h,s,v(r/c):      53.59 MB

     Dynamical RAM for          <psi|beta>:      44.16 MB

     Dynamical RAM for                 psi:     433.39 MB

     Dynamical RAM for                hpsi:     433.39 MB

     Dynamical RAM for                spsi:     433.39 MB

     Dynamical RAM for      wfcinit/wfcrot:     513.62 MB

     Dynamical RAM for           addusdens:      89.73 MB

     Dynamical RAM for          addusforce:     195.05 MB

     Dynamical RAM for         addusstress:      38.44 MB

     Estimated static dynamical RAM per process >       1.64 GB

     Estimated max dynamical RAM per process >       3.01 GB

     Estimated total dynamical RAM >    1190.53 GB

     Initial potential from superposition of free atoms

     starting charge  900.33015, renormalised to  901.00000
     Starting wfcs are 1200 randomized atomic wfcs
     Checking if some PAW data can be deallocated... 
       PAW data deallocated on   18 nodes for type:  1
       PAW data deallocated on  387 nodes for type:  2

     total cpu time spent up to now is      232.3 secs

     Self-consistent Calculation

     iteration #  1     ecut=    40.00 Ry     beta= 0.40
     Davidson diagonalization with overlap
     ethr =  1.00E-02,  avg # of iterations =  3.0

     Threshold (ethr) on eigenvalues was too large:
     Diagonalizing with lowered threshold

     Davidson diagonalization with overlap
     ethr =  3.02E-04,  avg # of iterations =  4.8

     total cpu time spent up to now is      979.5 secs

     total energy              =  -11652.93432608 Ry
     Harris-Foulkes estimate   =  -11653.20422175 Ry
     estimated scf accuracy    <       2.82356375 Ry

     iteration #  2     ecut=    40.00 Ry     beta= 0.40
     Davidson diagonalization with overlap
     ethr =  3.13E-04,  avg # of iterations =  1.1

     total cpu time spent up to now is     1228.6 secs

     total energy              =  -11652.58037244 Ry
     Harris-Foulkes estimate   =  -11652.95931579 Ry
     estimated scf accuracy    <       1.48594039 Ry

     iteration #  3     ecut=    40.00 Ry     beta= 0.40
     Davidson diagonalization with overlap
     ethr =  1.65E-04,  avg # of iterations =  2.5

     total cpu time spent up to now is     1501.8 secs

     total energy              =  -11652.67660560 Ry
     Harris-Foulkes estimate   =  -11652.68000316 Ry
     estimated scf accuracy    <       0.03008732 Ry

     iteration #  4     ecut=    40.00 Ry     beta= 0.40
     Davidson diagonalization with overlap
     ethr =  3.34E-06,  avg # of iterations =  9.1

     total cpu time spent up to now is     2122.9 secs

     total energy              =  -11652.68874969 Ry
     Harris-Foulkes estimate   =  -11652.68861509 Ry
     estimated scf accuracy    <       0.05425424 Ry

     iteration #  5     ecut=    40.00 Ry     beta= 0.40
     Davidson diagonalization with overlap
     ethr =  3.34E-06,  avg # of iterations =  1.0

     total cpu time spent up to now is     2370.6 secs

     total energy              =  -11652.67344481 Ry
     Harris-Foulkes estimate   =  -11652.68882274 Ry
     estimated scf accuracy    <       0.05631884 Ry

     iteration #  6     ecut=    40.00 Ry     beta= 0.40
     Davidson diagonalization with overlap
     ethr =  3.34E-06,  avg # of iterations =  4.6

     total cpu time spent up to now is     2753.6 secs

     total energy              =  -11652.69661238 Ry
     Harris-Foulkes estimate   =  -11652.68909753 Ry
     estimated scf accuracy    <       0.08872752 Ry

     iteration #  7     ecut=    40.00 Ry     beta= 0.40
     Davidson diagonalization with overlap
     ethr =  3.34E-06,  avg # of iterations =  2.9

     total cpu time spent up to now is     3037.9 secs

     total energy              =  -11652.67157327 Ry
     Harris-Foulkes estimate   =  -11652.70081212 Ry
     estimated scf accuracy    <       0.27993025 Ry

     iteration #  8     ecut=    40.00 Ry     beta= 0.40
     Davidson diagonalization with overlap
     ethr =  3.34E-06,  avg # of iterations =  3.1

     total cpu time spent up to now is     3360.8 secs

     total energy              =  -11652.68149121 Ry
     Harris-Foulkes estimate   =  -11652.68188622 Ry
     estimated scf accuracy    <       0.01403517 Ry

     iteration #  9     ecut=    40.00 Ry     beta= 0.40
     Davidson diagonalization with overlap
     ethr =  1.56E-06,  avg # of iterations =  1.0

     total cpu time spent up to now is     3608.5 secs

     total energy              =  -11652.68135358 Ry
     Harris-Foulkes estimate   =  -11652.68161707 Ry
     estimated scf accuracy    <       0.00983989 Ry

     iteration # 10     ecut=    40.00 Ry     beta= 0.40
     Davidson diagonalization with overlap
     ethr =  1.09E-06,  avg # of iterations =  1.0

     total cpu time spent up to now is     3856.2 secs

     total energy              =  -11652.68052077 Ry
     Harris-Foulkes estimate   =  -11652.68142095 Ry
     estimated scf accuracy    <       0.00660908 Ry

     iteration # 11     ecut=    40.00 Ry     beta= 0.40
     Davidson diagonalization with overlap
     ethr =  7.34E-07,  avg # of iterations =  3.0

     total cpu time spent up to now is     4136.9 secs

     total energy              =  -11652.68114400 Ry
     Harris-Foulkes estimate   =  -11652.68116438 Ry
     estimated scf accuracy    <       0.00017538 Ry

     iteration # 12     ecut=    40.00 Ry     beta= 0.40
     Davidson diagonalization with overlap
     ethr =  1.95E-08,  avg # of iterations =  4.5

     total cpu time spent up to now is     4536.1 secs

     total energy              =  -11652.68123580 Ry
     Harris-Foulkes estimate   =  -11652.68121321 Ry
     estimated scf accuracy    <       0.00011021 Ry

     iteration # 13     ecut=    40.00 Ry     beta= 0.40
     Davidson diagonalization with overlap
     ethr =  1.22E-08,  avg # of iterations =  2.2

     total cpu time spent up to now is     4822.2 secs

     total energy              =  -11652.68125067 Ry
     Harris-Foulkes estimate   =  -11652.68125077 Ry
     estimated scf accuracy    <       0.00060843 Ry

     iteration # 14     ecut=    40.00 Ry     beta= 0.40
     Davidson diagonalization with overlap
     ethr =  1.22E-08,  avg # of iterations =  1.0

     total cpu time spent up to now is     5070.4 secs

     total energy              =  -11652.68127908 Ry
     Harris-Foulkes estimate   =  -11652.68125102 Ry
     estimated scf accuracy    <       0.00060951 Ry

     iteration # 15     ecut=    40.00 Ry     beta= 0.40
     Davidson diagonalization with overlap
     ethr =  1.22E-08,  avg # of iterations =  1.1

     total cpu time spent up to now is     5318.8 secs

     total energy              =  -11652.68119684 Ry
     Harris-Foulkes estimate   =  -11652.68128294 Ry
     estimated scf accuracy    <       0.00099948 Ry

     iteration # 16     ecut=    40.00 Ry     beta= 0.40
     Davidson diagonalization with overlap
     ethr =  1.22E-08,  avg # of iterations =  2.9

     total cpu time spent up to now is     5613.5 secs

     total energy              =  -11652.68118063 Ry
     Harris-Foulkes estimate   =  -11652.68121820 Ry
     estimated scf accuracy    <       0.00020691 Ry

     iteration # 17     ecut=    40.00 Ry     beta= 0.40
     Davidson diagonalization with overlap
     ethr =  1.22E-08,  avg # of iterations =  3.0

     total cpu time spent up to now is     5922.3 secs

     total energy              =  -11652.68119901 Ry
     Harris-Foulkes estimate   =  -11652.68120814 Ry
     estimated scf accuracy    <       0.00003599 Ry

     iteration # 18     ecut=    40.00 Ry     beta= 0.40
     Davidson diagonalization with overlap
     ethr =  3.99E-09,  avg # of iterations =  3.1

     total cpu time spent up to now is     6226.0 secs

     total energy              =  -11652.68120555 Ry
     Harris-Foulkes estimate   =  -11652.68120670 Ry
     estimated scf accuracy    <       0.00001741 Ry

     iteration # 19     ecut=    40.00 Ry     beta= 0.40
     Davidson diagonalization with overlap
     ethr =  1.93E-09,  avg # of iterations =  1.8

     total cpu time spent up to now is     6499.0 secs

     total energy              =  -11652.68120572 Ry
     Harris-Foulkes estimate   =  -11652.68120601 Ry
     estimated scf accuracy    <       0.00000875 Ry

     iteration # 20     ecut=    40.00 Ry     beta= 0.40
     Davidson diagonalization with overlap
     ethr =  9.71E-10,  avg # of iterations =  1.8

     total cpu time spent up to now is     6772.5 secs

     total energy              =  -11652.68120573 Ry
     Harris-Foulkes estimate   =  -11652.68120591 Ry
     estimated scf accuracy    <       0.00000599 Ry

     iteration # 21     ecut=    40.00 Ry     beta= 0.40
     Davidson diagonalization with overlap
     ethr =  6.65E-10,  avg # of iterations =  1.3

     total cpu time spent up to now is     7049.2 secs

     total energy              =  -11652.68120548 Ry
     Harris-Foulkes estimate   =  -11652.68120582 Ry
     estimated scf accuracy    <       0.00000388 Ry

     iteration # 22     ecut=    40.00 Ry     beta= 0.40
     Davidson diagonalization with overlap
     ethr =  4.30E-10,  avg # of iterations =  1.6

     total cpu time spent up to now is     7327.4 secs

     total energy              =  -11652.68120551 Ry
     Harris-Foulkes estimate   =  -11652.68120562 Ry
     estimated scf accuracy    <       0.00000098 Ry

     iteration # 23     ecut=    40.00 Ry     beta= 0.40
     Davidson diagonalization with overlap
     ethr =  1.09E-10,  avg # of iterations =  4.4

     total cpu time spent up to now is     7708.1 secs

     total energy              =  -11652.68120575 Ry
     Harris-Foulkes estimate   =  -11652.68120576 Ry
     estimated scf accuracy    <       0.00000003 Ry

     iteration # 24     ecut=    40.00 Ry     beta= 0.40
     Davidson diagonalization with overlap
     ethr =  3.57E-12,  avg # of iterations =  4.0

     total cpu time spent up to now is     8205.5 secs

     total energy              =  -11652.68120576 Ry
     Harris-Foulkes estimate   =  -11652.68120576 Ry
     estimated scf accuracy    <       0.00000003 Ry

     iteration # 25     ecut=    40.00 Ry     beta= 0.40
     Davidson diagonalization with overlap
     ethr =  3.30E-12,  avg # of iterations =  1.0

     total cpu time spent up to now is     8453.2 secs

     total energy              =  -11652.68120576 Ry
     Harris-Foulkes estimate   =  -11652.68120576 Ry
     estimated scf accuracy    <       0.00000005 Ry

     iteration # 26     ecut=    40.00 Ry     beta= 0.40
     Davidson diagonalization with overlap
     ethr =  3.30E-12,  avg # of iterations =  1.0

     total cpu time spent up to now is     8700.6 secs

     total energy              =  -11652.68120575 Ry
     Harris-Foulkes estimate   =  -11652.68120576 Ry
     estimated scf accuracy    <       0.00000002 Ry

     iteration # 27     ecut=    40.00 Ry     beta= 0.40
     Davidson diagonalization with overlap
     ethr =  2.01E-12,  avg # of iterations =  1.8

     total cpu time spent up to now is     8955.8 secs

     total energy              =  -11652.68120575 Ry
     Harris-Foulkes estimate   =  -11652.68120575 Ry
     estimated scf accuracy    <          8.8E-10 Ry

     iteration # 28     ecut=    40.00 Ry     beta= 0.40
     Davidson diagonalization with overlap
     ethr =  1.00E-13,  avg # of iterations =  5.0

     total cpu time spent up to now is     9394.4 secs

     total energy              =  -11652.68120574 Ry
     Harris-Foulkes estimate   =  -11652.68120575 Ry
     estimated scf accuracy    <          1.1E-09 Ry

     iteration # 29     ecut=    40.00 Ry     beta= 0.40
     Davidson diagonalization with overlap
     ethr =  1.00E-13,  avg # of iterations =  2.0

     total cpu time spent up to now is     9685.7 secs

     total energy              =  -11652.68120574 Ry
     Harris-Foulkes estimate   =  -11652.68120574 Ry
     estimated scf accuracy    <          2.7E-10 Ry

     iteration # 30     ecut=    40.00 Ry     beta= 0.40
     Davidson diagonalization with overlap
     ethr =  1.00E-13,  avg # of iterations =  1.0

     total cpu time spent up to now is     9933.0 secs

     total energy              =  -11652.68120574 Ry
     Harris-Foulkes estimate   =  -11652.68120574 Ry
     estimated scf accuracy    <          1.5E-12 Ry

     iteration # 31     ecut=    40.00 Ry     beta= 0.40
     Davidson diagonalization with overlap
     ethr =  1.00E-13,  avg # of iterations =  1.0

     total cpu time spent up to now is    10180.0 secs

     total energy              =  -11652.68120574 Ry
     Harris-Foulkes estimate   =  -11652.68120574 Ry
     estimated scf accuracy    <          1.5E-11 Ry

     iteration # 32     ecut=    40.00 Ry     beta= 0.40
     Davidson diagonalization with overlap
     ethr =  1.00E-13,  avg # of iterations =  1.0

     total cpu time spent up to now is    10427.0 secs

     total energy              =  -11652.68120574 Ry
     Harris-Foulkes estimate   =  -11652.68120574 Ry
     estimated scf accuracy    <          3.0E-12 Ry

     iteration # 33     ecut=    40.00 Ry     beta= 0.40
     Davidson diagonalization with overlap
     ethr =  1.00E-13,  avg # of iterations =  1.0

     total cpu time spent up to now is    10674.2 secs

     total energy              =  -11652.68120574 Ry
     Harris-Foulkes estimate   =  -11652.68120574 Ry
     estimated scf accuracy    <          3.5E-12 Ry

     iteration # 34     ecut=    40.00 Ry     beta= 0.40
     Davidson diagonalization with overlap
     ethr =  1.00E-13,  avg # of iterations =  1.0

     total cpu time spent up to now is    10921.4 secs

     total energy              =  -11652.68120574 Ry
     Harris-Foulkes estimate   =  -11652.68120574 Ry
     estimated scf accuracy    <          3.3E-12 Ry

     iteration # 35     ecut=    40.00 Ry     beta= 0.40
     Davidson diagonalization with overlap
     ethr =  1.00E-13,  avg # of iterations =  1.0

     total cpu time spent up to now is    11168.8 secs

     total energy              =  -11652.68120574 Ry
     Harris-Foulkes estimate   =  -11652.68120574 Ry
     estimated scf accuracy    <          2.4E-12 Ry

     iteration # 36     ecut=    40.00 Ry     beta= 0.40
     Davidson diagonalization with overlap
     ethr =  1.00E-13,  avg # of iterations =  1.0

     total cpu time spent up to now is    11415.7 secs

     total energy              =  -11652.68120574 Ry
     Harris-Foulkes estimate   =  -11652.68120574 Ry
     estimated scf accuracy    <          2.4E-12 Ry

     iteration # 37     ecut=    40.00 Ry     beta= 0.40
     Davidson diagonalization with overlap
     ethr =  1.00E-13,  avg # of iterations =  1.0

     total cpu time spent up to now is    11662.3 secs

     End of self-consistent calculation

          k = 0.0000 0.0000 0.0000 (144307 PWs)   bands (ev):

    -3.4145  -3.1544  -3.0586  -2.9855  -2.9785  -2.7434  -2.6567  -2.6245
    -2.5700  -2.4867  -2.3879  -2.2139  -2.2095  -2.1427  -2.0944  -2.0535
    -1.9845  -1.9561  -1.9379  -1.8934  -1.8901  -1.8681  -1.8204  -1.7651
    -1.7388  -1.6872  -1.6392  -1.6269  -1.5975  -1.5859  -1.5714  -1.5666
    -1.5550  -1.5336  -1.5144  -1.4958  -1.4939  -1.4578  -1.3682  -1.2095
    -1.0546  -1.0278  -1.0188  -0.9100  -0.8560  -0.8113  -0.8034  -0.7251
    -0.7201  -0.6834  -0.6686  -0.5915  -0.5425  -0.5388  -0.5386  -0.5365
    -0.5353  -0.5302  -0.5209  -0.4845  -0.4804  -0.4773  -0.4747  -0.4611
    -0.3999  -0.3672  -0.3403  -0.3214  -0.0895  -0.0883  -0.0484   0.1007
     0.1877   0.1881   0.1939   0.2286   0.2764   0.2850   0.3117   0.3342
     0.4024   0.4104   0.5056   0.5105   0.5323   0.5467   0.5555   0.6191
     0.6509   0.6960   0.7060   0.7908   0.8339   0.8532   0.8952   0.9094
     0.9147   0.9223   0.9568   0.9657   0.9735   0.9789   0.9949   1.0182
     1.0682   1.0828   1.1064   1.1095   1.1400   1.1806   1.1992   1.2057
     1.2142   1.2166   1.2212   1.2264   1.2324   1.2574   1.2610   1.2646
     1.2711   1.2741   1.2766   1.2806   1.2862   1.2974   1.3099   1.3243
     1.3296   1.3453   1.3483   1.3571   1.3825   1.4442   1.4648   1.4820
     1.6057   1.7768   1.9065   1.9989   2.0071   2.0221   2.0258   2.0848
     2.0883   2.1146   2.1216   2.1526   2.1858   2.2173   2.2367   2.2433
     2.2445   2.2499   2.2575   2.2602   2.2675   2.2725   2.2747   2.2878
     2.3093   2.3143   2.3294   2.3320   2.3346   2.3452   2.3543   2.3588
     2.3669   2.3748   2.3795   2.3832   2.4022   2.4060   2.4158   2.4249
     2.4507   2.4673   2.5231   2.5896   2.6025   2.6368   2.6575   2.6805
     2.6895   2.7225   2.7250   2.7270   2.8169   2.9882   3.0010   3.0071
     3.0580   3.0844   3.2278   3.2300   3.2555   3.2738   3.2895   3.2999
     3.3333   3.3490   3.3621   3.3850   3.3886   3.4115   3.4280   3.4648
     3.4694   3.4921   3.5281   3.5483   3.5577   3.5636   3.5827   3.5994
     3.6135   3.6137   3.6147   3.6159   3.6377   3.6492   3.6522   3.6589
     3.6650   3.6693   3.6713   3.6792   3.6879   3.7087   3.7122   3.7267
     3.7422   3.7537   3.7672   3.7721   3.7806   3.8363   3.8393   3.8848
     3.8947   3.9144   3.9191   3.9340   3.9781   3.9997   4.0219   4.0256
     4.0268   4.0299   4.0336   4.0476   4.0676   4.0703   4.0859   4.0883
     4.1007   4.1234   4.1282   4.1324   4.1746   4.2086   4.2301   4.2721
     4.3591   4.5251   4.5272   4.5774   4.5897   4.6241   4.6387   4.6432
     4.6468   4.6901   4.7126   4.7264   4.7406   4.7842   4.7943   4.8165
     4.8223   4.8366   4.8837   4.8842   5.0025   5.0207   5.0618   5.0655
     5.0821   5.0846   5.0907   5.0955   5.1007   5.1127   5.1292   5.1435
     5.1449   5.1492   5.1682   5.1716   5.1823   5.1858   5.2045   5.2271
     5.2371   5.2425   5.2856   5.3567   5.3645   5.3656   5.3662   5.3960
     5.4002   5.4204   5.4359   5.4699   5.5171   5.5425   5.5936   5.6346
     5.7237   5.7245   5.8118   5.8177   5.8227   5.9000   5.9189   5.9981
     6.0186   6.0451   6.0513   6.0606   6.0850   6.0936   6.0978   6.0995
     6.1028   6.1081   6.1194   6.1242   6.1322   6.1348   6.1591   6.1735
     6.1785   6.1821   6.1869   6.2004   6.2093   6.2104   6.2194   6.2500
     6.2543   6.2638   6.2795   6.2967   6.3086   6.3303   6.3390   6.3407
[...]
     atom  119 type  1   force =     0.00000002    0.00000000    0.00000001
     atom  120 type  1   force =     0.00000000    0.00000000    0.00000000
     atom  121 type  1   force =     0.00000002    0.00000001   -0.00000001
     atom  122 type  1   force =     0.00000002   -0.00000000   -0.00000001
     atom  123 type  1   force =    -0.00000000    0.00000002   -0.00000003
     atom  124 type  1   force =     0.00000001    0.00000002    0.00000000
     atom  125 type  1   force =    -0.00000001    0.00000005    0.00000000
     atom  126 type  1   force =    -0.00000003    0.00000001    0.00000001
     atom  127 type  1   force =    -0.00000005    0.00000006   -0.00000000
     atom  128 type  1   force =    -0.00000001    0.00000004    0.00000002
     atom  129 type  1   force =    -0.00000004    0.00000006    0.00000000
     atom  130 type  1   force =    -0.00000004    0.00000003    0.00000000
     atom  131 type  1   force =    -0.00000005    0.00000006    0.00000001
     atom  132 type  1   force =    -0.00000001    0.00000004   -0.00000001
     atom  133 type  1   force =    -0.00000001    0.00000005    0.00000000
     atom  134 type  1   force =    -0.00000002    0.00000001   -0.00000000
     atom  135 type  1   force =    -0.00000001    0.00000002    0.00000002
     atom  136 type  1   force =     0.00000002    0.00000002   -0.00000001
     atom  137 type  1   force =     0.00000002    0.00000001    0.00000000
     atom  138 type  1   force =     0.00000002   -0.00000000   -0.00000000
     atom  139 type  1   force =     0.00000002    0.00000000   -0.00000000
     atom  140 type  1   force =     0.00000003    0.00000001   -0.00000000
     atom  141 type  1   force =    -0.00000001    0.00000001   -0.00000001
     atom  142 type  1   force =     0.00000001    0.00000002   -0.00000003
     atom  143 type  1   force =    -0.00000000    0.00000004   -0.00000006
     atom  144 type  1   force =     0.00000001    0.00000004   -0.00000002
     atom  145 type  1   force =    -0.00000000    0.00000006   -0.00000003
     atom  146 type  1   force =    -0.00000002    0.00000006   -0.00000004
     atom  147 type  1   force =    -0.00000000    0.00000009   -0.00000002
     atom  148 type  1   force =    -0.00000003    0.00000007   -0.00000001
     atom  149 type  1   force =    -0.00000000    0.00000006    0.00000000
     atom  150 type  1   force =    -0.00000004    0.00000008    0.00000000
     atom  151 type  1   force =    -0.00000000    0.00000009    0.00000002
     atom  152 type  1   force =    -0.00000003    0.00000007    0.00000001
     atom  153 type  1   force =    -0.00000000    0.00000006    0.00000003
     atom  154 type  1   force =    -0.00000002    0.00000006    0.00000004
     atom  155 type  1   force =    -0.00000000    0.00000005    0.00000005
     atom  156 type  1   force =     0.00000001    0.00000004    0.00000002
     atom  157 type  1   force =    -0.00000000    0.00000002    0.00000001
     atom  158 type  1   force =     0.00000000    0.00000002    0.00000003
     atom  159 type  1   force =    -0.00000000    0.00000001    0.00000000
     atom  160 type  1   force =     0.00000001    0.00000001   -0.00000000
     atom  161 type  1   force =    -0.00000002    0.00000000   -0.00000000
     atom  162 type  1   force =    -0.00000001    0.00000001   -0.00000003
     atom  163 type  1   force =     0.00000001    0.00000001   -0.00000003
     atom  164 type  1   force =    -0.00000001    0.00000003   -0.00000002
     atom  165 type  1   force =     0.00000001    0.00000004    0.00000001
     atom  166 type  1   force =     0.00000002    0.00000006   -0.00000004
     atom  167 type  1   force =     0.00000005    0.00000005    0.00000000
     atom  168 type  1   force =     0.00000002    0.00000006   -0.00000001
     atom  169 type  1   force =     0.00000004    0.00000005    0.00000000
     atom  170 type  1   force =     0.00000004    0.00000008    0.00000000
     atom  171 type  1   force =     0.00000006    0.00000006    0.00000001
     atom  172 type  1   force =     0.00000003    0.00000006    0.00000001
     atom  173 type  1   force =     0.00000001    0.00000004   -0.00000000
     atom  174 type  1   force =     0.00000002    0.00000006    0.00000004
     atom  175 type  1   force =     0.00000001    0.00000002    0.00000002
     atom  176 type  1   force =    -0.00000001    0.00000004    0.00000002
     atom  177 type  1   force =    -0.00000002    0.00000001   -0.00000000
     atom  178 type  1   force =    -0.00000001    0.00000001    0.00000002
     atom  179 type  1   force =    -0.00000002   -0.00000001    0.00000000
     atom  180 type  1   force =    -0.00000002    0.00000000   -0.00000000
     atom  181 type  1   force =    -0.00000001   -0.00000000    0.00000001
     atom  182 type  1   force =    -0.00000001   -0.00000002   -0.00000000
     atom  183 type  1   force =    -0.00000000   -0.00000001    0.00000001
     atom  184 type  1   force =    -0.00000001    0.00000001    0.00000001
     atom  185 type  1   force =    -0.00000000    0.00000000    0.00000003
     atom  186 type  1   force =     0.00000003    0.00000001    0.00000001
     atom  187 type  1   force =     0.00000001    0.00000000    0.00000002
     atom  188 type  1   force =     0.00000001    0.00000003    0.00000003
     atom  189 type  1   force =    -0.00000001    0.00000001    0.00000000
     atom  190 type  1   force =     0.00000005    0.00000003    0.00000000
     atom  191 type  1   force =     0.00000001    0.00000001   -0.00000001
     atom  192 type  1   force =     0.00000002    0.00000003   -0.00000002
     atom  193 type  1   force =    -0.00000000    0.00000001   -0.00000002
     atom  194 type  1   force =     0.00000003    0.00000002   -0.00000000
     atom  195 type  1   force =    -0.00000000   -0.00000000   -0.00000002
     atom  196 type  1   force =    -0.00000001    0.00000001   -0.00000002
     atom  197 type  1   force =    -0.00000001   -0.00000000   -0.00000001
     atom  198 type  1   force =    -0.00000001   -0.00000001   -0.00000000
     atom  199 type  1   force =    -0.00000002   -0.00000001    0.00000000
     atom  200 type  1   force =    -0.00000002   -0.00000000   -0.00000000
     atom  201 type  1   force =     0.00000002    0.00000001    0.00000001
     atom  202 type  1   force =     0.00000000    0.00000001    0.00000001
     atom  203 type  1   force =     0.00000001    0.00000001    0.00000002
     atom  204 type  1   force =    -0.00000000    0.00000001    0.00000002
     atom  205 type  1   force =     0.00000000    0.00000000    0.00000003
     atom  206 type  1   force =    -0.00000000    0.00000001    0.00000003
     atom  207 type  1   force =     0.00000001    0.00000001    0.00000002
     atom  208 type  1   force =     0.00000000    0.00000001    0.00000002
     atom  209 type  1   force =     0.00000001    0.00000000    0.00000000
     atom  210 type  1   force =    -0.00000000    0.00000001   -0.00000000
     atom  211 type  1   force =     0.00000001    0.00000001   -0.00000002
     atom  212 type  1   force =    -0.00000000    0.00000001   -0.00000002
     atom  213 type  1   force =     0.00000001    0.00000000   -0.00000002
     atom  214 type  1   force =    -0.00000000    0.00000001   -0.00000002
     atom  215 type  1   force =     0.00000002    0.00000001   -0.00000002
     atom  216 type  1   force =    -0.00000000    0.00000001   -0.00000002
     atom  217 type  1   force =     0.00000002    0.00000000   -0.00000001
     atom  218 type  1   force =     0.00000000    0.00000000   -0.00000001
     atom  219 type  1   force =     0.00000002    0.00000000   -0.00000000
     atom  220 type  1   force =    -0.00000000    0.00000001    0.00000000
     atom  221 type  1   force =     0.00000001   -0.00000000   -0.00000001
     atom  222 type  1   force =     0.00000003    0.00000001    0.00000000
     atom  223 type  1   force =     0.00000002    0.00000001    0.00000000
     atom  224 type  1   force =     0.00000001   -0.00000000    0.00000001
     atom  225 type  1   force =    -0.00000002   -0.00000004   -0.00000000
     atom  226 type  1   force =     0.00000001    0.00000001    0.00000003
     atom  227 type  1   force =    -0.00000002   -0.00000000    0.00000001
     atom  228 type  1   force =    -0.00000002   -0.00000002    0.00000002
     atom  229 type  1   force =    -0.00000006   -0.00000006    0.00000000
     atom  230 type  1   force =     0.00000000    0.00000001    0.00000000
     atom  231 type  1   force =    -0.00000002   -0.00000000   -0.00000000
     atom  232 type  1   force =    -0.00000001   -0.00000002   -0.00000001
     atom  233 type  1   force =    -0.00000002   -0.00000004    0.00000001
     atom  234 type  1   force =     0.00000001    0.00000001   -0.00000002
     atom  235 type  1   force =     0.00000001    0.00000001   -0.00000001
     atom  236 type  1   force =     0.00000002   -0.00000000   -0.00000001
     atom  237 type  1   force =     0.00000001   -0.00000000   -0.00000000
     atom  238 type  1   force =     0.00000003    0.00000001   -0.00000001
     atom  239 type  1   force =     0.00000002    0.00000001   -0.00000000
     atom  240 type  1   force =     0.00000003    0.00000000   -0.00000000
     atom  241 type  1   force =    -0.00000001   -0.00000001   -0.00000001
     atom  242 type  1   force =     0.00000001   -0.00000000   -0.00000000
     atom  243 type  1   force =    -0.00000001   -0.00000000   -0.00000001
     atom  244 type  1   force =    -0.00000000   -0.00000003   -0.00000002
     atom  245 type  1   force =    -0.00000001   -0.00000007   -0.00000004
     atom  246 type  1   force =    -0.00000001   -0.00000000   -0.00000001
     atom  247 type  1   force =    -0.00000000   -0.00000001   -0.00000002
     atom  248 type  1   force =    -0.00000004   -0.00000008   -0.00000002
     atom  249 type  1   force =    -0.00000000   -0.00000009    0.00000000
     atom  250 type  1   force =    -0.00000004   -0.00000001    0.00000000
     atom  251 type  1   force =    -0.00000000   -0.00000001    0.00000003
     atom  252 type  1   force =    -0.00000005   -0.00000008    0.00000003
     atom  253 type  1   force =    -0.00000001   -0.00000007    0.00000005
     atom  254 type  1   force =    -0.00000001   -0.00000000    0.00000002
     atom  255 type  1   force =    -0.00000000   -0.00000000    0.00000001
     atom  256 type  1   force =    -0.00000001   -0.00000003    0.00000002
     atom  257 type  1   force =    -0.00000001   -0.00000002    0.00000000
     atom  258 type  1   force =     0.00000001    0.00000000   -0.00000001
     atom  259 type  1   force =    -0.00000001   -0.00000000   -0.00000000
     atom  260 type  1   force =     0.00000000   -0.00000000   -0.00000000
     atom  261 type  1   force =    -0.00000001    0.00000001   -0.00000000
     atom  262 type  1   force =    -0.00000002    0.00000000   -0.00000000
     atom  263 type  1   force =    -0.00000001    0.00000001    0.00000000
     atom  264 type  1   force =    -0.00000000   -0.00000003   -0.00000002
     atom  265 type  1   force =     0.00000002   -0.00000003   -0.00000001
     atom  266 type  1   force =     0.00000000   -0.00000001   -0.00000001
     atom  267 type  1   force =     0.00000003   -0.00000001    0.00000001
     atom  268 type  1   force =     0.00000004   -0.00000008   -0.00000002
     atom  269 type  1   force =     0.00000006   -0.00000006    0.00000000
     atom  270 type  1   force =     0.00000004   -0.00000001    0.00000000
     atom  271 type  1   force =     0.00000003   -0.00000001   -0.00000001
     atom  272 type  1   force =     0.00000004   -0.00000008    0.00000003
     atom  273 type  1   force =     0.00000002   -0.00000004    0.00000001
     atom  274 type  1   force =     0.00000000   -0.00000001    0.00000002
     atom  275 type  1   force =    -0.00000001    0.00000000   -0.00000001
     atom  276 type  1   force =    -0.00000001   -0.00000003    0.00000002
     atom  277 type  1   force =    -0.00000001    0.00000000   -0.00000000
     atom  278 type  1   force =    -0.00000002    0.00000000   -0.00000001
     atom  279 type  1   force =    -0.00000002    0.00000001   -0.00000000
     atom  280 type  1   force =    -0.00000001    0.00000000   -0.00000000
     atom  281 type  1   force =    -0.00000001    0.00000002    0.00000001
     atom  282 type  1   force =    -0.00000002    0.00000001    0.00000001
     atom  283 type  1   force =    -0.00000001    0.00000001    0.00000002
     atom  284 type  1   force =    -0.00000000    0.00000001    0.00000001
     atom  285 type  1   force =    -0.00000000    0.00000001    0.00000002
     atom  286 type  1   force =    -0.00000000    0.00000001    0.00000003
     atom  287 type  1   force =    -0.00000001    0.00000000    0.00000003
     atom  288 type  1   force =     0.00000002   -0.00000002    0.00000002
     atom  289 type  1   force =    -0.00000000   -0.00000001    0.00000000
     atom  290 type  1   force =     0.00000001   -0.00000000    0.00000000
     atom  291 type  1   force =    -0.00000001    0.00000000   -0.00000002
     atom  292 type  1   force =     0.00000002   -0.00000003   -0.00000001
     atom  293 type  1   force =    -0.00000000    0.00000000   -0.00000002
     atom  294 type  1   force =    -0.00000000    0.00000000   -0.00000002
     atom  295 type  1   force =    -0.00000001    0.00000001   -0.00000002
     atom  296 type  1   force =    -0.00000001   -0.00000000   -0.00000001
     atom  297 type  1   force =    -0.00000001    0.00000001   -0.00000001
     atom  298 type  1   force =    -0.00000002    0.00000001   -0.00000001
     atom  299 type  1   force =    -0.00000001    0.00000001   -0.00000000
     atom  300 type  1   force =    -0.00000002    0.00000002    0.00000000

     Total force =     0.042975     Total SCF correction =     0.000001


     Computing stress (Cartesian axis) and pressure

          total   stress  (Ry/bohr**3)                   (kbar)     P=   -5.85
  -0.00003849   0.00000056   0.00000010         -5.66      0.08      0.01
   0.00000056  -0.00004133   0.00000006          0.08     -6.08      0.01
   0.00000010   0.00000006  -0.00003956          0.01      0.01     -5.82

     kinetic stress (kbar)   1448.84      0.04     -0.01
                                0.04   1448.13     -0.01
                               -0.01     -0.01   1448.86

     local   stress (kbar)    590.96      0.06      0.05
                                0.06    607.43     -0.12
                                0.05     -0.12    600.51

     nonloc. stress (kbar)   1052.28      0.05      0.02
                                0.05   1051.37      0.01
                                0.02      0.01   1052.15

     hartree stress (kbar)     16.58     -0.02     -0.05
                               -0.02     10.12      0.02
                               -0.05      0.02     12.48

     exc-cor stress (kbar)    561.47      0.00      0.00
                                0.00    561.44      0.00
                                0.00      0.00    561.46

     corecor stress (kbar)  -1335.71     -0.01     -0.00
                               -0.01  -1335.56     -0.00
                               -0.00     -0.00  -1335.69

     ewald   stress (kbar)  -2340.09     -0.03     -0.00
                               -0.03  -2349.00      0.10
                               -0.00      0.10  -2345.60

     hubbard stress (kbar)      0.00      0.00      0.00
                                0.00      0.00      0.00
                                0.00      0.00      0.00

     london  stress (kbar)      0.00      0.00      0.00
                                0.00      0.00      0.00
                                0.00      0.00      0.00

     DFT-D3  stress (kbar)      0.00      0.00      0.00
                                0.00      0.00      0.00
                                0.00      0.00      0.00

     XDM     stress (kbar)      0.00      0.00      0.00
                                0.00      0.00      0.00
                                0.00      0.00      0.00

     dft-nl  stress (kbar)      0.00      0.00      0.00
                                0.00      0.00      0.00
                                0.00      0.00      0.00

     TS-vdW  stress (kbar)      0.00      0.00      0.00
                                0.00      0.00      0.00
                                0.00      0.00      0.00



     Writing output data file aiida.save/
 
     init_run     :    227.04s CPU    229.60s WALL (       1 calls)
     electrons    :  11356.13s CPU  11430.62s WALL (       1 calls)
     forces       :    109.12s CPU    110.07s WALL (       1 calls)
     stress       :   1475.51s CPU   1477.71s WALL (       1 calls)

     Called by init_run:
     wfcinit      :    203.17s CPU    205.38s WALL (       1 calls)
     wfcinit:atom :      0.33s CPU      0.59s WALL (       2 calls)
     wfcinit:wfcr :    200.48s CPU    201.64s WALL (       2 calls)
     potinit      :      4.50s CPU      4.64s WALL (       1 calls)
     hinit0       :      6.65s CPU      6.72s WALL (       1 calls)

     Called by electrons:
     c_bands      :   9794.14s CPU   9856.21s WALL (      38 calls)
     sum_band     :   1442.91s CPU   1448.72s WALL (      38 calls)
     v_of_rho     :     50.38s CPU     51.73s WALL (      38 calls)
     v_h          :      5.57s CPU      5.59s WALL (      38 calls)
     v_xc         :     47.02s CPU     48.39s WALL (      40 calls)
     newd         :     12.33s CPU     15.19s WALL (      38 calls)
     PAW_pot      :     10.96s CPU     11.40s WALL (      38 calls)
     mix_rho      :     32.28s CPU     34.07s WALL (      38 calls)

     Called by c_bands:
     init_us_2    :    116.67s CPU    117.24s WALL (     158 calls)
     cegterg      :   8608.68s CPU   8667.61s WALL (      76 calls)

     Called by sum_band:
     sum_band:bec :      2.55s CPU      2.56s WALL (      76 calls)
     addusdens    :     11.20s CPU     14.52s WALL (      38 calls)

     Called by *egterg:
     h_psi        :   5450.65s CPU   5469.88s WALL (     275 calls)
     s_psi        :   1756.19s CPU   1756.94s WALL (     275 calls)
     g_psi        :      6.21s CPU      6.22s WALL (     197 calls)
     cdiaghg      :    553.05s CPU    560.99s WALL (     271 calls)
     cegterg:over :    442.36s CPU    444.57s WALL (     197 calls)
     cegterg:upda :    279.95s CPU    289.90s WALL (     197 calls)
     cegterg:last :    161.50s CPU    161.60s WALL (      76 calls)
     cdiaghg:chol :     24.93s CPU     25.19s WALL (     271 calls)
     cdiaghg:inve :     11.18s CPU     11.21s WALL (     271 calls)
     cdiaghg:para :    124.66s CPU    126.73s WALL (     542 calls)

     Called by h_psi:
     h_psi:pot    :   5444.39s CPU   5453.97s WALL (     275 calls)
     h_psi:calbec :   1734.74s CPU   1735.06s WALL (     275 calls)
     vloc_psi     :   1943.76s CPU   1952.09s WALL (     275 calls)
     add_vuspsi   :   1765.88s CPU   1766.82s WALL (     275 calls)

     General routines
     calbec       :   2567.61s CPU   2568.18s WALL (     361 calls)
     fft          :     54.77s CPU     55.19s WALL (     519 calls)
     ffts         :     14.17s CPU     14.24s WALL (     608 calls)
     fftw         :   2032.32s CPU   2040.80s WALL (  235442 calls)
     interpolate  :      4.93s CPU      5.01s WALL (      38 calls)
 
     Parallel routines
     fft_scatt_xy :    481.33s CPU    483.27s WALL (  236569 calls)
     fft_scatt_yz :    550.74s CPU    554.59s WALL (  236569 calls)

     PAW routines
     PAW_pot      :     10.96s CPU     11.40s WALL (      38 calls)
 
     PWSCF        :      3h43m CPU      3h45m WALL

 
   This run was terminated on:  10:29:47  28Feb2020            

=------------------------------------------------------------------------------=
   JOB DONE.
=------------------------------------------------------------------------------=
