begin
comment 300 atoms, species Al289Mg5Si6
lattice     38.3330918399     0.0000000000     0.0000000000
lattice      0.0000000000    22.9998551039     0.0000000000
lattice      0.0000000000     0.0000000000    38.3330918399
atom      3.7875816387     3.8209122621    38.2647439371   Al  0.0 0.0   -2.78324979e-04  2.02804985e-04  6.02554955e-04
atom     38.2624516182    22.9954007987    38.2610026274   Al  0.0 0.0    5.99609955e-04 -1.68994987e-04  4.15589969e-04
atom      3.7819888406    22.9971219545     3.7823606716   Al  0.0 0.0   -4.92064963e-04 -1.28054990e-04 -6.21584953e-04
atom     38.2618536220     3.8205940974     3.7861096480   Al  0.0 0.0    6.00204955e-04  2.04059985e-04 -4.41664967e-04
atom      3.7844076587     3.8250599026     7.6243484676   Al  0.0 0.0   -4.90019963e-04  2.70804980e-04 -6.18339954e-04
atom     38.2630304479    22.9950481342     7.6224011465   Al  0.0 0.0    5.71739957e-04 -1.77914987e-04 -6.18259954e-04
atom      3.7745138877    22.9951631335    11.4469128860   Al  0.0 0.0   -5.59049958e-04 -1.97939985e-04 -1.77129987e-04
atom     38.2631032808     3.8208547625    11.4489522064   Al  0.0 0.0    6.34469952e-04  2.11104984e-04 -2.44264982e-04
atom      3.7718689044     3.8267772251    15.2690671402   Al  0.0 0.0   -5.25919960e-04  1.41889989e-04 -3.85349971e-05
atom     38.2646136046    22.9957304633    15.2690211405   Al  0.0 0.0    6.02099955e-04 -1.71729987e-04 -3.78699972e-05
atom      3.7742685559    22.9949139684    19.0894235725   Al  0.0 0.0   -5.73514957e-04 -2.08919984e-04  5.80749956e-05
atom     38.2631991135     3.8206017640    19.0874762514   Al  0.0 0.0    6.03419955e-04  2.07044984e-04  1.41609989e-04
atom      3.7842121600     3.8250867358    22.9075298522   Al  0.0 0.0   -5.25844960e-04  2.62114980e-04  3.55709973e-04
atom     38.2620376209    22.9949561348    22.9085533458   Al  0.0 0.0    5.59264958e-04 -1.79374987e-04  3.14269976e-04
atom      3.7811186794    22.9971296211    26.7309912649   Al  0.0 0.0   -4.66059965e-04 -1.28069990e-04  6.84109949e-04
atom     38.2616121235     3.8204369317    26.7280281169   Al  0.0 0.0    5.58974958e-04  1.82779986e-04  5.07574962e-04
atom      3.7875854720     3.8208585958    30.5671485976   Al  0.0 0.0   -2.64859980e-04  2.06979984e-04  2.71559980e-04
atom     38.2618651219    22.9954621316    30.5705334097   Al  0.0 0.0    5.62374958e-04 -1.63289988e-04  4.17719969e-04
atom      3.7850018217    22.9948679687    34.4270264476   Al  0.0 0.0   -4.65584965e-04 -1.97534985e-04 -4.94559963e-04
atom     38.2617999557     3.8233425801    34.4268501154   Al  0.0 0.0    5.34549960e-04  2.29109983e-04 -4.99434962e-04
atom     11.4493163708     3.8259032306    38.2616082902   Al  0.0 0.0   -2.69709980e-04  3.05344977e-04  3.55464973e-04
atom      7.6212779869    22.9970759548    38.2582464781   Al  0.0 0.0   -7.84574941e-04 -1.60759988e-04  2.69304980e-04
atom     11.4029371630    22.9967462902     3.7422604243   Al  0.0 0.0   -4.35034967e-04 -1.27434990e-04 -5.36824960e-04
atom      7.6390070419     3.8268768912     3.7951332578   Al  0.0 0.0   -6.14209954e-04  4.21369968e-04 -5.01339962e-04
atom     11.5068045086     3.8470477641     7.6717013360   Al  0.0 0.0   -1.14871491e-03 -1.66879987e-04 -1.71079487e-03
atom      7.6008426157    22.9971487876     7.5894883539   Al  0.0 0.0   -7.86274941e-04 -1.29314990e-04 -1.01645492e-03
atom     11.3473426799     0.0203050387    11.3423823778   Al  0.0 0.0   -5.66459957e-04 -1.08428992e-03  7.24254946e-04
atom      7.6196679971     3.8185394437    11.4510911930   Al  0.0 0.0   -1.11166992e-03  5.16399961e-04 -2.63714980e-04
atom     11.3279729686     3.9372416959    15.2799690715   Al  0.0 0.0   -1.26794990e-04 -1.42932989e-03 -5.24264961e-04
atom      7.5762711038    22.9920964861    15.2687336423   Al  0.0 0.0   -7.12534946e-04 -8.54349936e-05 -5.31999960e-06
atom     11.3550322981     0.0272854948    19.1941725792   Al  0.0 0.0   -8.59174935e-04 -1.38097990e-03 -7.15144946e-04
atom      7.6165745166     3.8176961157    19.0907613974   Al  0.0 0.0   -1.09695492e-03  5.68469957e-04  4.97899963e-05
atom     11.5124739729     3.8519888996    22.8559833436   Al  0.0 0.0   -1.10640492e-03 -3.79149972e-04  1.75970487e-03
atom      7.6038287635    22.9975742850    22.9387214891   Al  0.0 0.0   -8.37899937e-04 -1.15069991e-04  8.34699937e-04
atom     11.3951785452    22.9969456223    26.7785817985   Al  0.0 0.0    3.17999976e-06 -1.15074991e-04  2.08904984e-04
atom      7.6397967036     3.8273522215    26.7167045216   Al  0.0 0.0   -6.29599953e-04  4.45219967e-04  6.33559952e-04
atom     11.4506081960     3.8266737258    30.5706867420   Al  0.0 0.0   -2.77199979e-04  3.25654976e-04  5.05059962e-04
atom      7.6192884995    22.9971947874    30.5760725414   Al  0.0 0.0   -7.98189940e-04 -1.62374988e-04  6.11849954e-04
atom     11.4460427248    22.9940936402    34.4272832793   Al  0.0 0.0   -2.86049979e-04 -1.73784987e-04 -5.08519962e-04
atom      7.6270317840     3.8203334324    34.4268117823   Al  0.0 0.0   -4.87414963e-04  1.88269986e-04 -5.09549962e-04
atom     19.0848466013     3.8263478945    38.2395820957   Al  0.0 0.0    8.97699933e-05  8.88699933e-05  4.83359964e-04
atom     15.2676718157    22.9973289532    38.2546431674   Al  0.0 0.0    1.01564992e-04 -2.50124981e-04  5.07794962e-04
atom     19.1004405031    22.9983409468     3.7571451638   Al  0.0 0.0    2.45999982e-05  4.75184964e-04 -7.35054945e-04
atom     15.2918063303     3.8141809712     3.7798613540   Al  0.0 0.0   -5.80449956e-05  1.74779987e-04 -9.15174931e-04
atom     15.1298643505    22.9883130100     7.4957831109   Al  0.0 0.0    6.75294949e-04 -8.48359936e-04 -1.11357492e-03
atom     15.1284153596    22.9862775228    23.0280950927   Al  0.0 0.0    4.92699963e-04 -8.50459936e-04  1.16819991e-03
atom     19.0994591759    22.9946763032    26.7580007614   Al  0.0 0.0    2.02504985e-04  6.40024952e-04  7.66849942e-04
atom     15.2993387828     3.8161436255    26.7304086019   Al  0.0 0.0   -1.87464986e-04 -7.29999945e-06  9.99949925e-04
atom     19.0864297580     3.8267082256    30.5977575715   Al  0.0 0.0    1.44279989e-04  6.59849950e-05  3.36684975e-04
atom     15.2670086532    22.9983562800    30.5802546817   Al  0.0 0.0    1.58719988e-04 -2.54534981e-04  3.00019977e-04
atom     19.0857320957    22.9945306375    34.4287092703   Al  0.0 0.0   -3.13049976e-05 -1.44024989e-04 -5.27499960e-04
atom     15.2644633359     3.8205212646    34.4277356098   Al  0.0 0.0   -1.55374988e-04  1.64799988e-04 -5.20319961e-04
atom     26.7438328507     3.8302118702    38.2418054150   Al  0.0 0.0    5.38344960e-04  3.84134971e-04  3.22594976e-04
atom     22.9046663703    22.9939134747    38.2458342229   Al  0.0 0.0    2.63614980e-04 -2.19429984e-04  5.08909962e-04
atom     26.8340996154    22.9922229853     3.6844349552   Al  0.0 0.0   -1.28180490e-03 -1.38814990e-04  1.68022987e-03
atom     22.9301732096     3.8251097356     3.7274561842   Al  0.0 0.0   -4.36974967e-04 -3.55354973e-04  6.50234951e-04
atom     26.7137107071     3.8858293531     7.6523546245   Al  0.0 0.0    7.86334941e-04 -1.82235486e-03 -1.80387986e-03
atom     23.0912143617    22.9926484827     7.4750065751   Al  0.0 0.0    2.86994978e-04 -4.44459967e-04 -1.90226986e-03
atom     26.8852704597     0.0211023671    11.3005648079   Al  0.0 0.0    1.27186990e-03 -1.07012492e-03 -3.60254973e-04
atom     26.9168070943     3.9629517006    15.2450706247   Al  0.0 0.0    1.69749987e-05 -1.08422992e-03  6.57639951e-04
atom     26.8781673377    22.9987127778    19.1866401267   Al  0.0 0.0    1.24666491e-03 -6.06499954e-04  9.14519931e-04
atom     26.7287832788     3.8678817995    22.8681464337   Al  0.0 0.0    4.55319966e-04 -1.18790491e-03  1.63198488e-03
atom     23.1185458562    22.9808495570    23.0607932200   Al  0.0 0.0    5.28989960e-04 -2.62239980e-04  1.82644986e-03
atom     26.8346631118    22.9901798316    26.8218023595   Al  0.0 0.0   -9.49214929e-04 -1.07329992e-04 -1.04055492e-03
atom     22.9504130821     3.8199041018    26.8007459922   Al  0.0 0.0   -9.62699928e-04 -2.52454981e-04 -9.89309926e-04
atom     26.7531631253     3.8297902062    30.6000038907   Al  0.0 0.0    3.57709973e-04  3.63264973e-04  3.39529974e-04
atom     22.9045705375    22.9909349935    30.5906199498   Al  0.0 0.0    2.92089978e-04 -1.54784988e-04  3.65504973e-04
atom     26.7328657531    22.9913566575    34.4269191149   Al  0.0 0.0    6.29209953e-04 -2.62699980e-04 -4.64629965e-04
atom     22.9093775073     3.8209237620    34.4290236017   Al  0.0 0.0    2.35624982e-04  1.89154986e-04 -5.38944959e-04
atom     34.4247954616     3.8212879264    38.2643682728   Al  0.0 0.0   -4.67114965e-04  2.56794981e-04  5.80959956e-04
atom     30.5878254674    22.9960677945    38.2455198916   Al  0.0 0.0    9.85934926e-04 -2.00644985e-04  4.61799965e-05
atom     34.4369930515    22.9969226224     3.7763692094   Al  0.0 0.0   -1.13719991e-04 -1.53524988e-04 -8.13329939e-04
atom     30.5667116004     3.8334356832     3.7909127844   Al  0.0 0.0    8.33059937e-04  5.77479957e-04 -8.25904938e-04
atom     34.4339340707     3.8271797226     7.6218529833   Al  0.0 0.0   -6.79899949e-05  3.27464975e-04 -7.80649941e-04
atom     30.6369914910    22.9946571367     7.5558012328   Al  0.0 0.0   -3.38484975e-04 -1.56409988e-04 -1.76479987e-04
atom     34.4459514950    22.9945651373    11.4468707196   Al  0.0 0.0   -1.77379987e-04 -2.41949982e-04 -2.56719981e-04
atom     30.6133553065     3.8285443807    11.4375634449   Al  0.0 0.0    6.30294953e-04  2.18309984e-04 -2.42024982e-04
atom     34.4473238197     3.8266507259    15.2697111362   Al  0.0 0.0   -1.85459986e-04  1.39704990e-04 -3.03149977e-05
atom     30.6341356756    22.9886963409    15.2617186865   Al  0.0 0.0    9.87874926e-04 -9.49649929e-05 -1.33744990e-04
atom     34.4427698484    22.9946648033    19.0892204071   Al  0.0 0.0   -1.68614987e-04 -2.27979983e-04  4.80199964e-05
atom     30.5964849128     3.8167454550    19.0894925720   Al  0.0 0.0    1.08033492e-03  6.33864952e-04 -1.43944989e-04
atom     34.4317797510     3.8253167343    22.9085801790   Al  0.0 0.0   -2.50919981e-04  2.53424981e-04  3.65334973e-04
atom     30.6072143452    22.9947338029    22.9451154488   Al  0.0 0.0    8.41009937e-04 -2.07659984e-04  8.79614934e-04
atom     34.4314692529    22.9966696240    26.7319725921   Al  0.0 0.0   -2.42184982e-04 -1.51349989e-04  7.43629944e-04
atom     30.5704797433     3.8307868665    26.7236428112   Al  0.0 0.0    7.43964944e-04  5.11609962e-04  7.63589943e-04
atom     34.4251979591     3.8210655945    30.5679535926   Al  0.0 0.0   -4.67494965e-04  2.37594982e-04  3.12119977e-04
atom     30.5875763023    22.9951439669    30.5851996506   Al  0.0 0.0    1.03318492e-03 -2.08449984e-04  8.51859936e-04
atom     34.4280959408    22.9948909685    34.4262904522   Al  0.0 0.0   -1.87999986e-04 -2.26534983e-04 -5.18144961e-04
atom     30.5738530554     3.8208777623    34.4282722731   Al  0.0 0.0    6.76309949e-04  2.59154981e-04 -4.75379964e-04
atom     15.6682334589     3.6580349549    11.6944718264   Mg  0.0 0.0   -9.23219931e-04  6.59389950e-04 -6.02889955e-04
atom     22.5843397216     3.6974298733    11.6821630706   Mg  0.0 0.0   -1.80104986e-04 -5.06954962e-04 -7.04784947e-04
atom     19.1313254752     3.9557220795     7.3026801607   Si  0.0 0.0   -1.75474987e-04 -4.70434965e-04 -4.70379965e-04
atom     19.1187138879    22.8947304329    10.3255587837   Si  0.0 0.0    1.12244992e-04  1.54870488e-03  1.22449991e-03
atom     14.3012639039    22.7867729463    15.2716814571   Si  0.0 0.0   -1.26413490e-03  1.17010991e-03 -1.39934989e-04
atom     19.1318046388     0.8445853459    15.2899433420   Mg  0.0 0.0    2.53979481e-03  2.77558979e-03 -1.25879991e-04
atom     15.6691074533     3.6685688885    18.8309550341   Mg  0.0 0.0   -4.86374963e-04  8.45699936e-05  1.30279990e-03
atom     22.6130013744     3.6779144963    18.8714616123   Mg  0.0 0.0    2.89459978e-04  3.01449977e-04 -9.12149931e-05
atom     24.0250008123    22.8183862472    15.2459522858   Si  0.0 0.0   -3.42353474e-03  2.69839480e-03 -4.36499967e-05
atom     19.1567326484    22.9238597494    20.2573293815   Si  0.0 0.0   -1.39901989e-03  1.98818485e-03 -2.47866481e-03
atom     19.1566368157     3.9556837464    23.2382677686   Si  0.0 0.0   -3.98009970e-04 -1.11844992e-04  3.15284976e-04
atom      3.7842236599    11.4948560839    38.2604544642   Al  0.0 0.0   -4.49014966e-04 -3.09489977e-04  4.55759966e-04
atom     38.2615814571     7.6537422824    38.2643797728   Al  0.0 0.0    4.98164963e-04  1.97349985e-04  5.92464955e-04
atom      3.7841239938     7.6549306083     3.7838786621   Al  0.0 0.0   -3.51619974e-04  2.00304985e-04 -3.78304972e-04
atom     38.2620414542    11.4949442500     3.7841048273   Al  0.0 0.0    5.15539961e-04 -3.64044973e-04 -4.32269968e-04
atom      3.7861211479    11.4925905982     7.6247701316   Al  0.0 0.0   -3.08084977e-04 -3.56204973e-04 -5.06959962e-04
atom     38.2617424560     7.6584074197     7.6256172929   Al  0.0 0.0    5.83764956e-04  3.33329975e-04 -5.25839960e-04
atom      3.7813295115     7.6566479308    11.4461232243   Al  0.0 0.0   -4.99529962e-04  3.18999976e-04 -3.17884976e-04
atom     38.2619379548    11.4959179106    11.4501021992   Al  0.0 0.0    5.84379956e-04 -2.37784982e-04 -2.76259979e-04
atom      3.7771742043    11.4950592493    15.2689521409   Al  0.0 0.0   -9.05949932e-04 -4.09854969e-04 -3.32549975e-05
atom     38.2624056185     7.6584840859    15.2689406410   Al  0.0 0.0    6.05379955e-04  2.30699983e-04 -3.56999973e-05
atom      3.7819236744     7.6566977638    19.0902975670   Al  0.0 0.0   -5.25084961e-04  3.25294976e-04  2.06584984e-04
atom     38.2617884558    11.4959255772    19.0860924268   Al  0.0 0.0    5.66339957e-04 -2.50024981e-04  1.46829989e-04
atom      3.7860559817    11.4924832655    22.9061421943   Al  0.0 0.0   -3.13274976e-04 -3.58694973e-04  2.06284984e-04
atom     38.2616427900     7.6580087556    22.9055480314   Al  0.0 0.0    5.82249956e-04  3.14054976e-04  2.29879983e-04
atom      3.7831158335     7.6552986060    26.7304622683   Al  0.0 0.0   -3.14984976e-04  1.88189986e-04  4.46299966e-04
atom     38.2616964563    11.4949940830    26.7297339395   Al  0.0 0.0    5.32854960e-04 -3.63679973e-04  5.02069962e-04
atom      3.7841661603    11.4948445840    30.5714380706   Al  0.0 0.0   -4.31719968e-04 -3.08804977e-04  4.30084968e-04
atom     38.2614242914     7.6538534484    30.5676009281   Al  0.0 0.0    5.17934961e-04  1.94169985e-04  3.13259976e-04
atom      3.7874628061     7.6531902859    34.4268194489   Al  0.0 0.0   -2.99129978e-04  1.89569986e-04 -5.07499962e-04
atom     38.2620606207    11.4952432481    34.4263096188   Al  0.0 0.0    4.95584963e-04 -2.74344979e-04 -4.91699963e-04
atom     11.4488333739    11.4945340859    38.2628617823   Al  0.0 0.0   -2.77329979e-04 -3.51194974e-04  5.25524961e-04
atom      7.6246512990     7.6553446057    38.2618229555   Al  0.0 0.0   -4.38424967e-04  2.02794985e-04  5.83024956e-04
atom     11.4605326335     7.6481801508     3.7881029688   Al  0.0 0.0   -4.34099967e-05  1.27249990e-04 -3.60604973e-04
atom      7.6193613324    11.4951550820     3.7783816967   Al  0.0 0.0   -5.35449960e-04 -4.33914967e-04 -4.89039963e-04
atom     11.4521261864    11.4847284811     7.6235281394   Al  0.0 0.0   -5.46489959e-04 -6.42964952e-04 -9.07309932e-04
atom      7.6312790906     7.6474249889     7.6284731083   Al  0.0 0.0   -4.36864967e-04  1.86194986e-04 -4.26909968e-04
atom     11.4831529910     7.6292091037    11.4300348256   Al  0.0 0.0   -6.68904950e-04  1.03749992e-03  9.90449926e-05
atom      7.6331880786    11.4850696456    11.4436009068   Al  0.0 0.0   -5.88864956e-04 -3.03749977e-04 -5.92644955e-04
atom     11.3926063947    11.5025572021    15.2693546384   Al  0.0 0.0   -6.90159948e-04 -1.51075989e-03  3.12749976e-05
atom      7.5881351957     7.6915080445    15.2698874684   Al  0.0 0.0   -8.17529939e-04  2.30499983e-05 -2.44499982e-06
atom     11.4907621097     7.6273154489    19.1138685851   Al  0.0 0.0   -9.91994925e-04  1.32500990e-03 -3.19019976e-04
atom      7.6359365613    11.4827964932    19.0925285529   Al  0.0 0.0   -6.30674953e-04 -2.45334982e-04  4.94469963e-04
atom     11.4539853414    11.4828271597    22.9076103517   Al  0.0 0.0   -4.47819966e-04 -6.48434951e-04  5.88769956e-04
atom      7.6318770868     7.6479846520    22.9026002166   Al  0.0 0.0   -4.36289967e-04  1.82694986e-04  1.76759987e-04
atom     11.4626677867     7.6484293159    26.7235278120   Al  0.0 0.0    7.72099942e-05  9.75999927e-05  3.99824970e-04
atom      7.6193958321    11.4954464135    26.7352807379   Al  0.0 0.0   -5.27754960e-04 -4.58544966e-04  5.61059958e-04
atom     11.4489943728    11.4943999201    30.5695750824   Al  0.0 0.0   -2.94694978e-04 -3.59389973e-04  3.54594973e-04
atom      7.6250307966     7.6548731086    30.5700005797   Al  0.0 0.0   -4.22349968e-04  2.10864984e-04  2.72429980e-04
atom     11.4481817113     7.6590092492    34.4272142797   Al  0.0 0.0   -2.69709980e-04  3.17499976e-04 -5.04884962e-04
atom      7.6241606355    11.4949020836    34.4267389494   Al  0.0 0.0   -4.54019966e-04 -3.52169974e-04 -5.18534961e-04
atom     19.0854522642    11.4987660593    38.2434192381   Al  0.0 0.0   -1.25599991e-05 -4.35644967e-04 -3.03949977e-05
atom     15.2603501951     7.6555592710    38.2583116443   Al  0.0 0.0   -1.88774986e-04  3.38854975e-04  3.09284977e-04
atom     19.0876525836     7.7188702055     3.7165810860   Al  0.0 0.0    2.17004984e-04 -9.55274928e-04 -1.90879986e-04
atom     15.2569615498    11.4807686727     3.7967317478   Al  0.0 0.0   -4.29329968e-04 -4.91274963e-04 -6.31524953e-04
atom     19.0866137568    11.5026530348     7.5630500204   Al  0.0 0.0   -3.83549971e-05 -1.14299491e-03 -9.99294925e-04
atom     15.3048510814     7.5913245090     7.6412801943   Al  0.0 0.0    3.66034972e-04  1.55706488e-03 -1.36224990e-03
atom     19.0753706610     7.9404623095    11.4441720699   Al  0.0 0.0    7.17789946e-04 -3.38795475e-03  1.23378491e-03
atom     15.2145651502    11.5609691674    11.4123211039   Al  0.0 0.0   -1.97049985e-04 -1.24733991e-03 -4.18899969e-04
atom     19.0840109399    11.6263079225    15.2716661238   Al  0.0 0.0    9.71399927e-05  9.41609929e-04 -3.10649977e-05
atom     15.2626310141     7.8590581556    15.2776767526   Al  0.0 0.0    9.95989925e-04 -2.45979982e-03 -3.93939970e-04
atom     19.1221868661     7.9211884309    19.0956220334   Al  0.0 0.0   -4.55154966e-04 -2.98811978e-03 -1.28136990e-03
atom     15.2286103951    11.5518497249    19.1274116665   Al  0.0 0.0   -3.26729975e-04 -1.15559991e-03  2.57574981e-04
atom     19.0872500862    11.5002495499    22.9644008273   Al  0.0 0.0    2.11994984e-04 -1.12967992e-03  7.59874943e-04
atom     15.3243856250     7.5825002312    22.8766832132   Al  0.0 0.0    1.81269986e-04  1.77575987e-03  1.53269488e-03
atom     19.0891322410     7.7239915065    26.8034676417   Al  0.0 0.0    3.59839973e-04 -1.08155992e-03  2.08539984e-04
atom     15.2555547253    11.4798793449    26.7158036939   Al  0.0 0.0   -3.41789974e-04 -5.84729956e-04  7.05599947e-04
atom     19.0847776017    11.5010545449    30.5932342666   Al  0.0 0.0   -2.65849980e-05 -4.77569964e-04  8.67819935e-04
atom     15.2590162035     7.6551107738    30.5753748792   Al  0.0 0.0   -1.48389989e-04  3.49504974e-04  5.43524959e-04
atom     19.0856975959     7.6597260781    34.4278122760   Al  0.0 0.0   -2.36849982e-05  1.31514990e-04 -5.01639962e-04
atom     15.2695616371    11.4942350878    34.4270571141   Al  0.0 0.0   -2.66539980e-04 -2.61409980e-04 -4.95009963e-04
atom     26.7298642720    11.4938939233    38.2636591106   Al  0.0 0.0    5.96339955e-04 -2.81174979e-04  4.29914968e-04
atom     22.9111331629     7.6628042253    38.2522473492   Al  0.0 0.0    3.95089970e-04  3.09314977e-04  2.48954981e-04
atom     26.7236773110     7.6559732684     3.7845763243   Al  0.0 0.0    4.71444965e-04  3.32349975e-04 -6.45259952e-04
atom     22.9152233038    11.4815468344     3.7957772538   Al  0.0 0.0    5.60749958e-04 -3.56964973e-04 -6.51184951e-04
atom     26.7328964196    11.4930122622     7.6201893271   Al  0.0 0.0    7.54089943e-04 -5.80589956e-04 -9.71444927e-04
atom     22.8890878018     7.6121470445     7.6395053721   Al  0.0 0.0   -6.68339950e-04  1.20798991e-03 -1.75172487e-03
atom     26.7014172846     7.6463823288    11.4211262151   Al  0.0 0.0    1.51686489e-03  1.20223491e-03  3.05684977e-04
atom     22.9516320744    11.5600606731    11.4101131178   Al  0.0 0.0    3.94774970e-04 -1.10018992e-03 -4.00109970e-04
atom     26.7827754387    11.5031475317    15.2673958174   Al  0.0 0.0    1.16901991e-03 -1.18466991e-03 -4.82649964e-05
atom     22.9151274710     7.8721374066    15.2731956142   Al  0.0 0.0   -5.03764962e-04 -2.95902978e-03 -9.31949930e-05
atom     26.7204994977     7.6513579641    19.1088354502   Al  0.0 0.0    9.88054926e-04  7.36054945e-04 -4.06754969e-04
atom     22.9610581817    11.5679112903    19.1261351745   Al  0.0 0.0    3.16054976e-04 -1.31443490e-03  3.90629971e-04
atom     26.7361470658    11.4959639103    22.9119419911   Al  0.0 0.0    8.60749935e-04 -6.27339953e-04  6.59844950e-04
atom     22.9103090014     7.6196411639    22.9077790173   Al  0.0 0.0   -7.30314945e-04  7.78059942e-04  1.01122492e-03
atom     26.7289711110     7.6554251052    26.7285839468   Al  0.0 0.0    5.29919960e-04  1.59514988e-04  8.13209939e-04
atom     22.9157331339    11.4850504790    26.7206489968   Al  0.0 0.0    5.79424956e-04 -3.51699974e-04  7.67214942e-04
atom     26.7297454394    11.4931770945    30.5681720912   Al  0.0 0.0    6.21179953e-04 -2.56579981e-04  4.53624966e-04
atom     22.9119304912     7.6651080442    30.5842566565   Al  0.0 0.0    4.66914965e-04  2.20909983e-04  5.72529957e-04
atom     26.7306961001     7.6631070568    34.4276972767   Al  0.0 0.0    5.94869955e-04  4.78004964e-04 -4.72809964e-04
atom     22.9047047034    11.4963434079    34.4273522789   Al  0.0 0.0    3.36184975e-04 -1.90159986e-04 -4.86494963e-04
atom     34.4286249375    11.4948024176    38.2593581377   Al  0.0 0.0   -4.64854965e-04 -2.99989977e-04  4.63934965e-04
atom     30.5712809049     7.6557164367    38.2623174524   Al  0.0 0.0    4.98409963e-04  3.36764975e-04  4.84629964e-04
atom     34.4272871126     7.6552027732     3.7840971607   Al  0.0 0.0   -4.14044969e-04  2.87624978e-04 -4.34304967e-04
atom     30.5781118619    11.4961364092     3.7772662037   Al  0.0 0.0    5.55914958e-04 -3.78914972e-04 -5.41774959e-04
atom     34.4254317910    11.4927630971     7.6249962969   Al  0.0 0.0   -4.26009968e-04 -3.47854974e-04 -5.20359961e-04
atom     30.5727835621     7.6545856104     7.6291401041   Al  0.0 0.0    5.57584958e-04  4.17254969e-04 -5.69354957e-04
atom     34.4328070778     7.6592545810    11.4454907282   Al  0.0 0.0   -5.94099955e-05  4.26929968e-04 -3.64484973e-04
atom     30.5625371267    11.4852383112    11.4431064099   Al  0.0 0.0    6.65199950e-04 -1.42759989e-04 -6.70059950e-04
atom     34.4393850364    11.4962092421    15.2688601415   Al  0.0 0.0    2.40079982e-04 -3.22524976e-04 -3.46249974e-05
atom     30.6334878464     7.7129592427    15.2687451422   Al  0.0 0.0    5.08554962e-04 -2.98814978e-04 -8.99299932e-05
atom     34.4318564172     7.6570274284    19.0913440604   Al  0.0 0.0   -1.46319989e-04  3.51774974e-04  2.28424983e-04
atom     30.5672175972    11.4893476186    19.0935328799   Al  0.0 0.0    6.14119954e-04 -2.25939983e-04  5.31169960e-04
atom     34.4259186212    11.4930007623    22.9062341937   Al  0.0 0.0   -3.93444970e-04 -3.45144974e-04  2.34409982e-04
atom     30.5771037016     7.6545089443    22.9037847092   Al  0.0 0.0    5.47449959e-04  3.19334976e-04  1.70239987e-04
atom     34.4283067729     7.6564984317    26.7310564312   Al  0.0 0.0   -4.08934969e-04  2.44439982e-04  4.88354963e-04
atom     30.5781846948    11.4964622405    26.7369980604   Al  0.0 0.0    5.84039956e-04 -3.59984973e-04  6.28309953e-04
atom     34.4287092703    11.4953084144    30.5719709006   Al  0.0 0.0   -4.49304966e-04 -2.95649978e-04  4.62079965e-04
atom     30.5721088997     7.6564255989    30.5695290826   Al  0.0 0.0    5.40474959e-04  3.20159976e-04  4.32129968e-04
atom     34.4235573028     7.6524581239    34.4264246180   Al  0.0 0.0   -5.76714957e-04  2.12489984e-04 -4.92514963e-04
atom     30.5729138947    11.4948254174    34.4267274495   Al  0.0 0.0    3.91784971e-04 -3.45174974e-04 -4.99929962e-04
atom      3.7868341434    19.1638856034    38.2631914469   Al  0.0 0.0   -4.12869969e-04 -2.38544982e-04  5.04734962e-04
atom     38.2617884558    15.3236381298    38.2655412654   Al  0.0 0.0    5.01149962e-04  3.42934974e-04  6.17039954e-04
atom      3.7825868369    15.3197511542     3.7848063229   Al  0.0 0.0   -4.98594963e-04  2.41114982e-04 -4.41959967e-04
atom     38.2614511245    19.1654917599     3.7865543119   Al  0.0 0.0    5.63194958e-04 -1.86524986e-04 -4.32619967e-04
atom      3.7811225128    19.1591744664     7.6231563084   Al  0.0 0.0   -4.86229963e-04 -2.37219982e-04 -6.40504952e-04
atom     38.2619226216    15.3197319877     7.6251036295   Al  0.0 0.0    5.64114958e-04  1.74304987e-04 -5.29919960e-04
atom      3.7821613395    15.3205101495    11.4450575643   Al  0.0 0.0   -5.40799959e-04  1.90754986e-04 -3.86214971e-04
atom     38.2626701169    19.1629042762    11.4503206978   Al  0.0 0.0    6.02784955e-04 -2.46749981e-04 -1.91404986e-04
atom      3.7738315587    19.1559161536    15.2689253078   Al  0.0 0.0   -6.35749952e-04 -1.41349989e-04 -3.64499973e-05
atom     38.2624132852    15.3203568171    15.2688563082   Al  0.0 0.0    5.93229955e-04  2.96219978e-04 -3.86849971e-05
atom      3.7826980028    15.3208244808    19.0912942274   Al  0.0 0.0   -5.17354961e-04  2.02464985e-04  2.57409981e-04
atom     38.2622714527    19.1630997750    19.0862189260   Al  0.0 0.0    5.97794955e-04 -2.36584982e-04  8.28549938e-05
atom      3.7812605119    19.1592894657    22.9079323497   Al  0.0 0.0   -4.83669964e-04 -2.20339983e-04  3.34884975e-04
atom     38.2615776238    15.3201306519    22.9061881940   Al  0.0 0.0    5.63259958e-04  1.90349986e-04  2.35824982e-04
atom      3.7815173436    15.3196974879    26.7296917731   Al  0.0 0.0   -4.67689965e-04  2.40574982e-04  4.99609962e-04
atom     38.2614281247    19.1651582620    26.7279169510   Al  0.0 0.0    5.40834959e-04 -1.52709989e-04  4.89619963e-04
atom      3.7866578112    19.1639162698    30.5689502530   Al  0.0 0.0   -4.09224969e-04 -2.40644982e-04  3.86539971e-04
atom     38.2616159568    15.3232586321    30.5663896024   Al  0.0 0.0    5.14794961e-04  3.40634974e-04  2.90754978e-04
atom      3.7887354648    15.3227258022    34.4266009503   Al  0.0 0.0   -2.80359979e-04  3.14934976e-04 -4.97284963e-04
atom     38.2613284587    19.1585649702    34.4267312828   Al  0.0 0.0    5.28209960e-04 -2.98794978e-04 -4.98664963e-04
atom     11.4457053936    19.1584921373    38.2569699861   Al  0.0 0.0   -4.19724968e-04 -2.31029983e-04  2.61834980e-04
atom      7.6260964566    15.3209279802    38.2586834753   Al  0.0 0.0   -5.31599960e-04  2.67704980e-04  4.24854968e-04
atom     11.4531266801    15.3273296065     3.7835681640   Al  0.0 0.0   -3.80174971e-04  2.43009982e-04 -5.03649962e-04
atom      7.6180810071    19.1535088354     3.7787343611   Al  0.0 0.0   -5.32324960e-04 -3.50304974e-04 -3.88489971e-04
atom     11.4595091399    19.1427832363     7.6397392040   Al  0.0 0.0    3.65599973e-05  7.95499940e-06 -3.44369974e-04
atom      7.6250077968    15.3233621315     7.6320419191   Al  0.0 0.0   -5.37239960e-04  2.04589985e-04 -5.49794959e-04
atom     11.4501290324    15.3391668653    11.4275316747   Al  0.0 0.0   -8.63374935e-04  6.80739949e-04 -6.27779953e-04
atom      7.6280131112    19.1769801875    11.4452645630   Al  0.0 0.0   -1.39506490e-03 -3.26604975e-04 -4.87424963e-04
atom     11.2849785728    18.9881820436    15.2692204726   Al  0.0 0.0   -2.94104978e-04  4.93239963e-04  2.98499978e-06
atom      7.5761024382    15.2871718595    15.2696306367   Al  0.0 0.0   -1.67308987e-03 -3.33369975e-04 -3.29549975e-05
atom     11.4523906848    15.3369972123    19.1088047837   Al  0.0 0.0   -7.29869945e-04  6.32749952e-04  5.21179961e-04
atom      7.6308880931    19.1804953321    19.0908572301   Al  0.0 0.0   -1.45270989e-03 -4.16409969e-04  3.32049975e-04
atom     11.4543840056    19.1394405907    22.8906096255   Al  0.0 0.0    2.47144981e-04  1.79384987e-04  1.46809989e-04
atom      7.6241414689    15.3222543051    22.8985100757   Al  0.0 0.0   -5.32299960e-04  1.87834986e-04  2.33074982e-04
atom     11.4521031866    15.3271954407    26.7304354351   Al  0.0 0.0   -4.19264968e-04  2.16029984e-04  6.27139953e-04
atom      7.6171111799    19.1524891752    26.7347287414   Al  0.0 0.0   -5.66879957e-04 -3.29459975e-04  4.89434963e-04
atom     11.4460043917    19.1577944751    30.5762987067   Al  0.0 0.0   -4.44039967e-04 -2.30259983e-04  6.37169952e-04
atom      7.6265027874    15.3212883112    30.5734543913   Al  0.0 0.0   -5.59959958e-04  2.56214981e-04  4.78019964e-04
atom     11.4486187085    15.3192298242    34.4268884485   Al  0.0 0.0   -2.72469980e-04  1.80829986e-04 -5.07504962e-04
atom      7.6264836208    19.1641846015    34.4269267815   Al  0.0 0.0   -5.21779961e-04 -1.66659987e-04 -5.01174962e-04
atom     19.0836199424    19.1525505081    38.2427024093   Al  0.0 0.0    2.24849983e-05  3.26249975e-05  5.71749957e-04
atom     15.2608753585    15.3194099897    38.2579513133   Al  0.0 0.0   -3.24809976e-04  1.06704992e-04  2.38264982e-04
atom     19.0842371051    15.2676219827     3.7158910904   Al  0.0 0.0    4.65599965e-05  1.01752492e-03 -3.54034973e-04
atom     15.2620483511    19.1727673807     3.7722867351   Al  0.0 0.0    1.90299986e-04 -5.52349958e-04 -9.07104932e-04
atom     19.0927968846    19.0120443933     7.4754205725   Al  0.0 0.0   -1.40424989e-04 -1.90273986e-03 -2.68432980e-03
atom     15.2370666751    15.3167075068     7.6195606644   Al  0.0 0.0    2.93309978e-04  1.41106489e-03 -1.19021491e-03