begin
comment 4 atoms, species Al4
lattice      7.6743489679     0.0000000000     0.0000000000
lattice      0.0000000000     7.6666822933     0.0000000000
lattice      0.0000000000     0.0000000000     7.6666822933
atom      7.6724280784     0.0000000000     0.0000000000   Al  0.0 0.0   -1.21999991e-06 -1.57999988e-06 -1.57499988e-06
atom      3.8352290365     3.8333089144     0.0000000000   Al  0.0 0.0    1.25499991e-06  1.57499988e-06 -1.56999988e-06
atom      3.8352290365     0.0000000000     3.8333089144   Al  0.0 0.0    1.24999991e-06 -1.57499988e-06  1.56999988e-06
atom      7.6724296133     3.8333089144     3.8333089144   Al  0.0 0.0   -1.28499990e-06  1.57499988e-06  1.57499988e-06
energy -7.900542793214090e+01
charge 0.0000
end
