
     Program PWSCF v.6.3 starts on 22Feb2020 at 11:23: 9 

     This program is part of the open-source Quantum ESPRESSO suite
     for quantum simulation of materials; please cite
         "P. Giannozzi et al., J. Phys.:Condens. Matter 21 395502 (2009);
         "P. Giannozzi et al., J. Phys.:Condens. Matter 29 465901 (2017);
          URL http://www.quantum-espresso.org", 
     in publications or presentations arising from this work. More details at
     http://www.quantum-espresso.org/quote

 *** WARNING: using old-style file format, will disappear from next version ***

     Parallel version (MPI & OpenMP), running on      36 processor cores
     Number of MPI processes:                36
     Threads/MPI process:                     1

     MPI processes distributed on     1 nodes
     K-points division:     npool     =       4
     R & G space division:  proc/nbgrp/npool/nimage =       9
     Reading input from aiida.in
Warning: card &IONS ignored
Warning: card   !PRESS_CONV_THR = 0.05                 ! JUST FOR VOLUME RELAXATIONS ignored
Warning: card / ignored

     Current dimensions of program PWSCF are:
     Max number of different atomic species (ntypx) = 10
     Max number of k-points (npk) =  40000
     Max angular momentum in pseudopotentials (lmaxx) =  3
               file Al.pbe-n-kjpaw_psl.1.0.0.UPF: wavefunction(s)  3S 3P renormalized

     Subspace diagonalization in iterative solution of the eigenvalue problem:
     one sub-group per band group will be used
     scalapack distributed-memory algorithm (size of sub-group:  2*  2 procs)

     Found symmetry operation: I + (  0.5000  0.5000  0.0000)
     This is a supercell, fractional translations are disabled
 
     Parallelization info
     --------------------
     sticks:   dense  smooth     PW     G-vecs:    dense   smooth      PW
     Min         209      83     25                 6789     1723     289
     Max         209      84     27                 6791     1728     289
     Sum        1881     749    233                61109    15515    2601
 


     bravais-lattice index     =            0
     lattice parameter (alat)  =       7.6743  a.u.
     unit-cell volume          =     451.0830 (a.u.)^3
     number of atoms/cell      =            4
     number of atomic types    =            1
     number of electrons       =        12.00
     number of Kohn-Sham states=           10
     kinetic-energy cutoff     =      40.0000  Ry
     charge density cutoff     =     400.0000  Ry
     convergence threshold     =      1.0E-12
     mixing beta               =       0.4000
     number of iterations used =            8  local-TF  mixing
     Exchange-correlation      = SLA PW PBX PBC ( 1  4  3  4 0 0)

     celldm(1)=   7.674349  celldm(2)=   0.000000  celldm(3)=   0.000000
     celldm(4)=   0.000000  celldm(5)=   0.000000  celldm(6)=   0.000000

     crystal axes: (cart. coord. in units of alat)
               a(1) = (   1.000000   0.000000   0.000000 )  
               a(2) = (   0.000000   0.999001   0.000000 )  
               a(3) = (   0.000000   0.000000   0.999001 )  

     reciprocal axes: (cart. coord. in units 2 pi/alat)
               b(1) = (  1.000000  0.000000  0.000000 )  
               b(2) = (  0.000000  1.001000  0.000000 )  
               b(3) = (  0.000000  0.000000  1.001000 )  


     PseudoPot. # 1 for Al read from file:
     /users/aglensk/Dropbox/Albert/scripts/dotfiles/scripts/potentials/quantum_espresso/pseudo_SSSPefV1.1_alalloy/Al.pbe-n-kjpaw_psl.1.0.0.UPF
     MD5 check sum: cfc449ca30b5f3223ec38ddd88ac046d
     Pseudo is Projector augmented-wave + core cor, Zval =  3.0
     Generated using "atomic" code by A. Dal Corso v.5.1
     Shape of augmentation charge: PSQ
     Using radial grid of 1135 points,  6 beta functions with: 
                l(1) =   0
                l(2) =   0
                l(3) =   1
                l(4) =   1
                l(5) =   2
                l(6) =   2
     Q(r) pseudized with 0 coefficients 


     atomic species   valence    mass     pseudopotential
        Al             3.00    26.98154     Al( 1.00)

     No symmetry found


                                    s                        frac. trans.

      isym =  1     identity                                     

 cryst.   s( 1) = (     1          0          0      )
                  (     0          1          0      )
                  (     0          0          1      )

 cart.    s( 1) = (  1.0000000  0.0000000  0.0000000 )
                  (  0.0000000  1.0000000  0.0000000 )
                  (  0.0000000  0.0000000  1.0000000 )


   Cartesian axes

     site n.     atom                  positions (alat units)
         1           Al  tau(   1) = (   0.9997497   0.0000000   0.0000000  )
         2           Al  tau(   2) = (   0.4997465   0.4994963   0.0000000  )
         3           Al  tau(   3) = (   0.4997465   0.0000000   0.4994963  )
         4           Al  tau(   4) = (   0.9997499   0.4994963   0.4994963  )

   Crystallographic axes

     site n.     atom                  positions (cryst. coord.)
         1           Al  tau(   1) = (  0.9997497  0.0000000  0.0000000  )
         2           Al  tau(   2) = (  0.4997465  0.4999958  0.0000000  )
         3           Al  tau(   3) = (  0.4997465  0.0000000  0.4999958  )
         4           Al  tau(   4) = (  0.9997499  0.4999958  0.4999958  )

     number of k points=  4004  Methfessel-Paxton smearing, width (Ry)=  0.0441
                       cart. coord. in units 2pi/alat
        k(    1) = (   0.0000000   0.0000000   0.0000000), wk =   0.0002500
        k(    2) = (   0.0000000   0.0000000   0.0500500), wk =   0.0005000
        k(    3) = (   0.0000000   0.0000000   0.1001000), wk =   0.0005000
        k(    4) = (   0.0000000   0.0000000   0.1501500), wk =   0.0005000
        k(    5) = (   0.0000000   0.0000000   0.2002000), wk =   0.0005000
        k(    6) = (   0.0000000   0.0000000   0.2502500), wk =   0.0005000
        k(    7) = (   0.0000000   0.0000000   0.3003000), wk =   0.0005000
        k(    8) = (   0.0000000   0.0000000   0.3503500), wk =   0.0005000
        k(    9) = (   0.0000000   0.0000000   0.4004000), wk =   0.0005000
        k(   10) = (   0.0000000   0.0000000   0.4504500), wk =   0.0005000
        k(   11) = (   0.0000000   0.0000000  -0.5005000), wk =   0.0002500
        k(   12) = (   0.0000000   0.0500500   0.0000000), wk =   0.0005000
        k(   13) = (   0.0000000   0.0500500   0.0500500), wk =   0.0005000
        k(   14) = (   0.0000000   0.0500500   0.1001000), wk =   0.0005000
        k(   15) = (   0.0000000   0.0500500   0.1501500), wk =   0.0005000
        k(   16) = (   0.0000000   0.0500500   0.2002000), wk =   0.0005000
        k(   17) = (   0.0000000   0.0500500   0.2502500), wk =   0.0005000
        k(   18) = (   0.0000000   0.0500500   0.3003000), wk =   0.0005000
        k(   19) = (   0.0000000   0.0500500   0.3503500), wk =   0.0005000
        k(   20) = (   0.0000000   0.0500500   0.4004000), wk =   0.0005000
        k(   21) = (   0.0000000   0.0500500   0.4504500), wk =   0.0005000
        k(   22) = (   0.0000000   0.0500500  -0.5005000), wk =   0.0005000
        k(   23) = (   0.0000000   0.0500500  -0.4504500), wk =   0.0005000
        k(   24) = (   0.0000000   0.0500500  -0.4004000), wk =   0.0005000
        k(   25) = (   0.0000000   0.0500500  -0.3503500), wk =   0.0005000
        k(   26) = (   0.0000000   0.0500500  -0.3003000), wk =   0.0005000
        k(   27) = (   0.0000000   0.0500500  -0.2502500), wk =   0.0005000
        k(   28) = (   0.0000000   0.0500500  -0.2002000), wk =   0.0005000
        k(   29) = (   0.0000000   0.0500500  -0.1501500), wk =   0.0005000
        k(   30) = (   0.0000000   0.0500500  -0.1001000), wk =   0.0005000
        k(   31) = (   0.0000000   0.0500500  -0.0500500), wk =   0.0005000
        k(   32) = (   0.0000000   0.1001000   0.0000000), wk =   0.0005000
        k(   33) = (   0.0000000   0.1001000   0.0500500), wk =   0.0005000
        k(   34) = (   0.0000000   0.1001000   0.1001000), wk =   0.0005000
        k(   35) = (   0.0000000   0.1001000   0.1501500), wk =   0.0005000
        k(   36) = (   0.0000000   0.1001000   0.2002000), wk =   0.0005000
        k(   37) = (   0.0000000   0.1001000   0.2502500), wk =   0.0005000
        k(   38) = (   0.0000000   0.1001000   0.3003000), wk =   0.0005000
        k(   39) = (   0.0000000   0.1001000   0.3503500), wk =   0.0005000
        k(   40) = (   0.0000000   0.1001000   0.4004000), wk =   0.0005000
        k(   41) = (   0.0000000   0.1001000   0.4504500), wk =   0.0005000
        k(   42) = (   0.0000000   0.1001000  -0.5005000), wk =   0.0005000
        k(   43) = (   0.0000000   0.1001000  -0.4504500), wk =   0.0005000
        k(   44) = (   0.0000000   0.1001000  -0.4004000), wk =   0.0005000
        k(   45) = (   0.0000000   0.1001000  -0.3503500), wk =   0.0005000
        k(   46) = (   0.0000000   0.1001000  -0.3003000), wk =   0.0005000
        k(   47) = (   0.0000000   0.1001000  -0.2502500), wk =   0.0005000
        k(   48) = (   0.0000000   0.1001000  -0.2002000), wk =   0.0005000
        k(   49) = (   0.0000000   0.1001000  -0.1501500), wk =   0.0005000
        k(   50) = (   0.0000000   0.1001000  -0.1001000), wk =   0.0005000
        k(   51) = (   0.0000000   0.1001000  -0.0500500), wk =   0.0005000
        k(   52) = (   0.0000000   0.1501500   0.0000000), wk =   0.0005000
        k(   53) = (   0.0000000   0.1501500   0.0500500), wk =   0.0005000
        k(   54) = (   0.0000000   0.1501500   0.1001000), wk =   0.0005000
        k(   55) = (   0.0000000   0.1501500   0.1501500), wk =   0.0005000
        k(   56) = (   0.0000000   0.1501500   0.2002000), wk =   0.0005000
        k(   57) = (   0.0000000   0.1501500   0.2502500), wk =   0.0005000
        k(   58) = (   0.0000000   0.1501500   0.3003000), wk =   0.0005000
        k(   59) = (   0.0000000   0.1501500   0.3503500), wk =   0.0005000
        k(   60) = (   0.0000000   0.1501500   0.4004000), wk =   0.0005000
        k(   61) = (   0.0000000   0.1501500   0.4504500), wk =   0.0005000
        k(   62) = (   0.0000000   0.1501500  -0.5005000), wk =   0.0005000
        k(   63) = (   0.0000000   0.1501500  -0.4504500), wk =   0.0005000
        k(   64) = (   0.0000000   0.1501500  -0.4004000), wk =   0.0005000
        k(   65) = (   0.0000000   0.1501500  -0.3503500), wk =   0.0005000
        k(   66) = (   0.0000000   0.1501500  -0.3003000), wk =   0.0005000
        k(   67) = (   0.0000000   0.1501500  -0.2502500), wk =   0.0005000
        k(   68) = (   0.0000000   0.1501500  -0.2002000), wk =   0.0005000
        k(   69) = (   0.0000000   0.1501500  -0.1501500), wk =   0.0005000
        k(   70) = (   0.0000000   0.1501500  -0.1001000), wk =   0.0005000
        k(   71) = (   0.0000000   0.1501500  -0.0500500), wk =   0.0005000
        k(   72) = (   0.0000000   0.2002000   0.0000000), wk =   0.0005000
        k(   73) = (   0.0000000   0.2002000   0.0500500), wk =   0.0005000
        k(   74) = (   0.0000000   0.2002000   0.1001000), wk =   0.0005000
        k(   75) = (   0.0000000   0.2002000   0.1501500), wk =   0.0005000
        k(   76) = (   0.0000000   0.2002000   0.2002000), wk =   0.0005000
        k(   77) = (   0.0000000   0.2002000   0.2502500), wk =   0.0005000
        k(   78) = (   0.0000000   0.2002000   0.3003000), wk =   0.0005000
        k(   79) = (   0.0000000   0.2002000   0.3503500), wk =   0.0005000
        k(   80) = (   0.0000000   0.2002000   0.4004000), wk =   0.0005000
        k(   81) = (   0.0000000   0.2002000   0.4504500), wk =   0.0005000
        k(   82) = (   0.0000000   0.2002000  -0.5005000), wk =   0.0005000
        k(   83) = (   0.0000000   0.2002000  -0.4504500), wk =   0.0005000
        k(   84) = (   0.0000000   0.2002000  -0.4004000), wk =   0.0005000
        k(   85) = (   0.0000000   0.2002000  -0.3503500), wk =   0.0005000
        k(   86) = (   0.0000000   0.2002000  -0.3003000), wk =   0.0005000
        k(   87) = (   0.0000000   0.2002000  -0.2502500), wk =   0.0005000
        k(   88) = (   0.0000000   0.2002000  -0.2002000), wk =   0.0005000
        k(   89) = (   0.0000000   0.2002000  -0.1501500), wk =   0.0005000
        k(   90) = (   0.0000000   0.2002000  -0.1001000), wk =   0.0005000
        k(   91) = (   0.0000000   0.2002000  -0.0500500), wk =   0.0005000
        k(   92) = (   0.0000000   0.2502500   0.0000000), wk =   0.0005000
        k(   93) = (   0.0000000   0.2502500   0.0500500), wk =   0.0005000
        k(   94) = (   0.0000000   0.2502500   0.1001000), wk =   0.0005000
        k(   95) = (   0.0000000   0.2502500   0.1501500), wk =   0.0005000
        k(   96) = (   0.0000000   0.2502500   0.2002000), wk =   0.0005000
        k(   97) = (   0.0000000   0.2502500   0.2502500), wk =   0.0005000
        k(   98) = (   0.0000000   0.2502500   0.3003000), wk =   0.0005000
        k(   99) = (   0.0000000   0.2502500   0.3503500), wk =   0.0005000
        k(  100) = (   0.0000000   0.2502500   0.4004000), wk =   0.0005000
        k(  101) = (   0.0000000   0.2502500   0.4504500), wk =   0.0005000
        k(  102) = (   0.0000000   0.2502500  -0.5005000), wk =   0.0005000
        k(  103) = (   0.0000000   0.2502500  -0.4504500), wk =   0.0005000
        k(  104) = (   0.0000000   0.2502500  -0.4004000), wk =   0.0005000
        k(  105) = (   0.0000000   0.2502500  -0.3503500), wk =   0.0005000
        k(  106) = (   0.0000000   0.2502500  -0.3003000), wk =   0.0005000
        k(  107) = (   0.0000000   0.2502500  -0.2502500), wk =   0.0005000
        k(  108) = (   0.0000000   0.2502500  -0.2002000), wk =   0.0005000
        k(  109) = (   0.0000000   0.2502500  -0.1501500), wk =   0.0005000
        k(  110) = (   0.0000000   0.2502500  -0.1001000), wk =   0.0005000
        k(  111) = (   0.0000000   0.2502500  -0.0500500), wk =   0.0005000
        k(  112) = (   0.0000000   0.3003000   0.0000000), wk =   0.0005000
        k(  113) = (   0.0000000   0.3003000   0.0500500), wk =   0.0005000
        k(  114) = (   0.0000000   0.3003000   0.1001000), wk =   0.0005000
        k(  115) = (   0.0000000   0.3003000   0.1501500), wk =   0.0005000
        k(  116) = (   0.0000000   0.3003000   0.2002000), wk =   0.0005000
        k(  117) = (   0.0000000   0.3003000   0.2502500), wk =   0.0005000
        k(  118) = (   0.0000000   0.3003000   0.3003000), wk =   0.0005000
        k(  119) = (   0.0000000   0.3003000   0.3503500), wk =   0.0005000
        k(  120) = (   0.0000000   0.3003000   0.4004000), wk =   0.0005000
        k(  121) = (   0.0000000   0.3003000   0.4504500), wk =   0.0005000
        k(  122) = (   0.0000000   0.3003000  -0.5005000), wk =   0.0005000
        k(  123) = (   0.0000000   0.3003000  -0.4504500), wk =   0.0005000
        k(  124) = (   0.0000000   0.3003000  -0.4004000), wk =   0.0005000
        k(  125) = (   0.0000000   0.3003000  -0.3503500), wk =   0.0005000
        k(  126) = (   0.0000000   0.3003000  -0.3003000), wk =   0.0005000
        k(  127) = (   0.0000000   0.3003000  -0.2502500), wk =   0.0005000
        k(  128) = (   0.0000000   0.3003000  -0.2002000), wk =   0.0005000
        k(  129) = (   0.0000000   0.3003000  -0.1501500), wk =   0.0005000
        k(  130) = (   0.0000000   0.3003000  -0.1001000), wk =   0.0005000
        k(  131) = (   0.0000000   0.3003000  -0.0500500), wk =   0.0005000
        k(  132) = (   0.0000000   0.3503500   0.0000000), wk =   0.0005000
        k(  133) = (   0.0000000   0.3503500   0.0500500), wk =   0.0005000
        k(  134) = (   0.0000000   0.3503500   0.1001000), wk =   0.0005000
        k(  135) = (   0.0000000   0.3503500   0.1501500), wk =   0.0005000
        k(  136) = (   0.0000000   0.3503500   0.2002000), wk =   0.0005000
        k(  137) = (   0.0000000   0.3503500   0.2502500), wk =   0.0005000
        k(  138) = (   0.0000000   0.3503500   0.3003000), wk =   0.0005000
        k(  139) = (   0.0000000   0.3503500   0.3503500), wk =   0.0005000
        k(  140) = (   0.0000000   0.3503500   0.4004000), wk =   0.0005000
        k(  141) = (   0.0000000   0.3503500   0.4504500), wk =   0.0005000
        k(  142) = (   0.0000000   0.3503500  -0.5005000), wk =   0.0005000
        k(  143) = (   0.0000000   0.3503500  -0.4504500), wk =   0.0005000
        k(  144) = (   0.0000000   0.3503500  -0.4004000), wk =   0.0005000
        k(  145) = (   0.0000000   0.3503500  -0.3503500), wk =   0.0005000
        k(  146) = (   0.0000000   0.3503500  -0.3003000), wk =   0.0005000
        k(  147) = (   0.0000000   0.3503500  -0.2502500), wk =   0.0005000
        k(  148) = (   0.0000000   0.3503500  -0.2002000), wk =   0.0005000
        k(  149) = (   0.0000000   0.3503500  -0.1501500), wk =   0.0005000
        k(  150) = (   0.0000000   0.3503500  -0.1001000), wk =   0.0005000
        k(  151) = (   0.0000000   0.3503500  -0.0500500), wk =   0.0005000
        k(  152) = (   0.0000000   0.4004000   0.0000000), wk =   0.0005000
        k(  153) = (   0.0000000   0.4004000   0.0500500), wk =   0.0005000
        k(  154) = (   0.0000000   0.4004000   0.1001000), wk =   0.0005000
        k(  155) = (   0.0000000   0.4004000   0.1501500), wk =   0.0005000
        k(  156) = (   0.0000000   0.4004000   0.2002000), wk =   0.0005000
        k(  157) = (   0.0000000   0.4004000   0.2502500), wk =   0.0005000
        k(  158) = (   0.0000000   0.4004000   0.3003000), wk =   0.0005000
        k(  159) = (   0.0000000   0.4004000   0.3503500), wk =   0.0005000
        k(  160) = (   0.0000000   0.4004000   0.4004000), wk =   0.0005000
        k(  161) = (   0.0000000   0.4004000   0.4504500), wk =   0.0005000
        k(  162) = (   0.0000000   0.4004000  -0.5005000), wk =   0.0005000
        k(  163) = (   0.0000000   0.4004000  -0.4504500), wk =   0.0005000
        k(  164) = (   0.0000000   0.4004000  -0.4004000), wk =   0.0005000
        k(  165) = (   0.0000000   0.4004000  -0.3503500), wk =   0.0005000
        k(  166) = (   0.0000000   0.4004000  -0.3003000), wk =   0.0005000
        k(  167) = (   0.0000000   0.4004000  -0.2502500), wk =   0.0005000
        k(  168) = (   0.0000000   0.4004000  -0.2002000), wk =   0.0005000
        k(  169) = (   0.0000000   0.4004000  -0.1501500), wk =   0.0005000
        k(  170) = (   0.0000000   0.4004000  -0.1001000), wk =   0.0005000
        k(  171) = (   0.0000000   0.4004000  -0.0500500), wk =   0.0005000
        k(  172) = (   0.0000000   0.4504500   0.0000000), wk =   0.0005000
        k(  173) = (   0.0000000   0.4504500   0.0500500), wk =   0.0005000
        k(  174) = (   0.0000000   0.4504500   0.1001000), wk =   0.0005000
        k(  175) = (   0.0000000   0.4504500   0.1501500), wk =   0.0005000
        k(  176) = (   0.0000000   0.4504500   0.2002000), wk =   0.0005000
        k(  177) = (   0.0000000   0.4504500   0.2502500), wk =   0.0005000
        k(  178) = (   0.0000000   0.4504500   0.3003000), wk =   0.0005000
        k(  179) = (   0.0000000   0.4504500   0.3503500), wk =   0.0005000
        k(  180) = (   0.0000000   0.4504500   0.4004000), wk =   0.0005000
        k(  181) = (   0.0000000   0.4504500   0.4504500), wk =   0.0005000
        k(  182) = (   0.0000000   0.4504500  -0.5005000), wk =   0.0005000
        k(  183) = (   0.0000000   0.4504500  -0.4504500), wk =   0.0005000
        k(  184) = (   0.0000000   0.4504500  -0.4004000), wk =   0.0005000
        k(  185) = (   0.0000000   0.4504500  -0.3503500), wk =   0.0005000
        k(  186) = (   0.0000000   0.4504500  -0.3003000), wk =   0.0005000
        k(  187) = (   0.0000000   0.4504500  -0.2502500), wk =   0.0005000
        k(  188) = (   0.0000000   0.4504500  -0.2002000), wk =   0.0005000
        k(  189) = (   0.0000000   0.4504500  -0.1501500), wk =   0.0005000
        k(  190) = (   0.0000000   0.4504500  -0.1001000), wk =   0.0005000
        k(  191) = (   0.0000000   0.4504500  -0.0500500), wk =   0.0005000
        k(  192) = (   0.0000000  -0.5005000   0.0000000), wk =   0.0002500
        k(  193) = (   0.0000000  -0.5005000   0.0500500), wk =   0.0005000
        k(  194) = (   0.0000000  -0.5005000   0.1001000), wk =   0.0005000
        k(  195) = (   0.0000000  -0.5005000   0.1501500), wk =   0.0005000
        k(  196) = (   0.0000000  -0.5005000   0.2002000), wk =   0.0005000
        k(  197) = (   0.0000000  -0.5005000   0.2502500), wk =   0.0005000
        k(  198) = (   0.0000000  -0.5005000   0.3003000), wk =   0.0005000
        k(  199) = (   0.0000000  -0.5005000   0.3503500), wk =   0.0005000
        k(  200) = (   0.0000000  -0.5005000   0.4004000), wk =   0.0005000
        k(  201) = (   0.0000000  -0.5005000   0.4504500), wk =   0.0005000
        k(  202) = (   0.0000000  -0.5005000  -0.5005000), wk =   0.0002500
        k(  203) = (   0.0500000   0.0000000   0.0000000), wk =   0.0005000
        k(  204) = (   0.0500000   0.0000000   0.0500500), wk =   0.0005000
        k(  205) = (   0.0500000   0.0000000   0.1001000), wk =   0.0005000
        k(  206) = (   0.0500000   0.0000000   0.1501500), wk =   0.0005000
        k(  207) = (   0.0500000   0.0000000   0.2002000), wk =   0.0005000
        k(  208) = (   0.0500000   0.0000000   0.2502500), wk =   0.0005000
        k(  209) = (   0.0500000   0.0000000   0.3003000), wk =   0.0005000
        k(  210) = (   0.0500000   0.0000000   0.3503500), wk =   0.0005000
        k(  211) = (   0.0500000   0.0000000   0.4004000), wk =   0.0005000
        k(  212) = (   0.0500000   0.0000000   0.4504500), wk =   0.0005000
        k(  213) = (   0.0500000   0.0000000  -0.5005000), wk =   0.0005000
        k(  214) = (   0.0500000   0.0000000  -0.4504500), wk =   0.0005000
        k(  215) = (   0.0500000   0.0000000  -0.4004000), wk =   0.0005000
        k(  216) = (   0.0500000   0.0000000  -0.3503500), wk =   0.0005000
        k(  217) = (   0.0500000   0.0000000  -0.3003000), wk =   0.0005000
        k(  218) = (   0.0500000   0.0000000  -0.2502500), wk =   0.0005000
        k(  219) = (   0.0500000   0.0000000  -0.2002000), wk =   0.0005000
        k(  220) = (   0.0500000   0.0000000  -0.1501500), wk =   0.0005000
        k(  221) = (   0.0500000   0.0000000  -0.1001000), wk =   0.0005000
        k(  222) = (   0.0500000   0.0000000  -0.0500500), wk =   0.0005000
        k(  223) = (   0.0500000   0.0500500   0.0000000), wk =   0.0005000
        k(  224) = (   0.0500000   0.0500500   0.0500500), wk =   0.0005000
        k(  225) = (   0.0500000   0.0500500   0.1001000), wk =   0.0005000
        k(  226) = (   0.0500000   0.0500500   0.1501500), wk =   0.0005000
        k(  227) = (   0.0500000   0.0500500   0.2002000), wk =   0.0005000
        k(  228) = (   0.0500000   0.0500500   0.2502500), wk =   0.0005000
        k(  229) = (   0.0500000   0.0500500   0.3003000), wk =   0.0005000
        k(  230) = (   0.0500000   0.0500500   0.3503500), wk =   0.0005000
        k(  231) = (   0.0500000   0.0500500   0.4004000), wk =   0.0005000
        k(  232) = (   0.0500000   0.0500500   0.4504500), wk =   0.0005000
        k(  233) = (   0.0500000   0.0500500  -0.5005000), wk =   0.0005000
        k(  234) = (   0.0500000   0.0500500  -0.4504500), wk =   0.0005000
        k(  235) = (   0.0500000   0.0500500  -0.4004000), wk =   0.0005000
        k(  236) = (   0.0500000   0.0500500  -0.3503500), wk =   0.0005000
        k(  237) = (   0.0500000   0.0500500  -0.3003000), wk =   0.0005000
        k(  238) = (   0.0500000   0.0500500  -0.2502500), wk =   0.0005000
        k(  239) = (   0.0500000   0.0500500  -0.2002000), wk =   0.0005000
        k(  240) = (   0.0500000   0.0500500  -0.1501500), wk =   0.0005000
        k(  241) = (   0.0500000   0.0500500  -0.1001000), wk =   0.0005000
        k(  242) = (   0.0500000   0.0500500  -0.0500500), wk =   0.0005000
        k(  243) = (   0.0500000   0.1001000   0.0000000), wk =   0.0005000
        k(  244) = (   0.0500000   0.1001000   0.0500500), wk =   0.0005000
        k(  245) = (   0.0500000   0.1001000   0.1001000), wk =   0.0005000
        k(  246) = (   0.0500000   0.1001000   0.1501500), wk =   0.0005000
        k(  247) = (   0.0500000   0.1001000   0.2002000), wk =   0.0005000
        k(  248) = (   0.0500000   0.1001000   0.2502500), wk =   0.0005000
        k(  249) = (   0.0500000   0.1001000   0.3003000), wk =   0.0005000
        k(  250) = (   0.0500000   0.1001000   0.3503500), wk =   0.0005000
        k(  251) = (   0.0500000   0.1001000   0.4004000), wk =   0.0005000
        k(  252) = (   0.0500000   0.1001000   0.4504500), wk =   0.0005000
        k(  253) = (   0.0500000   0.1001000  -0.5005000), wk =   0.0005000
        k(  254) = (   0.0500000   0.1001000  -0.4504500), wk =   0.0005000
        k(  255) = (   0.0500000   0.1001000  -0.4004000), wk =   0.0005000
        k(  256) = (   0.0500000   0.1001000  -0.3503500), wk =   0.0005000
        k(  257) = (   0.0500000   0.1001000  -0.3003000), wk =   0.0005000
        k(  258) = (   0.0500000   0.1001000  -0.2502500), wk =   0.0005000
        k(  259) = (   0.0500000   0.1001000  -0.2002000), wk =   0.0005000
        k(  260) = (   0.0500000   0.1001000  -0.1501500), wk =   0.0005000
        k(  261) = (   0.0500000   0.1001000  -0.1001000), wk =   0.0005000
        k(  262) = (   0.0500000   0.1001000  -0.0500500), wk =   0.0005000
        k(  263) = (   0.0500000   0.1501500   0.0000000), wk =   0.0005000
        k(  264) = (   0.0500000   0.1501500   0.0500500), wk =   0.0005000
        k(  265) = (   0.0500000   0.1501500   0.1001000), wk =   0.0005000
        k(  266) = (   0.0500000   0.1501500   0.1501500), wk =   0.0005000
        k(  267) = (   0.0500000   0.1501500   0.2002000), wk =   0.0005000
        k(  268) = (   0.0500000   0.1501500   0.2502500), wk =   0.0005000
        k(  269) = (   0.0500000   0.1501500   0.3003000), wk =   0.0005000
        k(  270) = (   0.0500000   0.1501500   0.3503500), wk =   0.0005000
        k(  271) = (   0.0500000   0.1501500   0.4004000), wk =   0.0005000
        k(  272) = (   0.0500000   0.1501500   0.4504500), wk =   0.0005000
        k(  273) = (   0.0500000   0.1501500  -0.5005000), wk =   0.0005000
        k(  274) = (   0.0500000   0.1501500  -0.4504500), wk =   0.0005000
        k(  275) = (   0.0500000   0.1501500  -0.4004000), wk =   0.0005000
        k(  276) = (   0.0500000   0.1501500  -0.3503500), wk =   0.0005000
        k(  277) = (   0.0500000   0.1501500  -0.3003000), wk =   0.0005000
        k(  278) = (   0.0500000   0.1501500  -0.2502500), wk =   0.0005000
        k(  279) = (   0.0500000   0.1501500  -0.2002000), wk =   0.0005000
        k(  280) = (   0.0500000   0.1501500  -0.1501500), wk =   0.0005000
        k(  281) = (   0.0500000   0.1501500  -0.1001000), wk =   0.0005000
        k(  282) = (   0.0500000   0.1501500  -0.0500500), wk =   0.0005000
        k(  283) = (   0.0500000   0.2002000   0.0000000), wk =   0.0005000
        k(  284) = (   0.0500000   0.2002000   0.0500500), wk =   0.0005000
        k(  285) = (   0.0500000   0.2002000   0.1001000), wk =   0.0005000
        k(  286) = (   0.0500000   0.2002000   0.1501500), wk =   0.0005000
        k(  287) = (   0.0500000   0.2002000   0.2002000), wk =   0.0005000
        k(  288) = (   0.0500000   0.2002000   0.2502500), wk =   0.0005000
        k(  289) = (   0.0500000   0.2002000   0.3003000), wk =   0.0005000
        k(  290) = (   0.0500000   0.2002000   0.3503500), wk =   0.0005000
        k(  291) = (   0.0500000   0.2002000   0.4004000), wk =   0.0005000
        k(  292) = (   0.0500000   0.2002000   0.4504500), wk =   0.0005000
        k(  293) = (   0.0500000   0.2002000  -0.5005000), wk =   0.0005000
        k(  294) = (   0.0500000   0.2002000  -0.4504500), wk =   0.0005000
        k(  295) = (   0.0500000   0.2002000  -0.4004000), wk =   0.0005000
        k(  296) = (   0.0500000   0.2002000  -0.3503500), wk =   0.0005000
        k(  297) = (   0.0500000   0.2002000  -0.3003000), wk =   0.0005000
        k(  298) = (   0.0500000   0.2002000  -0.2502500), wk =   0.0005000
        k(  299) = (   0.0500000   0.2002000  -0.2002000), wk =   0.0005000
        k(  300) = (   0.0500000   0.2002000  -0.1501500), wk =   0.0005000
        k(  301) = (   0.0500000   0.2002000  -0.1001000), wk =   0.0005000
        k(  302) = (   0.0500000   0.2002000  -0.0500500), wk =   0.0005000
        k(  303) = (   0.0500000   0.2502500   0.0000000), wk =   0.0005000
        k(  304) = (   0.0500000   0.2502500   0.0500500), wk =   0.0005000
        k(  305) = (   0.0500000   0.2502500   0.1001000), wk =   0.0005000
        k(  306) = (   0.0500000   0.2502500   0.1501500), wk =   0.0005000
        k(  307) = (   0.0500000   0.2502500   0.2002000), wk =   0.0005000
        k(  308) = (   0.0500000   0.2502500   0.2502500), wk =   0.0005000
        k(  309) = (   0.0500000   0.2502500   0.3003000), wk =   0.0005000
        k(  310) = (   0.0500000   0.2502500   0.3503500), wk =   0.0005000
        k(  311) = (   0.0500000   0.2502500   0.4004000), wk =   0.0005000
        k(  312) = (   0.0500000   0.2502500   0.4504500), wk =   0.0005000
        k(  313) = (   0.0500000   0.2502500  -0.5005000), wk =   0.0005000
        k(  314) = (   0.0500000   0.2502500  -0.4504500), wk =   0.0005000
        k(  315) = (   0.0500000   0.2502500  -0.4004000), wk =   0.0005000
        k(  316) = (   0.0500000   0.2502500  -0.3503500), wk =   0.0005000
        k(  317) = (   0.0500000   0.2502500  -0.3003000), wk =   0.0005000
        k(  318) = (   0.0500000   0.2502500  -0.2502500), wk =   0.0005000
        k(  319) = (   0.0500000   0.2502500  -0.2002000), wk =   0.0005000
        k(  320) = (   0.0500000   0.2502500  -0.1501500), wk =   0.0005000
        k(  321) = (   0.0500000   0.2502500  -0.1001000), wk =   0.0005000
        k(  322) = (   0.0500000   0.2502500  -0.0500500), wk =   0.0005000
        k(  323) = (   0.0500000   0.3003000   0.0000000), wk =   0.0005000
        k(  324) = (   0.0500000   0.3003000   0.0500500), wk =   0.0005000
        k(  325) = (   0.0500000   0.3003000   0.1001000), wk =   0.0005000
        k(  326) = (   0.0500000   0.3003000   0.1501500), wk =   0.0005000
        k(  327) = (   0.0500000   0.3003000   0.2002000), wk =   0.0005000
        k(  328) = (   0.0500000   0.3003000   0.2502500), wk =   0.0005000
        k(  329) = (   0.0500000   0.3003000   0.3003000), wk =   0.0005000
        k(  330) = (   0.0500000   0.3003000   0.3503500), wk =   0.0005000
        k(  331) = (   0.0500000   0.3003000   0.4004000), wk =   0.0005000
        k(  332) = (   0.0500000   0.3003000   0.4504500), wk =   0.0005000
        k(  333) = (   0.0500000   0.3003000  -0.5005000), wk =   0.0005000
        k(  334) = (   0.0500000   0.3003000  -0.4504500), wk =   0.0005000
        k(  335) = (   0.0500000   0.3003000  -0.4004000), wk =   0.0005000
        k(  336) = (   0.0500000   0.3003000  -0.3503500), wk =   0.0005000
        k(  337) = (   0.0500000   0.3003000  -0.3003000), wk =   0.0005000
        k(  338) = (   0.0500000   0.3003000  -0.2502500), wk =   0.0005000
        k(  339) = (   0.0500000   0.3003000  -0.2002000), wk =   0.0005000
        k(  340) = (   0.0500000   0.3003000  -0.1501500), wk =   0.0005000
        k(  341) = (   0.0500000   0.3003000  -0.1001000), wk =   0.0005000
        k(  342) = (   0.0500000   0.3003000  -0.0500500), wk =   0.0005000
        k(  343) = (   0.0500000   0.3503500   0.0000000), wk =   0.0005000
        k(  344) = (   0.0500000   0.3503500   0.0500500), wk =   0.0005000
        k(  345) = (   0.0500000   0.3503500   0.1001000), wk =   0.0005000
        k(  346) = (   0.0500000   0.3503500   0.1501500), wk =   0.0005000
        k(  347) = (   0.0500000   0.3503500   0.2002000), wk =   0.0005000
        k(  348) = (   0.0500000   0.3503500   0.2502500), wk =   0.0005000
        k(  349) = (   0.0500000   0.3503500   0.3003000), wk =   0.0005000
        k(  350) = (   0.0500000   0.3503500   0.3503500), wk =   0.0005000
        k(  351) = (   0.0500000   0.3503500   0.4004000), wk =   0.0005000
        k(  352) = (   0.0500000   0.3503500   0.4504500), wk =   0.0005000
        k(  353) = (   0.0500000   0.3503500  -0.5005000), wk =   0.0005000
        k(  354) = (   0.0500000   0.3503500  -0.4504500), wk =   0.0005000
        k(  355) = (   0.0500000   0.3503500  -0.4004000), wk =   0.0005000
        k(  356) = (   0.0500000   0.3503500  -0.3503500), wk =   0.0005000
        k(  357) = (   0.0500000   0.3503500  -0.3003000), wk =   0.0005000
        k(  358) = (   0.0500000   0.3503500  -0.2502500), wk =   0.0005000
        k(  359) = (   0.0500000   0.3503500  -0.2002000), wk =   0.0005000
        k(  360) = (   0.0500000   0.3503500  -0.1501500), wk =   0.0005000
        k(  361) = (   0.0500000   0.3503500  -0.1001000), wk =   0.0005000
        k(  362) = (   0.0500000   0.3503500  -0.0500500), wk =   0.0005000
        k(  363) = (   0.0500000   0.4004000   0.0000000), wk =   0.0005000
        k(  364) = (   0.0500000   0.4004000   0.0500500), wk =   0.0005000
        k(  365) = (   0.0500000   0.4004000   0.1001000), wk =   0.0005000
        k(  366) = (   0.0500000   0.4004000   0.1501500), wk =   0.0005000
        k(  367) = (   0.0500000   0.4004000   0.2002000), wk =   0.0005000
        k(  368) = (   0.0500000   0.4004000   0.2502500), wk =   0.0005000
        k(  369) = (   0.0500000   0.4004000   0.3003000), wk =   0.0005000
        k(  370) = (   0.0500000   0.4004000   0.3503500), wk =   0.0005000
        k(  371) = (   0.0500000   0.4004000   0.4004000), wk =   0.0005000
        k(  372) = (   0.0500000   0.4004000   0.4504500), wk =   0.0005000
        k(  373) = (   0.0500000   0.4004000  -0.5005000), wk =   0.0005000
        k(  374) = (   0.0500000   0.4004000  -0.4504500), wk =   0.0005000
        k(  375) = (   0.0500000   0.4004000  -0.4004000), wk =   0.0005000
        k(  376) = (   0.0500000   0.4004000  -0.3503500), wk =   0.0005000
        k(  377) = (   0.0500000   0.4004000  -0.3003000), wk =   0.0005000
        k(  378) = (   0.0500000   0.4004000  -0.2502500), wk =   0.0005000
        k(  379) = (   0.0500000   0.4004000  -0.2002000), wk =   0.0005000
        k(  380) = (   0.0500000   0.4004000  -0.1501500), wk =   0.0005000
        k(  381) = (   0.0500000   0.4004000  -0.1001000), wk =   0.0005000
        k(  382) = (   0.0500000   0.4004000  -0.0500500), wk =   0.0005000
        k(  383) = (   0.0500000   0.4504500   0.0000000), wk =   0.0005000
        k(  384) = (   0.0500000   0.4504500   0.0500500), wk =   0.0005000
        k(  385) = (   0.0500000   0.4504500   0.1001000), wk =   0.0005000
        k(  386) = (   0.0500000   0.4504500   0.1501500), wk =   0.0005000
        k(  387) = (   0.0500000   0.4504500   0.2002000), wk =   0.0005000
        k(  388) = (   0.0500000   0.4504500   0.2502500), wk =   0.0005000
        k(  389) = (   0.0500000   0.4504500   0.3003000), wk =   0.0005000
        k(  390) = (   0.0500000   0.4504500   0.3503500), wk =   0.0005000
        k(  391) = (   0.0500000   0.4504500   0.4004000), wk =   0.0005000
        k(  392) = (   0.0500000   0.4504500   0.4504500), wk =   0.0005000
        k(  393) = (   0.0500000   0.4504500  -0.5005000), wk =   0.0005000
        k(  394) = (   0.0500000   0.4504500  -0.4504500), wk =   0.0005000
        k(  395) = (   0.0500000   0.4504500  -0.4004000), wk =   0.0005000
        k(  396) = (   0.0500000   0.4504500  -0.3503500), wk =   0.0005000
        k(  397) = (   0.0500000   0.4504500  -0.3003000), wk =   0.0005000
        k(  398) = (   0.0500000   0.4504500  -0.2502500), wk =   0.0005000
        k(  399) = (   0.0500000   0.4504500  -0.2002000), wk =   0.0005000
        k(  400) = (   0.0500000   0.4504500  -0.1501500), wk =   0.0005000
        k(  401) = (   0.0500000   0.4504500  -0.1001000), wk =   0.0005000
        k(  402) = (   0.0500000   0.4504500  -0.0500500), wk =   0.0005000
        k(  403) = (   0.0500000  -0.5005000   0.0000000), wk =   0.0005000
        k(  404) = (   0.0500000  -0.5005000   0.0500500), wk =   0.0005000
        k(  405) = (   0.0500000  -0.5005000   0.1001000), wk =   0.0005000
        k(  406) = (   0.0500000  -0.5005000   0.1501500), wk =   0.0005000
        k(  407) = (   0.0500000  -0.5005000   0.2002000), wk =   0.0005000
        k(  408) = (   0.0500000  -0.5005000   0.2502500), wk =   0.0005000
        k(  409) = (   0.0500000  -0.5005000   0.3003000), wk =   0.0005000
        k(  410) = (   0.0500000  -0.5005000   0.3503500), wk =   0.0005000
        k(  411) = (   0.0500000  -0.5005000   0.4004000), wk =   0.0005000
        k(  412) = (   0.0500000  -0.5005000   0.4504500), wk =   0.0005000
        k(  413) = (   0.0500000  -0.5005000  -0.5005000), wk =   0.0005000
        k(  414) = (   0.0500000  -0.5005000  -0.4504500), wk =   0.0005000
        k(  415) = (   0.0500000  -0.5005000  -0.4004000), wk =   0.0005000
        k(  416) = (   0.0500000  -0.5005000  -0.3503500), wk =   0.0005000
        k(  417) = (   0.0500000  -0.5005000  -0.3003000), wk =   0.0005000
        k(  418) = (   0.0500000  -0.5005000  -0.2502500), wk =   0.0005000
        k(  419) = (   0.0500000  -0.5005000  -0.2002000), wk =   0.0005000
        k(  420) = (   0.0500000  -0.5005000  -0.1501500), wk =   0.0005000
        k(  421) = (   0.0500000  -0.5005000  -0.1001000), wk =   0.0005000
        k(  422) = (   0.0500000  -0.5005000  -0.0500500), wk =   0.0005000
        k(  423) = (   0.0500000  -0.4504500   0.0000000), wk =   0.0005000
        k(  424) = (   0.0500000  -0.4504500   0.0500500), wk =   0.0005000
        k(  425) = (   0.0500000  -0.4504500   0.1001000), wk =   0.0005000
        k(  426) = (   0.0500000  -0.4504500   0.1501500), wk =   0.0005000
        k(  427) = (   0.0500000  -0.4504500   0.2002000), wk =   0.0005000
        k(  428) = (   0.0500000  -0.4504500   0.2502500), wk =   0.0005000
        k(  429) = (   0.0500000  -0.4504500   0.3003000), wk =   0.0005000
        k(  430) = (   0.0500000  -0.4504500   0.3503500), wk =   0.0005000
        k(  431) = (   0.0500000  -0.4504500   0.4004000), wk =   0.0005000
        k(  432) = (   0.0500000  -0.4504500   0.4504500), wk =   0.0005000
        k(  433) = (   0.0500000  -0.4504500  -0.5005000), wk =   0.0005000
        k(  434) = (   0.0500000  -0.4504500  -0.4504500), wk =   0.0005000
        k(  435) = (   0.0500000  -0.4504500  -0.4004000), wk =   0.0005000
        k(  436) = (   0.0500000  -0.4504500  -0.3503500), wk =   0.0005000
        k(  437) = (   0.0500000  -0.4504500  -0.3003000), wk =   0.0005000
        k(  438) = (   0.0500000  -0.4504500  -0.2502500), wk =   0.0005000
        k(  439) = (   0.0500000  -0.4504500  -0.2002000), wk =   0.0005000
        k(  440) = (   0.0500000  -0.4504500  -0.1501500), wk =   0.0005000
        k(  441) = (   0.0500000  -0.4504500  -0.1001000), wk =   0.0005000
        k(  442) = (   0.0500000  -0.4504500  -0.0500500), wk =   0.0005000
        k(  443) = (   0.0500000  -0.4004000   0.0000000), wk =   0.0005000
        k(  444) = (   0.0500000  -0.4004000   0.0500500), wk =   0.0005000
        k(  445) = (   0.0500000  -0.4004000   0.1001000), wk =   0.0005000
        k(  446) = (   0.0500000  -0.4004000   0.1501500), wk =   0.0005000
        k(  447) = (   0.0500000  -0.4004000   0.2002000), wk =   0.0005000
        k(  448) = (   0.0500000  -0.4004000   0.2502500), wk =   0.0005000
        k(  449) = (   0.0500000  -0.4004000   0.3003000), wk =   0.0005000
        k(  450) = (   0.0500000  -0.4004000   0.3503500), wk =   0.0005000
        k(  451) = (   0.0500000  -0.4004000   0.4004000), wk =   0.0005000
        k(  452) = (   0.0500000  -0.4004000   0.4504500), wk =   0.0005000
        k(  453) = (   0.0500000  -0.4004000  -0.5005000), wk =   0.0005000
        k(  454) = (   0.0500000  -0.4004000  -0.4504500), wk =   0.0005000
        k(  455) = (   0.0500000  -0.4004000  -0.4004000), wk =   0.0005000
        k(  456) = (   0.0500000  -0.4004000  -0.3503500), wk =   0.0005000
        k(  457) = (   0.0500000  -0.4004000  -0.3003000), wk =   0.0005000
        k(  458) = (   0.0500000  -0.4004000  -0.2502500), wk =   0.0005000
        k(  459) = (   0.0500000  -0.4004000  -0.2002000), wk =   0.0005000
        k(  460) = (   0.0500000  -0.4004000  -0.1501500), wk =   0.0005000
        k(  461) = (   0.0500000  -0.4004000  -0.1001000), wk =   0.0005000
        k(  462) = (   0.0500000  -0.4004000  -0.0500500), wk =   0.0005000
        k(  463) = (   0.0500000  -0.3503500   0.0000000), wk =   0.0005000
        k(  464) = (   0.0500000  -0.3503500   0.0500500), wk =   0.0005000
        k(  465) = (   0.0500000  -0.3503500   0.1001000), wk =   0.0005000
        k(  466) = (   0.0500000  -0.3503500   0.1501500), wk =   0.0005000
        k(  467) = (   0.0500000  -0.3503500   0.2002000), wk =   0.0005000
        k(  468) = (   0.0500000  -0.3503500   0.2502500), wk =   0.0005000
        k(  469) = (   0.0500000  -0.3503500   0.3003000), wk =   0.0005000
        k(  470) = (   0.0500000  -0.3503500   0.3503500), wk =   0.0005000
        k(  471) = (   0.0500000  -0.3503500   0.4004000), wk =   0.0005000
        k(  472) = (   0.0500000  -0.3503500   0.4504500), wk =   0.0005000
        k(  473) = (   0.0500000  -0.3503500  -0.5005000), wk =   0.0005000
        k(  474) = (   0.0500000  -0.3503500  -0.4504500), wk =   0.0005000
        k(  475) = (   0.0500000  -0.3503500  -0.4004000), wk =   0.0005000
        k(  476) = (   0.0500000  -0.3503500  -0.3503500), wk =   0.0005000
        k(  477) = (   0.0500000  -0.3503500  -0.3003000), wk =   0.0005000
        k(  478) = (   0.0500000  -0.3503500  -0.2502500), wk =   0.0005000
        k(  479) = (   0.0500000  -0.3503500  -0.2002000), wk =   0.0005000
        k(  480) = (   0.0500000  -0.3503500  -0.1501500), wk =   0.0005000
        k(  481) = (   0.0500000  -0.3503500  -0.1001000), wk =   0.0005000
        k(  482) = (   0.0500000  -0.3503500  -0.0500500), wk =   0.0005000
        k(  483) = (   0.0500000  -0.3003000   0.0000000), wk =   0.0005000
        k(  484) = (   0.0500000  -0.3003000   0.0500500), wk =   0.0005000
        k(  485) = (   0.0500000  -0.3003000   0.1001000), wk =   0.0005000
        k(  486) = (   0.0500000  -0.3003000   0.1501500), wk =   0.0005000
        k(  487) = (   0.0500000  -0.3003000   0.2002000), wk =   0.0005000
        k(  488) = (   0.0500000  -0.3003000   0.2502500), wk =   0.0005000
        k(  489) = (   0.0500000  -0.3003000   0.3003000), wk =   0.0005000
        k(  490) = (   0.0500000  -0.3003000   0.3503500), wk =   0.0005000
        k(  491) = (   0.0500000  -0.3003000   0.4004000), wk =   0.0005000
        k(  492) = (   0.0500000  -0.3003000   0.4504500), wk =   0.0005000
        k(  493) = (   0.0500000  -0.3003000  -0.5005000), wk =   0.0005000
        k(  494) = (   0.0500000  -0.3003000  -0.4504500), wk =   0.0005000
        k(  495) = (   0.0500000  -0.3003000  -0.4004000), wk =   0.0005000
        k(  496) = (   0.0500000  -0.3003000  -0.3503500), wk =   0.0005000
        k(  497) = (   0.0500000  -0.3003000  -0.3003000), wk =   0.0005000
        k(  498) = (   0.0500000  -0.3003000  -0.2502500), wk =   0.0005000
        k(  499) = (   0.0500000  -0.3003000  -0.2002000), wk =   0.0005000
        k(  500) = (   0.0500000  -0.3003000  -0.1501500), wk =   0.0005000
        k(  501) = (   0.0500000  -0.3003000  -0.1001000), wk =   0.0005000
        k(  502) = (   0.0500000  -0.3003000  -0.0500500), wk =   0.0005000
        k(  503) = (   0.0500000  -0.2502500   0.0000000), wk =   0.0005000
        k(  504) = (   0.0500000  -0.2502500   0.0500500), wk =   0.0005000
        k(  505) = (   0.0500000  -0.2502500   0.1001000), wk =   0.0005000
        k(  506) = (   0.0500000  -0.2502500   0.1501500), wk =   0.0005000
        k(  507) = (   0.0500000  -0.2502500   0.2002000), wk =   0.0005000
        k(  508) = (   0.0500000  -0.2502500   0.2502500), wk =   0.0005000
        k(  509) = (   0.0500000  -0.2502500   0.3003000), wk =   0.0005000
        k(  510) = (   0.0500000  -0.2502500   0.3503500), wk =   0.0005000
        k(  511) = (   0.0500000  -0.2502500   0.4004000), wk =   0.0005000
        k(  512) = (   0.0500000  -0.2502500   0.4504500), wk =   0.0005000
        k(  513) = (   0.0500000  -0.2502500  -0.5005000), wk =   0.0005000
        k(  514) = (   0.0500000  -0.2502500  -0.4504500), wk =   0.0005000
        k(  515) = (   0.0500000  -0.2502500  -0.4004000), wk =   0.0005000
        k(  516) = (   0.0500000  -0.2502500  -0.3503500), wk =   0.0005000
        k(  517) = (   0.0500000  -0.2502500  -0.3003000), wk =   0.0005000
        k(  518) = (   0.0500000  -0.2502500  -0.2502500), wk =   0.0005000
        k(  519) = (   0.0500000  -0.2502500  -0.2002000), wk =   0.0005000
        k(  520) = (   0.0500000  -0.2502500  -0.1501500), wk =   0.0005000
        k(  521) = (   0.0500000  -0.2502500  -0.1001000), wk =   0.0005000
        k(  522) = (   0.0500000  -0.2502500  -0.0500500), wk =   0.0005000
        k(  523) = (   0.0500000  -0.2002000   0.0000000), wk =   0.0005000
        k(  524) = (   0.0500000  -0.2002000   0.0500500), wk =   0.0005000
        k(  525) = (   0.0500000  -0.2002000   0.1001000), wk =   0.0005000
        k(  526) = (   0.0500000  -0.2002000   0.1501500), wk =   0.0005000
        k(  527) = (   0.0500000  -0.2002000   0.2002000), wk =   0.0005000
        k(  528) = (   0.0500000  -0.2002000   0.2502500), wk =   0.0005000
        k(  529) = (   0.0500000  -0.2002000   0.3003000), wk =   0.0005000
        k(  530) = (   0.0500000  -0.2002000   0.3503500), wk =   0.0005000
        k(  531) = (   0.0500000  -0.2002000   0.4004000), wk =   0.0005000
        k(  532) = (   0.0500000  -0.2002000   0.4504500), wk =   0.0005000
        k(  533) = (   0.0500000  -0.2002000  -0.5005000), wk =   0.0005000
        k(  534) = (   0.0500000  -0.2002000  -0.4504500), wk =   0.0005000
        k(  535) = (   0.0500000  -0.2002000  -0.4004000), wk =   0.0005000
        k(  536) = (   0.0500000  -0.2002000  -0.3503500), wk =   0.0005000
        k(  537) = (   0.0500000  -0.2002000  -0.3003000), wk =   0.0005000
        k(  538) = (   0.0500000  -0.2002000  -0.2502500), wk =   0.0005000
        k(  539) = (   0.0500000  -0.2002000  -0.2002000), wk =   0.0005000
        k(  540) = (   0.0500000  -0.2002000  -0.1501500), wk =   0.0005000
        k(  541) = (   0.0500000  -0.2002000  -0.1001000), wk =   0.0005000
        k(  542) = (   0.0500000  -0.2002000  -0.0500500), wk =   0.0005000
        k(  543) = (   0.0500000  -0.1501500   0.0000000), wk =   0.0005000
        k(  544) = (   0.0500000  -0.1501500   0.0500500), wk =   0.0005000
        k(  545) = (   0.0500000  -0.1501500   0.1001000), wk =   0.0005000
        k(  546) = (   0.0500000  -0.1501500   0.1501500), wk =   0.0005000
        k(  547) = (   0.0500000  -0.1501500   0.2002000), wk =   0.0005000
        k(  548) = (   0.0500000  -0.1501500   0.2502500), wk =   0.0005000
        k(  549) = (   0.0500000  -0.1501500   0.3003000), wk =   0.0005000
        k(  550) = (   0.0500000  -0.1501500   0.3503500), wk =   0.0005000
        k(  551) = (   0.0500000  -0.1501500   0.4004000), wk =   0.0005000
        k(  552) = (   0.0500000  -0.1501500   0.4504500), wk =   0.0005000
        k(  553) = (   0.0500000  -0.1501500  -0.5005000), wk =   0.0005000
        k(  554) = (   0.0500000  -0.1501500  -0.4504500), wk =   0.0005000
        k(  555) = (   0.0500000  -0.1501500  -0.4004000), wk =   0.0005000
        k(  556) = (   0.0500000  -0.1501500  -0.3503500), wk =   0.0005000
        k(  557) = (   0.0500000  -0.1501500  -0.3003000), wk =   0.0005000
        k(  558) = (   0.0500000  -0.1501500  -0.2502500), wk =   0.0005000
        k(  559) = (   0.0500000  -0.1501500  -0.2002000), wk =   0.0005000
        k(  560) = (   0.0500000  -0.1501500  -0.1501500), wk =   0.0005000
        k(  561) = (   0.0500000  -0.1501500  -0.1001000), wk =   0.0005000
        k(  562) = (   0.0500000  -0.1501500  -0.0500500), wk =   0.0005000
        k(  563) = (   0.0500000  -0.1001000   0.0000000), wk =   0.0005000
        k(  564) = (   0.0500000  -0.1001000   0.0500500), wk =   0.0005000
        k(  565) = (   0.0500000  -0.1001000   0.1001000), wk =   0.0005000
        k(  566) = (   0.0500000  -0.1001000   0.1501500), wk =   0.0005000
        k(  567) = (   0.0500000  -0.1001000   0.2002000), wk =   0.0005000
        k(  568) = (   0.0500000  -0.1001000   0.2502500), wk =   0.0005000
        k(  569) = (   0.0500000  -0.1001000   0.3003000), wk =   0.0005000
        k(  570) = (   0.0500000  -0.1001000   0.3503500), wk =   0.0005000
        k(  571) = (   0.0500000  -0.1001000   0.4004000), wk =   0.0005000
        k(  572) = (   0.0500000  -0.1001000   0.4504500), wk =   0.0005000
        k(  573) = (   0.0500000  -0.1001000  -0.5005000), wk =   0.0005000
        k(  574) = (   0.0500000  -0.1001000  -0.4504500), wk =   0.0005000
        k(  575) = (   0.0500000  -0.1001000  -0.4004000), wk =   0.0005000
        k(  576) = (   0.0500000  -0.1001000  -0.3503500), wk =   0.0005000
        k(  577) = (   0.0500000  -0.1001000  -0.3003000), wk =   0.0005000
        k(  578) = (   0.0500000  -0.1001000  -0.2502500), wk =   0.0005000
        k(  579) = (   0.0500000  -0.1001000  -0.2002000), wk =   0.0005000
        k(  580) = (   0.0500000  -0.1001000  -0.1501500), wk =   0.0005000
        k(  581) = (   0.0500000  -0.1001000  -0.1001000), wk =   0.0005000
        k(  582) = (   0.0500000  -0.1001000  -0.0500500), wk =   0.0005000
        k(  583) = (   0.0500000  -0.0500500   0.0000000), wk =   0.0005000
        k(  584) = (   0.0500000  -0.0500500   0.0500500), wk =   0.0005000
        k(  585) = (   0.0500000  -0.0500500   0.1001000), wk =   0.0005000
        k(  586) = (   0.0500000  -0.0500500   0.1501500), wk =   0.0005000
        k(  587) = (   0.0500000  -0.0500500   0.2002000), wk =   0.0005000
        k(  588) = (   0.0500000  -0.0500500   0.2502500), wk =   0.0005000
        k(  589) = (   0.0500000  -0.0500500   0.3003000), wk =   0.0005000
        k(  590) = (   0.0500000  -0.0500500   0.3503500), wk =   0.0005000
        k(  591) = (   0.0500000  -0.0500500   0.4004000), wk =   0.0005000
        k(  592) = (   0.0500000  -0.0500500   0.4504500), wk =   0.0005000
        k(  593) = (   0.0500000  -0.0500500  -0.5005000), wk =   0.0005000
        k(  594) = (   0.0500000  -0.0500500  -0.4504500), wk =   0.0005000
        k(  595) = (   0.0500000  -0.0500500  -0.4004000), wk =   0.0005000
        k(  596) = (   0.0500000  -0.0500500  -0.3503500), wk =   0.0005000
        k(  597) = (   0.0500000  -0.0500500  -0.3003000), wk =   0.0005000
        k(  598) = (   0.0500000  -0.0500500  -0.2502500), wk =   0.0005000
        k(  599) = (   0.0500000  -0.0500500  -0.2002000), wk =   0.0005000
        k(  600) = (   0.0500000  -0.0500500  -0.1501500), wk =   0.0005000
        k(  601) = (   0.0500000  -0.0500500  -0.1001000), wk =   0.0005000
        k(  602) = (   0.0500000  -0.0500500  -0.0500500), wk =   0.0005000
        k(  603) = (   0.1000000   0.0000000   0.0000000), wk =   0.0005000
        k(  604) = (   0.1000000   0.0000000   0.0500500), wk =   0.0005000
        k(  605) = (   0.1000000   0.0000000   0.1001000), wk =   0.0005000
        k(  606) = (   0.1000000   0.0000000   0.1501500), wk =   0.0005000
        k(  607) = (   0.1000000   0.0000000   0.2002000), wk =   0.0005000
        k(  608) = (   0.1000000   0.0000000   0.2502500), wk =   0.0005000
        k(  609) = (   0.1000000   0.0000000   0.3003000), wk =   0.0005000
        k(  610) = (   0.1000000   0.0000000   0.3503500), wk =   0.0005000
        k(  611) = (   0.1000000   0.0000000   0.4004000), wk =   0.0005000
        k(  612) = (   0.1000000   0.0000000   0.4504500), wk =   0.0005000
        k(  613) = (   0.1000000   0.0000000  -0.5005000), wk =   0.0005000
        k(  614) = (   0.1000000   0.0000000  -0.4504500), wk =   0.0005000
        k(  615) = (   0.1000000   0.0000000  -0.4004000), wk =   0.0005000
        k(  616) = (   0.1000000   0.0000000  -0.3503500), wk =   0.0005000
        k(  617) = (   0.1000000   0.0000000  -0.3003000), wk =   0.0005000
        k(  618) = (   0.1000000   0.0000000  -0.2502500), wk =   0.0005000
        k(  619) = (   0.1000000   0.0000000  -0.2002000), wk =   0.0005000
        k(  620) = (   0.1000000   0.0000000  -0.1501500), wk =   0.0005000
        k(  621) = (   0.1000000   0.0000000  -0.1001000), wk =   0.0005000
        k(  622) = (   0.1000000   0.0000000  -0.0500500), wk =   0.0005000
        k(  623) = (   0.1000000   0.0500500   0.0000000), wk =   0.0005000
        k(  624) = (   0.1000000   0.0500500   0.0500500), wk =   0.0005000
        k(  625) = (   0.1000000   0.0500500   0.1001000), wk =   0.0005000
        k(  626) = (   0.1000000   0.0500500   0.1501500), wk =   0.0005000
        k(  627) = (   0.1000000   0.0500500   0.2002000), wk =   0.0005000
        k(  628) = (   0.1000000   0.0500500   0.2502500), wk =   0.0005000
        k(  629) = (   0.1000000   0.0500500   0.3003000), wk =   0.0005000
        k(  630) = (   0.1000000   0.0500500   0.3503500), wk =   0.0005000
        k(  631) = (   0.1000000   0.0500500   0.4004000), wk =   0.0005000
        k(  632) = (   0.1000000   0.0500500   0.4504500), wk =   0.0005000
        k(  633) = (   0.1000000   0.0500500  -0.5005000), wk =   0.0005000
        k(  634) = (   0.1000000   0.0500500  -0.4504500), wk =   0.0005000
        k(  635) = (   0.1000000   0.0500500  -0.4004000), wk =   0.0005000
        k(  636) = (   0.1000000   0.0500500  -0.3503500), wk =   0.0005000
        k(  637) = (   0.1000000   0.0500500  -0.3003000), wk =   0.0005000
        k(  638) = (   0.1000000   0.0500500  -0.2502500), wk =   0.0005000
        k(  639) = (   0.1000000   0.0500500  -0.2002000), wk =   0.0005000
        k(  640) = (   0.1000000   0.0500500  -0.1501500), wk =   0.0005000
        k(  641) = (   0.1000000   0.0500500  -0.1001000), wk =   0.0005000
        k(  642) = (   0.1000000   0.0500500  -0.0500500), wk =   0.0005000
        k(  643) = (   0.1000000   0.1001000   0.0000000), wk =   0.0005000
        k(  644) = (   0.1000000   0.1001000   0.0500500), wk =   0.0005000
        k(  645) = (   0.1000000   0.1001000   0.1001000), wk =   0.0005000
        k(  646) = (   0.1000000   0.1001000   0.1501500), wk =   0.0005000
        k(  647) = (   0.1000000   0.1001000   0.2002000), wk =   0.0005000
        k(  648) = (   0.1000000   0.1001000   0.2502500), wk =   0.0005000
        k(  649) = (   0.1000000   0.1001000   0.3003000), wk =   0.0005000
        k(  650) = (   0.1000000   0.1001000   0.3503500), wk =   0.0005000
        k(  651) = (   0.1000000   0.1001000   0.4004000), wk =   0.0005000
        k(  652) = (   0.1000000   0.1001000   0.4504500), wk =   0.0005000
        k(  653) = (   0.1000000   0.1001000  -0.5005000), wk =   0.0005000
        k(  654) = (   0.1000000   0.1001000  -0.4504500), wk =   0.0005000
        k(  655) = (   0.1000000   0.1001000  -0.4004000), wk =   0.0005000
        k(  656) = (   0.1000000   0.1001000  -0.3503500), wk =   0.0005000
        k(  657) = (   0.1000000   0.1001000  -0.3003000), wk =   0.0005000
        k(  658) = (   0.1000000   0.1001000  -0.2502500), wk =   0.0005000
        k(  659) = (   0.1000000   0.1001000  -0.2002000), wk =   0.0005000
        k(  660) = (   0.1000000   0.1001000  -0.1501500), wk =   0.0005000
        k(  661) = (   0.1000000   0.1001000  -0.1001000), wk =   0.0005000
        k(  662) = (   0.1000000   0.1001000  -0.0500500), wk =   0.0005000
        k(  663) = (   0.1000000   0.1501500   0.0000000), wk =   0.0005000
        k(  664) = (   0.1000000   0.1501500   0.0500500), wk =   0.0005000
        k(  665) = (   0.1000000   0.1501500   0.1001000), wk =   0.0005000
        k(  666) = (   0.1000000   0.1501500   0.1501500), wk =   0.0005000
        k(  667) = (   0.1000000   0.1501500   0.2002000), wk =   0.0005000
        k(  668) = (   0.1000000   0.1501500   0.2502500), wk =   0.0005000
        k(  669) = (   0.1000000   0.1501500   0.3003000), wk =   0.0005000
        k(  670) = (   0.1000000   0.1501500   0.3503500), wk =   0.0005000
        k(  671) = (   0.1000000   0.1501500   0.4004000), wk =   0.0005000
        k(  672) = (   0.1000000   0.1501500   0.4504500), wk =   0.0005000
        k(  673) = (   0.1000000   0.1501500  -0.5005000), wk =   0.0005000
        k(  674) = (   0.1000000   0.1501500  -0.4504500), wk =   0.0005000
        k(  675) = (   0.1000000   0.1501500  -0.4004000), wk =   0.0005000
        k(  676) = (   0.1000000   0.1501500  -0.3503500), wk =   0.0005000
        k(  677) = (   0.1000000   0.1501500  -0.3003000), wk =   0.0005000
        k(  678) = (   0.1000000   0.1501500  -0.2502500), wk =   0.0005000
        k(  679) = (   0.1000000   0.1501500  -0.2002000), wk =   0.0005000
        k(  680) = (   0.1000000   0.1501500  -0.1501500), wk =   0.0005000
        k(  681) = (   0.1000000   0.1501500  -0.1001000), wk =   0.0005000
        k(  682) = (   0.1000000   0.1501500  -0.0500500), wk =   0.0005000
        k(  683) = (   0.1000000   0.2002000   0.0000000), wk =   0.0005000
        k(  684) = (   0.1000000   0.2002000   0.0500500), wk =   0.0005000
        k(  685) = (   0.1000000   0.2002000   0.1001000), wk =   0.0005000
        k(  686) = (   0.1000000   0.2002000   0.1501500), wk =   0.0005000
        k(  687) = (   0.1000000   0.2002000   0.2002000), wk =   0.0005000
        k(  688) = (   0.1000000   0.2002000   0.2502500), wk =   0.0005000
        k(  689) = (   0.1000000   0.2002000   0.3003000), wk =   0.0005000
        k(  690) = (   0.1000000   0.2002000   0.3503500), wk =   0.0005000
        k(  691) = (   0.1000000   0.2002000   0.4004000), wk =   0.0005000
        k(  692) = (   0.1000000   0.2002000   0.4504500), wk =   0.0005000
        k(  693) = (   0.1000000   0.2002000  -0.5005000), wk =   0.0005000
        k(  694) = (   0.1000000   0.2002000  -0.4504500), wk =   0.0005000
        k(  695) = (   0.1000000   0.2002000  -0.4004000), wk =   0.0005000
        k(  696) = (   0.1000000   0.2002000  -0.3503500), wk =   0.0005000
        k(  697) = (   0.1000000   0.2002000  -0.3003000), wk =   0.0005000
        k(  698) = (   0.1000000   0.2002000  -0.2502500), wk =   0.0005000
        k(  699) = (   0.1000000   0.2002000  -0.2002000), wk =   0.0005000
        k(  700) = (   0.1000000   0.2002000  -0.1501500), wk =   0.0005000
        k(  701) = (   0.1000000   0.2002000  -0.1001000), wk =   0.0005000
        k(  702) = (   0.1000000   0.2002000  -0.0500500), wk =   0.0005000
        k(  703) = (   0.1000000   0.2502500   0.0000000), wk =   0.0005000
        k(  704) = (   0.1000000   0.2502500   0.0500500), wk =   0.0005000
        k(  705) = (   0.1000000   0.2502500   0.1001000), wk =   0.0005000
        k(  706) = (   0.1000000   0.2502500   0.1501500), wk =   0.0005000
        k(  707) = (   0.1000000   0.2502500   0.2002000), wk =   0.0005000
        k(  708) = (   0.1000000   0.2502500   0.2502500), wk =   0.0005000
        k(  709) = (   0.1000000   0.2502500   0.3003000), wk =   0.0005000
        k(  710) = (   0.1000000   0.2502500   0.3503500), wk =   0.0005000
        k(  711) = (   0.1000000   0.2502500   0.4004000), wk =   0.0005000
        k(  712) = (   0.1000000   0.2502500   0.4504500), wk =   0.0005000
        k(  713) = (   0.1000000   0.2502500  -0.5005000), wk =   0.0005000
        k(  714) = (   0.1000000   0.2502500  -0.4504500), wk =   0.0005000
        k(  715) = (   0.1000000   0.2502500  -0.4004000), wk =   0.0005000
        k(  716) = (   0.1000000   0.2502500  -0.3503500), wk =   0.0005000
        k(  717) = (   0.1000000   0.2502500  -0.3003000), wk =   0.0005000
        k(  718) = (   0.1000000   0.2502500  -0.2502500), wk =   0.0005000
        k(  719) = (   0.1000000   0.2502500  -0.2002000), wk =   0.0005000
        k(  720) = (   0.1000000   0.2502500  -0.1501500), wk =   0.0005000
        k(  721) = (   0.1000000   0.2502500  -0.1001000), wk =   0.0005000
        k(  722) = (   0.1000000   0.2502500  -0.0500500), wk =   0.0005000
        k(  723) = (   0.1000000   0.3003000   0.0000000), wk =   0.0005000
        k(  724) = (   0.1000000   0.3003000   0.0500500), wk =   0.0005000
        k(  725) = (   0.1000000   0.3003000   0.1001000), wk =   0.0005000
        k(  726) = (   0.1000000   0.3003000   0.1501500), wk =   0.0005000
        k(  727) = (   0.1000000   0.3003000   0.2002000), wk =   0.0005000
        k(  728) = (   0.1000000   0.3003000   0.2502500), wk =   0.0005000
        k(  729) = (   0.1000000   0.3003000   0.3003000), wk =   0.0005000
        k(  730) = (   0.1000000   0.3003000   0.3503500), wk =   0.0005000
        k(  731) = (   0.1000000   0.3003000   0.4004000), wk =   0.0005000
        k(  732) = (   0.1000000   0.3003000   0.4504500), wk =   0.0005000
        k(  733) = (   0.1000000   0.3003000  -0.5005000), wk =   0.0005000
        k(  734) = (   0.1000000   0.3003000  -0.4504500), wk =   0.0005000
        k(  735) = (   0.1000000   0.3003000  -0.4004000), wk =   0.0005000
        k(  736) = (   0.1000000   0.3003000  -0.3503500), wk =   0.0005000
        k(  737) = (   0.1000000   0.3003000  -0.3003000), wk =   0.0005000
        k(  738) = (   0.1000000   0.3003000  -0.2502500), wk =   0.0005000
        k(  739) = (   0.1000000   0.3003000  -0.2002000), wk =   0.0005000
        k(  740) = (   0.1000000   0.3003000  -0.1501500), wk =   0.0005000
        k(  741) = (   0.1000000   0.3003000  -0.1001000), wk =   0.0005000
        k(  742) = (   0.1000000   0.3003000  -0.0500500), wk =   0.0005000
        k(  743) = (   0.1000000   0.3503500   0.0000000), wk =   0.0005000
        k(  744) = (   0.1000000   0.3503500   0.0500500), wk =   0.0005000
        k(  745) = (   0.1000000   0.3503500   0.1001000), wk =   0.0005000
        k(  746) = (   0.1000000   0.3503500   0.1501500), wk =   0.0005000
        k(  747) = (   0.1000000   0.3503500   0.2002000), wk =   0.0005000
        k(  748) = (   0.1000000   0.3503500   0.2502500), wk =   0.0005000
        k(  749) = (   0.1000000   0.3503500   0.3003000), wk =   0.0005000
        k(  750) = (   0.1000000   0.3503500   0.3503500), wk =   0.0005000
        k(  751) = (   0.1000000   0.3503500   0.4004000), wk =   0.0005000
        k(  752) = (   0.1000000   0.3503500   0.4504500), wk =   0.0005000
        k(  753) = (   0.1000000   0.3503500  -0.5005000), wk =   0.0005000
        k(  754) = (   0.1000000   0.3503500  -0.4504500), wk =   0.0005000
        k(  755) = (   0.1000000   0.3503500  -0.4004000), wk =   0.0005000
        k(  756) = (   0.1000000   0.3503500  -0.3503500), wk =   0.0005000
        k(  757) = (   0.1000000   0.3503500  -0.3003000), wk =   0.0005000
        k(  758) = (   0.1000000   0.3503500  -0.2502500), wk =   0.0005000
        k(  759) = (   0.1000000   0.3503500  -0.2002000), wk =   0.0005000
        k(  760) = (   0.1000000   0.3503500  -0.1501500), wk =   0.0005000
        k(  761) = (   0.1000000   0.3503500  -0.1001000), wk =   0.0005000
        k(  762) = (   0.1000000   0.3503500  -0.0500500), wk =   0.0005000
        k(  763) = (   0.1000000   0.4004000   0.0000000), wk =   0.0005000
        k(  764) = (   0.1000000   0.4004000   0.0500500), wk =   0.0005000
        k(  765) = (   0.1000000   0.4004000   0.1001000), wk =   0.0005000
        k(  766) = (   0.1000000   0.4004000   0.1501500), wk =   0.0005000
        k(  767) = (   0.1000000   0.4004000   0.2002000), wk =   0.0005000
        k(  768) = (   0.1000000   0.4004000   0.2502500), wk =   0.0005000
        k(  769) = (   0.1000000   0.4004000   0.3003000), wk =   0.0005000
        k(  770) = (   0.1000000   0.4004000   0.3503500), wk =   0.0005000
        k(  771) = (   0.1000000   0.4004000   0.4004000), wk =   0.0005000
        k(  772) = (   0.1000000   0.4004000   0.4504500), wk =   0.0005000
        k(  773) = (   0.1000000   0.4004000  -0.5005000), wk =   0.0005000
        k(  774) = (   0.1000000   0.4004000  -0.4504500), wk =   0.0005000
        k(  775) = (   0.1000000   0.4004000  -0.4004000), wk =   0.0005000
        k(  776) = (   0.1000000   0.4004000  -0.3503500), wk =   0.0005000
        k(  777) = (   0.1000000   0.4004000  -0.3003000), wk =   0.0005000
        k(  778) = (   0.1000000   0.4004000  -0.2502500), wk =   0.0005000
        k(  779) = (   0.1000000   0.4004000  -0.2002000), wk =   0.0005000
        k(  780) = (   0.1000000   0.4004000  -0.1501500), wk =   0.0005000
        k(  781) = (   0.1000000   0.4004000  -0.1001000), wk =   0.0005000
        k(  782) = (   0.1000000   0.4004000  -0.0500500), wk =   0.0005000
        k(  783) = (   0.1000000   0.4504500   0.0000000), wk =   0.0005000
        k(  784) = (   0.1000000   0.4504500   0.0500500), wk =   0.0005000
        k(  785) = (   0.1000000   0.4504500   0.1001000), wk =   0.0005000
        k(  786) = (   0.1000000   0.4504500   0.1501500), wk =   0.0005000
        k(  787) = (   0.1000000   0.4504500   0.2002000), wk =   0.0005000
        k(  788) = (   0.1000000   0.4504500   0.2502500), wk =   0.0005000
        k(  789) = (   0.1000000   0.4504500   0.3003000), wk =   0.0005000
        k(  790) = (   0.1000000   0.4504500   0.3503500), wk =   0.0005000
        k(  791) = (   0.1000000   0.4504500   0.4004000), wk =   0.0005000
        k(  792) = (   0.1000000   0.4504500   0.4504500), wk =   0.0005000
        k(  793) = (   0.1000000   0.4504500  -0.5005000), wk =   0.0005000
        k(  794) = (   0.1000000   0.4504500  -0.4504500), wk =   0.0005000
        k(  795) = (   0.1000000   0.4504500  -0.4004000), wk =   0.0005000
        k(  796) = (   0.1000000   0.4504500  -0.3503500), wk =   0.0005000
        k(  797) = (   0.1000000   0.4504500  -0.3003000), wk =   0.0005000
        k(  798) = (   0.1000000   0.4504500  -0.2502500), wk =   0.0005000
        k(  799) = (   0.1000000   0.4504500  -0.2002000), wk =   0.0005000
        k(  800) = (   0.1000000   0.4504500  -0.1501500), wk =   0.0005000
        k(  801) = (   0.1000000   0.4504500  -0.1001000), wk =   0.0005000
        k(  802) = (   0.1000000   0.4504500  -0.0500500), wk =   0.0005000
        k(  803) = (   0.1000000  -0.5005000   0.0000000), wk =   0.0005000
        k(  804) = (   0.1000000  -0.5005000   0.0500500), wk =   0.0005000
        k(  805) = (   0.1000000  -0.5005000   0.1001000), wk =   0.0005000
        k(  806) = (   0.1000000  -0.5005000   0.1501500), wk =   0.0005000
        k(  807) = (   0.1000000  -0.5005000   0.2002000), wk =   0.0005000
        k(  808) = (   0.1000000  -0.5005000   0.2502500), wk =   0.0005000
        k(  809) = (   0.1000000  -0.5005000   0.3003000), wk =   0.0005000
        k(  810) = (   0.1000000  -0.5005000   0.3503500), wk =   0.0005000
        k(  811) = (   0.1000000  -0.5005000   0.4004000), wk =   0.0005000
        k(  812) = (   0.1000000  -0.5005000   0.4504500), wk =   0.0005000
        k(  813) = (   0.1000000  -0.5005000  -0.5005000), wk =   0.0005000
        k(  814) = (   0.1000000  -0.5005000  -0.4504500), wk =   0.0005000
        k(  815) = (   0.1000000  -0.5005000  -0.4004000), wk =   0.0005000
        k(  816) = (   0.1000000  -0.5005000  -0.3503500), wk =   0.0005000
        k(  817) = (   0.1000000  -0.5005000  -0.3003000), wk =   0.0005000
        k(  818) = (   0.1000000  -0.5005000  -0.2502500), wk =   0.0005000
        k(  819) = (   0.1000000  -0.5005000  -0.2002000), wk =   0.0005000
        k(  820) = (   0.1000000  -0.5005000  -0.1501500), wk =   0.0005000
        k(  821) = (   0.1000000  -0.5005000  -0.1001000), wk =   0.0005000
        k(  822) = (   0.1000000  -0.5005000  -0.0500500), wk =   0.0005000
        k(  823) = (   0.1000000  -0.4504500   0.0000000), wk =   0.0005000
        k(  824) = (   0.1000000  -0.4504500   0.0500500), wk =   0.0005000
        k(  825) = (   0.1000000  -0.4504500   0.1001000), wk =   0.0005000
        k(  826) = (   0.1000000  -0.4504500   0.1501500), wk =   0.0005000
        k(  827) = (   0.1000000  -0.4504500   0.2002000), wk =   0.0005000
        k(  828) = (   0.1000000  -0.4504500   0.2502500), wk =   0.0005000
        k(  829) = (   0.1000000  -0.4504500   0.3003000), wk =   0.0005000
        k(  830) = (   0.1000000  -0.4504500   0.3503500), wk =   0.0005000
        k(  831) = (   0.1000000  -0.4504500   0.4004000), wk =   0.0005000
        k(  832) = (   0.1000000  -0.4504500   0.4504500), wk =   0.0005000
        k(  833) = (   0.1000000  -0.4504500  -0.5005000), wk =   0.0005000
        k(  834) = (   0.1000000  -0.4504500  -0.4504500), wk =   0.0005000
        k(  835) = (   0.1000000  -0.4504500  -0.4004000), wk =   0.0005000
        k(  836) = (   0.1000000  -0.4504500  -0.3503500), wk =   0.0005000
        k(  837) = (   0.1000000  -0.4504500  -0.3003000), wk =   0.0005000
        k(  838) = (   0.1000000  -0.4504500  -0.2502500), wk =   0.0005000
        k(  839) = (   0.1000000  -0.4504500  -0.2002000), wk =   0.0005000
        k(  840) = (   0.1000000  -0.4504500  -0.1501500), wk =   0.0005000
        k(  841) = (   0.1000000  -0.4504500  -0.1001000), wk =   0.0005000
        k(  842) = (   0.1000000  -0.4504500  -0.0500500), wk =   0.0005000
        k(  843) = (   0.1000000  -0.4004000   0.0000000), wk =   0.0005000
        k(  844) = (   0.1000000  -0.4004000   0.0500500), wk =   0.0005000
        k(  845) = (   0.1000000  -0.4004000   0.1001000), wk =   0.0005000
        k(  846) = (   0.1000000  -0.4004000   0.1501500), wk =   0.0005000
        k(  847) = (   0.1000000  -0.4004000   0.2002000), wk =   0.0005000
        k(  848) = (   0.1000000  -0.4004000   0.2502500), wk =   0.0005000
        k(  849) = (   0.1000000  -0.4004000   0.3003000), wk =   0.0005000
        k(  850) = (   0.1000000  -0.4004000   0.3503500), wk =   0.0005000
        k(  851) = (   0.1000000  -0.4004000   0.4004000), wk =   0.0005000
        k(  852) = (   0.1000000  -0.4004000   0.4504500), wk =   0.0005000
        k(  853) = (   0.1000000  -0.4004000  -0.5005000), wk =   0.0005000
        k(  854) = (   0.1000000  -0.4004000  -0.4504500), wk =   0.0005000
        k(  855) = (   0.1000000  -0.4004000  -0.4004000), wk =   0.0005000
        k(  856) = (   0.1000000  -0.4004000  -0.3503500), wk =   0.0005000
        k(  857) = (   0.1000000  -0.4004000  -0.3003000), wk =   0.0005000
        k(  858) = (   0.1000000  -0.4004000  -0.2502500), wk =   0.0005000
        k(  859) = (   0.1000000  -0.4004000  -0.2002000), wk =   0.0005000
        k(  860) = (   0.1000000  -0.4004000  -0.1501500), wk =   0.0005000
        k(  861) = (   0.1000000  -0.4004000  -0.1001000), wk =   0.0005000
        k(  862) = (   0.1000000  -0.4004000  -0.0500500), wk =   0.0005000
        k(  863) = (   0.1000000  -0.3503500   0.0000000), wk =   0.0005000
        k(  864) = (   0.1000000  -0.3503500   0.0500500), wk =   0.0005000
        k(  865) = (   0.1000000  -0.3503500   0.1001000), wk =   0.0005000
        k(  866) = (   0.1000000  -0.3503500   0.1501500), wk =   0.0005000
        k(  867) = (   0.1000000  -0.3503500   0.2002000), wk =   0.0005000
        k(  868) = (   0.1000000  -0.3503500   0.2502500), wk =   0.0005000
        k(  869) = (   0.1000000  -0.3503500   0.3003000), wk =   0.0005000
        k(  870) = (   0.1000000  -0.3503500   0.3503500), wk =   0.0005000
        k(  871) = (   0.1000000  -0.3503500   0.4004000), wk =   0.0005000
        k(  872) = (   0.1000000  -0.3503500   0.4504500), wk =   0.0005000
        k(  873) = (   0.1000000  -0.3503500  -0.5005000), wk =   0.0005000
        k(  874) = (   0.1000000  -0.3503500  -0.4504500), wk =   0.0005000
        k(  875) = (   0.1000000  -0.3503500  -0.4004000), wk =   0.0005000
        k(  876) = (   0.1000000  -0.3503500  -0.3503500), wk =   0.0005000
        k(  877) = (   0.1000000  -0.3503500  -0.3003000), wk =   0.0005000
        k(  878) = (   0.1000000  -0.3503500  -0.2502500), wk =   0.0005000
        k(  879) = (   0.1000000  -0.3503500  -0.2002000), wk =   0.0005000
        k(  880) = (   0.1000000  -0.3503500  -0.1501500), wk =   0.0005000
        k(  881) = (   0.1000000  -0.3503500  -0.1001000), wk =   0.0005000
        k(  882) = (   0.1000000  -0.3503500  -0.0500500), wk =   0.0005000
        k(  883) = (   0.1000000  -0.3003000   0.0000000), wk =   0.0005000
        k(  884) = (   0.1000000  -0.3003000   0.0500500), wk =   0.0005000
        k(  885) = (   0.1000000  -0.3003000   0.1001000), wk =   0.0005000
        k(  886) = (   0.1000000  -0.3003000   0.1501500), wk =   0.0005000
        k(  887) = (   0.1000000  -0.3003000   0.2002000), wk =   0.0005000
        k(  888) = (   0.1000000  -0.3003000   0.2502500), wk =   0.0005000
        k(  889) = (   0.1000000  -0.3003000   0.3003000), wk =   0.0005000
        k(  890) = (   0.1000000  -0.3003000   0.3503500), wk =   0.0005000
        k(  891) = (   0.1000000  -0.3003000   0.4004000), wk =   0.0005000
        k(  892) = (   0.1000000  -0.3003000   0.4504500), wk =   0.0005000
        k(  893) = (   0.1000000  -0.3003000  -0.5005000), wk =   0.0005000
        k(  894) = (   0.1000000  -0.3003000  -0.4504500), wk =   0.0005000
        k(  895) = (   0.1000000  -0.3003000  -0.4004000), wk =   0.0005000
        k(  896) = (   0.1000000  -0.3003000  -0.3503500), wk =   0.0005000
        k(  897) = (   0.1000000  -0.3003000  -0.3003000), wk =   0.0005000
        k(  898) = (   0.1000000  -0.3003000  -0.2502500), wk =   0.0005000
        k(  899) = (   0.1000000  -0.3003000  -0.2002000), wk =   0.0005000
        k(  900) = (   0.1000000  -0.3003000  -0.1501500), wk =   0.0005000
        k(  901) = (   0.1000000  -0.3003000  -0.1001000), wk =   0.0005000
        k(  902) = (   0.1000000  -0.3003000  -0.0500500), wk =   0.0005000
        k(  903) = (   0.1000000  -0.2502500   0.0000000), wk =   0.0005000
        k(  904) = (   0.1000000  -0.2502500   0.0500500), wk =   0.0005000
        k(  905) = (   0.1000000  -0.2502500   0.1001000), wk =   0.0005000
        k(  906) = (   0.1000000  -0.2502500   0.1501500), wk =   0.0005000
        k(  907) = (   0.1000000  -0.2502500   0.2002000), wk =   0.0005000
        k(  908) = (   0.1000000  -0.2502500   0.2502500), wk =   0.0005000
        k(  909) = (   0.1000000  -0.2502500   0.3003000), wk =   0.0005000
        k(  910) = (   0.1000000  -0.2502500   0.3503500), wk =   0.0005000
        k(  911) = (   0.1000000  -0.2502500   0.4004000), wk =   0.0005000
        k(  912) = (   0.1000000  -0.2502500   0.4504500), wk =   0.0005000
        k(  913) = (   0.1000000  -0.2502500  -0.5005000), wk =   0.0005000
        k(  914) = (   0.1000000  -0.2502500  -0.4504500), wk =   0.0005000
        k(  915) = (   0.1000000  -0.2502500  -0.4004000), wk =   0.0005000
        k(  916) = (   0.1000000  -0.2502500  -0.3503500), wk =   0.0005000
        k(  917) = (   0.1000000  -0.2502500  -0.3003000), wk =   0.0005000
        k(  918) = (   0.1000000  -0.2502500  -0.2502500), wk =   0.0005000
        k(  919) = (   0.1000000  -0.2502500  -0.2002000), wk =   0.0005000
        k(  920) = (   0.1000000  -0.2502500  -0.1501500), wk =   0.0005000
        k(  921) = (   0.1000000  -0.2502500  -0.1001000), wk =   0.0005000
        k(  922) = (   0.1000000  -0.2502500  -0.0500500), wk =   0.0005000
        k(  923) = (   0.1000000  -0.2002000   0.0000000), wk =   0.0005000
        k(  924) = (   0.1000000  -0.2002000   0.0500500), wk =   0.0005000
        k(  925) = (   0.1000000  -0.2002000   0.1001000), wk =   0.0005000
        k(  926) = (   0.1000000  -0.2002000   0.1501500), wk =   0.0005000
        k(  927) = (   0.1000000  -0.2002000   0.2002000), wk =   0.0005000
        k(  928) = (   0.1000000  -0.2002000   0.2502500), wk =   0.0005000
        k(  929) = (   0.1000000  -0.2002000   0.3003000), wk =   0.0005000
        k(  930) = (   0.1000000  -0.2002000   0.3503500), wk =   0.0005000
        k(  931) = (   0.1000000  -0.2002000   0.4004000), wk =   0.0005000
        k(  932) = (   0.1000000  -0.2002000   0.4504500), wk =   0.0005000
        k(  933) = (   0.1000000  -0.2002000  -0.5005000), wk =   0.0005000
        k(  934) = (   0.1000000  -0.2002000  -0.4504500), wk =   0.0005000
        k(  935) = (   0.1000000  -0.2002000  -0.4004000), wk =   0.0005000
        k(  936) = (   0.1000000  -0.2002000  -0.3503500), wk =   0.0005000
        k(  937) = (   0.1000000  -0.2002000  -0.3003000), wk =   0.0005000
        k(  938) = (   0.1000000  -0.2002000  -0.2502500), wk =   0.0005000
        k(  939) = (   0.1000000  -0.2002000  -0.2002000), wk =   0.0005000
        k(  940) = (   0.1000000  -0.2002000  -0.1501500), wk =   0.0005000
        k(  941) = (   0.1000000  -0.2002000  -0.1001000), wk =   0.0005000
        k(  942) = (   0.1000000  -0.2002000  -0.0500500), wk =   0.0005000
        k(  943) = (   0.1000000  -0.1501500   0.0000000), wk =   0.0005000
        k(  944) = (   0.1000000  -0.1501500   0.0500500), wk =   0.0005000
        k(  945) = (   0.1000000  -0.1501500   0.1001000), wk =   0.0005000
        k(  946) = (   0.1000000  -0.1501500   0.1501500), wk =   0.0005000
        k(  947) = (   0.1000000  -0.1501500   0.2002000), wk =   0.0005000
        k(  948) = (   0.1000000  -0.1501500   0.2502500), wk =   0.0005000
        k(  949) = (   0.1000000  -0.1501500   0.3003000), wk =   0.0005000
        k(  950) = (   0.1000000  -0.1501500   0.3503500), wk =   0.0005000
        k(  951) = (   0.1000000  -0.1501500   0.4004000), wk =   0.0005000
        k(  952) = (   0.1000000  -0.1501500   0.4504500), wk =   0.0005000
        k(  953) = (   0.1000000  -0.1501500  -0.5005000), wk =   0.0005000
        k(  954) = (   0.1000000  -0.1501500  -0.4504500), wk =   0.0005000
        k(  955) = (   0.1000000  -0.1501500  -0.4004000), wk =   0.0005000
        k(  956) = (   0.1000000  -0.1501500  -0.3503500), wk =   0.0005000
        k(  957) = (   0.1000000  -0.1501500  -0.3003000), wk =   0.0005000
        k(  958) = (   0.1000000  -0.1501500  -0.2502500), wk =   0.0005000
        k(  959) = (   0.1000000  -0.1501500  -0.2002000), wk =   0.0005000
        k(  960) = (   0.1000000  -0.1501500  -0.1501500), wk =   0.0005000
        k(  961) = (   0.1000000  -0.1501500  -0.1001000), wk =   0.0005000
        k(  962) = (   0.1000000  -0.1501500  -0.0500500), wk =   0.0005000
        k(  963) = (   0.1000000  -0.1001000   0.0000000), wk =   0.0005000
        k(  964) = (   0.1000000  -0.1001000   0.0500500), wk =   0.0005000
        k(  965) = (   0.1000000  -0.1001000   0.1001000), wk =   0.0005000
        k(  966) = (   0.1000000  -0.1001000   0.1501500), wk =   0.0005000
        k(  967) = (   0.1000000  -0.1001000   0.2002000), wk =   0.0005000
        k(  968) = (   0.1000000  -0.1001000   0.2502500), wk =   0.0005000
        k(  969) = (   0.1000000  -0.1001000   0.3003000), wk =   0.0005000
        k(  970) = (   0.1000000  -0.1001000   0.3503500), wk =   0.0005000
        k(  971) = (   0.1000000  -0.1001000   0.4004000), wk =   0.0005000
        k(  972) = (   0.1000000  -0.1001000   0.4504500), wk =   0.0005000
        k(  973) = (   0.1000000  -0.1001000  -0.5005000), wk =   0.0005000
        k(  974) = (   0.1000000  -0.1001000  -0.4504500), wk =   0.0005000
        k(  975) = (   0.1000000  -0.1001000  -0.4004000), wk =   0.0005000
        k(  976) = (   0.1000000  -0.1001000  -0.3503500), wk =   0.0005000
        k(  977) = (   0.1000000  -0.1001000  -0.3003000), wk =   0.0005000
        k(  978) = (   0.1000000  -0.1001000  -0.2502500), wk =   0.0005000
        k(  979) = (   0.1000000  -0.1001000  -0.2002000), wk =   0.0005000
[...]

     1.1508   1.1509   2.8828   2.8828   4.6099   4.6100   6.3072   6.3072
    14.7271  14.7272

     occupation numbers 
     1.0000   1.0000   1.0000   1.0000   1.0000   1.0000   1.0014   1.0014
    -0.0000  -0.0000

          k =-0.5000 0.4004-0.2503 (  1926 PWs)   bands (ev):

     0.9106   0.9106   2.6465   2.6466   5.2220   5.2221   6.9148   6.9148
    13.7200  13.7201

     occupation numbers 
     1.0000   1.0000   1.0000   1.0000   1.0000   1.0000   1.0301   1.0301
    -0.0000  -0.0000

          k =-0.5000 0.4004-0.2002 (  1932 PWs)   bands (ev):

     0.7137   0.7138   2.4524   2.4525   5.8707   5.8708   7.5577   7.5578
    12.7417  12.7417

     occupation numbers 
     1.0000   1.0000   1.0000   1.0000   1.0000   1.0000   0.7916   0.7915
    -0.0000  -0.0000

          k =-0.5000 0.4004-0.1502 (  1938 PWs)   bands (ev):

     0.5604   0.5605   2.3011   2.3012   6.5502   6.5503   8.2306   8.2307
    11.8025  11.8026

     occupation numbers 
     1.0000   1.0000   1.0000   1.0000   1.0068   1.0068   0.0239   0.0238
    -0.0000  -0.0000

          k =-0.5000 0.4004-0.1001 (  1942 PWs)   bands (ev):

     0.4508   0.4509   2.1929   2.1930   7.2465   7.2465   8.9194   8.9195
    10.9193  10.9194

     occupation numbers 
     1.0000   1.0000   1.0000   1.0000   1.0097   1.0096  -0.0110  -0.0110
    -0.0000  -0.0000

          k =-0.5000 0.4004-0.0501 (  1938 PWs)   bands (ev):

     0.3850   0.3851   2.1279   2.1280   7.9083   7.9084   9.5729   9.5730
    10.1448  10.1449

     occupation numbers 
     1.0000   1.0000   1.0000   1.0000   0.3243   0.3242  -0.0001  -0.0001
    -0.0000  -0.0000

          k =-0.5000 0.4505 0.0000 (  1944 PWs)   bands (ev):

     0.7354   0.7355   1.6075   1.6076   8.6237   8.6238   9.4530   9.4531
    10.1013  10.1013

     occupation numbers 
     1.0000   1.0000   1.0000   1.0000  -0.0316  -0.0316  -0.0003  -0.0003
    -0.0000  -0.0000

          k =-0.5000 0.4505 0.0501 (  1948 PWs)   bands (ev):

     0.7573   0.7574   1.6293   1.6294   8.2626   8.2627   9.0951   9.0952
    10.4999  10.5000

     occupation numbers 
     1.0000   1.0000   1.0000   1.0000   0.0091   0.0091  -0.0041  -0.0041
    -0.0000  -0.0000

          k =-0.5000 0.4505 0.1001 (  1942 PWs)   bands (ev):

     0.8230   0.8230   1.6945   1.6946   7.6030   7.6031   8.4399   8.4399
    11.2715  11.2716

     occupation numbers 
     1.0000   1.0000   1.0000   1.0000   0.7387   0.7386  -0.0326  -0.0326
    -0.0000  -0.0000

          k =-0.5000 0.4505 0.1502 (  1936 PWs)   bands (ev):

     0.9323   0.9324   1.8032   1.8033   6.9085   6.9085   7.7491   7.7492
    12.1519  12.1520

     occupation numbers 
     1.0000   1.0000   1.0000   1.0000   1.0297   1.0297   0.5443   0.5442
    -0.0000  -0.0000

          k =-0.5000 0.4505 0.2002 (  1926 PWs)   bands (ev):

     1.0852   1.0853   1.9551   1.9552   6.2303   6.2304   7.0744   7.0744
    13.0879  13.0880

     occupation numbers 
     1.0000   1.0000   1.0000   1.0000   1.0008   1.0008   1.0351   1.0351
    -0.0000  -0.0000

          k =-0.5000 0.4505 0.2503 (  1924 PWs)   bands (ev):

     1.2816   1.2816   2.1502   2.1503   5.5827   5.5827   6.4297   6.4297
    14.0625  14.0626

     occupation numbers 
     1.0000   1.0000   1.0000   1.0000   1.0000   1.0000   1.0033   1.0033
    -0.0000  -0.0000

          k =-0.5000 0.4505 0.3003 (  1922 PWs)   bands (ev):

     1.5212   1.5213   2.3881   2.3882   4.9709   4.9710   5.8205   5.8205
    15.0651  15.0651

     occupation numbers 
     1.0000   1.0000   1.0000   1.0000   1.0000   1.0000   1.0000   1.0000
    -0.0000  -0.0000

          k =-0.5000 0.4505 0.3504 (  1918 PWs)   bands (ev):

     1.8038   1.8039   2.6681   2.6682   4.3982   4.3982   5.2494   5.2495
    16.0828  16.0829

     occupation numbers 
     1.0000   1.0000   1.0000   1.0000   1.0000   1.0000   1.0000   1.0000
    -0.0000  -0.0000

          k =-0.5000 0.4505 0.4004 (  1908 PWs)   bands (ev):

     2.1290   2.1291   2.9876   2.9877   3.8683   3.8683   4.7182   4.7182
    17.0936  17.0937

     occupation numbers 
     1.0000   1.0000   1.0000   1.0000   1.0000   1.0000   1.0000   1.0000
    -0.0000  -0.0000

          k =-0.5000 0.4505 0.4505 (  1900 PWs)   bands (ev):

     2.4960   2.4961   3.2725   3.2725   3.4561   3.4561   4.2282   4.2282
    18.0678  18.0679

     occupation numbers 
     1.0000   1.0000   1.0000   1.0000   1.0000   1.0000   1.0000   1.0000
    -0.0000  -0.0000

          k =-0.5000 0.4505-0.5005 (  1904 PWs)   bands (ev):

     2.9020   2.9021   2.9021   2.9022   3.7825   3.7825   3.7825   3.7826
    18.3498  18.3499

     occupation numbers 
     1.0000   1.0000   1.0000   1.0000   1.0000   1.0000   1.0000   1.0000
    -0.0000  -0.0000

          k =-0.5000 0.4505-0.4505 (  1900 PWs)   bands (ev):

     2.4960   2.4961   3.2725   3.2725   3.4561   3.4561   4.2282   4.2282
    18.0674  18.0678

     occupation numbers 
     1.0000   1.0000   1.0000   1.0000   1.0000   1.0000   1.0000   1.0000
    -0.0000  -0.0000

          k =-0.5000 0.4505-0.4004 (  1908 PWs)   bands (ev):

     2.1290   2.1291   2.9876   2.9877   3.8683   3.8683   4.7182   4.7182
    17.0936  17.0938

     occupation numbers 
     1.0000   1.0000   1.0000   1.0000   1.0000   1.0000   1.0000   1.0000
    -0.0000  -0.0000

          k =-0.5000 0.4505-0.3504 (  1918 PWs)   bands (ev):

     1.8038   1.8039   2.6681   2.6682   4.3982   4.3982   5.2494   5.2495
    16.0828  16.0829

     occupation numbers 
     1.0000   1.0000   1.0000   1.0000   1.0000   1.0000   1.0000   1.0000
    -0.0000  -0.0000

          k =-0.5000 0.4505-0.3003 (  1922 PWs)   bands (ev):

     1.5212   1.5213   2.3881   2.3882   4.9709   4.9710   5.8205   5.8205
    15.0650  15.0651

     occupation numbers 
     1.0000   1.0000   1.0000   1.0000   1.0000   1.0000   1.0000   1.0000
    -0.0000  -0.0000

          k =-0.5000 0.4505-0.2503 (  1924 PWs)   bands (ev):

     1.2816   1.2816   2.1502   2.1503   5.5827   5.5827   6.4297   6.4297
    14.0625  14.0626

     occupation numbers 
     1.0000   1.0000   1.0000   1.0000   1.0000   1.0000   1.0033   1.0033
    -0.0000  -0.0000

          k =-0.5000 0.4505-0.2002 (  1926 PWs)   bands (ev):

     1.0852   1.0853   1.9551   1.9552   6.2303   6.2304   7.0744   7.0744
    13.0879  13.0880

     occupation numbers 
     1.0000   1.0000   1.0000   1.0000   1.0008   1.0008   1.0351   1.0351
    -0.0000  -0.0000

          k =-0.5000 0.4505-0.1502 (  1936 PWs)   bands (ev):

     0.9323   0.9324   1.8032   1.8033   6.9085   6.9085   7.7491   7.7492
    12.1519  12.1520

     occupation numbers 
     1.0000   1.0000   1.0000   1.0000   1.0297   1.0297   0.5443   0.5442
    -0.0000  -0.0000

          k =-0.5000 0.4505-0.1001 (  1942 PWs)   bands (ev):

     0.8230   0.8230   1.6945   1.6946   7.6030   7.6031   8.4399   8.4399
    11.2715  11.2716

     occupation numbers 
     1.0000   1.0000   1.0000   1.0000   0.7387   0.7386  -0.0326  -0.0326
    -0.0000  -0.0000

          k =-0.5000 0.4505-0.0501 (  1948 PWs)   bands (ev):

     0.7573   0.7574   1.6293   1.6294   8.2626   8.2627   9.0951   9.0952
    10.4999  10.5000

     occupation numbers 
     1.0000   1.0000   1.0000   1.0000   0.0091   0.0091  -0.0041  -0.0041
    -0.0000  -0.0000

          k =-0.5000-0.5005 0.0000 (  1956 PWs)   bands (ev):

     1.1504   1.1504   1.1505   1.1505   9.0175   9.0176   9.0176   9.0177
    10.4971  10.4972

     occupation numbers 
     1.0000   1.0000   1.0000   1.0000  -0.0065  -0.0065  -0.0065  -0.0065
    -0.0000  -0.0000

          k =-0.5000-0.5005 0.0501 (  1944 PWs)   bands (ev):

     1.1722   1.1723   1.1723   1.1724   8.6582   8.6583   8.6583   8.6584
    10.8936  10.8937

     occupation numbers 
     1.0000   1.0000   1.0000   1.0000  -0.0293  -0.0293  -0.0293  -0.0293
    -0.0000  -0.0000

          k =-0.5000-0.5005 0.1001 (  1936 PWs)   bands (ev):

     1.2376   1.2377   1.2377   1.2378   8.0009   8.0010   8.0010   8.0010
    11.6621  11.6621

     occupation numbers 
     1.0000   1.0000   1.0000   1.0000   0.2113   0.2112   0.2111   0.2111
    -0.0000  -0.0000

          k =-0.5000-0.5005 0.1502 (  1932 PWs)   bands (ev):

     1.3467   1.3467   1.3468   1.3468   7.3082   7.3083   7.3083   7.3083
    12.5389  12.5389

     occupation numbers 
     1.0000   1.0000   1.0000   1.0000   0.9867   0.9867   0.9867   0.9866
    -0.0000  -0.0000

          k =-0.5000-0.5005 0.2002 (  1940 PWs)   bands (ev):

     1.4991   1.4992   1.4992   1.4993   6.6317   6.6318   6.6318   6.6318
    13.4702  13.4703

     occupation numbers 
     1.0000   1.0000   1.0000   1.0000   1.0104   1.0104   1.0104   1.0104
    -0.0000  -0.0000

          k =-0.5000-0.5005 0.2503 (  1932 PWs)   bands (ev):

     1.6949   1.6950   1.6950   1.6951   5.9854   5.9855   5.9855   5.9856
    14.4387  14.4388

     occupation numbers 
     1.0000   1.0000   1.0000   1.0000   1.0001   1.0001   1.0001   1.0001
    -0.0000  -0.0000

          k =-0.5000-0.5005 0.3003 (  1924 PWs)   bands (ev):

     1.9338   1.9339   1.9339   1.9339   5.3748   5.3748   5.3749   5.3749
    15.4322  15.4323

     occupation numbers 
     1.0000   1.0000   1.0000   1.0000   1.0000   1.0000   1.0000   1.0000
    -0.0000  -0.0000

          k =-0.5000-0.5005 0.3504 (  1920 PWs)   bands (ev):

     2.2154   2.2155   2.2155   2.2155   4.8025   4.8026   4.8026   4.8027
    16.4362  16.4363

     occupation numbers 
     1.0000   1.0000   1.0000   1.0000   1.0000   1.0000   1.0000   1.0000
    -0.0000  -0.0000

          k =-0.5000-0.5005 0.4004 (  1908 PWs)   bands (ev):

     2.5390   2.5391   2.5391   2.5392   4.2707   4.2707   4.2708   4.2708
    17.4256  17.4256

     occupation numbers 
     1.0000   1.0000   1.0000   1.0000   1.0000   1.0000   1.0000   1.0000
    -0.0000  -0.0000

          k =-0.5000-0.5005 0.4505 (  1904 PWs)   bands (ev):

     2.9020   2.9021   2.9021   2.9022   3.7825   3.7825   3.7825   3.7826
    18.3498  18.3499

     occupation numbers 
     1.0000   1.0000   1.0000   1.0000   1.0000   1.0000   1.0000   1.0000
    -0.0000  -0.0000

          k =-0.5000-0.5005-0.5005 (  1904 PWs)   bands (ev):

     3.2308   3.2308   3.2308   3.2308   3.4121   3.4121   3.4121   3.4121
    19.0418  19.0481

     occupation numbers 
     1.0000   1.0000   1.0000   1.0000   1.0000   1.0000   1.0000   1.0000
    -0.0000  -0.0000

     the Fermi energy is     7.7806 ev

!    total energy              =    -158.01086840 Ry
     Harris-Foulkes estimate   =    -158.01086840 Ry
     estimated scf accuracy    <          6.8E-13 Ry

     total all-electron energy =     -1942.581995 Ry

     The total energy is the sum of the following terms:

     one-electron contribution =      12.53606513 Ry
     hartree contribution      =       0.02312748 Ry
     xc contribution           =     -10.33535185 Ry
     ewald contribution        =     -21.52170228 Ry
     one-center paw contrib.   =    -138.71295824 Ry
      -> PAW hartree energy AE =       1.34239189 Ry
      -> PAW hartree energy PS =      -1.33778287 Ry
      -> PAW xc energy AE      =     -36.55713659 Ry
      -> PAW xc energy PS      =       1.87428815 Ry
      -> total E_H with PAW    =       0.02773651 Ry
      -> total E_XC with PAW   =     -45.01820030 Ry
     smearing contrib. (-TS)   =      -0.00004864 Ry

     convergence has been achieved in  11 iterations

     Forces acting on atoms (cartesian axes, Ry/au):

     atom    1 type  1   force =    -0.00000244   -0.00000316   -0.00000315
     atom    2 type  1   force =     0.00000251    0.00000315   -0.00000314
     atom    3 type  1   force =     0.00000250   -0.00000315    0.00000314
     atom    4 type  1   force =    -0.00000257    0.00000315    0.00000315
     The non-local contrib.  to forces
     atom    1 type  1   force =    -0.00000310   -0.00000408   -0.00000409
     atom    2 type  1   force =     0.00000325    0.00000409   -0.00000410
     atom    3 type  1   force =     0.00000326   -0.00000409    0.00000409
     atom    4 type  1   force =    -0.00000339    0.00000409    0.00000409
     The ionic contribution  to forces
     atom    1 type  1   force =    -0.00001705   -0.00002175   -0.00002175
     atom    2 type  1   force =     0.00001737    0.00002175   -0.00002175
     atom    3 type  1   force =     0.00001737   -0.00002175    0.00002175
     atom    4 type  1   force =    -0.00001769    0.00002175    0.00002175
     The local contribution  to forces
     atom    1 type  1   force =     0.00001734    0.00002214    0.00002218
     atom    2 type  1   force =    -0.00001771   -0.00002215    0.00002219
     atom    3 type  1   force =    -0.00001773    0.00002216   -0.00002219
     atom    4 type  1   force =     0.00001810   -0.00002216   -0.00002218
     The core correction contribution to forces
     atom    1 type  1   force =     0.00000038    0.00000050    0.00000050
     atom    2 type  1   force =    -0.00000040   -0.00000050    0.00000050
     atom    3 type  1   force =    -0.00000040    0.00000050   -0.00000050
     atom    4 type  1   force =     0.00000041   -0.00000050   -0.00000050
     The Hubbard contrib.    to forces
     atom    1 type  1   force =     0.00000000    0.00000000    0.00000000
     atom    2 type  1   force =     0.00000000    0.00000000    0.00000000
     atom    3 type  1   force =     0.00000000    0.00000000    0.00000000
     atom    4 type  1   force =     0.00000000    0.00000000    0.00000000
     The SCF correction term to forces
     atom    1 type  1   force =    -0.00000001    0.00000004    0.00000001
     atom    2 type  1   force =     0.00000000   -0.00000004    0.00000001
     atom    3 type  1   force =     0.00000001    0.00000004   -0.00000002
     atom    4 type  1   force =    -0.00000000   -0.00000003   -0.00000001

     Total force =     0.000010     Total SCF correction =     0.000000


     Computing stress (Cartesian axis) and pressure

          total   stress  (Ry/bohr**3)                   (kbar)     P=  -10.78
  -0.00007546  -0.00000000  -0.00000000        -11.10     -0.00     -0.00
  -0.00000000  -0.00007220   0.00000000         -0.00    -10.62      0.00
  -0.00000000   0.00000000  -0.00007220         -0.00      0.00    -10.62

     kinetic stress (kbar)   1432.51     -0.00      0.00
                               -0.00   1432.70      0.00
                                0.00      0.00   1432.70

     local   stress (kbar)    626.54      0.00     -0.00
                                0.00    626.28      0.00
                               -0.00      0.00    626.28

     nonloc. stress (kbar)   1036.31     -0.00     -0.00
                               -0.00   1036.60     -0.00
                               -0.00     -0.00   1036.60

     hartree stress (kbar)      2.54      0.00      0.00
                                0.00      2.50      0.00
                                0.00      0.00      2.50

     exc-cor stress (kbar)    500.73     -0.00     -0.00
                               -0.00    500.74     -0.00
                               -0.00     -0.00    500.74

     corecor stress (kbar)  -1269.99      0.00      0.00
                                0.00  -1270.03      0.00
                                0.00      0.00  -1270.03

     ewald   stress (kbar)  -2339.74     -0.00     -0.00
                               -0.00  -2339.41      0.00
                               -0.00      0.00  -2339.41

     hubbard stress (kbar)      0.00      0.00      0.00
                                0.00      0.00      0.00
                                0.00      0.00      0.00

     london  stress (kbar)      0.00      0.00      0.00
                                0.00      0.00      0.00
                                0.00      0.00      0.00

     DFT-D3  stress (kbar)      0.00      0.00      0.00
                                0.00      0.00      0.00
                                0.00      0.00      0.00

     XDM     stress (kbar)      0.00      0.00      0.00
                                0.00      0.00      0.00
                                0.00      0.00      0.00

     dft-nl  stress (kbar)      0.00      0.00      0.00
                                0.00      0.00      0.00
                                0.00      0.00      0.00

     TS-vdW  stress (kbar)      0.00      0.00      0.00
                                0.00      0.00      0.00
                                0.00      0.00      0.00



     Writing output data file aiida.save/
 
     init_run     :      3.68s CPU      3.96s WALL (       1 calls)
     electrons    :    118.36s CPU    125.98s WALL (       1 calls)
     forces       :      0.81s CPU      0.82s WALL (       1 calls)
     stress       :      2.02s CPU      2.03s WALL (       1 calls)

     Called by init_run:
     wfcinit      :      3.47s CPU      3.70s WALL (       1 calls)
     wfcinit:atom :      0.04s CPU      0.04s WALL (    1001 calls)
     wfcinit:wfcr :      3.20s CPU      3.41s WALL (    1001 calls)
     potinit      :      0.08s CPU      0.09s WALL (       1 calls)
     hinit0       :      0.09s CPU      0.11s WALL (       1 calls)

     Called by electrons:
     c_bands      :    106.11s CPU    112.93s WALL (      12 calls)
     sum_band     :     11.30s CPU     12.07s WALL (      12 calls)
     v_of_rho     :      0.11s CPU      0.11s WALL (      12 calls)
     v_h          :      0.01s CPU      0.01s WALL (      12 calls)
     v_xc         :      0.12s CPU      0.12s WALL (      14 calls)
     newd         :      0.09s CPU      0.10s WALL (      12 calls)
     PAW_pot      :      0.68s CPU      0.70s WALL (      12 calls)
     mix_rho      :      0.04s CPU      0.04s WALL (      12 calls)

     Called by c_bands:
     init_us_2    :      2.25s CPU      2.38s WALL (   27027 calls)
     cegterg      :     81.94s CPU     85.41s WALL (   12012 calls)

     Called by sum_band:
     sum_band:bec :      0.16s CPU      0.17s WALL (   12012 calls)
     addusdens    :      0.10s CPU      0.11s WALL (      12 calls)

     Called by *egterg:
     h_psi        :     49.11s CPU     51.23s WALL (   39396 calls)
     s_psi        :      2.07s CPU      2.18s WALL (   39396 calls)
     g_psi        :      0.35s CPU      0.37s WALL (   26383 calls)
     cdiaghg      :     24.85s CPU     25.93s WALL (   37394 calls)
     cegterg:over :      3.49s CPU      3.66s WALL (   26383 calls)
     cegterg:upda :      1.88s CPU      1.97s WALL (   26383 calls)
     cegterg:last :      0.57s CPU      0.60s WALL (   12062 calls)
     cdiaghg:chol :      1.68s CPU      1.77s WALL (   37394 calls)
     cdiaghg:inve :      0.71s CPU      0.75s WALL (   37394 calls)
     cdiaghg:para :      2.80s CPU      2.92s WALL (   74788 calls)

     Called by h_psi:
     h_psi:pot    :     48.90s CPU     51.01s WALL (   39396 calls)
     h_psi:calbec :      3.37s CPU      3.53s WALL (   39396 calls)
     vloc_psi     :     43.14s CPU     44.99s WALL (   39396 calls)
     add_vuspsi   :      2.15s CPU      2.26s WALL (   39396 calls)

     General routines
     calbec       :      4.79s CPU      5.04s WALL (   56413 calls)
     fft          :      0.10s CPU      0.11s WALL (     181 calls)
     ffts         :      0.02s CPU      0.02s WALL (     146 calls)
     fftw         :     47.09s CPU     49.31s WALL (  749698 calls)
     interpolate  :      0.01s CPU      0.01s WALL (      12 calls)
 
     Parallel routines
     fft_scatt_xy :      5.59s CPU      5.87s WALL (  750025 calls)
     fft_scatt_yz :     28.01s CPU     29.52s WALL (  750025 calls)

     PAW routines
     PAW_pot      :      0.68s CPU      0.70s WALL (      12 calls)
 
     PWSCF        :   2m17.66s CPU   3m24.85s WALL

 
   This run was terminated on:  11:26:34  22Feb2020            

=------------------------------------------------------------------------------=
   JOB DONE.
=------------------------------------------------------------------------------=
