begin
comment uuid: 4503bf0b-c193-4d38-8c57-f7599c85c417
lattice      7.6497625355     0.0000000000     0.0000000000
lattice      0.0000000000     7.6497625355     0.0000000000
lattice      0.0000000000     0.0000000000     7.6344935484
atom      0.0000000000     0.0000000000     0.0000000000   Al  0.0 0.0      -0.0000000050    -0.0000000050     0.0000000000
atom      0.0000000000     3.8248810000     3.8172470000   Al  0.0 0.0       0.0000000050    -0.0000000000     0.0000000050
atom      3.8248810000     0.0000000000     3.8172470000   Al  0.0 0.0       0.0000000000     0.0000000050    -0.0000000050
atom      3.8248810000     3.8248810000     0.0000000000   Al  0.0 0.0      -0.0000000000     0.0000000050     0.0000000000
energy -79.0055304123
charge 0.0000
end
begin
comment uuid: 0456e85e-0514-494c-92c2-e3b098d72ebc
lattice      7.6344935484     0.0000000000     0.0000000000
lattice      0.0000000000     7.6344935484     0.0000000000
lattice      0.0000000000     0.0000000000     7.6344935484
atom      0.0000000000     0.0000000000     0.0000000000   Al  0.0 0.0      -0.0000000050    -0.0000000050     0.0000000000
atom      0.0000000000     3.8172470000     3.8172470000   Al  0.0 0.0       0.0000000050    -0.0000000050     0.0000000050
atom      3.8172470000     0.0000000000     3.8172470000   Al  0.0 0.0       0.0000000000     0.0000000050    -0.0000000050
atom      3.8172470000     3.8172470000     0.0000000000   Al  0.0 0.0      -0.0000000000     0.0000000000     0.0000000000
energy -79.0055431423
charge 0.0000
end
begin
comment uuid: 8bc7d222-9c04-4ecc-b2aa-d470d50a8a19
lattice      7.6344935484     0.0000000000     0.0000000000
lattice      0.0000000000     7.6344935484     0.0076344935
lattice      0.0000000000     0.0076344935     7.6344935484
atom      0.0000000000     0.0000000000     0.0000000000   Al  0.0 0.0      -0.0000000050    -0.0000000050     0.0000000000
atom      0.0000000000     3.8210640000     3.8210640000   Al  0.0 0.0       0.0000000050    -0.0000000050     0.0000000050
atom      3.8172470000     0.0038170000     3.8172470000   Al  0.0 0.0       0.0000000000     0.0000000050    -0.0000000050
atom      3.8172470000     3.8172470000     0.0038170000   Al  0.0 0.0      -0.0000000000     0.0000000000     0.0000000000
energy -79.0055421123
charge 0.0000
end
begin
comment uuid: b661abc4-a54c-4079-9800-3f19dccb7713
lattice      7.6497625355     0.0000000000     0.0000000000
lattice      0.0000000000     7.6344935484     0.0000000000
lattice      0.0000000000     0.0000000000     7.6344935484
atom      0.0000000000     0.0000000000     0.0000000000   Al  0.0 0.0      -0.0000000050    -0.0000000050     0.0000000000
atom      0.0000000000     3.8172470000     3.8172470000   Al  0.0 0.0       0.0000000050    -0.0000000050     0.0000000050
atom      3.8248810000     0.0000000000     3.8172470000   Al  0.0 0.0       0.0000000000     0.0000000050    -0.0000000050
atom      3.8248810000     3.8172470000     0.0000000000   Al  0.0 0.0      -0.0000000000     0.0000000000     0.0000000000
energy -79.0055386023
charge 0.0000
end
