begin
comment uuid: 4503bf0b-c193-4d38-8c57-f7599c85c417
lattice     22.9492876065     0.0000000000     0.0000000000
lattice      0.0000000000    22.9492876065     0.0000000000
lattice      0.0000000000     0.0000000000    22.9034806452
atom      0.0000000000     0.0000000000     0.0000000000   Al  0.0 0.0      -0.0000000050    -0.0000000050     0.0000000000
atom      0.0000000000     3.8248810000     3.8172470000   Al  0.0 0.0       0.0000000050    -0.0000000000     0.0000000050
atom      3.8248810000     0.0000000000     3.8172470000   Al  0.0 0.0       0.0000000000     0.0000000050    -0.0000000050
atom      3.8248810000     3.8248810000     0.0000000000   Al  0.0 0.0      -0.0000000000     0.0000000050     0.0000000000
atom      7.6497625355     0.0000000000     0.0000000000   Al  0.0 0.0      -0.0000000050    -0.0000000050     0.0000000000
atom      7.6497625355     3.8248810000     3.8172470000   Al  0.0 0.0       0.0000000050    -0.0000000000     0.0000000050
atom     11.4746435355     0.0000000000     3.8172470000   Al  0.0 0.0       0.0000000000     0.0000000050    -0.0000000050
atom     11.4746435355     3.8248810000     0.0000000000   Al  0.0 0.0      -0.0000000000     0.0000000050     0.0000000000
atom     15.2995250710     0.0000000000     0.0000000000   Al  0.0 0.0      -0.0000000050    -0.0000000050     0.0000000000
atom     15.2995250710     3.8248810000     3.8172470000   Al  0.0 0.0       0.0000000050    -0.0000000000     0.0000000050
atom     19.1244060710     0.0000000000     3.8172470000   Al  0.0 0.0       0.0000000000     0.0000000050    -0.0000000050
atom     19.1244060710     3.8248810000     0.0000000000   Al  0.0 0.0      -0.0000000000     0.0000000050     0.0000000000
atom      0.0000000000     7.6497625355     0.0000000000   Al  0.0 0.0      -0.0000000050    -0.0000000050     0.0000000000
atom      0.0000000000    11.4746435355     3.8172470000   Al  0.0 0.0       0.0000000050    -0.0000000000     0.0000000050
atom      3.8248810000     7.6497625355     3.8172470000   Al  0.0 0.0       0.0000000000     0.0000000050    -0.0000000050
atom      3.8248810000    11.4746435355     0.0000000000   Al  0.0 0.0      -0.0000000000     0.0000000050     0.0000000000
atom      7.6497625355     7.6497625355     0.0000000000   Al  0.0 0.0      -0.0000000050    -0.0000000050     0.0000000000
atom      7.6497625355    11.4746435355     3.8172470000   Al  0.0 0.0       0.0000000050    -0.0000000000     0.0000000050
atom     11.4746435355     7.6497625355     3.8172470000   Al  0.0 0.0       0.0000000000     0.0000000050    -0.0000000050
atom     11.4746435355    11.4746435355     0.0000000000   Al  0.0 0.0      -0.0000000000     0.0000000050     0.0000000000
atom     15.2995250710     7.6497625355     0.0000000000   Al  0.0 0.0      -0.0000000050    -0.0000000050     0.0000000000
atom     15.2995250710    11.4746435355     3.8172470000   Al  0.0 0.0       0.0000000050    -0.0000000000     0.0000000050
atom     19.1244060710     7.6497625355     3.8172470000   Al  0.0 0.0       0.0000000000     0.0000000050    -0.0000000050
atom     19.1244060710    11.4746435355     0.0000000000   Al  0.0 0.0      -0.0000000000     0.0000000050     0.0000000000
atom      0.0000000000    15.2995250710     0.0000000000   Al  0.0 0.0      -0.0000000050    -0.0000000050     0.0000000000
atom      0.0000000000    19.1244060710     3.8172470000   Al  0.0 0.0       0.0000000050    -0.0000000000     0.0000000050
atom      3.8248810000    15.2995250710     3.8172470000   Al  0.0 0.0       0.0000000000     0.0000000050    -0.0000000050
atom      3.8248810000    19.1244060710     0.0000000000   Al  0.0 0.0      -0.0000000000     0.0000000050     0.0000000000
atom      7.6497625355    15.2995250710     0.0000000000   Al  0.0 0.0      -0.0000000050    -0.0000000050     0.0000000000
atom      7.6497625355    19.1244060710     3.8172470000   Al  0.0 0.0       0.0000000050    -0.0000000000     0.0000000050
atom     11.4746435355    15.2995250710     3.8172470000   Al  0.0 0.0       0.0000000000     0.0000000050    -0.0000000050
atom     11.4746435355    19.1244060710     0.0000000000   Al  0.0 0.0      -0.0000000000     0.0000000050     0.0000000000
atom     15.2995250710    15.2995250710     0.0000000000   Al  0.0 0.0      -0.0000000050    -0.0000000050     0.0000000000
atom     15.2995250710    19.1244060710     3.8172470000   Al  0.0 0.0       0.0000000050    -0.0000000000     0.0000000050
atom     19.1244060710    15.2995250710     3.8172470000   Al  0.0 0.0       0.0000000000     0.0000000050    -0.0000000050
atom     19.1244060710    19.1244060710     0.0000000000   Al  0.0 0.0      -0.0000000000     0.0000000050     0.0000000000
atom      0.0000000000     0.0000000000     7.6344935484   Al  0.0 0.0      -0.0000000050    -0.0000000050     0.0000000000
atom      0.0000000000     3.8248810000    11.4517405484   Al  0.0 0.0       0.0000000050    -0.0000000000     0.0000000050
atom      3.8248810000     0.0000000000    11.4517405484   Al  0.0 0.0       0.0000000000     0.0000000050    -0.0000000050
atom      3.8248810000     3.8248810000     7.6344935484   Al  0.0 0.0      -0.0000000000     0.0000000050     0.0000000000
atom      7.6497625355     0.0000000000     7.6344935484   Al  0.0 0.0      -0.0000000050    -0.0000000050     0.0000000000
atom      7.6497625355     3.8248810000    11.4517405484   Al  0.0 0.0       0.0000000050    -0.0000000000     0.0000000050
atom     11.4746435355     0.0000000000    11.4517405484   Al  0.0 0.0       0.0000000000     0.0000000050    -0.0000000050
atom     11.4746435355     3.8248810000     7.6344935484   Al  0.0 0.0      -0.0000000000     0.0000000050     0.0000000000
atom     15.2995250710     0.0000000000     7.6344935484   Al  0.0 0.0      -0.0000000050    -0.0000000050     0.0000000000
atom     15.2995250710     3.8248810000    11.4517405484   Al  0.0 0.0       0.0000000050    -0.0000000000     0.0000000050
atom     19.1244060710     0.0000000000    11.4517405484   Al  0.0 0.0       0.0000000000     0.0000000050    -0.0000000050
atom     19.1244060710     3.8248810000     7.6344935484   Al  0.0 0.0      -0.0000000000     0.0000000050     0.0000000000
atom      0.0000000000     7.6497625355     7.6344935484   Al  0.0 0.0      -0.0000000050    -0.0000000050     0.0000000000
atom      0.0000000000    11.4746435355    11.4517405484   Al  0.0 0.0       0.0000000050    -0.0000000000     0.0000000050
atom      3.8248810000     7.6497625355    11.4517405484   Al  0.0 0.0       0.0000000000     0.0000000050    -0.0000000050
atom      3.8248810000    11.4746435355     7.6344935484   Al  0.0 0.0      -0.0000000000     0.0000000050     0.0000000000
atom      7.6497625355     7.6497625355     7.6344935484   Al  0.0 0.0      -0.0000000050    -0.0000000050     0.0000000000
atom      7.6497625355    11.4746435355    11.4517405484   Al  0.0 0.0       0.0000000050    -0.0000000000     0.0000000050
atom     11.4746435355     7.6497625355    11.4517405484   Al  0.0 0.0       0.0000000000     0.0000000050    -0.0000000050
atom     11.4746435355    11.4746435355     7.6344935484   Al  0.0 0.0      -0.0000000000     0.0000000050     0.0000000000
atom     15.2995250710     7.6497625355     7.6344935484   Al  0.0 0.0      -0.0000000050    -0.0000000050     0.0000000000
atom     15.2995250710    11.4746435355    11.4517405484   Al  0.0 0.0       0.0000000050    -0.0000000000     0.0000000050
atom     19.1244060710     7.6497625355    11.4517405484   Al  0.0 0.0       0.0000000000     0.0000000050    -0.0000000050
atom     19.1244060710    11.4746435355     7.6344935484   Al  0.0 0.0      -0.0000000000     0.0000000050     0.0000000000
atom      0.0000000000    15.2995250710     7.6344935484   Al  0.0 0.0      -0.0000000050    -0.0000000050     0.0000000000
atom      0.0000000000    19.1244060710    11.4517405484   Al  0.0 0.0       0.0000000050    -0.0000000000     0.0000000050
atom      3.8248810000    15.2995250710    11.4517405484   Al  0.0 0.0       0.0000000000     0.0000000050    -0.0000000050
atom      3.8248810000    19.1244060710     7.6344935484   Al  0.0 0.0      -0.0000000000     0.0000000050     0.0000000000
atom      7.6497625355    15.2995250710     7.6344935484   Al  0.0 0.0      -0.0000000050    -0.0000000050     0.0000000000
atom      7.6497625355    19.1244060710    11.4517405484   Al  0.0 0.0       0.0000000050    -0.0000000000     0.0000000050
atom     11.4746435355    15.2995250710    11.4517405484   Al  0.0 0.0       0.0000000000     0.0000000050    -0.0000000050
atom     11.4746435355    19.1244060710     7.6344935484   Al  0.0 0.0      -0.0000000000     0.0000000050     0.0000000000
atom     15.2995250710    15.2995250710     7.6344935484   Al  0.0 0.0      -0.0000000050    -0.0000000050     0.0000000000
atom     15.2995250710    19.1244060710    11.4517405484   Al  0.0 0.0       0.0000000050    -0.0000000000     0.0000000050
atom     19.1244060710    15.2995250710    11.4517405484   Al  0.0 0.0       0.0000000000     0.0000000050    -0.0000000050
atom     19.1244060710    19.1244060710     7.6344935484   Al  0.0 0.0      -0.0000000000     0.0000000050     0.0000000000
atom      0.0000000000     0.0000000000    15.2689870968   Al  0.0 0.0      -0.0000000050    -0.0000000050     0.0000000000
atom      0.0000000000     3.8248810000    19.0862340968   Al  0.0 0.0       0.0000000050    -0.0000000000     0.0000000050
atom      3.8248810000     0.0000000000    19.0862340968   Al  0.0 0.0       0.0000000000     0.0000000050    -0.0000000050
atom      3.8248810000     3.8248810000    15.2689870968   Al  0.0 0.0      -0.0000000000     0.0000000050     0.0000000000
atom      7.6497625355     0.0000000000    15.2689870968   Al  0.0 0.0      -0.0000000050    -0.0000000050     0.0000000000
atom      7.6497625355     3.8248810000    19.0862340968   Al  0.0 0.0       0.0000000050    -0.0000000000     0.0000000050
atom     11.4746435355     0.0000000000    19.0862340968   Al  0.0 0.0       0.0000000000     0.0000000050    -0.0000000050
atom     11.4746435355     3.8248810000    15.2689870968   Al  0.0 0.0      -0.0000000000     0.0000000050     0.0000000000
atom     15.2995250710     0.0000000000    15.2689870968   Al  0.0 0.0      -0.0000000050    -0.0000000050     0.0000000000
atom     15.2995250710     3.8248810000    19.0862340968   Al  0.0 0.0       0.0000000050    -0.0000000000     0.0000000050
atom     19.1244060710     0.0000000000    19.0862340968   Al  0.0 0.0       0.0000000000     0.0000000050    -0.0000000050
atom     19.1244060710     3.8248810000    15.2689870968   Al  0.0 0.0      -0.0000000000     0.0000000050     0.0000000000
atom      0.0000000000     7.6497625355    15.2689870968   Al  0.0 0.0      -0.0000000050    -0.0000000050     0.0000000000
atom      0.0000000000    11.4746435355    19.0862340968   Al  0.0 0.0       0.0000000050    -0.0000000000     0.0000000050
atom      3.8248810000     7.6497625355    19.0862340968   Al  0.0 0.0       0.0000000000     0.0000000050    -0.0000000050
atom      3.8248810000    11.4746435355    15.2689870968   Al  0.0 0.0      -0.0000000000     0.0000000050     0.0000000000
atom      7.6497625355     7.6497625355    15.2689870968   Al  0.0 0.0      -0.0000000050    -0.0000000050     0.0000000000
atom      7.6497625355    11.4746435355    19.0862340968   Al  0.0 0.0       0.0000000050    -0.0000000000     0.0000000050
atom     11.4746435355     7.6497625355    19.0862340968   Al  0.0 0.0       0.0000000000     0.0000000050    -0.0000000050
atom     11.4746435355    11.4746435355    15.2689870968   Al  0.0 0.0      -0.0000000000     0.0000000050     0.0000000000
atom     15.2995250710     7.6497625355    15.2689870968   Al  0.0 0.0      -0.0000000050    -0.0000000050     0.0000000000
atom     15.2995250710    11.4746435355    19.0862340968   Al  0.0 0.0       0.0000000050    -0.0000000000     0.0000000050
atom     19.1244060710     7.6497625355    19.0862340968   Al  0.0 0.0       0.0000000000     0.0000000050    -0.0000000050
atom     19.1244060710    11.4746435355    15.2689870968   Al  0.0 0.0      -0.0000000000     0.0000000050     0.0000000000
atom      0.0000000000    15.2995250710    15.2689870968   Al  0.0 0.0      -0.0000000050    -0.0000000050     0.0000000000
atom      0.0000000000    19.1244060710    19.0862340968   Al  0.0 0.0       0.0000000050    -0.0000000000     0.0000000050
atom      3.8248810000    15.2995250710    19.0862340968   Al  0.0 0.0       0.0000000000     0.0000000050    -0.0000000050
atom      3.8248810000    19.1244060710    15.2689870968   Al  0.0 0.0      -0.0000000000     0.0000000050     0.0000000000
atom      7.6497625355    15.2995250710    15.2689870968   Al  0.0 0.0      -0.0000000050    -0.0000000050     0.0000000000
atom      7.6497625355    19.1244060710    19.0862340968   Al  0.0 0.0       0.0000000050    -0.0000000000     0.0000000050
atom     11.4746435355    15.2995250710    19.0862340968   Al  0.0 0.0       0.0000000000     0.0000000050    -0.0000000050
atom     11.4746435355    19.1244060710    15.2689870968   Al  0.0 0.0      -0.0000000000     0.0000000050     0.0000000000
atom     15.2995250710    15.2995250710    15.2689870968   Al  0.0 0.0      -0.0000000050    -0.0000000050     0.0000000000
atom     15.2995250710    19.1244060710    19.0862340968   Al  0.0 0.0       0.0000000050    -0.0000000000     0.0000000050
atom     19.1244060710    15.2995250710    19.0862340968   Al  0.0 0.0       0.0000000000     0.0000000050    -0.0000000050
atom     19.1244060710    19.1244060710    15.2689870968   Al  0.0 0.0      -0.0000000000     0.0000000050     0.0000000000
energy -2133.149321132754
charge 0.0000
end
begin
comment uuid: 0456e85e-0514-494c-92c2-e3b098d72ebc
lattice     22.9034806452     0.0000000000     0.0000000000
lattice      0.0000000000    22.9034806452     0.0000000000
lattice      0.0000000000     0.0000000000    22.9034806452
atom      0.0000000000     0.0000000000     0.0000000000   Al  0.0 0.0      -0.0000000050    -0.0000000050     0.0000000000
atom      0.0000000000     3.8172470000     3.8172470000   Al  0.0 0.0       0.0000000050    -0.0000000050     0.0000000050
atom      3.8172470000     0.0000000000     3.8172470000   Al  0.0 0.0       0.0000000000     0.0000000050    -0.0000000050
atom      3.8172470000     3.8172470000     0.0000000000   Al  0.0 0.0      -0.0000000000     0.0000000000     0.0000000000
atom      7.6344935484     0.0000000000     0.0000000000   Al  0.0 0.0      -0.0000000050    -0.0000000050     0.0000000000
atom      7.6344935484     3.8172470000     3.8172470000   Al  0.0 0.0       0.0000000050    -0.0000000050     0.0000000050
atom     11.4517405484     0.0000000000     3.8172470000   Al  0.0 0.0       0.0000000000     0.0000000050    -0.0000000050
atom     11.4517405484     3.8172470000     0.0000000000   Al  0.0 0.0      -0.0000000000     0.0000000000     0.0000000000
atom     15.2689870968     0.0000000000     0.0000000000   Al  0.0 0.0      -0.0000000050    -0.0000000050     0.0000000000
atom     15.2689870968     3.8172470000     3.8172470000   Al  0.0 0.0       0.0000000050    -0.0000000050     0.0000000050
atom     19.0862340968     0.0000000000     3.8172470000   Al  0.0 0.0       0.0000000000     0.0000000050    -0.0000000050
atom     19.0862340968     3.8172470000     0.0000000000   Al  0.0 0.0      -0.0000000000     0.0000000000     0.0000000000
atom      0.0000000000     7.6344935484     0.0000000000   Al  0.0 0.0      -0.0000000050    -0.0000000050     0.0000000000
atom      0.0000000000    11.4517405484     3.8172470000   Al  0.0 0.0       0.0000000050    -0.0000000050     0.0000000050
atom      3.8172470000     7.6344935484     3.8172470000   Al  0.0 0.0       0.0000000000     0.0000000050    -0.0000000050
atom      3.8172470000    11.4517405484     0.0000000000   Al  0.0 0.0      -0.0000000000     0.0000000000     0.0000000000
atom      7.6344935484     7.6344935484     0.0000000000   Al  0.0 0.0      -0.0000000050    -0.0000000050     0.0000000000
atom      7.6344935484    11.4517405484     3.8172470000   Al  0.0 0.0       0.0000000050    -0.0000000050     0.0000000050
atom     11.4517405484     7.6344935484     3.8172470000   Al  0.0 0.0       0.0000000000     0.0000000050    -0.0000000050
atom     11.4517405484    11.4517405484     0.0000000000   Al  0.0 0.0      -0.0000000000     0.0000000000     0.0000000000
atom     15.2689870968     7.6344935484     0.0000000000   Al  0.0 0.0      -0.0000000050    -0.0000000050     0.0000000000
atom     15.2689870968    11.4517405484     3.8172470000   Al  0.0 0.0       0.0000000050    -0.0000000050     0.0000000050
atom     19.0862340968     7.6344935484     3.8172470000   Al  0.0 0.0       0.0000000000     0.0000000050    -0.0000000050
atom     19.0862340968    11.4517405484     0.0000000000   Al  0.0 0.0      -0.0000000000     0.0000000000     0.0000000000
atom      0.0000000000    15.2689870968     0.0000000000   Al  0.0 0.0      -0.0000000050    -0.0000000050     0.0000000000
atom      0.0000000000    19.0862340968     3.8172470000   Al  0.0 0.0       0.0000000050    -0.0000000050     0.0000000050
atom      3.8172470000    15.2689870968     3.8172470000   Al  0.0 0.0       0.0000000000     0.0000000050    -0.0000000050
atom      3.8172470000    19.0862340968     0.0000000000   Al  0.0 0.0      -0.0000000000     0.0000000000     0.0000000000
atom      7.6344935484    15.2689870968     0.0000000000   Al  0.0 0.0      -0.0000000050    -0.0000000050     0.0000000000
atom      7.6344935484    19.0862340968     3.8172470000   Al  0.0 0.0       0.0000000050    -0.0000000050     0.0000000050
atom     11.4517405484    15.2689870968     3.8172470000   Al  0.0 0.0       0.0000000000     0.0000000050    -0.0000000050
atom     11.4517405484    19.0862340968     0.0000000000   Al  0.0 0.0      -0.0000000000     0.0000000000     0.0000000000
atom     15.2689870968    15.2689870968     0.0000000000   Al  0.0 0.0      -0.0000000050    -0.0000000050     0.0000000000
atom     15.2689870968    19.0862340968     3.8172470000   Al  0.0 0.0       0.0000000050    -0.0000000050     0.0000000050
atom     19.0862340968    15.2689870968     3.8172470000   Al  0.0 0.0       0.0000000000     0.0000000050    -0.0000000050
atom     19.0862340968    19.0862340968     0.0000000000   Al  0.0 0.0      -0.0000000000     0.0000000000     0.0000000000
atom      0.0000000000     0.0000000000     7.6344935484   Al  0.0 0.0      -0.0000000050    -0.0000000050     0.0000000000
atom      0.0000000000     3.8172470000    11.4517405484   Al  0.0 0.0       0.0000000050    -0.0000000050     0.0000000050
atom      3.8172470000     0.0000000000    11.4517405484   Al  0.0 0.0       0.0000000000     0.0000000050    -0.0000000050
atom      3.8172470000     3.8172470000     7.6344935484   Al  0.0 0.0      -0.0000000000     0.0000000000     0.0000000000
atom      7.6344935484     0.0000000000     7.6344935484   Al  0.0 0.0      -0.0000000050    -0.0000000050     0.0000000000
atom      7.6344935484     3.8172470000    11.4517405484   Al  0.0 0.0       0.0000000050    -0.0000000050     0.0000000050
atom     11.4517405484     0.0000000000    11.4517405484   Al  0.0 0.0       0.0000000000     0.0000000050    -0.0000000050
atom     11.4517405484     3.8172470000     7.6344935484   Al  0.0 0.0      -0.0000000000     0.0000000000     0.0000000000
atom     15.2689870968     0.0000000000     7.6344935484   Al  0.0 0.0      -0.0000000050    -0.0000000050     0.0000000000
atom     15.2689870968     3.8172470000    11.4517405484   Al  0.0 0.0       0.0000000050    -0.0000000050     0.0000000050
atom     19.0862340968     0.0000000000    11.4517405484   Al  0.0 0.0       0.0000000000     0.0000000050    -0.0000000050
atom     19.0862340968     3.8172470000     7.6344935484   Al  0.0 0.0      -0.0000000000     0.0000000000     0.0000000000
atom      0.0000000000     7.6344935484     7.6344935484   Al  0.0 0.0      -0.0000000050    -0.0000000050     0.0000000000
atom      0.0000000000    11.4517405484    11.4517405484   Al  0.0 0.0       0.0000000050    -0.0000000050     0.0000000050
atom      3.8172470000     7.6344935484    11.4517405484   Al  0.0 0.0       0.0000000000     0.0000000050    -0.0000000050
atom      3.8172470000    11.4517405484     7.6344935484   Al  0.0 0.0      -0.0000000000     0.0000000000     0.0000000000
atom      7.6344935484     7.6344935484     7.6344935484   Al  0.0 0.0      -0.0000000050    -0.0000000050     0.0000000000
atom      7.6344935484    11.4517405484    11.4517405484   Al  0.0 0.0       0.0000000050    -0.0000000050     0.0000000050
atom     11.4517405484     7.6344935484    11.4517405484   Al  0.0 0.0       0.0000000000     0.0000000050    -0.0000000050
atom     11.4517405484    11.4517405484     7.6344935484   Al  0.0 0.0      -0.0000000000     0.0000000000     0.0000000000
atom     15.2689870968     7.6344935484     7.6344935484   Al  0.0 0.0      -0.0000000050    -0.0000000050     0.0000000000
atom     15.2689870968    11.4517405484    11.4517405484   Al  0.0 0.0       0.0000000050    -0.0000000050     0.0000000050
atom     19.0862340968     7.6344935484    11.4517405484   Al  0.0 0.0       0.0000000000     0.0000000050    -0.0000000050
atom     19.0862340968    11.4517405484     7.6344935484   Al  0.0 0.0      -0.0000000000     0.0000000000     0.0000000000
atom      0.0000000000    15.2689870968     7.6344935484   Al  0.0 0.0      -0.0000000050    -0.0000000050     0.0000000000
atom      0.0000000000    19.0862340968    11.4517405484   Al  0.0 0.0       0.0000000050    -0.0000000050     0.0000000050
atom      3.8172470000    15.2689870968    11.4517405484   Al  0.0 0.0       0.0000000000     0.0000000050    -0.0000000050
atom      3.8172470000    19.0862340968     7.6344935484   Al  0.0 0.0      -0.0000000000     0.0000000000     0.0000000000
atom      7.6344935484    15.2689870968     7.6344935484   Al  0.0 0.0      -0.0000000050    -0.0000000050     0.0000000000
atom      7.6344935484    19.0862340968    11.4517405484   Al  0.0 0.0       0.0000000050    -0.0000000050     0.0000000050
atom     11.4517405484    15.2689870968    11.4517405484   Al  0.0 0.0       0.0000000000     0.0000000050    -0.0000000050
atom     11.4517405484    19.0862340968     7.6344935484   Al  0.0 0.0      -0.0000000000     0.0000000000     0.0000000000
atom     15.2689870968    15.2689870968     7.6344935484   Al  0.0 0.0      -0.0000000050    -0.0000000050     0.0000000000
atom     15.2689870968    19.0862340968    11.4517405484   Al  0.0 0.0       0.0000000050    -0.0000000050     0.0000000050
atom     19.0862340968    15.2689870968    11.4517405484   Al  0.0 0.0       0.0000000000     0.0000000050    -0.0000000050
atom     19.0862340968    19.0862340968     7.6344935484   Al  0.0 0.0      -0.0000000000     0.0000000000     0.0000000000
atom      0.0000000000     0.0000000000    15.2689870968   Al  0.0 0.0      -0.0000000050    -0.0000000050     0.0000000000
atom      0.0000000000     3.8172470000    19.0862340968   Al  0.0 0.0       0.0000000050    -0.0000000050     0.0000000050
atom      3.8172470000     0.0000000000    19.0862340968   Al  0.0 0.0       0.0000000000     0.0000000050    -0.0000000050
atom      3.8172470000     3.8172470000    15.2689870968   Al  0.0 0.0      -0.0000000000     0.0000000000     0.0000000000
atom      7.6344935484     0.0000000000    15.2689870968   Al  0.0 0.0      -0.0000000050    -0.0000000050     0.0000000000
atom      7.6344935484     3.8172470000    19.0862340968   Al  0.0 0.0       0.0000000050    -0.0000000050     0.0000000050
atom     11.4517405484     0.0000000000    19.0862340968   Al  0.0 0.0       0.0000000000     0.0000000050    -0.0000000050
atom     11.4517405484     3.8172470000    15.2689870968   Al  0.0 0.0      -0.0000000000     0.0000000000     0.0000000000
atom     15.2689870968     0.0000000000    15.2689870968   Al  0.0 0.0      -0.0000000050    -0.0000000050     0.0000000000
atom     15.2689870968     3.8172470000    19.0862340968   Al  0.0 0.0       0.0000000050    -0.0000000050     0.0000000050
atom     19.0862340968     0.0000000000    19.0862340968   Al  0.0 0.0       0.0000000000     0.0000000050    -0.0000000050
atom     19.0862340968     3.8172470000    15.2689870968   Al  0.0 0.0      -0.0000000000     0.0000000000     0.0000000000
atom      0.0000000000     7.6344935484    15.2689870968   Al  0.0 0.0      -0.0000000050    -0.0000000050     0.0000000000
atom      0.0000000000    11.4517405484    19.0862340968   Al  0.0 0.0       0.0000000050    -0.0000000050     0.0000000050
atom      3.8172470000     7.6344935484    19.0862340968   Al  0.0 0.0       0.0000000000     0.0000000050    -0.0000000050
atom      3.8172470000    11.4517405484    15.2689870968   Al  0.0 0.0      -0.0000000000     0.0000000000     0.0000000000
atom      7.6344935484     7.6344935484    15.2689870968   Al  0.0 0.0      -0.0000000050    -0.0000000050     0.0000000000
atom      7.6344935484    11.4517405484    19.0862340968   Al  0.0 0.0       0.0000000050    -0.0000000050     0.0000000050
atom     11.4517405484     7.6344935484    19.0862340968   Al  0.0 0.0       0.0000000000     0.0000000050    -0.0000000050
atom     11.4517405484    11.4517405484    15.2689870968   Al  0.0 0.0      -0.0000000000     0.0000000000     0.0000000000
atom     15.2689870968     7.6344935484    15.2689870968   Al  0.0 0.0      -0.0000000050    -0.0000000050     0.0000000000
atom     15.2689870968    11.4517405484    19.0862340968   Al  0.0 0.0       0.0000000050    -0.0000000050     0.0000000050
atom     19.0862340968     7.6344935484    19.0862340968   Al  0.0 0.0       0.0000000000     0.0000000050    -0.0000000050
atom     19.0862340968    11.4517405484    15.2689870968   Al  0.0 0.0      -0.0000000000     0.0000000000     0.0000000000
atom      0.0000000000    15.2689870968    15.2689870968   Al  0.0 0.0      -0.0000000050    -0.0000000050     0.0000000000
atom      0.0000000000    19.0862340968    19.0862340968   Al  0.0 0.0       0.0000000050    -0.0000000050     0.0000000050
atom      3.8172470000    15.2689870968    19.0862340968   Al  0.0 0.0       0.0000000000     0.0000000050    -0.0000000050
atom      3.8172470000    19.0862340968    15.2689870968   Al  0.0 0.0      -0.0000000000     0.0000000000     0.0000000000
atom      7.6344935484    15.2689870968    15.2689870968   Al  0.0 0.0      -0.0000000050    -0.0000000050     0.0000000000
atom      7.6344935484    19.0862340968    19.0862340968   Al  0.0 0.0       0.0000000050    -0.0000000050     0.0000000050
atom     11.4517405484    15.2689870968    19.0862340968   Al  0.0 0.0       0.0000000000     0.0000000050    -0.0000000050
atom     11.4517405484    19.0862340968    15.2689870968   Al  0.0 0.0      -0.0000000000     0.0000000000     0.0000000000
atom     15.2689870968    15.2689870968    15.2689870968   Al  0.0 0.0      -0.0000000050    -0.0000000050     0.0000000000
atom     15.2689870968    19.0862340968    19.0862340968   Al  0.0 0.0       0.0000000050    -0.0000000050     0.0000000050
atom     19.0862340968    15.2689870968    19.0862340968   Al  0.0 0.0       0.0000000000     0.0000000050    -0.0000000050
atom     19.0862340968    19.0862340968    15.2689870968   Al  0.0 0.0      -0.0000000000     0.0000000000     0.0000000000
energy -2133.1496648427214
charge 0.0000
end
begin
comment uuid: 8bc7d222-9c04-4ecc-b2aa-d470d50a8a19
lattice     22.9034806452     0.0000000000     0.0000000000
lattice      0.0000000000    22.9034806452     0.0229034805
lattice      0.0000000000     0.0229034805    22.9034806452
atom      0.0000000000     0.0000000000     0.0000000000   Al  0.0 0.0      -0.0000000050    -0.0000000050     0.0000000000
atom      0.0000000000     3.8210640000     3.8210640000   Al  0.0 0.0       0.0000000050    -0.0000000050     0.0000000050
atom      3.8172470000     0.0038170000     3.8172470000   Al  0.0 0.0       0.0000000000     0.0000000050    -0.0000000050
atom      3.8172470000     3.8172470000     0.0038170000   Al  0.0 0.0      -0.0000000000     0.0000000000     0.0000000000
atom      7.6344935484     0.0000000000     0.0000000000   Al  0.0 0.0      -0.0000000050    -0.0000000050     0.0000000000
atom      7.6344935484     3.8210640000     3.8210640000   Al  0.0 0.0       0.0000000050    -0.0000000050     0.0000000050
atom     11.4517405484     0.0038170000     3.8172470000   Al  0.0 0.0       0.0000000000     0.0000000050    -0.0000000050
atom     11.4517405484     3.8172470000     0.0038170000   Al  0.0 0.0      -0.0000000000     0.0000000000     0.0000000000
atom     15.2689870968     0.0000000000     0.0000000000   Al  0.0 0.0      -0.0000000050    -0.0000000050     0.0000000000
atom     15.2689870968     3.8210640000     3.8210640000   Al  0.0 0.0       0.0000000050    -0.0000000050     0.0000000050
atom     19.0862340968     0.0038170000     3.8172470000   Al  0.0 0.0       0.0000000000     0.0000000050    -0.0000000050
atom     19.0862340968     3.8172470000     0.0038170000   Al  0.0 0.0      -0.0000000000     0.0000000000     0.0000000000
atom      0.0000000000     7.6344935484     0.0076344935   Al  0.0 0.0      -0.0000000050    -0.0000000050     0.0000000000
atom      0.0000000000    11.4555575484     3.8286984935   Al  0.0 0.0       0.0000000050    -0.0000000050     0.0000000050
atom      3.8172470000     7.6383105484     3.8248814935   Al  0.0 0.0       0.0000000000     0.0000000050    -0.0000000050
atom      3.8172470000    11.4517405484     0.0114514935   Al  0.0 0.0      -0.0000000000     0.0000000000     0.0000000000
atom      7.6344935484     7.6344935484     0.0076344935   Al  0.0 0.0      -0.0000000050    -0.0000000050     0.0000000000
atom      7.6344935484    11.4555575484     3.8286984935   Al  0.0 0.0       0.0000000050    -0.0000000050     0.0000000050
atom     11.4517405484     7.6383105484     3.8248814935   Al  0.0 0.0       0.0000000000     0.0000000050    -0.0000000050