begin
comment uuid: 4503bf0b-c193-4d38-8c57-f7599c85c417 
lattice 7.6497625355 0.0000000000 0.0000000000
lattice 0.0000000000 7.6497625355 0.0000000000
lattice 0.0000000000 0.0000000000 7.6344935484
atom   0.000000    0.000000   0.000000 Al  0.0   0.0  -0.0000000050  -0.0000000050  0.0000000000
atom   0.000000    3.824881   3.817247 Al  0.0   0.0  0.0000000050  -0.0000000000  0.0000000050
atom   3.824881    0.000000   3.817247 Al  0.0   0.0  0.0000000000  0.0000000050  -0.0000000050
atom   3.824881    3.824881   0.000000 Al  0.0   0.0  -0.0000000000  0.0000000050  0.0000000000
energy -79.005530412324219
charge 0.000000000000000
end
begin
comment uuid: 0456e85e-0514-494c-92c2-e3b098d72ebc 
lattice 7.6344935484 0.0000000000 0.0000000000
lattice 0.0000000000 7.6344935484 0.0000000000
lattice 0.0000000000 0.0000000000 7.6344935484
atom   0.000000    0.000000   0.000000 Al  0.0   0.0  -0.0000000050  -0.0000000050  0.0000000000
atom   0.000000    3.817247   3.817247 Al  0.0   0.0  0.0000000050  -0.0000000050  0.0000000050
atom   3.817247    0.000000   3.817247 Al  0.0   0.0  0.0000000000  0.0000000050  -0.0000000050
atom   3.817247    3.817247   0.000000 Al  0.0   0.0  -0.0000000000  0.0000000000  0.0000000000
energy -79.005543142323020
charge 0.000000000000000
end
begin
comment uuid: 8bc7d222-9c04-4ecc-b2aa-d470d50a8a19 
lattice 7.6344935484 0.0000000000 0.0000000000
lattice 0.0000000000 7.6344935484 0.0076344935
lattice 0.0000000000 0.0076344935 7.6344935484
atom   0.000000    0.000000   0.000000 Al  0.0   0.0  -0.0000000050  -0.0000000050  0.0000000000
atom   0.000000    3.821064   3.821064 Al  0.0   0.0  0.0000000050  -0.0000000050  0.0000000050
atom   3.817247    0.003817   3.817247 Al  0.0   0.0  0.0000000000  0.0000000050  -0.0000000050
atom   3.817247    3.817247   0.003817 Al  0.0   0.0  -0.0000000000  0.0000000000  0.0000000000
energy -79.005542112323113
charge 0.000000000000000
end
begin
comment uuid: b661abc4-a54c-4079-9800-3f19dccb7713 
lattice 7.6497625355 0.0000000000 0.0000000000
lattice 0.0000000000 7.6344935484 0.0000000000
lattice 0.0000000000 0.0000000000 7.6344935484
atom   0.000000    0.000000   0.000000 Al  0.0   0.0  -0.0000000050  -0.0000000050  0.0000000000
atom   0.000000    3.817247   3.817247 Al  0.0   0.0  0.0000000050  -0.0000000050  0.0000000050
atom   3.824881    0.000000   3.817247 Al  0.0   0.0  0.0000000000  0.0000000050  -0.0000000050
atom   3.824881    3.817247   0.000000 Al  0.0   0.0  -0.0000000000  0.0000000000  0.0000000000
energy -79.005538602323455
charge 0.000000000000000
end
