
     Program PWSCF v.6.3 starts on 22Feb2020 at 14:12:36 

     This program is part of the open-source Quantum ESPRESSO suite
     for quantum simulation of materials; please cite
         "P. Giannozzi et al., J. Phys.:Condens. Matter 21 395502 (2009);
         "P. Giannozzi et al., J. Phys.:Condens. Matter 29 465901 (2017);
          URL http://www.quantum-espresso.org", 
     in publications or presentations arising from this work. More details at
     http://www.quantum-espresso.org/quote

 *** WARNING: using old-style file format, will disappear from next version ***

     Parallel version (MPI & OpenMP), running on      36 processor cores
     Number of MPI processes:                36
     Threads/MPI process:                     1

     MPI processes distributed on     1 nodes
     K-points division:     npool     =       4
     R & G space division:  proc/nbgrp/npool/nimage =       9
     Reading input from aiida.in
Warning: card &IONS ignored
Warning: card   !PRESS_CONV_THR = 0.05                 ! JUST FOR VOLUME RELAXATIONS ignored
Warning: card / ignored

     Current dimensions of program PWSCF are:
     Max number of different atomic species (ntypx) = 10
     Max number of k-points (npk) =  40000
     Max angular momentum in pseudopotentials (lmaxx) =  3
               file Al.pbe-n-kjpaw_psl.1.0.0.UPF: wavefunction(s)  3S 3P renormalized
               file Mg.pbe-n-kjpaw_psl.0.3.0.UPF: wavefunction(s)  3S renormalized

     Subspace diagonalization in iterative solution of the eigenvalue problem:
     one sub-group per band group will be used
     scalapack distributed-memory algorithm (size of sub-group:  2*  2 procs)

 
     Parallelization info
     --------------------
     sticks:   dense  smooth     PW     G-vecs:    dense   smooth      PW
     Min        1041     416    119               169149    42808    6499
     Max        1041     418    119               169153    42811    6503
     Sum        9369    3753   1071              1522361   385283   58505
 


     bravais-lattice index     =            0
     lattice parameter (alat)  =      38.3331  a.u.
     unit-cell volume          =   11265.5275 (a.u.)^3
     number of atoms/cell      =          100
     number of atomic types    =            3
     number of electrons       =       299.00
     number of Kohn-Sham states=          180
     kinetic-energy cutoff     =      40.0000  Ry
     charge density cutoff     =     400.0000  Ry
     convergence threshold     =      1.0E-12
     mixing beta               =       0.4000
     number of iterations used =            8  local-TF  mixing
     Exchange-correlation      = PBE ( 1  4  3  4 0 0)

     celldm(1)=  38.333092  celldm(2)=   0.000000  celldm(3)=   0.000000
     celldm(4)=   0.000000  celldm(5)=   0.000000  celldm(6)=   0.000000

     crystal axes: (cart. coord. in units of alat)
               a(1) = (   1.000000   0.000000   0.000000 )  
               a(2) = (   0.000000   0.200000   0.000000 )  
               a(3) = (   0.000000   0.000000   1.000000 )  

     reciprocal axes: (cart. coord. in units 2 pi/alat)
               b(1) = (  1.000000  0.000000  0.000000 )  
               b(2) = (  0.000000  5.000000  0.000000 )  
               b(3) = (  0.000000  0.000000  1.000000 )  


     PseudoPot. # 1 for Al read from file:
     /users/aglensk/Dropbox/Albert/scripts/dotfiles/scripts/potentials/quantum_espresso/pseudo_SSSPefV1.1_alalloy/Al.pbe-n-kjpaw_psl.1.0.0.UPF
     MD5 check sum: cfc449ca30b5f3223ec38ddd88ac046d
     Pseudo is Projector augmented-wave + core cor, Zval =  3.0
     Generated using "atomic" code by A. Dal Corso v.5.1
     Shape of augmentation charge: PSQ
     Using radial grid of 1135 points,  6 beta functions with: 
                l(1) =   0
                l(2) =   0
                l(3) =   1
                l(4) =   1
                l(5) =   2
                l(6) =   2
     Q(r) pseudized with 0 coefficients 


     PseudoPot. # 2 for Mg read from file:
     /users/aglensk/Dropbox/Albert/scripts/dotfiles/scripts/potentials/quantum_espresso/pseudo_SSSPefV1.1_alalloy/Mg.pbe-n-kjpaw_psl.0.3.0.UPF
     MD5 check sum: 24ecedc7f3e3cbe212e682f4413594e4
     Pseudo is Projector augmented-wave + core cor, Zval =  2.0
     Generated using "atomic" code by A. Dal Corso v.5.0.99 svn rev. 10869
     Shape of augmentation charge: PSQ
     Using radial grid of 1129 points,  4 beta functions with: 
                l(1) =   0
                l(2) =   0
                l(3) =   1
                l(4) =   1
     Q(r) pseudized with 0 coefficients 


     PseudoPot. # 3 for Si read from file:
     /users/aglensk/Dropbox/Albert/scripts/dotfiles/scripts/potentials/quantum_espresso/pseudo_SSSPefV1.1_alalloy/Si.pbe-n-rrkjus_psl.1.0.0.UPF
     MD5 check sum: 0b0bb1205258b0d07b9f9672cf965d36
     Pseudo is Ultrasoft + core correction, Zval =  4.0
     Generated using "atomic" code by A. Dal Corso v.5.1
     Using radial grid of 1141 points,  6 beta functions with: 
                l(1) =   0
                l(2) =   0
                l(3) =   1
                l(4) =   1
                l(5) =   2
                l(6) =   2
     Q(r) pseudized with 0 coefficients 


     atomic species   valence    mass     pseudopotential
        Al             3.00    26.98154     Al( 1.00)
        Mg             2.00    24.30500     Mg( 1.00)
        Si             4.00    28.08500     Si( 1.00)

     No symmetry found


                                    s                        frac. trans.

      isym =  1     identity                                     

 cryst.   s( 1) = (     1          0          0      )
                  (     0          1          0      )
                  (     0          0          1      )

 cart.    s( 1) = (  1.0000000  0.0000000  0.0000000 )
                  (  0.0000000  1.0000000  0.0000000 )
                  (  0.0000000  0.0000000  1.0000000 )


   Cartesian axes

     site n.     atom                  positions (alat units)
         1           Al  tau(   1) = (   0.0979548   0.0997924   0.9977424  )
         2           Al  tau(   2) = (   0.9985976   0.1997901   0.9977118  )
         3           Al  tau(   3) = (   0.0977694   0.1997965   0.0970777  )
         4           Al  tau(   4) = (   0.9986134   0.0997938   0.0971747  )
         5           Al  tau(   5) = (   0.0975528   0.0998015   0.1966597  )
         6           Al  tau(   6) = (   0.9986683   0.1997976   0.1967006  )
         7           Al  tau(   7) = (   0.0967518   0.1998100   0.2967305  )
         8           Al  tau(   8) = (   0.9987190   0.0998053   0.2971680  )
         9           Al  tau(   9) = (   0.0959090   0.0998176   0.3981726  )
        10           Al  tau(  10) = (   0.9987329   0.1998117   0.3980805  )
        11           Al  tau(  11) = (   0.0967579   0.1998099   0.4996146  )
        12           Al  tau(  12) = (   0.9986932   0.0998057   0.4990145  )
        13           Al  tau(  13) = (   0.0975634   0.0998013   0.5996549  )
        14           Al  tau(  14) = (   0.9986333   0.1997979   0.5995120  )
        15           Al  tau(  15) = (   0.0977652   0.1997964   0.6991433  )
        16           Al  tau(  16) = (   0.9986032   0.0997938   0.6990090  )
        17           Al  tau(  17) = (   0.0979684   0.0997924   0.7983985  )
        18           Al  tau(  18) = (   0.9985895   0.1997901   0.7984588  )
        19           Al  tau(  19) = (   0.0979107   0.1997895   0.8980709  )
        20           Al  tau(  20) = (   0.9985949   0.0997900   0.8980823  )
        21           Al  tau(  21) = (   0.2964433   0.0998078   0.9970445  )
        22           Al  tau(  22) = (   0.1970132   0.1997984   0.9974430  )
        23           Al  tau(  23) = (   0.2961396   0.1998161   0.0960576  )
        24           Al  tau(  24) = (   0.1972661   0.0998048   0.0971323  )
        25           Al  tau(  25) = (   0.2984696   0.0998353   0.1980163  )
        26           Al  tau(  26) = (   0.1965136   0.1998135   0.1960545  )
        27           Al  tau(  27) = (   0.2939005   0.1998405   0.2939027  )
        28           Al  tau(  28) = (   0.1959121   0.0998250   0.2965949  )
        29           Al  tau(  29) = (   0.2860504   0.0998529   0.3981913  )
        30           Al  tau(  30) = (   0.1913662   0.1998339   0.3982013  )
        31           Al  tau(  31) = (   0.2939731   0.1998405   0.5025035  )
        32           Al  tau(  32) = (   0.1959577   0.0998246   0.4998220  )
        33           Al  tau(  33) = (   0.2986165   0.0998358   0.5983413  )
        34           Al  tau(  34) = (   0.1965824   0.1998133   0.6003121  )
        35           Al  tau(  35) = (   0.2962597   0.1998162   0.7002375  )
        36           Al  tau(  36) = (   0.1973392   0.0998043   0.6990960  )
        37           Al  tau(  37) = (   0.2965349   0.0998076   0.7991346  )
        38           Al  tau(  38) = (   0.1970443   0.1997982   0.7987151  )
        39           Al  tau(  39) = (   0.2965082   0.1998050   0.8980889  )
        40           Al  tau(  40) = (   0.1970890   0.0997945   0.8980716  )
        41           Al  tau(  41) = (   0.4982499   0.0998250   0.9950454  )
        42           Al  tau(  42) = (   0.3966188   0.1998183   0.9960388  )
        43           Al  tau(  43) = (   0.4983336   0.1998353   0.0905691  )
        44           Al  tau(  44) = (   0.3967808   0.0998295   0.0951907  )
        45           Al  tau(  45) = (   0.3943218   0.1998406   0.1933072  )
        46           Al  tau(  46) = (   0.3945192   0.1998409   0.6031267  )
        47           Al  tau(  47) = (   0.4985471   0.1998358   0.7056932  )
        48           Al  tau(  48) = (   0.3970374   0.0998299   0.7011006  )
        49           Al  tau(  49) = (   0.4983738   0.0998253   0.8012224  )
        50           Al  tau(  50) = (   0.3967059   0.1998183   0.8002042  )
        51           Al  tau(  51) = (   0.4982436   0.1998217   0.8981401  )
        52           Al  tau(  52) = (   0.3970869   0.0998154   0.8981130  )
        53           Al  tau(  53) = (   0.7001532   0.0998070   0.9969292  )
        54           Al  tau(  54) = (   0.5999184   0.1998184   0.9959514  )
        55           Al  tau(  55) = (   0.7007654   0.1998158   0.0957421  )
        56           Al  tau(  56) = (   0.5999616   0.0998295   0.0949808  )
        57           Al  tau(  57) = (   0.6987543   0.0998359   0.1976832  )
        58           Al  tau(  58) = (   0.6029668   0.1998405   0.1930283  )
        59           Al  tau(  59) = (   0.7035986   0.1998403   0.2935265  )
        60           Al  tau(  60) = (   0.7116529   0.0998539   0.3980583  )
        61           Al  tau(  61) = (   0.7036030   0.1998410   0.5025291  )
        62           Al  tau(  62) = (   0.6988949   0.0998363   0.5985139  )
        63           Al  tau(  63) = (   0.6030994   0.1998416   0.6031423  )
        64           Al  tau(  64) = (   0.7008351   0.1998166   0.7004163  )
        65           Al  tau(  65) = (   0.6001957   0.0998300   0.7012612  )
        66           Al  tau(  66) = (   0.7002432   0.0998073   0.7993577  )
        67           Al  tau(  67) = (   0.6000043   0.1998187   0.8003253  )
        68           Al  tau(  68) = (   0.7001020   0.1998045   0.8981484  )
        69           Al  tau(  69) = (   0.5994340   0.0998152   0.8981564  )
        70           Al  tau(  70) = (   0.8991489   0.0997925   0.9976653  )
        71           Al  tau(  71) = (   0.7998871   0.1997981   0.9972975  )
        72           Al  tau(  72) = (   0.8994395   0.1997972   0.0968833  )
        73           Al  tau(  73) = (   0.7997402   0.0998048   0.0968474  )
        74           Al  tau(  74) = (   0.8997139   0.0998018   0.1964241  )
        75           Al  tau(  75) = (   0.8007692   0.1998134   0.1956201  )
        76           Al  tau(  76) = (   0.9006721   0.1998104   0.2964487  )
        77           Al  tau(  77) = (   0.8015263   0.0998259   0.2962536  )
        78           Al  tau(  78) = (   0.9016025   0.0998193   0.3979668  )
        79           Al  tau(  79) = (   0.8062335   0.1998350   0.3979581  )
        80           Al  tau(  80) = (   0.9006622   0.1998112   0.4995274  )
        81           Al  tau(  81) = (   0.8015740   0.0998262   0.4997959  )
        82           Al  tau(  82) = (   0.8997362   0.0998027   0.5997202  )
        83           Al  tau(  83) = (   0.8007951   0.1998142   0.6004730  )
        84           Al  tau(  84) = (   0.8994326   0.1997979   0.6992803  )
        85           Al  tau(  85) = (   0.7998147   0.0998055   0.6993520  )
        86           Al  tau(  86) = (   0.8991595   0.0997926   0.7985225  )
        87           Al  tau(  87) = (   0.7999020   0.1997984   0.7989063  )
        88           Al  tau(  88) = (   0.8991602   0.1997894   0.8981100  )
        89           Al  tau(  89) = (   0.7997303   0.0997944   0.8981335  )
        90           Mg  tau(  90) = (   0.4092737   0.0998655   0.3085203  )
        91           Mg  tau(  91) = (   0.5884101   0.0998655   0.3082953  )
        92           Al  tau(  92) = (   0.4985243   0.0998506   0.1853042  )
        93           Si  tau(  93) = (   0.4987293   0.1998647   0.2665833  )
        94           Si  tau(  94) = (   0.3672369   0.1998650   0.3981986  )
        95           Mg  tau(  95) = (   0.4989819   0.1998856   0.3981199  )
        96           Mg  tau(  96) = (   0.4093606   0.0998659   0.4878420  )
        97           Mg  tau(  97) = (   0.5885281   0.0998660   0.4878226  )
        98           Si  tau(  98) = (   0.6305165   0.1998659   0.3980297  )
        99           Si  tau(  99) = (   0.4988282   0.1998652   0.5296595  )
       100           Al  tau( 100) = (   0.4987949   0.0998516   0.6109534  )

   Crystallographic axes

     site n.     atom                  positions (cryst. coord.)
         1           Al  tau(   1) = (  0.0979548  0.4989621  0.9977424  )
         2           Al  tau(   2) = (  0.9985976  0.9989504  0.9977118  )
         3           Al  tau(   3) = (  0.0977694  0.9989826  0.0970777  )
         4           Al  tau(   4) = (  0.9986134  0.4989692  0.0971747  )
         5           Al  tau(   5) = (  0.0975528  0.4990075  0.1966597  )
         6           Al  tau(   6) = (  0.9986683  0.9989880  0.1967006  )
         7           Al  tau(   7) = (  0.0967518  0.9990502  0.2967305  )
         8           Al  tau(   8) = (  0.9987190  0.4990263  0.2971680  )
         9           Al  tau(   9) = (  0.0959090  0.4990879  0.3981726  )
        10           Al  tau(  10) = (  0.9987329  0.9990586  0.3980805  )
        11           Al  tau(  11) = (  0.0967579  0.9990494  0.4996146  )
        12           Al  tau(  12) = (  0.9986932  0.4990285  0.4990145  )
        13           Al  tau(  13) = (  0.0975634  0.4990066  0.5996549  )
        14           Al  tau(  14) = (  0.9986333  0.9989895  0.5995120  )
        15           Al  tau(  15) = (  0.0977652  0.9989822  0.6991433  )
        16           Al  tau(  16) = (  0.9986032  0.4989692  0.6990090  )
        17           Al  tau(  17) = (  0.0979684  0.4989621  0.7983985  )
        18           Al  tau(  18) = (  0.9985895  0.9989504  0.7984588  )
        19           Al  tau(  19) = (  0.0979107  0.9989478  0.8980709  )
        20           Al  tau(  20) = (  0.9985949  0.4989503  0.8980823  )
        21           Al  tau(  21) = (  0.2964433  0.4990391  0.9970445  )
        22           Al  tau(  22) = (  0.1970132  0.9989920  0.9974430  )
        23           Al  tau(  23) = (  0.2961396  0.9990804  0.0960576  )
        24           Al  tau(  24) = (  0.1972661  0.4990242  0.0971323  )
        25           Al  tau(  25) = (  0.2984696  0.4991767  0.1980163  )
        26           Al  tau(  26) = (  0.1965136  0.9990675  0.1960545  )
        27           Al  tau(  27) = (  0.2939005  0.9992026  0.2939027  )
        28           Al  tau(  28) = (  0.1959121  0.4991250  0.2965949  )
        29           Al  tau(  29) = (  0.2860504  0.4992645  0.3981913  )
        30           Al  tau(  30) = (  0.1913662  0.9991694  0.3982013  )
        31           Al  tau(  31) = (  0.2939731  0.9992025  0.5025035  )
        32           Al  tau(  32) = (  0.1959577  0.4991231  0.4998220  )
        33           Al  tau(  33) = (  0.2986165  0.4991788  0.5983413  )
        34           Al  tau(  34) = (  0.1965824  0.9990666  0.6003121  )
        35           Al  tau(  35) = (  0.2962597  0.9990812  0.7002375  )
        36           Al  tau(  36) = (  0.1973392  0.4990215  0.6990960  )
        37           Al  tau(  37) = (  0.2965349  0.4990382  0.7991346  )
        38           Al  tau(  38) = (  0.1970443  0.9989911  0.7987151  )
        39           Al  tau(  39) = (  0.2965082  0.9990250  0.8980889  )
        40           Al  tau(  40) = (  0.1970890  0.4989726  0.8980716  )
        41           Al  tau(  41) = (  0.4982499  0.4991252  0.9950454  )
        42           Al  tau(  42) = (  0.3966188  0.9990915  0.9960388  )
        43           Al  tau(  43) = (  0.4983336  0.9991767  0.0905691  )
        44           Al  tau(  44) = (  0.3967808  0.4991473  0.0951907  )
        45           Al  tau(  45) = (  0.3943218  0.9992033  0.1933072  )
        46           Al  tau(  46) = (  0.3945192  0.9992047  0.6031267  )
        47           Al  tau(  47) = (  0.4985471  0.9991793  0.7056932  )
        48           Al  tau(  48) = (  0.3970374  0.4991493  0.7011006  )
        49           Al  tau(  49) = (  0.4983738  0.4991267  0.8012224  )
        50           Al  tau(  50) = (  0.3967059  0.9990915  0.8002042  )
        51           Al  tau(  51) = (  0.4982436  0.9991087  0.8981401  )
        52           Al  tau(  52) = (  0.3970869  0.4990768  0.8981130  )
        53           Al  tau(  53) = (  0.7001532  0.4990350  0.9969292  )
        54           Al  tau(  54) = (  0.5999184  0.9990922  0.9959514  )
        55           Al  tau(  55) = (  0.7007654  0.9990791  0.0957421  )
        56           Al  tau(  56) = (  0.5999616  0.4991477  0.0949808  )
        57           Al  tau(  57) = (  0.6987543  0.4991794  0.1976832  )
        58           Al  tau(  58) = (  0.6029668  0.9992026  0.1930283  )
        59           Al  tau(  59) = (  0.7035986  0.9992013  0.2935265  )
        60           Al  tau(  60) = (  0.7116529  0.4992696  0.3980583  )
        61           Al  tau(  61) = (  0.7036030  0.9992049  0.5025291  )
        62           Al  tau(  62) = (  0.6988949  0.4991815  0.5985139  )
        63           Al  tau(  63) = (  0.6030994  0.9992079  0.6031423  )
        64           Al  tau(  64) = (  0.7008351  0.9990832  0.7004163  )
        65           Al  tau(  65) = (  0.6001957  0.4991501  0.7012612  )
        66           Al  tau(  66) = (  0.7002432  0.4990367  0.7993577  )
        67           Al  tau(  67) = (  0.6000043  0.9990935  0.8003253  )
        68           Al  tau(  68) = (  0.7001020  0.9990228  0.8981484  )
        69           Al  tau(  69) = (  0.5994340  0.4990759  0.8981564  )
        70           Al  tau(  70) = (  0.8991489  0.4989625  0.9976653  )
        71           Al  tau(  71) = (  0.7998871  0.9989907  0.9972975  )
        72           Al  tau(  72) = (  0.8994395  0.9989860  0.0968833  )
        73           Al  tau(  73) = (  0.7997402  0.4990241  0.0968474  )
        74           Al  tau(  74) = (  0.8997139  0.4990090  0.1964241  )
        75           Al  tau(  75) = (  0.8007692  0.9990671  0.1956201  )
        76           Al  tau(  76) = (  0.9006721  0.9990523  0.2964487  )
        77           Al  tau(  77) = (  0.8015263  0.4991296  0.2962536  )
        78           Al  tau(  78) = (  0.9016025  0.4990966  0.3979668  )
        79           Al  tau(  79) = (  0.8062335  0.9991749  0.3979581  )
        80           Al  tau(  80) = (  0.9006622  0.9990559  0.4995274  )
        81           Al  tau(  81) = (  0.8015740  0.4991309  0.4997959  )
        82           Al  tau(  82) = (  0.8997362  0.4990134  0.5997202  )
        83           Al  tau(  83) = (  0.8007951  0.9990709  0.6004730  )
        84           Al  tau(  84) = (  0.8994326  0.9989894  0.6992803  )
        85           Al  tau(  85) = (  0.7998147  0.4990273  0.6993520  )
        86           Al  tau(  86) = (  0.8991595  0.4989632  0.7985225  )
        87           Al  tau(  87) = (  0.7999020  0.9989920  0.7989063  )
        88           Al  tau(  88) = (  0.8991602  0.9989473  0.8981100  )
        89           Al  tau(  89) = (  0.7997303  0.4989718  0.8981335  )
        90           Mg  tau(  90) = (  0.4092737  0.4993275  0.3085203  )
        91           Mg  tau(  91) = (  0.5884101  0.4993276  0.3082953  )
        92           Al  tau(  92) = (  0.4985243  0.4992533  0.1853042  )
        93           Si  tau(  93) = (  0.4987293  0.9993234  0.2665833  )
        94           Si  tau(  94) = (  0.3672369  0.9993253  0.3981986  )
        95           Mg  tau(  95) = (  0.4989819  0.9994280  0.3981199  )
        96           Mg  tau(  96) = (  0.4093606  0.4993293  0.4878420  )
        97           Mg  tau(  97) = (  0.5885281  0.4993302  0.4878226  )
        98           Si  tau(  98) = (  0.6305165  0.9993294  0.3980297  )
        99           Si  tau(  99) = (  0.4988282  0.9993262  0.5296595  )
       100           Al  tau( 100) = (  0.4987949  0.4992582  0.6109534  )

     number of k points=   164  Methfessel-Paxton smearing, width (Ry)=  0.0441
                       cart. coord. in units 2pi/alat
        k(    1) = (   0.0000000   0.0000000   0.0000000), wk =   0.0062500
        k(    2) = (   0.0000000   0.0000000   0.2500000), wk =   0.0125000
        k(    3) = (   0.0000000   0.0000000  -0.5000000), wk =   0.0062500
        k(    4) = (   0.0000000   0.2500000   0.0000000), wk =   0.0125000
        k(    5) = (   0.0000000   0.2500000   0.2500000), wk =   0.0125000
        k(    6) = (   0.0000000   0.2500000  -0.5000000), wk =   0.0125000
        k(    7) = (   0.0000000   0.2500000  -0.2500000), wk =   0.0125000
        k(    8) = (   0.0000000   0.5000000   0.0000000), wk =   0.0125000
        k(    9) = (   0.0000000   0.5000000   0.2500000), wk =   0.0125000
        k(   10) = (   0.0000000   0.5000000  -0.5000000), wk =   0.0125000
        k(   11) = (   0.0000000   0.5000000  -0.2500000), wk =   0.0125000
        k(   12) = (   0.0000000   0.7500000   0.0000000), wk =   0.0125000
        k(   13) = (   0.0000000   0.7500000   0.2500000), wk =   0.0125000
        k(   14) = (   0.0000000   0.7500000  -0.5000000), wk =   0.0125000
        k(   15) = (   0.0000000   0.7500000  -0.2500000), wk =   0.0125000
        k(   16) = (   0.0000000   1.0000001   0.0000000), wk =   0.0125000
        k(   17) = (   0.0000000   1.0000001   0.2500000), wk =   0.0125000
        k(   18) = (   0.0000000   1.0000001  -0.5000000), wk =   0.0125000
        k(   19) = (   0.0000000   1.0000001  -0.2500000), wk =   0.0125000
        k(   20) = (   0.0000000   1.2500001   0.0000000), wk =   0.0125000
        k(   21) = (   0.0000000   1.2500001   0.2500000), wk =   0.0125000
        k(   22) = (   0.0000000   1.2500001  -0.5000000), wk =   0.0125000
        k(   23) = (   0.0000000   1.2500001  -0.2500000), wk =   0.0125000
        k(   24) = (   0.0000000   1.5000001   0.0000000), wk =   0.0125000
        k(   25) = (   0.0000000   1.5000001   0.2500000), wk =   0.0125000
        k(   26) = (   0.0000000   1.5000001  -0.5000000), wk =   0.0125000
        k(   27) = (   0.0000000   1.5000001  -0.2500000), wk =   0.0125000
        k(   28) = (   0.0000000   1.7500001   0.0000000), wk =   0.0125000
        k(   29) = (   0.0000000   1.7500001   0.2500000), wk =   0.0125000
        k(   30) = (   0.0000000   1.7500001  -0.5000000), wk =   0.0125000
        k(   31) = (   0.0000000   1.7500001  -0.2500000), wk =   0.0125000
        k(   32) = (   0.0000000   2.0000001   0.0000000), wk =   0.0125000
        k(   33) = (   0.0000000   2.0000001   0.2500000), wk =   0.0125000
        k(   34) = (   0.0000000   2.0000001  -0.5000000), wk =   0.0125000
        k(   35) = (   0.0000000   2.0000001  -0.2500000), wk =   0.0125000
        k(   36) = (   0.0000000   2.2500001   0.0000000), wk =   0.0125000
        k(   37) = (   0.0000000   2.2500001   0.2500000), wk =   0.0125000
        k(   38) = (   0.0000000   2.2500001  -0.5000000), wk =   0.0125000
        k(   39) = (   0.0000000   2.2500001  -0.2500000), wk =   0.0125000
        k(   40) = (   0.0000000  -2.5000001   0.0000000), wk =   0.0062500
        k(   41) = (   0.0000000  -2.5000001   0.2500000), wk =   0.0125000
        k(   42) = (   0.0000000  -2.5000001  -0.5000000), wk =   0.0062500
        k(   43) = (   0.2500000   0.0000000   0.0000000), wk =   0.0125000
        k(   44) = (   0.2500000   0.0000000   0.2500000), wk =   0.0125000
        k(   45) = (   0.2500000   0.0000000  -0.5000000), wk =   0.0125000
        k(   46) = (   0.2500000   0.0000000  -0.2500000), wk =   0.0125000
        k(   47) = (   0.2500000   0.2500000   0.0000000), wk =   0.0125000
        k(   48) = (   0.2500000   0.2500000   0.2500000), wk =   0.0125000
        k(   49) = (   0.2500000   0.2500000  -0.5000000), wk =   0.0125000
        k(   50) = (   0.2500000   0.2500000  -0.2500000), wk =   0.0125000
        k(   51) = (   0.2500000   0.5000000   0.0000000), wk =   0.0125000
        k(   52) = (   0.2500000   0.5000000   0.2500000), wk =   0.0125000
        k(   53) = (   0.2500000   0.5000000  -0.5000000), wk =   0.0125000
        k(   54) = (   0.2500000   0.5000000  -0.2500000), wk =   0.0125000
        k(   55) = (   0.2500000   0.7500000   0.0000000), wk =   0.0125000
        k(   56) = (   0.2500000   0.7500000   0.2500000), wk =   0.0125000
        k(   57) = (   0.2500000   0.7500000  -0.5000000), wk =   0.0125000
        k(   58) = (   0.2500000   0.7500000  -0.2500000), wk =   0.0125000
        k(   59) = (   0.2500000   1.0000001   0.0000000), wk =   0.0125000
        k(   60) = (   0.2500000   1.0000001   0.2500000), wk =   0.0125000
        k(   61) = (   0.2500000   1.0000001  -0.5000000), wk =   0.0125000
        k(   62) = (   0.2500000   1.0000001  -0.2500000), wk =   0.0125000
        k(   63) = (   0.2500000   1.2500001   0.0000000), wk =   0.0125000
        k(   64) = (   0.2500000   1.2500001   0.2500000), wk =   0.0125000
        k(   65) = (   0.2500000   1.2500001  -0.5000000), wk =   0.0125000
        k(   66) = (   0.2500000   1.2500001  -0.2500000), wk =   0.0125000
        k(   67) = (   0.2500000   1.5000001   0.0000000), wk =   0.0125000
        k(   68) = (   0.2500000   1.5000001   0.2500000), wk =   0.0125000
        k(   69) = (   0.2500000   1.5000001  -0.5000000), wk =   0.0125000
        k(   70) = (   0.2500000   1.5000001  -0.2500000), wk =   0.0125000
        k(   71) = (   0.2500000   1.7500001   0.0000000), wk =   0.0125000
        k(   72) = (   0.2500000   1.7500001   0.2500000), wk =   0.0125000
        k(   73) = (   0.2500000   1.7500001  -0.5000000), wk =   0.0125000
        k(   74) = (   0.2500000   1.7500001  -0.2500000), wk =   0.0125000
        k(   75) = (   0.2500000   2.0000001   0.0000000), wk =   0.0125000
        k(   76) = (   0.2500000   2.0000001   0.2500000), wk =   0.0125000
        k(   77) = (   0.2500000   2.0000001  -0.5000000), wk =   0.0125000
        k(   78) = (   0.2500000   2.0000001  -0.2500000), wk =   0.0125000
        k(   79) = (   0.2500000   2.2500001   0.0000000), wk =   0.0125000
        k(   80) = (   0.2500000   2.2500001   0.2500000), wk =   0.0125000
        k(   81) = (   0.2500000   2.2500001  -0.5000000), wk =   0.0125000
        k(   82) = (   0.2500000   2.2500001  -0.2500000), wk =   0.0125000
        k(   83) = (   0.2500000  -2.5000001   0.0000000), wk =   0.0125000
        k(   84) = (   0.2500000  -2.5000001   0.2500000), wk =   0.0125000
        k(   85) = (   0.2500000  -2.5000001  -0.5000000), wk =   0.0125000
        k(   86) = (   0.2500000  -2.5000001  -0.2500000), wk =   0.0125000
        k(   87) = (   0.2500000  -2.2500001   0.0000000), wk =   0.0125000
        k(   88) = (   0.2500000  -2.2500001   0.2500000), wk =   0.0125000
        k(   89) = (   0.2500000  -2.2500001  -0.5000000), wk =   0.0125000
        k(   90) = (   0.2500000  -2.2500001  -0.2500000), wk =   0.0125000
        k(   91) = (   0.2500000  -2.0000001   0.0000000), wk =   0.0125000
        k(   92) = (   0.2500000  -2.0000001   0.2500000), wk =   0.0125000
        k(   93) = (   0.2500000  -2.0000001  -0.5000000), wk =   0.0125000
        k(   94) = (   0.2500000  -2.0000001  -0.2500000), wk =   0.0125000
        k(   95) = (   0.2500000  -1.7500001   0.0000000), wk =   0.0125000
        k(   96) = (   0.2500000  -1.7500001   0.2500000), wk =   0.0125000
        k(   97) = (   0.2500000  -1.7500001  -0.5000000), wk =   0.0125000
        k(   98) = (   0.2500000  -1.7500001  -0.2500000), wk =   0.0125000
        k(   99) = (   0.2500000  -1.5000001   0.0000000), wk =   0.0125000
        k(  100) = (   0.2500000  -1.5000001   0.2500000), wk =   0.0125000
        k(  101) = (   0.2500000  -1.5000001  -0.5000000), wk =   0.0125000
        k(  102) = (   0.2500000  -1.5000001  -0.2500000), wk =   0.0125000
        k(  103) = (   0.2500000  -1.2500001   0.0000000), wk =   0.0125000
        k(  104) = (   0.2500000  -1.2500001   0.2500000), wk =   0.0125000
        k(  105) = (   0.2500000  -1.2500001  -0.5000000), wk =   0.0125000
        k(  106) = (   0.2500000  -1.2500001  -0.2500000), wk =   0.0125000
        k(  107) = (   0.2500000  -1.0000001   0.0000000), wk =   0.0125000
        k(  108) = (   0.2500000  -1.0000001   0.2500000), wk =   0.0125000
        k(  109) = (   0.2500000  -1.0000001  -0.5000000), wk =   0.0125000
        k(  110) = (   0.2500000  -1.0000001  -0.2500000), wk =   0.0125000
        k(  111) = (   0.2500000  -0.7500000   0.0000000), wk =   0.0125000
        k(  112) = (   0.2500000  -0.7500000   0.2500000), wk =   0.0125000
        k(  113) = (   0.2500000  -0.7500000  -0.5000000), wk =   0.0125000
        k(  114) = (   0.2500000  -0.7500000  -0.2500000), wk =   0.0125000
        k(  115) = (   0.2500000  -0.5000000   0.0000000), wk =   0.0125000
        k(  116) = (   0.2500000  -0.5000000   0.2500000), wk =   0.0125000
        k(  117) = (   0.2500000  -0.5000000  -0.5000000), wk =   0.0125000
        k(  118) = (   0.2500000  -0.5000000  -0.2500000), wk =   0.0125000
        k(  119) = (   0.2500000  -0.2500000   0.0000000), wk =   0.0125000
        k(  120) = (   0.2500000  -0.2500000   0.2500000), wk =   0.0125000
        k(  121) = (   0.2500000  -0.2500000  -0.5000000), wk =   0.0125000
        k(  122) = (   0.2500000  -0.2500000  -0.2500000), wk =   0.0125000
        k(  123) = (  -0.5000000   0.0000000   0.0000000), wk =   0.0062500
        k(  124) = (  -0.5000000   0.0000000   0.2500000), wk =   0.0125000
        k(  125) = (  -0.5000000   0.0000000  -0.5000000), wk =   0.0062500
        k(  126) = (  -0.5000000   0.2500000   0.0000000), wk =   0.0125000
        k(  127) = (  -0.5000000   0.2500000   0.2500000), wk =   0.0125000
        k(  128) = (  -0.5000000   0.2500000  -0.5000000), wk =   0.0125000
        k(  129) = (  -0.5000000   0.2500000  -0.2500000), wk =   0.0125000
        k(  130) = (  -0.5000000   0.5000000   0.0000000), wk =   0.0125000
        k(  131) = (  -0.5000000   0.5000000   0.2500000), wk =   0.0125000
        k(  132) = (  -0.5000000   0.5000000  -0.5000000), wk =   0.0125000
        k(  133) = (  -0.5000000   0.5000000  -0.2500000), wk =   0.0125000
        k(  134) = (  -0.5000000   0.7500000   0.0000000), wk =   0.0125000
        k(  135) = (  -0.5000000   0.7500000   0.2500000), wk =   0.0125000
        k(  136) = (  -0.5000000   0.7500000  -0.5000000), wk =   0.0125000
        k(  137) = (  -0.5000000   0.7500000  -0.2500000), wk =   0.0125000
        k(  138) = (  -0.5000000   1.0000001   0.0000000), wk =   0.0125000
        k(  139) = (  -0.5000000   1.0000001   0.2500000), wk =   0.0125000
        k(  140) = (  -0.5000000   1.0000001  -0.5000000), wk =   0.0125000
        k(  141) = (  -0.5000000   1.0000001  -0.2500000), wk =   0.0125000
        k(  142) = (  -0.5000000   1.2500001   0.0000000), wk =   0.0125000
        k(  143) = (  -0.5000000   1.2500001   0.2500000), wk =   0.0125000
        k(  144) = (  -0.5000000   1.2500001  -0.5000000), wk =   0.0125000
        k(  145) = (  -0.5000000   1.2500001  -0.2500000), wk =   0.0125000
        k(  146) = (  -0.5000000   1.5000001   0.0000000), wk =   0.0125000
        k(  147) = (  -0.5000000   1.5000001   0.2500000), wk =   0.0125000
        k(  148) = (  -0.5000000   1.5000001  -0.5000000), wk =   0.0125000
        k(  149) = (  -0.5000000   1.5000001  -0.2500000), wk =   0.0125000
        k(  150) = (  -0.5000000   1.7500001   0.0000000), wk =   0.0125000
        k(  151) = (  -0.5000000   1.7500001   0.2500000), wk =   0.0125000
        k(  152) = (  -0.5000000   1.7500001  -0.5000000), wk =   0.0125000
        k(  153) = (  -0.5000000   1.7500001  -0.2500000), wk =   0.0125000
        k(  154) = (  -0.5000000   2.0000001   0.0000000), wk =   0.0125000
        k(  155) = (  -0.5000000   2.0000001   0.2500000), wk =   0.0125000
        k(  156) = (  -0.5000000   2.0000001  -0.5000000), wk =   0.0125000
        k(  157) = (  -0.5000000   2.0000001  -0.2500000), wk =   0.0125000
        k(  158) = (  -0.5000000   2.2500001   0.0000000), wk =   0.0125000
        k(  159) = (  -0.5000000   2.2500001   0.2500000), wk =   0.0125000
        k(  160) = (  -0.5000000   2.2500001  -0.5000000), wk =   0.0125000
        k(  161) = (  -0.5000000   2.2500001  -0.2500000), wk =   0.0125000
        k(  162) = (  -0.5000000  -2.5000001   0.0000000), wk =   0.0062500
        k(  163) = (  -0.5000000  -2.5000001   0.2500000), wk =   0.0125000
        k(  164) = (  -0.5000000  -2.5000001  -0.5000000), wk =   0.0062500

                       cryst. coord.
        k(    1) = (   0.0000000   0.0000000   0.0000000), wk =   0.0062500
        k(    2) = (   0.0000000   0.0000000   0.2500000), wk =   0.0125000
        k(    3) = (   0.0000000   0.0000000  -0.5000000), wk =   0.0062500
        k(    4) = (   0.0000000   0.0500000   0.0000000), wk =   0.0125000
        k(    5) = (   0.0000000   0.0500000   0.2500000), wk =   0.0125000
        k(    6) = (   0.0000000   0.0500000  -0.5000000), wk =   0.0125000
        k(    7) = (   0.0000000   0.0500000  -0.2500000), wk =   0.0125000
        k(    8) = (   0.0000000   0.1000000   0.0000000), wk =   0.0125000
        k(    9) = (   0.0000000   0.1000000   0.2500000), wk =   0.0125000
        k(   10) = (   0.0000000   0.1000000  -0.5000000), wk =   0.0125000
        k(   11) = (   0.0000000   0.1000000  -0.2500000), wk =   0.0125000
        k(   12) = (   0.0000000   0.1500000   0.0000000), wk =   0.0125000
        k(   13) = (   0.0000000   0.1500000   0.2500000), wk =   0.0125000
        k(   14) = (   0.0000000   0.1500000  -0.5000000), wk =   0.0125000
        k(   15) = (   0.0000000   0.1500000  -0.2500000), wk =   0.0125000
        k(   16) = (   0.0000000   0.2000000   0.0000000), wk =   0.0125000
        k(   17) = (   0.0000000   0.2000000   0.2500000), wk =   0.0125000
        k(   18) = (   0.0000000   0.2000000  -0.5000000), wk =   0.0125000
        k(   19) = (   0.0000000   0.2000000  -0.2500000), wk =   0.0125000
        k(   20) = (   0.0000000   0.2500000   0.0000000), wk =   0.0125000
        k(   21) = (   0.0000000   0.2500000   0.2500000), wk =   0.0125000
        k(   22) = (   0.0000000   0.2500000  -0.5000000), wk =   0.0125000
        k(   23) = (   0.0000000   0.2500000  -0.2500000), wk =   0.0125000
        k(   24) = (   0.0000000   0.3000000   0.0000000), wk =   0.0125000
        k(   25) = (   0.0000000   0.3000000   0.2500000), wk =   0.0125000
        k(   26) = (   0.0000000   0.3000000  -0.5000000), wk =   0.0125000
        k(   27) = (   0.0000000   0.3000000  -0.2500000), wk =   0.0125000
        k(   28) = (   0.0000000   0.3500000   0.0000000), wk =   0.0125000
        k(   29) = (   0.0000000   0.3500000   0.2500000), wk =   0.0125000
        k(   30) = (   0.0000000   0.3500000  -0.5000000), wk =   0.0125000
        k(   31) = (   0.0000000   0.3500000  -0.2500000), wk =   0.0125000
        k(   32) = (   0.0000000   0.4000000   0.0000000), wk =   0.0125000
        k(   33) = (   0.0000000   0.4000000   0.2500000), wk =   0.0125000
        k(   34) = (   0.0000000   0.4000000  -0.5000000), wk =   0.0125000
        k(   35) = (   0.0000000   0.4000000  -0.2500000), wk =   0.0125000
        k(   36) = (   0.0000000   0.4500000   0.0000000), wk =   0.0125000
        k(   37) = (   0.0000000   0.4500000   0.2500000), wk =   0.0125000
        k(   38) = (   0.0000000   0.4500000  -0.5000000), wk =   0.0125000
        k(   39) = (   0.0000000   0.4500000  -0.2500000), wk =   0.0125000
        k(   40) = (   0.0000000  -0.5000000   0.0000000), wk =   0.0062500
        k(   41) = (   0.0000000  -0.5000000   0.2500000), wk =   0.0125000
        k(   42) = (   0.0000000  -0.5000000  -0.5000000), wk =   0.0062500
        k(   43) = (   0.2500000   0.0000000   0.0000000), wk =   0.0125000
        k(   44) = (   0.2500000   0.0000000   0.2500000), wk =   0.0125000
        k(   45) = (   0.2500000   0.0000000  -0.5000000), wk =   0.0125000
        k(   46) = (   0.2500000   0.0000000  -0.2500000), wk =   0.0125000
        k(   47) = (   0.2500000   0.0500000   0.0000000), wk =   0.0125000
        k(   48) = (   0.2500000   0.0500000   0.2500000), wk =   0.0125000
        k(   49) = (   0.2500000   0.0500000  -0.5000000), wk =   0.0125000
        k(   50) = (   0.2500000   0.0500000  -0.2500000), wk =   0.0125000
        k(   51) = (   0.2500000   0.1000000   0.0000000), wk =   0.0125000
        k(   52) = (   0.2500000   0.1000000   0.2500000), wk =   0.0125000
        k(   53) = (   0.2500000   0.1000000  -0.5000000), wk =   0.0125000
        k(   54) = (   0.2500000   0.1000000  -0.2500000), wk =   0.0125000
        k(   55) = (   0.2500000   0.1500000   0.0000000), wk =   0.0125000
        k(   56) = (   0.2500000   0.1500000   0.2500000), wk =   0.0125000
        k(   57) = (   0.2500000   0.1500000  -0.5000000), wk =   0.0125000
        k(   58) = (   0.2500000   0.1500000  -0.2500000), wk =   0.0125000
        k(   59) = (   0.2500000   0.2000000   0.0000000), wk =   0.0125000
        k(   60) = (   0.2500000   0.2000000   0.2500000), wk =   0.0125000
        k(   61) = (   0.2500000   0.2000000  -0.5000000), wk =   0.0125000
        k(   62) = (   0.2500000   0.2000000  -0.2500000), wk =   0.0125000
        k(   63) = (   0.2500000   0.2500000   0.0000000), wk =   0.0125000
        k(   64) = (   0.2500000   0.2500000   0.2500000), wk =   0.0125000
        k(   65) = (   0.2500000   0.2500000  -0.5000000), wk =   0.0125000
        k(   66) = (   0.2500000   0.2500000  -0.2500000), wk =   0.0125000
        k(   67) = (   0.2500000   0.3000000   0.0000000), wk =   0.0125000
        k(   68) = (   0.2500000   0.3000000   0.2500000), wk =   0.0125000
        k(   69) = (   0.2500000   0.3000000  -0.5000000), wk =   0.0125000
        k(   70) = (   0.2500000   0.3000000  -0.2500000), wk =   0.0125000
        k(   71) = (   0.2500000   0.3500000   0.0000000), wk =   0.0125000
        k(   72) = (   0.2500000   0.3500000   0.2500000), wk =   0.0125000
        k(   73) = (   0.2500000   0.3500000  -0.5000000), wk =   0.0125000
        k(   74) = (   0.2500000   0.3500000  -0.2500000), wk =   0.0125000
        k(   75) = (   0.2500000   0.4000000   0.0000000), wk =   0.0125000
        k(   76) = (   0.2500000   0.4000000   0.2500000), wk =   0.0125000
        k(   77) = (   0.2500000   0.4000000  -0.5000000), wk =   0.0125000
        k(   78) = (   0.2500000   0.4000000  -0.2500000), wk =   0.0125000
        k(   79) = (   0.2500000   0.4500000   0.0000000), wk =   0.0125000
        k(   80) = (   0.2500000   0.4500000   0.2500000), wk =   0.0125000
        k(   81) = (   0.2500000   0.4500000  -0.5000000), wk =   0.0125000
        k(   82) = (   0.2500000   0.4500000  -0.2500000), wk =   0.0125000
        k(   83) = (   0.2500000  -0.5000000   0.0000000), wk =   0.0125000
        k(   84) = (   0.2500000  -0.5000000   0.2500000), wk =   0.0125000
        k(   85) = (   0.2500000  -0.5000000  -0.5000000), wk =   0.0125000
        k(   86) = (   0.2500000  -0.5000000  -0.2500000), wk =   0.0125000
        k(   87) = (   0.2500000  -0.4500000   0.0000000), wk =   0.0125000
        k(   88) = (   0.2500000  -0.4500000   0.2500000), wk =   0.0125000
        k(   89) = (   0.2500000  -0.4500000  -0.5000000), wk =   0.0125000
        k(   90) = (   0.2500000  -0.4500000  -0.2500000), wk =   0.0125000
        k(   91) = (   0.2500000  -0.4000000   0.0000000), wk =   0.0125000
        k(   92) = (   0.2500000  -0.4000000   0.2500000), wk =   0.0125000
        k(   93) = (   0.2500000  -0.4000000  -0.5000000), wk =   0.0125000
        k(   94) = (   0.2500000  -0.4000000  -0.2500000), wk =   0.0125000
        k(   95) = (   0.2500000  -0.3500000   0.0000000), wk =   0.0125000
        k(   96) = (   0.2500000  -0.3500000   0.2500000), wk =   0.0125000
        k(   97) = (   0.2500000  -0.3500000  -0.5000000), wk =   0.0125000
        k(   98) = (   0.2500000  -0.3500000  -0.2500000), wk =   0.0125000
        k(   99) = (   0.2500000  -0.3000000   0.0000000), wk =   0.0125000
        k(  100) = (   0.2500000  -0.3000000   0.2500000), wk =   0.0125000
        k(  101) = (   0.2500000  -0.3000000  -0.5000000), wk =   0.0125000
        k(  102) = (   0.2500000  -0.3000000  -0.2500000), wk =   0.0125000
        k(  103) = (   0.2500000  -0.2500000   0.0000000), wk =   0.0125000
        k(  104) = (   0.2500000  -0.2500000   0.2500000), wk =   0.0125000
        k(  105) = (   0.2500000  -0.2500000  -0.5000000), wk =   0.0125000
        k(  106) = (   0.2500000  -0.2500000  -0.2500000), wk =   0.0125000
        k(  107) = (   0.2500000  -0.2000000   0.0000000), wk =   0.0125000
        k(  108) = (   0.2500000  -0.2000000   0.2500000), wk =   0.0125000
        k(  109) = (   0.2500000  -0.2000000  -0.5000000), wk =   0.0125000
        k(  110) = (   0.2500000  -0.2000000  -0.2500000), wk =   0.0125000
        k(  111) = (   0.2500000  -0.1500000   0.0000000), wk =   0.0125000
        k(  112) = (   0.2500000  -0.1500000   0.2500000), wk =   0.0125000
        k(  113) = (   0.2500000  -0.1500000  -0.5000000), wk =   0.0125000
        k(  114) = (   0.2500000  -0.1500000  -0.2500000), wk =   0.0125000
        k(  115) = (   0.2500000  -0.1000000   0.0000000), wk =   0.0125000
        k(  116) = (   0.2500000  -0.1000000   0.2500000), wk =   0.0125000
        k(  117) = (   0.2500000  -0.1000000  -0.5000000), wk =   0.0125000
        k(  118) = (   0.2500000  -0.1000000  -0.2500000), wk =   0.0125000
        k(  119) = (   0.2500000  -0.0500000   0.0000000), wk =   0.0125000
        k(  120) = (   0.2500000  -0.0500000   0.2500000), wk =   0.0125000
        k(  121) = (   0.2500000  -0.0500000  -0.5000000), wk =   0.0125000
        k(  122) = (   0.2500000  -0.0500000  -0.2500000), wk =   0.0125000
        k(  123) = (  -0.5000000   0.0000000   0.0000000), wk =   0.0062500
        k(  124) = (  -0.5000000   0.0000000   0.2500000), wk =   0.0125000
        k(  125) = (  -0.5000000   0.0000000  -0.5000000), wk =   0.0062500
        k(  126) = (  -0.5000000   0.0500000   0.0000000), wk =   0.0125000
        k(  127) = (  -0.5000000   0.0500000   0.2500000), wk =   0.0125000
        k(  128) = (  -0.5000000   0.0500000  -0.5000000), wk =   0.0125000
        k(  129) = (  -0.5000000   0.0500000  -0.2500000), wk =   0.0125000
        k(  130) = (  -0.5000000   0.1000000   0.0000000), wk =   0.0125000
        k(  131) = (  -0.5000000   0.1000000   0.2500000), wk =   0.0125000
        k(  132) = (  -0.5000000   0.1000000  -0.5000000), wk =   0.0125000
        k(  133) = (  -0.5000000   0.1000000  -0.2500000), wk =   0.0125000
        k(  134) = (  -0.5000000   0.1500000   0.0000000), wk =   0.0125000
        k(  135) = (  -0.5000000   0.1500000   0.2500000), wk =   0.0125000
        k(  136) = (  -0.5000000   0.1500000  -0.5000000), wk =   0.0125000
        k(  137) = (  -0.5000000   0.1500000  -0.2500000), wk =   0.0125000
        k(  138) = (  -0.5000000   0.2000000   0.0000000), wk =   0.0125000
        k(  139) = (  -0.5000000   0.2000000   0.2500000), wk =   0.0125000
        k(  140) = (  -0.5000000   0.2000000  -0.5000000), wk =   0.0125000
        k(  141) = (  -0.5000000   0.2000000  -0.2500000), wk =   0.0125000
        k(  142) = (  -0.5000000   0.2500000   0.0000000), wk =   0.0125000
        k(  143) = (  -0.5000000   0.2500000   0.2500000), wk =   0.0125000
        k(  144) = (  -0.5000000   0.2500000  -0.5000000), wk =   0.0125000
        k(  145) = (  -0.5000000   0.2500000  -0.2500000), wk =   0.0125000
        k(  146) = (  -0.5000000   0.3000000   0.0000000), wk =   0.0125000
        k(  147) = (  -0.5000000   0.3000000   0.2500000), wk =   0.0125000
        k(  148) = (  -0.5000000   0.3000000  -0.5000000), wk =   0.0125000
        k(  149) = (  -0.5000000   0.3000000  -0.2500000), wk =   0.0125000
        k(  150) = (  -0.5000000   0.3500000   0.0000000), wk =   0.0125000
        k(  151) = (  -0.5000000   0.3500000   0.2500000), wk =   0.0125000
        k(  152) = (  -0.5000000   0.3500000  -0.5000000), wk =   0.0125000
        k(  153) = (  -0.5000000   0.3500000  -0.2500000), wk =   0.0125000
        k(  154) = (  -0.5000000   0.4000000   0.0000000), wk =   0.0125000
        k(  155) = (  -0.5000000   0.4000000   0.2500000), wk =   0.0125000
        k(  156) = (  -0.5000000   0.4000000  -0.5000000), wk =   0.0125000
        k(  157) = (  -0.5000000   0.4000000  -0.2500000), wk =   0.0125000
        k(  158) = (  -0.5000000   0.4500000   0.0000000), wk =   0.0125000
        k(  159) = (  -0.5000000   0.4500000   0.2500000), wk =   0.0125000
        k(  160) = (  -0.5000000   0.4500000  -0.5000000), wk =   0.0125000
        k(  161) = (  -0.5000000   0.4500000  -0.2500000), wk =   0.0125000
        k(  162) = (  -0.5000000  -0.5000000   0.0000000), wk =   0.0062500
        k(  163) = (  -0.5000000  -0.5000000   0.2500000), wk =   0.0125000
        k(  164) = (  -0.5000000  -0.5000000  -0.5000000), wk =   0.0062500

     Dense  grid:  1522361 G-vectors     FFT dimensions: ( 250,  50, 250)

     Smooth grid:   385283 G-vectors     FFT dimensions: ( 160,  32, 160)

     Dynamical RAM for                 wfc:      14.69 MB

     Dynamical RAM for     wfc (w. buffer):     616.81 MB

     Dynamical RAM for           str. fact:       7.74 MB

     Dynamical RAM for           local pot:       0.00 MB

     Dynamical RAM for          nlocal pot:     142.78 MB

     Dynamical RAM for                qrad:      29.33 MB

     Dynamical RAM for          rho,v,vnew:      15.75 MB

     Dynamical RAM for               rhoin:       5.25 MB

     Dynamical RAM for            rho*nmix:      41.30 MB

     Dynamical RAM for           G-vectors:      10.01 MB

     Dynamical RAM for          h,s,v(r/c):       5.93 MB

     Dynamical RAM for          <psi|beta>:       4.81 MB

     Dynamical RAM for                 psi:      58.74 MB

     Dynamical RAM for                hpsi:      58.74 MB

     Dynamical RAM for                spsi:      58.74 MB

     Dynamical RAM for      wfcinit/wfcrot:      68.94 MB

     Dynamical RAM for           addusdens:     180.67 MB

     Dynamical RAM for          addusforce:     313.98 MB

     Dynamical RAM for         addusstress:     130.66 MB

     Estimated static dynamical RAM per process >     892.65 MB

     Estimated max dynamical RAM per process >       1.18 GB

     Estimated total dynamical RAM >      42.42 GB

     Initial potential from superposition of free atoms

     starting charge  298.78473, renormalised to  299.00000
     Starting wfcs are  400 randomized atomic wfcs
     Checking if some PAW data can be deallocated... 
       PAW data deallocated on    3 nodes for type:  1
       PAW data deallocated on   32 nodes for type:  2

     total cpu time spent up to now is      218.3 secs

     Self-consistent Calculation

     iteration #  1     ecut=    40.00 Ry     beta= 0.40
     Davidson diagonalization with overlap
     ethr =  1.00E-02,  avg # of iterations =  3.0

     total cpu time spent up to now is      613.5 secs

     total energy              =   -3808.37909837 Ry
     Harris-Foulkes estimate   =   -3808.55067781 Ry
     estimated scf accuracy    <       3.40761732 Ry

     iteration #  2     ecut=    40.00 Ry     beta= 0.40
     Davidson diagonalization with overlap
     ethr =  1.14E-03,  avg # of iterations =  2.7

     total cpu time spent up to now is      922.9 secs

     total energy              =   -3808.31087397 Ry
     Harris-Foulkes estimate   =   -3808.60813958 Ry
     estimated scf accuracy    <       1.92761760 Ry

     iteration #  3     ecut=    40.00 Ry     beta= 0.40
     Davidson diagonalization with overlap
     ethr =  6.45E-04,  avg # of iterations =  3.4

     total cpu time spent up to now is     1240.9 secs

     total energy              =   -3808.46994933 Ry
     Harris-Foulkes estimate   =   -3808.48518248 Ry
     estimated scf accuracy    <       0.13002543 Ry

     iteration #  4     ecut=    40.00 Ry     beta= 0.40
     Davidson diagonalization with overlap
     ethr =  4.35E-05,  avg # of iterations =  9.5

     total cpu time spent up to now is     1778.0 secs

     total energy              =   -3808.49599203 Ry
     Harris-Foulkes estimate   =   -3808.49569346 Ry
     estimated scf accuracy    <       0.03976739 Ry

     iteration #  5     ecut=    40.00 Ry     beta= 0.40
     Davidson diagonalization with overlap
     ethr =  1.33E-05,  avg # of iterations =  1.6

     total cpu time spent up to now is     2066.7 secs

     total energy              =   -3808.49172954 Ry
     Harris-Foulkes estimate   =   -3808.49665182 Ry
     estimated scf accuracy    <       0.04541461 Ry

     iteration #  6     ecut=    40.00 Ry     beta= 0.40
     Davidson diagonalization with overlap
     ethr =  1.33E-05,  avg # of iterations =  1.0

     total cpu time spent up to now is     2346.8 secs

     total energy              =   -3808.49162924 Ry
     Harris-Foulkes estimate   =   -3808.49267709 Ry
     estimated scf accuracy    <       0.00665101 Ry

     iteration #  7     ecut=    40.00 Ry     beta= 0.40
     Davidson diagonalization with overlap
     c_bands:  1 eigenvalues not converged
     c_bands:  1 eigenvalues not converged
     c_bands:  1 eigenvalues not converged
     c_bands:  1 eigenvalues not converged
     c_bands:  2 eigenvalues not converged
     c_bands:  2 eigenvalues not converged
     c_bands:  2 eigenvalues not converged
     c_bands:  2 eigenvalues not converged
     c_bands:  2 eigenvalues not converged
     c_bands:  1 eigenvalues not converged
     ethr =  2.22E-06,  avg # of iterations =  9.6

     total cpu time spent up to now is     2788.9 secs

     total energy              =   -3808.49233032 Ry
     Harris-Foulkes estimate   =   -3808.49240058 Ry
     estimated scf accuracy    <       0.00220896 Ry

     iteration #  8     ecut=    40.00 Ry     beta= 0.40
     Davidson diagonalization with overlap
     c_bands:  1 eigenvalues not converged
     ethr =  7.39E-07,  avg # of iterations =  6.8

     total cpu time spent up to now is     3168.0 secs

     total energy              =   -3808.49254268 Ry
     Harris-Foulkes estimate   =   -3808.49262833 Ry
     estimated scf accuracy    <       0.00162701 Ry

     iteration #  9     ecut=    40.00 Ry     beta= 0.40
     Davidson diagonalization with overlap
     ethr =  5.44E-07,  avg # of iterations =  1.7

     total cpu time spent up to now is     3466.2 secs

     total energy              =   -3808.49248591 Ry
     Harris-Foulkes estimate   =   -3808.49258551 Ry
     estimated scf accuracy    <       0.00074374 Ry

     iteration # 10     ecut=    40.00 Ry     beta= 0.40
     Davidson diagonalization with overlap
     ethr =  2.49E-07,  avg # of iterations =  4.0

     total cpu time spent up to now is     3812.9 secs

     total energy              =   -3808.49256876 Ry
     Harris-Foulkes estimate   =   -3808.49257103 Ry
     estimated scf accuracy    <       0.00001590 Ry

     iteration # 11     ecut=    40.00 Ry     beta= 0.40
     Davidson diagonalization with overlap
     ethr =  5.32E-09,  avg # of iterations =  5.5

     total cpu time spent up to now is     4373.2 secs

     total energy              =   -3808.49258274 Ry
     Harris-Foulkes estimate   =   -3808.49258269 Ry
     estimated scf accuracy    <       0.00002994 Ry

     iteration # 12     ecut=    40.00 Ry     beta= 0.40
     Davidson diagonalization with overlap
     ethr =  5.32E-09,  avg # of iterations =  1.1

     total cpu time spent up to now is     4656.2 secs

     total energy              =   -3808.49257854 Ry
     Harris-Foulkes estimate   =   -3808.49258268 Ry
     estimated scf accuracy    <       0.00003523 Ry

     iteration # 13     ecut=    40.00 Ry     beta= 0.40
     Davidson diagonalization with overlap
     ethr =  5.32E-09,  avg # of iterations =  2.3

     total cpu time spent up to now is     4970.7 secs

     total energy              =   -3808.49258058 Ry
     Harris-Foulkes estimate   =   -3808.49258067 Ry
     estimated scf accuracy    <       0.00000065 Ry

     iteration # 14     ecut=    40.00 Ry     beta= 0.40
     Davidson diagonalization with overlap
     ethr =  2.17E-10,  avg # of iterations =  3.8

     total cpu time spent up to now is     5330.8 secs

     total energy              =   -3808.49258056 Ry
     Harris-Foulkes estimate   =   -3808.49258063 Ry
     estimated scf accuracy    <       0.00000053 Ry

     iteration # 15     ecut=    40.00 Ry     beta= 0.40
     Davidson diagonalization with overlap
     ethr =  1.76E-10,  avg # of iterations =  2.1

     total cpu time spent up to now is     5626.9 secs

     total energy              =   -3808.49258061 Ry
     Harris-Foulkes estimate   =   -3808.49258058 Ry
     estimated scf accuracy    <       0.00000044 Ry

     iteration # 16     ecut=    40.00 Ry     beta= 0.40
     Davidson diagonalization with overlap
     ethr =  1.48E-10,  avg # of iterations =  3.5

     total cpu time spent up to now is     5977.8 secs

     total energy              =   -3808.49258049 Ry
     Harris-Foulkes estimate   =   -3808.49258068 Ry
     estimated scf accuracy    <       0.00000192 Ry

     iteration # 17     ecut=    40.00 Ry     beta= 0.40
     Davidson diagonalization with overlap
     ethr =  1.48E-10,  avg # of iterations =  2.0

     total cpu time spent up to now is     6278.1 secs

     total energy              =   -3808.49258054 Ry
     Harris-Foulkes estimate   =   -3808.49258052 Ry
     estimated scf accuracy    <       0.00000048 Ry

     iteration # 18     ecut=    40.00 Ry     beta= 0.40
     Davidson diagonalization with overlap
     ethr =  1.48E-10,  avg # of iterations =  1.0

     total cpu time spent up to now is     6557.8 secs

     total energy              =   -3808.49258049 Ry
     Harris-Foulkes estimate   =   -3808.49258054 Ry
     estimated scf accuracy    <       0.00000064 Ry

     iteration # 19     ecut=    40.00 Ry     beta= 0.40
     Davidson diagonalization with overlap
     ethr =  1.48E-10,  avg # of iterations =  1.0

     total cpu time spent up to now is     6837.2 secs

     total energy              =   -3808.49258043 Ry
     Harris-Foulkes estimate   =   -3808.49258050 Ry
     estimated scf accuracy    <       0.00000029 Ry

     iteration # 20     ecut=    40.00 Ry     beta= 0.40
     Davidson diagonalization with overlap
     ethr =  9.54E-11,  avg # of iterations =  3.6

     total cpu time spent up to now is     7193.2 secs

     total energy              =   -3808.49258046 Ry
     Harris-Foulkes estimate   =   -3808.49258048 Ry
     estimated scf accuracy    <       0.00000011 Ry

     iteration # 21     ecut=    40.00 Ry     beta= 0.40
     Davidson diagonalization with overlap
     ethr =  3.73E-11,  avg # of iterations =  2.1

     total cpu time spent up to now is     7507.5 secs

     total energy              =   -3808.49258047 Ry
     Harris-Foulkes estimate   =   -3808.49258047 Ry
     estimated scf accuracy    <          4.1E-09 Ry

     iteration # 22     ecut=    40.00 Ry     beta= 0.40
     Davidson diagonalization with overlap
     ethr =  1.36E-12,  avg # of iterations =  5.0

     total cpu time spent up to now is     8057.7 secs

     total energy              =   -3808.49258046 Ry
     Harris-Foulkes estimate   =   -3808.49258046 Ry
     estimated scf accuracy    <          4.5E-09 Ry

     iteration # 23     ecut=    40.00 Ry     beta= 0.40
     Davidson diagonalization with overlap
     ethr =  1.36E-12,  avg # of iterations =  1.0

     total cpu time spent up to now is     8336.9 secs

     total energy              =   -3808.49258046 Ry
     Harris-Foulkes estimate   =   -3808.49258046 Ry
     estimated scf accuracy    <          1.4E-09 Ry

     iteration # 24     ecut=    40.00 Ry     beta= 0.40
     Davidson diagonalization with overlap
     ethr =  4.64E-13,  avg # of iterations =  1.5

     total cpu time spent up to now is     8625.4 secs

     total energy              =   -3808.49258046 Ry
     Harris-Foulkes estimate   =   -3808.49258046 Ry
     estimated scf accuracy    <          3.3E-10 Ry

     iteration # 25     ecut=    40.00 Ry     beta= 0.40
     Davidson diagonalization with overlap
     ethr =  1.11E-13,  avg # of iterations =  4.1

     total cpu time spent up to now is     9012.0 secs

     total energy              =   -3808.49258046 Ry
     Harris-Foulkes estimate   =   -3808.49258046 Ry
     estimated scf accuracy    <          4.9E-11 Ry

     iteration # 26     ecut=    40.00 Ry     beta= 0.40
     Davidson diagonalization with overlap
     ethr =  1.00E-13,  avg # of iterations =  1.0

     total cpu time spent up to now is     9291.9 secs

     total energy              =   -3808.49258045 Ry
     Harris-Foulkes estimate   =   -3808.49258045 Ry
     estimated scf accuracy    <          1.9E-11 Ry

     iteration # 27     ecut=    40.00 Ry     beta= 0.40
     Davidson diagonalization with overlap
     ethr =  1.00E-13,  avg # of iterations =  1.0

     total cpu time spent up to now is     9572.4 secs

     total energy              =   -3808.49258045 Ry
     Harris-Foulkes estimate   =   -3808.49258045 Ry
     estimated scf accuracy    <          3.3E-12 Ry

     iteration # 28     ecut=    40.00 Ry     beta= 0.40
     Davidson diagonalization with overlap
     ethr =  1.00E-13,  avg # of iterations =  1.0

     total cpu time spent up to now is     9853.2 secs

     End of self-consistent calculation

          k = 0.0000 0.0000 0.0000 ( 48187 PWs)   bands (ev):

    -3.4165  -3.0886  -3.0826  -3.0819  -3.0645  -2.8029  -2.8017  -2.6540
    -2.6208  -2.3582  -2.0217  -2.0207  -1.9313  -1.7956  -1.7939  -1.7567
    -1.5972  -1.5534  -1.5530  -1.4310  -1.3981  -0.7150  -0.6648  -0.6645
    -0.4181  -0.3247  -0.1393  -0.1386  -0.1187  -0.0223   0.0930   0.0931
     0.1638   0.3384   0.3393   0.3468   0.5609   1.1277   1.1939   1.1946
     1.2197   1.2769   1.2774   1.4183   1.6528   1.9396   2.2949   2.2954
     2.3518   2.4235   2.5857   2.6011   2.6154   2.6160   2.7654   2.7662
     2.9098   2.9538   2.9544   3.1616   3.2048   3.4965   3.6061   3.6620
     3.6624   3.6927   3.6930   3.7663   3.8549   4.7598   4.8174   4.8183
     4.9969   5.0404   5.0642   5.0648   5.1055   5.1611   5.1851   5.1863
     5.2256   5.2712   5.2718   5.2974   5.3138   5.3149   5.3196   5.3957
     5.3960   5.4786   5.4805   5.6849   5.6994   5.7627   5.9864   6.0454
     6.0463   6.0968   6.1065   6.1071   6.1148   6.1512   6.1989   6.2346
     6.2365   6.2670   6.3390   6.3932   6.4257   6.4425   6.4432   6.4739
     6.4744   6.4887   6.4895   6.5199   6.5925   6.6469   6.7363   6.7368
     6.7967   6.8343   7.0422   7.0882   7.2177   7.2816   7.2820   7.3137
     7.4401   7.4404   7.4719   7.5237   7.5241   7.5648   7.6190   7.6345
     7.6368   7.6395   7.6846   7.7307   7.7311   7.7407   7.7608   7.7850
     7.7977   7.8013   7.8019   7.8458   7.8461   7.8901   7.8994   7.9814
     7.9818   7.9896   7.9896   8.0702   8.0863   8.3050   8.3064   8.3074
     8.3345   8.3533   8.4511   8.7434   8.8494   8.8495   8.9809   9.0212
     9.0787   9.0793   9.0909   9.0991   9.1245   9.1640   9.1646   9.2380
     9.2605   9.2610   9.2761   9.3304

     occupation numbers 
     1.0000   1.0000   1.0000   1.0000   1.0000   1.0000   1.0000   1.0000
     1.0000   1.0000   1.0000   1.0000   1.0000   1.0000   1.0000   1.0000
     1.0000   1.0000   1.0000   1.0000   1.0000   1.0000   1.0000   1.0000
     1.0000   1.0000   1.0000   1.0000   1.0000   1.0000   1.0000   1.0000
     1.0000   1.0000   1.0000   1.0000   1.0000   1.0000   1.0000   1.0000
     1.0000   1.0000   1.0000   1.0000   1.0000   1.0000   1.0000   1.0000
     1.0000   1.0000   1.0000   1.0000   1.0000   1.0000   1.0000   1.0000
     1.0000   1.0000   1.0000   1.0000   1.0000   1.0000   1.0000   1.0000
     1.0000   1.0000   1.0000   1.0000   1.0000   1.0000   1.0000   1.0000
     1.0000   1.0000   1.0000   1.0000   1.0000   1.0000   1.0000   1.0000
     1.0000   1.0000   1.0000   1.0000   1.0000   1.0000   1.0000   1.0000
     1.0000   1.0000   1.0000   1.0000   1.0000   1.0000   1.0002   1.0003
     1.0003   1.0004   1.0004   1.0004   1.0005   1.0006   1.0009   1.0012
     1.0012   1.0015   1.0025   1.0035   1.0043   1.0048   1.0048   1.0057
     1.0057   1.0062   1.0063   1.0074   1.0109   1.0140   1.0202   1.0203
     1.0249   1.0277   1.0346   1.0313   1.0037   0.9770   0.9768   0.9596
     0.8638   0.8635   0.8328   0.7767   0.7761   0.7276   0.6580   0.6373
     0.6342   0.6305   0.5684   0.5037   0.5032   0.4895   0.4612   0.4275
     0.4098   0.4049   0.4040   0.3444   0.3439   0.2870   0.2754   0.1811
     0.1807   0.1726   0.1725   0.0981   0.0853  -0.0195  -0.0198  -0.0200
    -0.0253  -0.0282  -0.0353  -0.0193  -0.0122  -0.0122  -0.0061  -0.0048
    -0.0034  -0.0034  -0.0031  -0.0030  -0.0025  -0.0019  -0.0019  -0.0011
    -0.0009  -0.0009  -0.0008  -0.0005

          k = 0.0000 0.0000 0.2500 ( 48145 PWs)   bands (ev):

    -3.3951  -3.2248  -3.0659  -3.0563  -2.9374  -2.8763  -2.8432  -2.5463
    -2.5106  -2.4440  -2.1472  -2.0515  -1.9621  -1.8763  -1.8679  -1.7779
    -1.5713  -1.4443  -1.3938  -1.2857  -1.2221  -0.8254  -0.8062  -0.8012
    -0.5326  -0.3642  -0.2519  -0.1107  -0.0963  -0.0759   0.0434   0.1364
     0.3349   0.4240   0.4339   0.6865   0.7352   0.7791   0.8309   1.0472
     1.1214   1.5252   1.6478   1.6645   1.7495   1.9148   1.9193   1.9607
     2.3083   2.3338   2.4285   2.5034   2.5758   2.6014   2.7387   2.8846
     2.9987   3.0588   3.0889   3.2937   3.2991   3.3698   3.4500   3.6110
     3.6203   4.0102   4.0266   4.3138   4.3610   4.4225   4.6206   4.6710
     4.7412   4.7632   4.7790   4.8344   4.9197   4.9334   4.9438   5.0809
     5.0864   5.0914   5.1941   5.2442   5.2954   5.3772   5.5631   5.5806
     5.6139   5.6351   5.6757   5.8078   5.8177   5.8669   5.9083   5.9544
     6.0113   6.0803   6.1010   6.1230   6.1549   6.1621   6.1785   6.2065
     6.2651   6.2965   6.4109   6.4519   6.4718   6.4773   6.4929   6.5677
     6.6068   6.6176   6.6309   6.6486   6.6913   6.7184   6.7734   6.8367
     6.8971   6.9130   6.9851   7.1234   7.1453   7.1723   7.1909   7.2111
     7.2347   7.2730   7.2834   7.3864   7.3882   7.4077   7.4725   7.5401
     7.5687   7.5882   7.6313   7.6741   7.7359   7.7409   7.7912   7.8213
     7.8237   7.8250   7.8710   7.9316   7.9433   7.9815   8.0965   8.1276
     8.1306   8.2314   8.2646   8.2975   8.3165   8.3171   8.3389   8.3568
     8.3749   8.5324   8.5587   8.5976   8.6073   8.6366   8.6857   8.7019
     8.7143   8.7486   8.8930   8.9923   9.0030   9.0585   9.0654   9.0951
     9.1136   9.1836   9.2373   9.2953

     occupation numbers 
     1.0000   1.0000   1.0000   1.0000   1.0000   1.0000   1.0000   1.0000
     1.0000   1.0000   1.0000   1.0000   1.0000   1.0000   1.0000   1.0000
     1.0000   1.0000   1.0000   1.0000   1.0000   1.0000   1.0000   1.0000
     1.0000   1.0000   1.0000   1.0000   1.0000   1.0000   1.0000   1.0000
     1.0000   1.0000   1.0000   1.0000   1.0000   1.0000   1.0000   1.0000
     1.0000   1.0000   1.0000   1.0000   1.0000   1.0000   1.0000   1.0000
     1.0000   1.0000   1.0000   1.0000   1.0000   1.0000   1.0000   1.0000
     1.0000   1.0000   1.0000   1.0000   1.0000   1.0000   1.0000   1.0000
     1.0000   1.0000   1.0000   1.0000   1.0000   1.0000   1.0000   1.0000
     1.0000   1.0000   1.0000   1.0000   1.0000   1.0000   1.0000   1.0000
     1.0000   1.0000   1.0000   1.0000   1.0000   1.0000   1.0000   1.0000
     1.0000   1.0000   1.0000   1.0000   1.0000   1.0000   1.0001   1.0001
     1.0002   1.0003   1.0004   1.0005   1.0006   1.0007   1.0008   1.0009
     1.0015   1.0018   1.0039   1.0050   1.0057   1.0058   1.0064   1.0096
     1.0116   1.0123   1.0130   1.0141   1.0170   1.0189   1.0231   1.0279
     1.0320   1.0329   1.0354   1.0268   1.0229   1.0170   1.0121   1.0059
     0.9976   0.9811   0.9761   0.9100   0.9086   0.8927   0.8322   0.7575
     0.7228   0.6982   0.6416   0.5830   0.4964   0.4893   0.4187   0.3774
     0.3741   0.3724   0.3113   0.2366   0.2230   0.1810   0.0776   0.0560
     0.0540   0.0026  -0.0088  -0.0178  -0.0220  -0.0221  -0.0261  -0.0287
    -0.0309  -0.0339  -0.0326  -0.0302  -0.0295  -0.0274  -0.0237  -0.0224
    -0.0215  -0.0189  -0.0099  -0.0057  -0.0054  -0.0038  -0.0037  -0.0030
    -0.0027  -0.0017  -0.0011  -0.0007

          k = 0.0000 0.0000-0.5000 ( 48170 PWs)   bands (ev):

    -3.3337  -3.3278  -3.0392  -3.0107  -2.9850  -2.9376  -2.6849  -2.6455
    -2.3867  -2.3721  -2.2988  -2.1535  -2.0048  -1.9071  -1.8871  -1.8496
    -1.3894  -1.3494  -1.3033  -1.0929  -1.0577  -1.0268  -0.8419  -0.8348
    -0.7836  -0.6777  -0.2052  -0.1162  -0.0900  -0.0037   0.1917   0.2305
     0.3527   0.4155   0.5337   0.6145   0.6546   0.8480   1.0131   1.0299
     1.3289   1.3581   1.3662   1.4724   1.9829   1.9974   2.0152   2.1593
     2.2027   2.3192   2.3215   2.3839   2.4061   2.4973   2.5704   2.6260
     3.0170   3.0635   3.0703   3.1619   3.6984   3.7636   3.9669   3.9986
     4.0106   4.0203   4.0687   4.1859   4.1903   4.1983   4.3421   4.3837
     4.5012   4.5986   4.8271   4.8273   4.8484   4.9347   4.9712   5.0280
     5.0799   5.1102   5.1200   5.1707   5.1828   5.1853   5.4275   5.4715
     5.5464   5.6629   5.6944   5.7094   5.7661   5.9116   6.0724   6.0923
     6.1309   6.1457   6.1499   6.1781   6.1906   6.2129   6.2521   6.3071
     6.3830   6.4499   6.4791   6.5041   6.5380   6.5538   6.5894   6.6020
     6.6170   6.6456   6.6897   6.6992   6.7119   6.8141   6.8546   6.8889
     6.9050   6.9090   6.9283   6.9656   6.9869   7.1294   7.1396   7.1536
     7.2065   7.2652   7.2799   7.3055   7.3203   7.3793   7.3874   7.4473
     7.5781   7.6259   7.6590   7.6656   7.6763   7.7040   7.7399   7.7868
     7.8066   7.8414   7.9105   7.9310   8.0283   8.0616   8.0989   8.1676
     8.2267   8.2508   8.2609   8.3082   8.3315   8.3895   8.4122   8.4728
     8.4977   8.5275   8.5666   8.5888   8.6010   8.6893   8.6921   8.7155
     8.7496   8.8003   8.8266   8.8981   8.9087   8.9122   8.9196   8.9218
     8.9744   9.0553   9.1055   9.1956

     occupation numbers 
     1.0000   1.0000   1.0000   1.0000   1.0000   1.0000   1.0000   1.0000
     1.0000   1.0000   1.0000   1.0000   1.0000   1.0000   1.0000   1.0000
     1.0000   1.0000   1.0000   1.0000   1.0000   1.0000   1.0000   1.0000
     1.0000   1.0000   1.0000   1.0000   1.0000   1.0000   1.0000   1.0000
     1.0000   1.0000   1.0000   1.0000   1.0000   1.0000   1.0000   1.0000
     1.0000   1.0000   1.0000   1.0000   1.0000   1.0000   1.0000   1.0000
     1.0000   1.0000   1.0000   1.0000   1.0000   1.0000   1.0000   1.0000
     1.0000   1.0000   1.0000   1.0000   1.0000   1.0000   1.0000   1.0000
     1.0000   1.0000   1.0000   1.0000   1.0000   1.0000   1.0000   1.0000
     1.0000   1.0000   1.0000   1.0000   1.0000   1.0000   1.0000   1.0000
     1.0000   1.0000   1.0000   1.0000   1.0000   1.0000   1.0000   1.0000
     1.0000   1.0000   1.0000   1.0000   1.0000   1.0001   1.0003   1.0004
     1.0005   1.0006   1.0006   1.0008   1.0008   1.0010   1.0013   1.0020
     1.0033   1.0050   1.0059   1.0068   1.0082   1.0089   1.0107   1.0114
     1.0122   1.0139   1.0169   1.0175   1.0184   1.0262   1.0292   1.0315
     1.0325   1.0327   1.0337   1.0350   1.0354   1.0258   1.0240   1.0213
     1.0074   0.9848   0.9778   0.9643   0.9557   0.9155   0.9092   0.8570
     0.7110   0.6488   0.6040   0.5948   0.5801   0.5413   0.4907   0.4250
     0.3975   0.3503   0.2618   0.2373   0.1345   0.1052   0.0759   0.0321
     0.0045  -0.0043  -0.0076  -0.0202  -0.0248  -0.0323  -0.0339  -0.0354
    -0.0351  -0.0341  -0.0322  -0.0308  -0.0300  -0.0234  -0.0232  -0.0214
    -0.0188  -0.0153  -0.0136  -0.0096  -0.0091  -0.0089  -0.0086  -0.0085
    -0.0064  -0.0039  -0.0028  -0.0015

          k = 0.0000 0.2500 0.0000 ( 48187 PWs)   bands (ev):

    -3.3945  -3.0663  -3.0607  -3.0600  -3.0430  -2.7810  -2.7798  -2.6324
    -2.5985  -2.3373  -2.0005  -1.9995  -1.9093  -1.7737  -1.7720  -1.7347
    -1.5750  -1.5314  -1.5310  -1.4089  -1.3770  -0.6947  -0.6432  -0.6429
    -0.3965  -0.3028  -0.1175  -0.1169  -0.0968  -0.0005   0.1146   0.1147
     0.1857   0.3594   0.3603   0.3684   0.5823   1.1490   1.2148   1.2156
     1.2414   1.2984   1.2989   1.4390   1.6734   1.9594   2.3162   2.3167
     2.3734   2.4445   2.6069   2.6224   2.6367   2.6373   2.7857   2.7865
     2.9305   2.9742   2.9748   3.1822   3.2247   3.5166   3.6266   3.6821
     3.6825   3.7126   3.7130   3.7802   3.8744   4.3693   4.6470   4.6782
     4.6788   4.7349   4.8374   4.8383   4.9356   4.9364   5.0163   5.0832
     5.1067   5.1817   5.2030   5.2043   5.2404   5.2970   5.2976   5.3338
     5.3371   5.3740   5.4125   5.4128   5.6866   5.6925   5.6932   5.7417
     5.7689   5.8664   5.8681   5.9167   5.9933   6.0591   6.1126   6.1136
     6.1510   6.1516   6.1707   6.2235   6.2371   6.2928   6.3747   6.4948
     6.4951   6.5380   6.8088   6.8783   6.8792   6.8808   6.8829   6.9258
     6.9263   6.9745   7.1144   7.1148   7.1339   7.1777   7.2069   7.2804
     7.2808   7.3315   7.3321   7.4561   7.5591   7.6118   7.6131   7.6151
     7.6520   7.6532   7.6769   7.6917   7.6927   7.7660   7.7770   7.7783
     7.7960   7.7990   7.8415   7.8975   7.8987   7.9430   7.9634   7.9702
     7.9712   8.1128   8.1374   8.1966   8.1977   8.2693   8.3610   8.3686
     8.3691   8.4837   8.6307   8.6603   8.7355   8.7414   8.7420   8.8105
     8.8111   8.8421   9.0275   9.2090   9.2095   9.2552   9.2630   9.3003
     9.3009   9.3203   9.3424   9.3569

     occupation numbers 
     1.0000   1.0000   1.0000   1.0000   1.0000   1.0000   1.0000   1.0000
     1.0000   1.0000   1.0000   1.0000   1.0000   1.0000   1.0000   1.0000
     1.0000   1.0000   1.0000   1.0000   1.0000   1.0000   1.0000   1.0000
     1.0000   1.0000   1.0000   1.0000   1.0000   1.0000   1.0000   1.0000
     1.0000   1.0000   1.0000   1.0000   1.0000   1.0000   1.0000   1.0000
     1.0000   1.0000   1.0000   1.0000   1.0000   1.0000   1.0000   1.0000
     1.0000   1.0000   1.0000   1.0000   1.0000   1.0000   1.0000   1.0000
     1.0000   1.0000   1.0000   1.0000   1.0000   1.0000   1.0000   1.0000
     1.0000   1.0000   1.0000   1.0000   1.0000   1.0000   1.0000   1.0000
     1.0000   1.0000   1.0000   1.0000   1.0000   1.0000   1.0000   1.0000
     1.0000   1.0000   1.0000   1.0000   1.0000   1.0000   1.0000   1.0000
     1.0000   1.0000   1.0000   1.0000   1.0000   1.0000   1.0000   1.0000
     1.0000   1.0000   1.0001   1.0001   1.0002   1.0003   1.0004   1.0005
     1.0006   1.0006   1.0007   1.0011   1.0012   1.0018   1.0031   1.0065
     1.0065   1.0082   1.0258   1.0308   1.0309   1.0310   1.0311   1.0336
     1.0336   1.0352   1.0281   1.0280   1.0250   1.0156   1.0073   0.9776
     0.9774   0.9489   0.9485   0.8486   0.7346   0.6676   0.6659   0.6632
     0.6136   0.6119   0.5791   0.5585   0.5572   0.4539   0.4385   0.4368
     0.4122   0.4080   0.3501   0.2778   0.2762   0.2233   0.2005   0.1930
     0.1919   0.0659   0.0497   0.0175   0.0169  -0.0102  -0.0293  -0.0302
    -0.0303  -0.0354  -0.0278  -0.0256  -0.0199  -0.0194  -0.0194  -0.0146
    -0.0146  -0.0127  -0.0047  -0.0014  -0.0014  -0.0010  -0.0009  -0.0007
    -0.0007  -0.0006  -0.0005  -0.0004

          k = 0.0000 0.2500 0.2500 ( 48142 PWs)   bands (ev):

    -3.3730  -3.2028  -3.0441  -3.0344  -2.9157  -2.8542  -2.8214  -2.5247
    -2.4886  -2.4227  -2.1254  -2.0301  -1.9410  -1.8541  -1.8457  -1.7561
    -1.5493  -1.4225  -1.3719  -1.2644  -1.2000  -0.8045  -0.7843  -0.7798
    -0.5110  -0.3424  -0.2305  -0.0887  -0.0744  -0.0544   0.0648   0.1578
     0.3564   0.4453   0.4556   0.7075   0.7569   0.8005   0.8525   1.0683
     1.1424   1.5461   1.6692   1.6859   1.7701   1.9356   1.9398   1.9820
     2.3297   2.3552   2.4496   2.5245   2.5965   2.6220   2.7592   2.9050
     3.0195   3.0792   3.1095   3.3149   3.3194   3.3901   3.4702   3.6285
     3.6403   4.0279   4.0465   4.3166   4.3801   4.3997   4.4428   4.5421
     4.6345   4.6846   4.7024   4.7160   4.7598   4.7673   4.8365   4.8509
     4.8631   4.9117   4.9378   4.9853   5.1083   5.1964   5.2012   5.2899
     5.4042   5.5320   5.6336   5.6351   5.6938   5.7393   5.7527   5.7731
     5.8491   5.8678   5.8871   5.9181   6.0060   6.0811   6.1202   6.1489
     6.2125   6.2386   6.2798   6.3700   6.4275   6.4748   6.4951   6.5578
     6.6344   6.7204   6.7950   6.8074   6.8173   6.8914   6.8947   6.9262
     6.9433   6.9974   7.0216   7.0394   7.0591   7.0741   7.1593   7.1903
     7.2922   7.3000   7.3231   7.3555   7.4296   7.4311   7.4924   7.5116
     7.5509   7.5850   7.5973   7.6230   7.6790   7.7307   7.8340   7.9233
     7.9401   7.9674   7.9806   7.9958   8.0054   8.0443   8.0450   8.0940
     8.1927   8.2082   8.2446   8.2767   8.3137   8.3333   8.3408   8.3967
     8.4153   8.4973   8.5018   8.5699   8.6131   8.6545   8.6554   8.6813
     8.7257   8.7477   8.9804   9.0281   9.0814   9.1029   9.1581   9.1750
     9.2154   9.2530   9.2966   9.3030

     occupation numbers 
     1.0000   1.0000   1.0000   1.0000   1.0000   1.0000   1.0000   1.0000
     1.0000   1.0000   1.0000   1.0000   1.0000   1.0000   1.0000   1.0000
     1.0000   1.0000   1.0000   1.0000   1.0000   1.0000   1.0000   1.0000
     1.0000   1.0000   1.0000   1.0000   1.0000   1.0000   1.0000   1.0000
     1.0000   1.0000   1.0000   1.0000   1.0000   1.0000   1.0000   1.0000
     1.0000   1.0000   1.0000   1.0000   1.0000   1.0000   1.0000   1.0000
     1.0000   1.0000   1.0000   1.0000   1.0000   1.0000   1.0000   1.0000
     1.0000   1.0000   1.0000   1.0000   1.0000   1.0000   1.0000   1.0000
     1.0000   1.0000   1.0000   1.0000   1.0000   1.0000   1.0000   1.0000
     1.0000   1.0000   1.0000   1.0000   1.0000   1.0000   1.0000   1.0000
     1.0000   1.0000   1.0000   1.0000   1.0000   1.0000   1.0000   1.0000
     1.0000   1.0000   1.0000   1.0000   1.0000   1.0000   1.0000   1.0000
     1.0000   1.0001   1.0001   1.0001   1.0002   1.0003   1.0005   1.0006
     1.0010   1.0012   1.0016   1.0030   1.0043   1.0058   1.0065   1.0091
     1.0132   1.0191   1.0247   1.0257   1.0264   1.0317   1.0319   1.0336
     1.0343   1.0355   1.0352   1.0347   1.0337   1.0326   1.0200   1.0123
     0.9715   0.9674   0.9541   0.9329   0.8735   0.8721   0.8113   0.7903
     0.7445   0.7022   0.6865   0.6527   0.5762   0.5037   0.3601   0.2464
     0.2267   0.1960   0.1819   0.1661   0.1565   0.1200   0.1194   0.0794
     0.0193   0.0122  -0.0022  -0.0124  -0.0214  -0.0251  -0.0264  -0.0329
    -0.0341  -0.0351  -0.0350  -0.0320  -0.0291  -0.0261  -0.0260  -0.0240
    -0.0206  -0.0190  -0.0062  -0.0046  -0.0033  -0.0029  -0.0020  -0.0018
    -0.0013  -0.0010  -0.0007  -0.0007

          k = 0.0000 0.2500-0.5000 ( 48222 PWs)   bands (ev):

    -3.3120  -3.3054  -3.0176  -2.9887  -2.9635  -2.9152  -2.6633  -2.6239
    -2.3651  -2.3503  -2.2772  -2.1312  -1.9838  -1.8849  -1.8658  -1.8274
    -1.3680  -1.3280  -1.2816  -1.0709  -1.0359  -1.0047  -0.8209  -0.8127
    -0.7624  -0.6558  -0.1840  -0.0943  -0.0681   0.0172   0.2131   0.2523
     0.3743   0.4373   0.5545   0.6362   0.6756   0.8693   1.0347   1.0516
     1.3505   1.3796   1.3868   1.4928   2.0039   2.0186   2.0362   2.1806
     2.2233   2.3407   2.3429   2.4045   2.4268   2.5181   2.5906   2.6467
     3.0365   3.0842   3.0910   3.1819   3.7192   3.7844   3.9875   4.0183
     4.0265   4.0414   4.0876   4.2028   4.2081   4.2184   4.3616   4.3739
     4.4270   4.4950   4.5212   4.6165   4.7302   4.7348   4.7839   4.8085
     4.8475   4.9586   4.9942   5.0449   5.0726   5.0982   5.1135   5.2046
     5.3263   5.3424   5.4022   5.5130   5.5714   5.6976   5.7248   5.7392
     5.8010   5.8144   6.1223   6.1689   6.2401   6.2455   6.2533   6.3847
     6.3957   6.4318   6.5166   6.5274   6.5409   6.5669   6.5706   6.6054
     6.6301   6.6785   6.7280   6.7367   6.7825   6.7952   6.8082   6.8268
     6.8520   6.9100   6.9371   6.9383   6.9555   7.0216   7.1003   7.2253
     7.3101   7.3128   7.3541   7.4047   7.4331   7.4521   7.4661   7.5623
     7.6103   7.6522   7.6528   7.6880   7.7494   7.7511   7.7779   7.8015
     7.8085   7.8919   7.9543   7.9704   7.9814   8.0141   8.0341   8.1302
     8.1349   8.1405   8.2306   8.2393   8.2515   8.4576   8.4921   8.5538
     8.5576   8.6030   8.6198   8.6588   8.7169   8.7459   8.7802   8.8138
     8.8381   8.8477   8.8657   8.9123   8.9129   8.9470   8.9528   9.0053
     9.0361   9.0694   9.0858   9.1236

     occupation numbers 
     1.0000   1.0000   1.0000   1.0000   1.0000   1.0000   1.0000   1.0000
     1.0000   1.0000   1.0000   1.0000   1.0000   1.0000   1.0000   1.0000
     1.0000   1.0000   1.0000   1.0000   1.0000   1.0000   1.0000   1.0000
     1.0000   1.0000   1.0000   1.0000   1.0000   1.0000   1.0000   1.0000
     1.0000   1.0000   1.0000   1.0000   1.0000   1.0000   1.0000   1.0000
     1.0000   1.0000   1.0000   1.0000   1.0000   1.0000   1.0000   1.0000
     1.0000   1.0000   1.0000   1.0000   1.0000   1.0000   1.0000   1.0000
     1.0000   1.0000   1.0000   1.0000   1.0000   1.0000   1.0000   1.0000
     1.0000   1.0000   1.0000   1.0000   1.0000   1.0000   1.0000   1.0000
     1.0000   1.0000   1.0000   1.0000   1.0000   1.0000   1.0000   1.0000
     1.0000   1.0000   1.0000   1.0000   1.0000   1.0000   1.0000   1.0000
     1.0000   1.0000   1.0000   1.0000   1.0000   1.0000   1.0000   1.0000
     1.0000   1.0000   1.0005   1.0007   1.0012   1.0013   1.0013   1.0033
     1.0036   1.0045   1.0073   1.0077   1.0083   1.0095   1.0097   1.0116
     1.0130   1.0161   1.0196   1.0203   1.0238   1.0248   1.0258   1.0272
     1.0290   1.0327   1.0341   1.0341   1.0347   1.0352   1.0299   1.0011
     0.9617   0.9602   0.9338   0.8951   0.8703   0.8524   0.8386   0.7307
     0.6696   0.6133   0.6125   0.5637   0.4774   0.4750   0.4373   0.4046
     0.3948   0.2848   0.2106   0.1928   0.1811   0.1480   0.1292   0.0543
     0.0513   0.0478   0.0029  -0.0003  -0.0046  -0.0354  -0.0352  -0.0329
    -0.0327  -0.0298  -0.0286  -0.0257  -0.0213  -0.0191  -0.0166  -0.0144
    -0.0129  -0.0123  -0.0113  -0.0089  -0.0089  -0.0074  -0.0072  -0.0053
    -0.0044  -0.0036  -0.0032  -0.0025

          k = 0.0000 0.2500-0.2500 ( 48142 PWs)   bands (ev):

    -3.3730  -3.2028  -3.0441  -3.0344  -2.9157  -2.8542  -2.8214  -2.5247
[...]
     atom   20 type  1   force =     0.00000000    0.00000000    0.00000000
     atom   21 type  1   force =     0.00000000    0.00000000    0.00000000
     atom   22 type  1   force =     0.00000000    0.00000000    0.00000000
     atom   23 type  1   force =     0.00000000    0.00000000    0.00000000
     atom   24 type  1   force =     0.00000000    0.00000000    0.00000000
     atom   25 type  1   force =     0.00000000    0.00000000    0.00000000
     atom   26 type  1   force =     0.00000000    0.00000000    0.00000000
     atom   27 type  1   force =     0.00000000    0.00000000    0.00000000
     atom   28 type  1   force =     0.00000000    0.00000000    0.00000000
     atom   29 type  1   force =     0.00000000    0.00000000    0.00000000
     atom   30 type  1   force =     0.00000000    0.00000000    0.00000000
     atom   31 type  1   force =     0.00000000    0.00000000    0.00000000
     atom   32 type  1   force =     0.00000000    0.00000000    0.00000000
     atom   33 type  1   force =     0.00000000    0.00000000    0.00000000
     atom   34 type  1   force =     0.00000000    0.00000000    0.00000000
     atom   35 type  1   force =     0.00000000    0.00000000    0.00000000
     atom   36 type  1   force =     0.00000000    0.00000000    0.00000000
     atom   37 type  1   force =     0.00000000    0.00000000    0.00000000
     atom   38 type  1   force =     0.00000000    0.00000000    0.00000000
     atom   39 type  1   force =     0.00000000    0.00000000    0.00000000
     atom   40 type  1   force =     0.00000000    0.00000000    0.00000000
     atom   41 type  1   force =     0.00000000    0.00000000    0.00000000
     atom   42 type  1   force =     0.00000000    0.00000000    0.00000000
     atom   43 type  1   force =     0.00000000    0.00000000    0.00000000
     atom   44 type  1   force =     0.00000000    0.00000000    0.00000000
     atom   45 type  1   force =     0.00000000    0.00000000    0.00000000
     atom   46 type  1   force =     0.00000000    0.00000000    0.00000000
     atom   47 type  1   force =     0.00000000    0.00000000    0.00000000
     atom   48 type  1   force =     0.00000000    0.00000000    0.00000000
     atom   49 type  1   force =     0.00000000    0.00000000    0.00000000
     atom   50 type  1   force =     0.00000000    0.00000000    0.00000000
     atom   51 type  1   force =     0.00000000    0.00000000    0.00000000
     atom   52 type  1   force =     0.00000000    0.00000000    0.00000000
     atom   53 type  1   force =     0.00000000    0.00000000    0.00000000
     atom   54 type  1   force =     0.00000000    0.00000000    0.00000000
     atom   55 type  1   force =     0.00000000    0.00000000    0.00000000
     atom   56 type  1   force =     0.00000000    0.00000000    0.00000000
     atom   57 type  1   force =     0.00000000    0.00000000    0.00000000
     atom   58 type  1   force =     0.00000000    0.00000000    0.00000000
     atom   59 type  1   force =     0.00000000    0.00000000    0.00000000
     atom   60 type  1   force =     0.00000000    0.00000000    0.00000000
     atom   61 type  1   force =     0.00000000    0.00000000    0.00000000
     atom   62 type  1   force =     0.00000000    0.00000000    0.00000000
     atom   63 type  1   force =     0.00000000    0.00000000    0.00000000
     atom   64 type  1   force =     0.00000000    0.00000000    0.00000000
     atom   65 type  1   force =     0.00000000    0.00000000    0.00000000
     atom   66 type  1   force =     0.00000000    0.00000000    0.00000000
     atom   67 type  1   force =     0.00000000    0.00000000    0.00000000
     atom   68 type  1   force =     0.00000000    0.00000000    0.00000000
     atom   69 type  1   force =     0.00000000    0.00000000    0.00000000
     atom   70 type  1   force =     0.00000000    0.00000000    0.00000000
     atom   71 type  1   force =     0.00000000    0.00000000    0.00000000
     atom   72 type  1   force =     0.00000000    0.00000000    0.00000000
     atom   73 type  1   force =     0.00000000    0.00000000    0.00000000
     atom   74 type  1   force =     0.00000000    0.00000000    0.00000000
     atom   75 type  1   force =     0.00000000    0.00000000    0.00000000
     atom   76 type  1   force =     0.00000000    0.00000000    0.00000000
     atom   77 type  1   force =     0.00000000    0.00000000    0.00000000
     atom   78 type  1   force =     0.00000000    0.00000000    0.00000000
     atom   79 type  1   force =     0.00000000    0.00000000    0.00000000
     atom   80 type  1   force =     0.00000000    0.00000000    0.00000000
     atom   81 type  1   force =     0.00000000    0.00000000    0.00000000
     atom   82 type  1   force =     0.00000000    0.00000000    0.00000000
     atom   83 type  1   force =     0.00000000    0.00000000    0.00000000
     atom   84 type  1   force =     0.00000000    0.00000000    0.00000000
     atom   85 type  1   force =     0.00000000    0.00000000    0.00000000
     atom   86 type  1   force =     0.00000000    0.00000000    0.00000000
     atom   87 type  1   force =     0.00000000    0.00000000    0.00000000
     atom   88 type  1   force =     0.00000000    0.00000000    0.00000000
     atom   89 type  1   force =     0.00000000    0.00000000    0.00000000
     atom   90 type  2   force =     0.00000000    0.00000000    0.00000000
     atom   91 type  2   force =     0.00000000    0.00000000    0.00000000
     atom   92 type  1   force =     0.00000000    0.00000000    0.00000000
     atom   93 type  3   force =     0.00000000    0.00000000    0.00000000
     atom   94 type  3   force =     0.00000000    0.00000000    0.00000000
     atom   95 type  2   force =     0.00000000    0.00000000    0.00000000
     atom   96 type  2   force =     0.00000000    0.00000000    0.00000000
     atom   97 type  2   force =     0.00000000    0.00000000    0.00000000
     atom   98 type  3   force =     0.00000000    0.00000000    0.00000000
     atom   99 type  3   force =     0.00000000    0.00000000    0.00000000
     atom  100 type  1   force =     0.00000000    0.00000000    0.00000000
     The SCF correction term to forces
     atom    1 type  1   force =    -0.00000001    0.00000000   -0.00000001
     atom    2 type  1   force =     0.00000000   -0.00000000    0.00000000
     atom    3 type  1   force =    -0.00000003    0.00000000   -0.00000004
     atom    4 type  1   force =    -0.00000000   -0.00000000   -0.00000003
     atom    5 type  1   force =    -0.00000004   -0.00000000   -0.00000003
     atom    6 type  1   force =    -0.00000000   -0.00000000   -0.00000003
     atom    7 type  1   force =    -0.00000004   -0.00000000    0.00000001
     atom    8 type  1   force =    -0.00000000    0.00000000    0.00000001
     atom    9 type  1   force =    -0.00000004    0.00000000   -0.00000000
     atom   10 type  1   force =    -0.00000000   -0.00000000   -0.00000000
     atom   11 type  1   force =    -0.00000004   -0.00000000   -0.00000001
     atom   12 type  1   force =    -0.00000000    0.00000000   -0.00000001
     atom   13 type  1   force =    -0.00000004    0.00000000    0.00000003
     atom   14 type  1   force =    -0.00000000   -0.00000000    0.00000003
     atom   15 type  1   force =    -0.00000003   -0.00000000    0.00000004
     atom   16 type  1   force =    -0.00000000    0.00000000    0.00000003
     atom   17 type  1   force =    -0.00000001   -0.00000000    0.00000001
     atom   18 type  1   force =    -0.00000000   -0.00000000   -0.00000000
     atom   19 type  1   force =     0.00000000   -0.00000000    0.00000000
     atom   20 type  1   force =     0.00000000    0.00000000   -0.00000000
     atom   21 type  1   force =    -0.00000003   -0.00000000   -0.00000004
     atom   22 type  1   force =    -0.00000004    0.00000000   -0.00000003
     atom   23 type  1   force =    -0.00000002    0.00000000   -0.00000003
     atom   24 type  1   force =    -0.00000005   -0.00000000   -0.00000005
     atom   25 type  1   force =     0.00000001   -0.00000000    0.00000001
     atom   26 type  1   force =    -0.00000003   -0.00000000   -0.00000002
     atom   27 type  1   force =     0.00000004    0.00000000    0.00000003
     atom   28 type  1   force =    -0.00000002   -0.00000000    0.00000001
     atom   29 type  1   force =     0.00000005   -0.00000000   -0.00000000
     atom   30 type  1   force =    -0.00000002    0.00000000   -0.00000000
     atom   31 type  1   force =     0.00000004    0.00000000   -0.00000003
     atom   32 type  1   force =    -0.00000002    0.00000000   -0.00000001
     atom   33 type  1   force =     0.00000001    0.00000000   -0.00000001
     atom   34 type  1   force =    -0.00000003   -0.00000000    0.00000003
     atom   35 type  1   force =    -0.00000002   -0.00000000    0.00000004
     atom   36 type  1   force =    -0.00000004    0.00000000    0.00000005
     atom   37 type  1   force =    -0.00000003    0.00000000    0.00000004
     atom   38 type  1   force =    -0.00000003   -0.00000000    0.00000003
     atom   39 type  1   force =    -0.00000003   -0.00000000   -0.00000000
     atom   40 type  1   force =    -0.00000003   -0.00000000    0.00000000
     atom   41 type  1   force =     0.00000000   -0.00000000   -0.00000004
     atom   42 type  1   force =     0.00000001    0.00000000   -0.00000004
     atom   43 type  1   force =     0.00000000    0.00000000   -0.00000002
     atom   44 type  1   force =     0.00000002   -0.00000000   -0.00000002
     atom   45 type  1   force =     0.00000004   -0.00000000    0.00000004
     atom   46 type  1   force =     0.00000003    0.00000000   -0.00000004
     atom   47 type  1   force =     0.00000000    0.00000000    0.00000002
     atom   48 type  1   force =     0.00000002    0.00000000    0.00000002
     atom   49 type  1   force =     0.00000000    0.00000000    0.00000004
     atom   50 type  1   force =     0.00000001   -0.00000000    0.00000004
     atom   51 type  1   force =     0.00000000   -0.00000000   -0.00000000
     atom   52 type  1   force =     0.00000002    0.00000000   -0.00000000
     atom   53 type  1   force =     0.00000003   -0.00000000   -0.00000004
     atom   54 type  1   force =    -0.00000001    0.00000000   -0.00000004
     atom   55 type  1   force =     0.00000002    0.00000000   -0.00000003
     atom   56 type  1   force =    -0.00000001   -0.00000000   -0.00000002
     atom   57 type  1   force =    -0.00000001    0.00000000    0.00000001
     atom   58 type  1   force =    -0.00000003   -0.00000000    0.00000004
     atom   59 type  1   force =    -0.00000004   -0.00000000    0.00000003
     atom   60 type  1   force =    -0.00000005   -0.00000000   -0.00000000
     atom   61 type  1   force =    -0.00000004    0.00000000   -0.00000003
     atom   62 type  1   force =    -0.00000001   -0.00000000   -0.00000001
     atom   63 type  1   force =    -0.00000003    0.00000000   -0.00000004
     atom   64 type  1   force =     0.00000002    0.00000000    0.00000003
     atom   65 type  1   force =    -0.00000001   -0.00000000    0.00000002
     atom   66 type  1   force =     0.00000002    0.00000000    0.00000004
     atom   67 type  1   force =    -0.00000001   -0.00000000    0.00000004
     atom   68 type  1   force =     0.00000002    0.00000000    0.00000000
     atom   69 type  1   force =    -0.00000001    0.00000000   -0.00000000
     atom   70 type  1   force =     0.00000001   -0.00000000   -0.00000001
     atom   71 type  1   force =     0.00000003    0.00000000   -0.00000003
     atom   72 type  1   force =     0.00000003    0.00000000   -0.00000003
     atom   73 type  1   force =     0.00000004   -0.00000000   -0.00000004
     atom   74 type  1   force =     0.00000003    0.00000000   -0.00000003
     atom   75 type  1   force =     0.00000003   -0.00000000   -0.00000002
     atom   76 type  1   force =     0.00000003   -0.00000000    0.00000001
     atom   77 type  1   force =     0.00000001    0.00000000    0.00000001
     atom   78 type  1   force =     0.00000003    0.00000000   -0.00000000
     atom   79 type  1   force =     0.00000001   -0.00000000   -0.00000000
     atom   80 type  1   force =     0.00000003   -0.00000000   -0.00000001
     atom   81 type  1   force =     0.00000001    0.00000000   -0.00000002
     atom   82 type  1   force =     0.00000003    0.00000000    0.00000003
     atom   83 type  1   force =     0.00000003   -0.00000000    0.00000002
     atom   84 type  1   force =     0.00000002   -0.00000000    0.00000004
     atom   85 type  1   force =     0.00000004    0.00000000    0.00000004
     atom   86 type  1   force =     0.00000001    0.00000000    0.00000001
     atom   87 type  1   force =     0.00000004   -0.00000000    0.00000003
     atom   88 type  1   force =    -0.00000000   -0.00000000   -0.00000000
     atom   89 type  1   force =     0.00000002    0.00000000    0.00000000
     atom   90 type  2   force =     0.00000003   -0.00000000    0.00000003
     atom   91 type  2   force =    -0.00000003   -0.00000000    0.00000003
     atom   92 type  1   force =     0.00000000    0.00000000    0.00000005
     atom   93 type  3   force =     0.00000001    0.00000000    0.00000008
     atom   94 type  3   force =     0.00000009    0.00000000   -0.00000000
     atom   95 type  2   force =     0.00000000    0.00000000   -0.00000000
     atom   96 type  2   force =     0.00000003   -0.00000000   -0.00000003
     atom   97 type  2   force =    -0.00000002    0.00000000   -0.00000003
     atom   98 type  3   force =    -0.00000008   -0.00000000   -0.00000000
     atom   99 type  3   force =     0.00000000    0.00000000   -0.00000008
     atom  100 type  1   force =     0.00000000   -0.00000000   -0.00000004

     Total force =     0.003850     Total SCF correction =     0.000000


     Computing stress (Cartesian axis) and pressure

          total   stress  (Ry/bohr**3)                   (kbar)     P=    1.78
   0.00002699  -0.00000000   0.00000003          3.97     -0.00      0.00
  -0.00000000  -0.00001770   0.00000000         -0.00     -2.60      0.00
   0.00000003   0.00000000   0.00002705          0.00      0.00      3.98

     kinetic stress (kbar)   1456.45     -0.00     -0.00
                               -0.00   1452.05     -0.00
                               -0.00     -0.00   1456.41

     local   stress (kbar)    574.15      0.00     -0.12
                                0.00    449.07     -0.00
                               -0.12     -0.00    572.51

     nonloc. stress (kbar)   1060.38     -0.00     -0.00
                               -0.00   1057.83      0.00
                               -0.00      0.00   1060.40

     hartree stress (kbar)     17.95     -0.00      0.04
                               -0.00     79.26      0.00
                                0.04      0.00     18.66

     exc-cor stress (kbar)    620.91     -0.00      0.00
                               -0.00    620.83     -0.00
                                0.00     -0.00    620.91

     corecor stress (kbar)  -1394.97      0.00     -0.00
                                0.00  -1394.56     -0.00
                               -0.00     -0.00  -1394.98

     ewald   stress (kbar)  -2330.89     -0.00      0.08
                               -0.00  -2267.08      0.00
                                0.08      0.00  -2329.94

     hubbard stress (kbar)      0.00      0.00      0.00
                                0.00      0.00      0.00
                                0.00      0.00      0.00

     london  stress (kbar)      0.00      0.00      0.00
                                0.00      0.00      0.00
                                0.00      0.00      0.00

     DFT-D3  stress (kbar)      0.00      0.00      0.00
                                0.00      0.00      0.00
                                0.00      0.00      0.00

     XDM     stress (kbar)      0.00      0.00      0.00
                                0.00      0.00      0.00
                                0.00      0.00      0.00

     dft-nl  stress (kbar)      0.00      0.00      0.00
                                0.00      0.00      0.00
                                0.00      0.00      0.00

     TS-vdW  stress (kbar)      0.00      0.00      0.00
                                0.00      0.00      0.00
                                0.00      0.00      0.00



     Writing output data file aiida.save/
 
     init_run     :    214.39s CPU    215.98s WALL (       1 calls)
     electrons    :   9570.69s CPU   9635.12s WALL (       1 calls)
     forces       :    101.12s CPU    101.79s WALL (       1 calls)
     stress       :   1361.28s CPU   1367.37s WALL (       1 calls)

     Called by init_run:
     wfcinit      :    209.06s CPU    210.27s WALL (       1 calls)
     wfcinit:atom :      1.13s CPU      1.16s WALL (      41 calls)
     wfcinit:wfcr :    201.50s CPU    202.28s WALL (      41 calls)
     potinit      :      2.02s CPU      2.07s WALL (       1 calls)
     hinit0       :      2.27s CPU      2.33s WALL (       1 calls)

     Called by electrons:
     c_bands      :   8358.33s CPU   8402.22s WALL (      28 calls)
     sum_band     :   1164.12s CPU   1177.22s WALL (      28 calls)
     v_of_rho     :     15.85s CPU     16.67s WALL (      29 calls)
     v_h          :      1.71s CPU      1.72s WALL (      29 calls)
     v_xc         :     15.05s CPU     15.87s WALL (      31 calls)
     newd         :     12.76s CPU     18.84s WALL (      29 calls)
     PAW_pot      :     11.83s CPU     11.95s WALL (      29 calls)
     mix_rho      :      7.03s CPU      7.51s WALL (      28 calls)

     Called by c_bands:
     init_us_2    :    233.32s CPU    233.46s WALL (    2419 calls)
     cegterg      :   7093.89s CPU   7137.14s WALL (    1148 calls)

     Called by sum_band:
     sum_band:bec :      5.58s CPU      5.64s WALL (    1148 calls)
     addusdens    :     12.69s CPU     20.54s WALL (      28 calls)

     Called by *egterg:
     h_psi        :   4638.07s CPU   4656.92s WALL (    4866 calls)
     s_psi        :   1324.59s CPU   1324.79s WALL (    4866 calls)
     g_psi        :     12.95s CPU     12.99s WALL (    3677 calls)
     cdiaghg      :    399.94s CPU    408.00s WALL (    4825 calls)
     cegterg:over :    368.29s CPU    370.64s WALL (    3677 calls)
     cegterg:upda :    254.70s CPU    265.73s WALL (    3677 calls)
     cegterg:last :    122.91s CPU    123.07s WALL (    1166 calls)
     cdiaghg:chol :     20.81s CPU     21.47s WALL (    4825 calls)
     cdiaghg:inve :     10.19s CPU     10.24s WALL (    4825 calls)
     cdiaghg:para :     90.30s CPU     91.62s WALL (    9650 calls)

     Called by h_psi:
     h_psi:pot    :   4613.20s CPU   4631.51s WALL (    4866 calls)
     h_psi:calbec :   1292.45s CPU   1294.32s WALL (    4866 calls)
     vloc_psi     :   2004.63s CPU   2020.60s WALL (    4866 calls)
     add_vuspsi   :   1316.03s CPU   1316.54s WALL (    4866 calls)

     General routines
     calbec       :   1951.63s CPU   1956.41s WALL (    6219 calls)
     fft          :     17.17s CPU     18.04s WALL (     401 calls)
     ffts         :      2.29s CPU      2.32s WALL (     480 calls)
     fftw         :   2050.63s CPU   2067.57s WALL ( 1202926 calls)
     interpolate  :      1.38s CPU      1.48s WALL (      29 calls)
 
     Parallel routines
     fft_scatt_xy :    378.69s CPU    381.53s WALL ( 1203807 calls)
     fft_scatt_yz :    566.35s CPU    571.63s WALL ( 1203807 calls)

     PAW routines
     PAW_pot      :     11.83s CPU     11.95s WALL (      29 calls)
 
     PWSCF        :      3h 8m CPU      3h12m WALL

 
   This run was terminated on:  17:24:40  22Feb2020            

=------------------------------------------------------------------------------=
   JOB DONE.
=------------------------------------------------------------------------------=
