begin
comment uuid: 46939af9-eee4-4d42-a067-25e919f9bf55 trajectory_step: 0
lattice     13.5281847292     0.0000000000    -0.0000000000
lattice     -6.7640923637    11.7157516428     0.0000000000
lattice     -0.0000000000     0.0000000000    23.0167633164
atom      3.4614600000     7.9602890000     1.9109270000   Mg  0.0 0.0       0.0000001750     0.0000000350    -0.0000000850
atom     -1.8604500000    10.7333190000     1.9109270000   Mg  0.0 0.0      -0.0000001150     0.0000001300    -0.0000000900
atom     -1.6010100000     4.7378950000     1.9109270000   Mg  0.0 0.0      -0.0000000550    -0.0000001700    -0.0000000900
atom      2.8320000000     3.2143920000     5.7541910000   Mg  0.0 0.0      -0.0000028200    -0.0000000450    -0.0000000000
atom      9.3284400000     0.8453880000     5.7541910000   Mg  0.0 0.0       0.0000014500    -0.0000024150    -0.0000000000
atom      8.1318380000     7.6559720000     5.7541910000   Mg  0.0 0.0       0.0000013700     0.0000024650    -0.0000000000
atom      3.4614600000     7.9602890000     9.5974540000   Mg  0.0 0.0       0.0000001750     0.0000000350     0.0000000850
atom     -1.8604500000    10.7333190000     9.5974540000   Mg  0.0 0.0      -0.0000001150     0.0000001300     0.0000000900
atom     -1.6010100000     4.7378950000     9.5974540000   Mg  0.0 0.0      -0.0000000550    -0.0000001700     0.0000000850
atom      3.3026330000     3.7554620000    13.4193090000   Mg  0.0 0.0      -0.0000001750    -0.0000000350    -0.0000000850
atom      8.6245420000     0.9824330000    13.4193090000   Mg  0.0 0.0       0.0000001200    -0.0000001300    -0.0000000850
atom      8.3651020000     6.9778570000    13.4193090000   Mg  0.0 0.0       0.0000000550     0.0000001700    -0.0000000850
atom      3.9320930000     8.5013590000    17.2625720000   Mg  0.0 0.0       0.0000028200     0.0000000450    -0.0000000000
atom     -2.5643470000    10.8703640000    17.2625720000   Mg  0.0 0.0      -0.0000014500     0.0000024150     0.0000000000
atom     -1.3677460000     4.0597800000    17.2625720000   Mg  0.0 0.0      -0.0000013700    -0.0000024650     0.0000000000
atom      3.3026330000     3.7554620000    21.1058360000   Mg  0.0 0.0      -0.0000001750    -0.0000000350     0.0000000850
atom      8.6245420000     0.9824330000    21.1058360000   Mg  0.0 0.0       0.0000001150    -0.0000001300     0.0000000850
atom      8.3651020000     6.9778570000    21.1058360000   Mg  0.0 0.0       0.0000000550     0.0000001700     0.0000000850
atom      0.0000000000     0.0000000000     2.3515220000   Si  0.0 0.0      -0.0000000000     0.0000000000     0.0000034400
atom      6.7640920000     3.9052510000     2.0326950000   Si  0.0 0.0      -0.0000000000    -0.0000000000     0.0000061700
atom     -0.0000000000     7.8105010000     5.7541910000   Si  0.0 0.0      -0.0000000000    -0.0000000000    -0.0000000000
atom     -0.0000000000     0.0000000000     9.1568600000   Si  0.0 0.0      -0.0000000000     0.0000000000    -0.0000034450
atom     -0.0000000000     0.0000000000    13.8599030000   Si  0.0 0.0      -0.0000000000     0.0000000000     0.0000034450
atom      6.7640920000     3.9052510000     9.4756860000   Si  0.0 0.0      -0.0000000000    -0.0000000000    -0.0000061700
atom      0.0000000000     7.8105010000    13.5410770000   Si  0.0 0.0       0.0000000000    -0.0000000000     0.0000061700
atom     -0.0000000000    -0.0000000000    20.6652420000   Si  0.0 0.0      -0.0000000000    -0.0000000000    -0.0000034400
atom      6.7640920000     3.9052510000    17.2625720000   Si  0.0 0.0       0.0000000000    -0.0000000000     0.0000000000
atom     -0.0000000000     7.8105010000    20.9840680000   Si  0.0 0.0       0.0000000000     0.0000000000    -0.0000061700
energy -359.770477791
charge 0.0000
end
begin
comment uuid: 46939af9-eee4-4d42-a067-25e919f9bf55 trajectory_step: 1
lattice     13.5442180236     0.0000000000    -0.0000000000
lattice     -6.7721090109    11.7296368817     0.0000000000
lattice     -0.0000000000    -0.0000000000    23.0790132950
atom      3.4654580000     7.9696420000     1.9161490000   Mg  0.0 0.0      -0.0000347500    -0.0000271550     0.0000179200
atom     -1.8625320000    10.7459900000     1.9161490000   Mg  0.0 0.0       0.0000408950    -0.0000165200     0.0000179200
atom     -1.6029250000     4.7436410000     1.9161490000   Mg  0.0 0.0      -0.0000061400     0.0000436750     0.0000179200
atom      2.8353210000     3.2183290000     5.7697530000   Mg  0.0 0.0      -0.0000116200     0.0000425400    -0.0000000000
atom      9.3394020000     0.8462950000     5.7697530000   Mg  0.0 0.0      -0.0000310300    -0.0000313350    -0.0000000000
atom      8.1416030000     7.6650120000     5.7697530000   Mg  0.0 0.0       0.0000426500    -0.0000112050     0.0000000000
atom      3.4654580000     7.9696420000     9.6233570000   Mg  0.0 0.0      -0.0000347500    -0.0000271550    -0.0000179200
atom     -1.8625320000    10.7459900000     9.6233570000   Mg  0.0 0.0       0.0000408950    -0.0000165200    -0.0000179200
atom     -1.6029250000     4.7436410000     9.6233570000   Mg  0.0 0.0      -0.0000061400     0.0000436750    -0.0000179200
atom      3.3066510000     3.7599950000    13.4556560000   Mg  0.0 0.0       0.0000347500     0.0000271550     0.0000179200
atom      8.6346410000     0.9836460000    13.4556560000   Mg  0.0 0.0      -0.0000408950     0.0000165200     0.0000179200
atom      8.3750340000     6.9859960000    13.4556560000   Mg  0.0 0.0       0.0000061400    -0.0000436750     0.0000179200
atom      3.9367880000     8.5113070000    17.3092600000   Mg  0.0 0.0       0.0000116200    -0.0000425400     0.0000000000
atom     -2.5672930000    10.8833410000    17.3092600000   Mg  0.0 0.0       0.0000310300     0.0000313350     0.0000000000
atom     -1.3694940000     4.0646250000    17.3092600000   Mg  0.0 0.0      -0.0000426500     0.0000112050    -0.0000000000
atom      3.3066510000     3.7599950000    21.1628640000   Mg  0.0 0.0       0.0000347500     0.0000271550    -0.0000179200
atom      8.6346410000     0.9836460000    21.1628640000   Mg  0.0 0.0      -0.0000408950     0.0000165200    -0.0000179200
atom      8.3750340000     6.9859960000    21.1628640000   Mg  0.0 0.0       0.0000061400    -0.0000436750    -0.0000179200
atom     -0.0000000000    -0.0000000000     2.3569890000   Si  0.0 0.0      -0.0000000000    -0.0000000000    -0.0002966250
atom      6.7721090000     3.9098790000     2.0377310000   Si  0.0 0.0       0.0000000000    -0.0000000000    -0.0001537000
atom      0.0000000000     7.8197580000     5.7697530000   Si  0.0 0.0       0.0000000000     0.0000000000     0.0000000000
atom     -0.0000000000     0.0000000000     9.1825180000   Si  0.0 0.0      -0.0000000000    -0.0000000000     0.0002966250
atom     -0.0000000000     0.0000000000    13.8964950000   Si  0.0 0.0       0.0000000000     0.0000000000    -0.0002966250
atom      6.7721090000     3.9098790000     9.5017760000   Si  0.0 0.0      -0.0000000000    -0.0000000000     0.0001537000
atom      0.0000000000     7.8197580000    13.5772370000   Si  0.0 0.0       0.0000000000     0.0000000000    -0.0001537000
atom     -0.0000000000     0.0000000000    20.7220240000   Si  0.0 0.0       0.0000000000     0.0000000000     0.0002966250
atom      6.7721090000     3.9098790000    17.3092600000   Si  0.0 0.0      -0.0000000000    -0.0000000000    -0.0000000000
atom     -0.0000000000     7.8197580000    21.0412830000   Si  0.0 0.0      -0.0000000000     0.0000000000     0.0001537000
energy -359.771037906
charge 0.0000
end
begin
comment uuid: 46939af9-eee4-4d42-a067-25e919f9bf55 trajectory_step: 2
lattice     13.5622577045     0.0000000019    -0.0000000000
lattice     -6.7811288513    11.7452597049    -0.0000000000
lattice     -0.0000000000    -0.0000000000    23.1648191727
atom      3.4697240000     7.9799510000     1.9234590000   Mg  0.0 0.0      -0.0000665250    -0.0000591850     0.0000351150
atom     -1.8645730000    10.7601530000     1.9234590000   Mg  0.0 0.0       0.0000845150    -0.0000280200     0.0000351150
atom     -1.6051510000     4.7504150000     1.9234590000   Mg  0.0 0.0      -0.0000179900     0.0000872050     0.0000351150
atom      2.8390030000     3.2230080000     5.7912050000   Mg  0.0 0.0      -0.0000173650     0.0000737100    -0.0000000000
atom      9.3515490000     0.8471440000     5.7912050000   Mg  0.0 0.0      -0.0000551500    -0.0000518950    -0.0000000000
atom      8.1528350000     7.6751070000     5.7912050000   Mg  0.0 0.0       0.0000725150    -0.0000218150    -0.0000000000
atom      3.4697240000     7.9799510000     9.6589510000   Mg  0.0 0.0      -0.0000665250    -0.0000591850    -0.0000351150
atom     -1.8645730000    10.7601530000     9.6589510000   Mg  0.0 0.0       0.0000845200    -0.0000280200    -0.0000351150
atom     -1.6051510000     4.7504150000     9.6589510000   Mg  0.0 0.0      -0.0000179900     0.0000872050    -0.0000351150
atom      3.3114050000     3.7653090000    13.5058690000   Mg  0.0 0.0       0.0000665250     0.0000591850     0.0000351150
atom      8.6457020000     0.9851060000    13.5058690000   Mg  0.0 0.0      -0.0000845200     0.0000280200     0.0000351150
atom      8.3862800000     6.9948450000    13.5058690000   Mg  0.0 0.0       0.0000179900    -0.0000872050     0.0000351150
atom      3.9421260000     8.5222510000    17.3736140000   Mg  0.0 0.0       0.0000173650    -0.0000737100     0.0000000000
atom     -2.5704200000    10.8981150000    17.3736140000   Mg  0.0 0.0       0.0000551500     0.0000518950     0.0000000000
atom     -1.3717060000     4.0701530000    17.3736140000   Mg  0.0 0.0      -0.0000725150     0.0000218150     0.0000000000
atom      3.3114050000     3.7653090000    21.2413600000   Mg  0.0 0.0       0.0000665250     0.0000591850    -0.0000351150
atom      8.6457020000     0.9851060000    21.2413600000   Mg  0.0 0.0      -0.0000845150     0.0000280200    -0.0000351150
atom      8.3862800000     6.9948450000    21.2413600000   Mg  0.0 0.0       0.0000179900    -0.0000872050    -0.0000351150
atom      0.0000000000    -0.0000000000     2.3628860000   Si  0.0 0.0       0.0000000000    -0.0000000000    -0.0005372900
atom      6.7811290000     3.9150870000     2.0437650000   Si  0.0 0.0       0.0000000000     0.0000000000    -0.0002907100
atom      0.0000000000     7.8301730000     5.7912050000   Si  0.0 0.0      -0.0000000000    -0.0000000000     0.0000000000
atom     -0.0000000000    -0.0000000000     9.2195240000   Si  0.0 0.0      -0.0000000000     0.0000000000     0.0005372900
atom     -0.0000000000     0.0000000000    13.9452960000   Si  0.0 0.0       0.0000000000    -0.0000000000    -0.0005372900
atom      6.7811290000     3.9150870000     9.5386440000   Si  0.0 0.0      -0.0000000000    -0.0000000000     0.0002907100
atom      0.0000000000     7.8301730000    13.6261750000   Si  0.0 0.0      -0.0000000000     0.0000000000    -0.0002907100
atom     -0.0000000000     0.0000000000    20.8019330000   Si  0.0 0.0      -0.0000000000     0.0000000000     0.0005372900
atom      6.7811290000     3.9150870000    17.3736140000   Si  0.0 0.0       0.0000000000     0.0000000000    -0.0000000000
atom     -0.0000000000     7.8301730000    21.1210540000   Si  0.0 0.0      -0.0000000000    -0.0000000000     0.0002907100
energy -359.771418371
charge 0.0000
end
begin
comment uuid: 46939af9-eee4-4d42-a067-25e919f9bf55 trajectory_step: 3
lattice     13.5611674950     0.0000000019    -0.0000000000
lattice     -6.7805837466    11.7443155562    -0.0000000000
lattice     -0.0000000000    -0.0000000000    23.1753643811
atom      3.4692190000     7.9790690000     1.9244610000   Mg  0.0 0.0      -0.0000969950    -0.0001046350     0.0000539650
atom     -1.8641020000    10.7592130000     1.9244610000   Mg  0.0 0.0       0.0001391100    -0.0000316850     0.0000539650
atom     -1.6051170000     4.7503490000     1.9244610000   Mg  0.0 0.0      -0.0000421150     0.0001363150     0.0000539650
atom      2.8387290000     3.2229620000     5.7938410000   Mg  0.0 0.0      -0.0000188450     0.0000895600     0.0000000000
atom      9.3506360000     0.8469300000     5.7938410000   Mg  0.0 0.0      -0.0000681400    -0.0000611000    -0.0000000000
atom      8.1523860000     7.6744230000     5.7938410000   Mg  0.0 0.0       0.0000869850    -0.0000284600     0.0000000000
atom      3.4692190000     7.9790690000     9.6632210000   Mg  0.0 0.0      -0.0000969950    -0.0001046350    -0.0000539650
atom     -1.8641020000    10.7592130000     9.6632210000   Mg  0.0 0.0       0.0001391100    -0.0000316850    -0.0000539650
atom     -1.6051170000     4.7503490000     9.6632210000   Mg  0.0 0.0      -0.0000421150     0.0001363150    -0.0000539650
atom      3.3113650000     3.7652470000    13.5121430000   Mg  0.0 0.0       0.0000969950     0.0001046350     0.0000539650
atom      8.6446860000     0.9851030000    13.5121430000   Mg  0.0 0.0      -0.0001391100     0.0000316850     0.0000539650
atom      8.3857000000     6.9939660000    13.5121430000   Mg  0.0 0.0       0.0000421150    -0.0001363150     0.0000539650
atom      3.9418550000     8.5213540000    17.3815230000   Mg  0.0 0.0       0.0000188450    -0.0000895600    -0.0000000000
atom     -2.5700520000    10.8973850000    17.3815230000   Mg  0.0 0.0       0.0000681400     0.0000611000     0.0000000000
atom     -1.3718030000     4.0698920000    17.3815230000   Mg  0.0 0.0      -0.0000869850     0.0000284600    -0.0000000000
atom      3.3113650000     3.7652470000    21.2509030000   Mg  0.0 0.0       0.0000969950     0.0001046350    -0.0000539650
atom      8.6446860000     0.9851030000    21.2509030000   Mg  0.0 0.0      -0.0001391100     0.0000316850    -0.0000539650
atom      8.3857000000     6.9939660000    21.2509030000   Mg  0.0 0.0       0.0000421150    -0.0001363150    -0.0000539650
atom      0.0000000000    -0.0000000000     2.3622510000   Si  0.0 0.0      -0.0000000000     0.0000000000    -0.0007202499
atom      6.7805840000     3.9147720000     2.0437260000   Si  0.0 0.0      -0.0000000000    -0.0000000000    -0.0004101750
atom      0.0000000000     7.8295440000     5.7938410000   Si  0.0 0.0      -0.0000000000    -0.0000000000     0.0000000000
atom     -0.0000000000    -0.0000000000     9.2254320000   Si  0.0 0.0       0.0000000000     0.0000000000     0.0007202499
atom     -0.0000000000     0.0000000000    13.9499330000   Si  0.0 0.0      -0.0000000000    -0.0000000000    -0.0007202499
atom      6.7805840000     3.9147720000     9.5439560000   Si  0.0 0.0      -0.0000000000     0.0000000000     0.0004101750
atom      0.0000000000     7.8295440000    13.6314080000   Si  0.0 0.0       0.0000000000    -0.0000000000    -0.0004101750
atom     -0.0000000000     0.0000000000    20.8131140000   Si  0.0 0.0       0.0000000000     0.0000000000     0.0007202499
atom      6.7805840000     3.9147720000    17.3815230000   Si  0.0 0.0      -0.0000000000     0.0000000000    -0.0000000000
atom     -0.0000000000     7.8295440000    21.1316380000   Si  0.0 0.0       0.0000000000     0.0000000000     0.0004101750
energy -359.771612526
charge 0.0000
end
begin
comment uuid: 46939af9-eee4-4d42-a067-25e919f9bf55 trajectory_step: 4
lattice     13.5563894397     0.0000000019    -0.0000000000
lattice     -6.7781947189    11.7401776380     0.0000000000
lattice     -0.0000000000    -0.0000000000    23.1911821919
atom      3.4674350000     7.9756120000     1.9260960000   Mg  0.0 0.0      -0.0000933550    -0.0001104450     0.0000530700
atom     -1.8626050000    10.7552580000     1.9260960000   Mg  0.0 0.0       0.0001423250    -0.0000256250     0.0000530700
atom     -1.6048290000     4.7494850000     1.9260960000   Mg  0.0 0.0      -0.0000489700     0.0001360700     0.0000530700
atom      2.8376440000     3.2222690000     5.7977960000   Mg  0.0 0.0      -0.0000123100     0.0000680900     0.0000000000
atom      9.3470010000     0.8463370000     5.7977960000   Mg  0.0 0.0      -0.0000528150    -0.0000447050    -0.0000000000
atom      8.1499390000     7.6715720000     5.7977960000   Mg  0.0 0.0       0.0000651200    -0.0000233850     0.0000000000
atom      3.4674350000     7.9756120000     9.6694950000   Mg  0.0 0.0      -0.0000933550    -0.0001104450    -0.0000530700
atom     -1.8626050000    10.7552580000     9.6694950000   Mg  0.0 0.0       0.0001423250    -0.0000256250    -0.0000530700
atom     -1.6048290000     4.7494850000     9.6694950000   Mg  0.0 0.0      -0.0000489700     0.0001360700    -0.0000530700
atom      3.3107600000     3.7645650000    13.5216870000   Mg  0.0 0.0       0.0000933550     0.0001104450     0.0000530700
atom      8.6408000000     0.9849200000    13.5216870000   Mg  0.0 0.0      -0.0001423250     0.0000256250     0.0000530700
atom      8.3830240000     6.9906930000    13.5216870000   Mg  0.0 0.0       0.0000489700    -0.0001360700     0.0000530700
atom      3.9405510000     8.5179090000    17.3933870000   Mg  0.0 0.0       0.0000123100    -0.0000680900    -0.0000000000
atom     -2.5688060000    10.8938400000    17.3933870000   Mg  0.0 0.0       0.0000528150     0.0000447050    -0.0000000000
atom     -1.3717450000     4.0686060000    17.3933870000   Mg  0.0 0.0      -0.0000651200     0.0000233850    -0.0000000000
atom      3.3107600000     3.7645650000    21.2650870000   Mg  0.0 0.0       0.0000933550     0.0001104450    -0.0000530700
atom      8.6408000000     0.9849200000    21.2650870000   Mg  0.0 0.0      -0.0001423250     0.0000256250    -0.0000530700
atom      8.3830240000     6.9906930000    21.2650870000   Mg  0.0 0.0       0.0000489700    -0.0001360700    -0.0000530700
atom     -0.0000000000    -0.0000000000     2.3599090000   Si  0.0 0.0      -0.0000000000     0.0000000000    -0.0006304749
atom      6.7781950000     3.9133930000     2.0428290000   Si  0.0 0.0      -0.0000000000    -0.0000000000    -0.0003693900
atom      0.0000000000     7.8267850000     5.7977960000   Si  0.0 0.0       0.0000000000     0.0000000000     0.0000000000
atom      0.0000000000    -0.0000000000     9.2356820000   Si  0.0 0.0       0.0000000000    -0.0000000000     0.0006304749
atom     -0.0000000000     0.0000000000    13.9555000000   Si  0.0 0.0      -0.0000000000     0.0000000000    -0.0006304749
atom      6.7781950000     3.9133930000     9.5527630000   Si  0.0 0.0       0.0000000000     0.0000000000     0.0003693900
atom      0.0000000000     7.8267850000    13.6384200000   Si  0.0 0.0      -0.0000000000    -0.0000000000    -0.0003693900
atom     -0.0000000000     0.0000000000    20.8312730000   Si  0.0 0.0       0.0000000000    -0.0000000000     0.0006304749
atom      6.7781950000     3.9133930000    17.3933870000   Si  0.0 0.0      -0.0000000000    -0.0000000000    -0.0000000000
atom     -0.0000000000     7.8267850000    21.1483540000   Si  0.0 0.0       0.0000000000     0.0000000000     0.0003693900
energy -359.771625826
charge 0.0000
end
begin
comment uuid: 46939af9-eee4-4d42-a067-25e919f9bf55 trajectory_step: 5
lattice     13.5489793076     0.0000000019    -0.0000000000
lattice     -6.7744896519    11.7337602755     0.0000000000
lattice     -0.0000000000    -0.0000000000    23.2063545932
atom      3.4647120000     7.9701920000     1.9278540000   Mg  0.0 0.0      -0.0000768300    -0.0001147650     0.0000490550
atom     -1.8602550000    10.7491920000     1.9278540000   Mg  0.0 0.0       0.0001378050    -0.0000091550     0.0000490550
atom     -1.6044570000     4.7481360000     1.9278540000   Mg  0.0 0.0      -0.0000609700     0.0001239200     0.0000490550
atom      2.8360260000     3.2209610000     5.8015890000   Mg  0.0 0.0       0.0000028850     0.0000122100    -0.0000000000
atom      9.3415330000     0.8455900000     5.8015890000   Mg  0.0 0.0      -0.0000120200    -0.0000036050     0.0000000000
atom      8.1459100000     7.6672090000     5.8015890000   Mg  0.0 0.0       0.0000091300    -0.0000086050     0.0000000000
atom      3.4647120000     7.9701920000     9.6753230000   Mg  0.0 0.0      -0.0000768300    -0.0001147650    -0.0000490550
atom     -1.8602550000    10.7491920000     9.6753230000   Mg  0.0 0.0       0.0001378050    -0.0000091550    -0.0000490550
atom     -1.6044570000     4.7481360000     9.6753230000   Mg  0.0 0.0      -0.0000609700     0.0001239200    -0.0000490550
atom      3.3097780000     3.7635680000    13.5310320000   Mg  0.0 0.0       0.0000768300     0.0001147650     0.0000490550
atom      8.6347450000     0.9845680000    13.5310320000   Mg  0.0 0.0      -0.0001378050     0.0000091550     0.0000490550
atom      8.3789460000     6.9856240000    13.5310320000   Mg  0.0 0.0       0.0000609700    -0.0001239200     0.0000490550
atom      3.9384630000     8.5128000000    17.4047660000   Mg  0.0 0.0      -0.0000028850    -0.0000122100     0.0000000000
atom     -2.5670430000    10.8881700000    17.4047660000   Mg  0.0 0.0       0.0000120200     0.0000036050    -0.0000000000
atom     -1.3714210000     4.0665510000    17.4047660000   Mg  0.0 0.0      -0.0000091300     0.0000086050    -0.0000000000
atom      3.3097780000     3.7635680000    21.2785000000   Mg  0.0 0.0       0.0000768300     0.0001147650    -0.0000490550
atom      8.6347450000     0.9845680000    21.2785000000   Mg  0.0 0.0      -0.0001378050     0.0000091550    -0.0000490550
atom      8.3789460000     6.9856240000    21.2785000000   Mg  0.0 0.0       0.0000609700    -0.0001239200    -0.0000490550
atom     -0.0000000000    -0.0000000000     2.3562480000   Si  0.0 0.0       0.0000000000     0.0000000000    -0.0003814300
atom      6.7744900000     3.9112530000     2.0410310000   Si  0.0 0.0      -0.0000000000     0.0000000000    -0.0002491600
atom      0.0000000000     7.8225070000     5.8015890000   Si  0.0 0.0      -0.0000000000     0.0000000000     0.0000000000
atom      0.0000000000    -0.0000000000     9.2469290000   Si  0.0 0.0      -0.0000000000     0.0000000000     0.0003814300
atom     -0.0000000000     0.0000000000    13.9594250000   Si  0.0 0.0       0.0000000000    -0.0000000000    -0.0003814300
atom      6.7744900000     3.9112530000     9.5621470000   Si  0.0 0.0       0.0000000000    -0.0000000000     0.0002491600
atom      0.0000000000     7.8225070000    13.6442080000   Si  0.0 0.0      -0.0000000000     0.0000000000    -0.0002491600
atom     -0.0000000000    -0.0000000000    20.8501060000   Si  0.0 0.0      -0.0000000000    -0.0000000000     0.0003814300
atom      6.7744900000     3.9112530000    17.4047660000   Si  0.0 0.0       0.0000000000    -0.0000000000    -0.0000000000
atom      0.0000000000     7.8225070000    21.1653240000   Si  0.0 0.0       0.0000000000    -0.0000000000     0.0002491600
energy -359.771648381
charge 0.0000
end
begin
comment uuid: 46939af9-eee4-4d42-a067-25e919f9bf55 trajectory_step: 6
lattice     13.5485060390     0.0000000019    -0.0000000000
lattice     -6.7742530185    11.7333504109     0.0000000000
lattice     -0.0000000000    -0.0000000000    23.2051650220
atom      3.4644720000     7.9696580000     1.9278640000   Mg  0.0 0.0      -0.0000428050    -0.0001057250     0.0000430500
atom     -1.8599090000    10.7488430000     1.9278640000   Mg  0.0 0.0       0.0001129650     0.0000157950     0.0000430500
atom     -1.6045630000     4.7482010000     1.9278640000   Mg  0.0 0.0      -0.0000701600     0.0000899350     0.0000430500
atom      2.8359660000     3.2207330000     5.8012910000   Mg  0.0 0.0       0.0000201200    -0.0000646400     0.0000000000
atom      9.3412870000     0.8456520000     5.8012910000   Mg  0.0 0.0       0.0000459200     0.0000497450     0.0000000000
atom      8.1455060000     7.6669660000     5.8012910000   Mg  0.0 0.0      -0.0000660400     0.0000148950     0.0000000000
atom      3.4644720000     7.9696580000     9.6747180000   Mg  0.0 0.0      -0.0000428050    -0.0001057250    -0.0000430500
atom     -1.8599090000    10.7488430000     9.6747180000   Mg  0.0 0.0       0.0001129650     0.0000157950    -0.0000430500
atom     -1.6045630000     4.7482010000     9.6747180000   Mg  0.0 0.0      -0.0000701600     0.0000899350    -0.0000430500
atom      3.3097810000     3.7636930000    13.5304470000   Mg  0.0 0.0       0.0000428050     0.0001057250     0.0000430500
atom      8.6341620000     0.9845080000    13.5304470000   Mg  0.0 0.0      -0.0001129650    -0.0000157950     0.0000430500
atom      8.3788160000     6.9851500000    13.5304470000   Mg  0.0 0.0       0.0000701600    -0.0000899350     0.0000430500
atom      3.9382870000     8.5126180000    17.4038740000   Mg  0.0 0.0      -0.0000201200     0.0000646400    -0.0000000000
atom     -2.5670340000    10.8876980000    17.4038740000   Mg  0.0 0.0      -0.0000459200    -0.0000497450    -0.0000000000
atom     -1.3712530000     4.0663850000    17.4038740000   Mg  0.0 0.0       0.0000660400    -0.0000148950    -0.0000000000
atom      3.3097810000     3.7636930000    21.2773010000   Mg  0.0 0.0       0.0000428050     0.0001057250    -0.0000430500
atom      8.6341620000     0.9845080000    21.2773010000   Mg  0.0 0.0      -0.0001129650    -0.0000157950    -0.0000430500
atom      8.3788160000     6.9851500000    21.2773010000   Mg  0.0 0.0       0.0000701600    -0.0000899350    -0.0000430500
atom     -0.0000000000    -0.0000000000     2.3558800000   Si  0.0 0.0       0.0000000000    -0.0000000000    -0.0000246800
atom      6.7742530000     3.9111170000     2.0406650000   Si  0.0 0.0       0.0000000000     0.0000000000    -0.0000685500
atom      0.0000000000     7.8222340000     5.8012910000   Si  0.0 0.0       0.0000000000     0.0000000000    -0.0000000000
atom      0.0000000000    -0.0000000000     9.2467020000   Si  0.0 0.0      -0.0000000000    -0.0000000000     0.0000246800
atom     -0.0000000000     0.0000000000    13.9584630000   Si  0.0 0.0       0.0000000000     0.0000000000    -0.0000246800
atom      6.7742530000     3.9111170000     9.5619170000   Si  0.0 0.0       0.0000000000     0.0000000000     0.0000685500
atom      0.0000000000     7.8222340000    13.6432480000   Si  0.0 0.0      -0.0000000000    -0.0000000000    -0.0000685500
atom     -0.0000000000     0.0000000000    20.8492850000   Si  0.0 0.0      -0.0000000000     0.0000000000     0.0000246800
atom      6.7742530000     3.9111170000    17.4038740000   Si  0.0 0.0      -0.0000000000    -0.0000000000    -0.0000000000
atom      0.0000000000     7.8222340000    21.1645000000   Si  0.0 0.0      -0.0000000000    -0.0000000000     0.0000685500
energy -359.771660426
charge 0.0000
end
begin
comment uuid: 46939af9-eee4-4d42-a067-25e919f9bf55 trajectory_step: 7
lattice     13.5483722501     0.0000000019    -0.0000000000
lattice     -6.7741861241    11.7332345480     0.0000000000
lattice     -0.0000000000     0.0000000000    23.2038564943
atom      3.4642970000     7.9692200000     1.9279180000   Mg  0.0 0.0      -0.0000318800    -0.0000931400     0.0000425700
atom     -1.8595090000    10.7487940000     1.9279180000   Mg  0.0 0.0       0.0000966000     0.0000189600     0.0000425700
atom     -1.6047880000     4.7484550000     1.9279180000   Mg  0.0 0.0      -0.0000647200     0.0000741750     0.0000425700
atom      2.8359990000     3.2204820000     5.8009640000   Mg  0.0 0.0       0.0000176850    -0.0000679900     0.0000000000
atom      9.3413540000     0.8458060000     5.8009640000   Mg  0.0 0.0       0.0000500400     0.0000493100     0.0000000000
atom      8.1452060000     7.6669470000     5.8009640000   Mg  0.0 0.0      -0.0000677250     0.0000186800    -0.0000000000
atom      3.4642970000     7.9692200000     9.6740100000   Mg  0.0 0.0      -0.0000318800    -0.0000931400    -0.0000425700
atom     -1.8595090000    10.7487940000     9.6740100000   Mg  0.0 0.0       0.0000966000     0.0000189600    -0.0000425700
atom     -1.6047880000     4.7484550000     9.6740100000   Mg  0.0 0.0      -0.0000647200     0.0000741750    -0.0000425700
atom      3.3098890000     3.7640150000    13.5298470000   Mg  0.0 0.0       0.0000318800     0.0000931400     0.0000425700
atom      8.6336950000     0.9844400000    13.5298470000   Mg  0.0 0.0      -0.0000966000    -0.0000189600     0.0000425700
atom      8.3789740000     6.9847790000    13.5298470000   Mg  0.0 0.0       0.0000647200    -0.0000741750     0.0000425700
atom      3.9381880000     8.5127530000    17.4028920000   Mg  0.0 0.0      -0.0000176850     0.0000679900    -0.0000000000
atom     -2.5671680000    10.8874290000    17.4028920000   Mg  0.0 0.0      -0.0000500400    -0.0000493100    -0.0000000000
atom     -1.3710200000     4.0662880000    17.4028920000   Mg  0.0 0.0       0.0000677250    -0.0000186800    -0.0000000000
atom      3.3098890000     3.7640150000    21.2759380000   Mg  0.0 0.0       0.0000318800     0.0000931400    -0.0000425700
atom      8.6336950000     0.9844400000    21.2759380000   Mg  0.0 0.0      -0.0000966000    -0.0000189600    -0.0000425700
atom      8.3789740000     6.9847790000    21.2759380000   Mg  0.0 0.0       0.0000647200    -0.0000741750    -0.0000425700
atom     -0.0000000000    -0.0000000000     2.3555810000   Si  0.0 0.0       0.0000000000    -0.0000000000    -0.0000015100
atom      6.7741860000     3.9110780000     2.0402780000   Si  0.0 0.0       0.0000000000     0.0000000000    -0.0000486100
atom      0.0000000000     7.8221560000     5.8009640000   Si  0.0 0.0       0.0000000000     0.0000000000    -0.0000000000
atom      0.0000000000    -0.0000000000     9.2463470000   Si  0.0 0.0      -0.0000000000     0.0000000000     0.0000015100
atom     -0.0000000000     0.0000000000    13.9575090000   Si  0.0 0.0       0.0000000000    -0.0000000000    -0.0000015100
atom      6.7741860000     3.9110780000     9.5616500000   Si  0.0 0.0       0.0000000000     0.0000000000     0.0000486100
atom      0.0000000000     7.8221560000    13.6422060000   Si  0.0 0.0      -0.0000000000    -0.0000000000    -0.0000486100
atom     -0.0000000000     0.0000000000    20.8482750000   Si  0.0 0.0      -0.0000000000     0.0000000000     0.0000015100
atom      6.7741860000     3.9110780000    17.4028920000   Si  0.0 0.0      -0.0000000000    -0.0000000000     0.0000000000