
     Program PWSCF v.6.3 starts on 27Feb2020 at  1:46:30 

     This program is part of the open-source Quantum ESPRESSO suite
     for quantum simulation of materials; please cite
         "P. Giannozzi et al., J. Phys.:Condens. Matter 21 395502 (2009);
         "P. Giannozzi et al., J. Phys.:Condens. Matter 29 465901 (2017);
          URL http://www.quantum-espresso.org", 
     in publications or presentations arising from this work. More details at
     http://www.quantum-espresso.org/quote

 *** WARNING: using old-style file format, will disappear from next version ***

     Parallel version (MPI & OpenMP), running on     288 processor cores
     Number of MPI processes:               288
     Threads/MPI process:                     1

     MPI processes distributed on     8 nodes
     K-points division:     npool     =      36
     R & G space division:  proc/nbgrp/npool/nimage =       8
     Reading input from aiida.in
Warning: card &IONS ignored
Warning: card   !PRESS_CONV_THR = 0.05                 ! JUST FOR VOLUME RELAXATIONS ignored
Warning: card / ignored

     Current dimensions of program PWSCF are:
     Max number of different atomic species (ntypx) = 10
     Max number of k-points (npk) =  40000
     Max angular momentum in pseudopotentials (lmaxx) =  3
               file Mg.pbe-n-kjpaw_psl.0.3.0.UPF: wavefunction(s)  3S renormalized
               file Al.pbe-n-kjpaw_psl.1.0.0.UPF: wavefunction(s)  3S 3P renormalized

     Subspace diagonalization in iterative solution of the eigenvalue problem:
     one sub-group per band group will be used
     scalapack distributed-memory algorithm (size of sub-group:  2*  2 procs)

 
     Parallelization info
     --------------------
     sticks:   dense  smooth     PW     G-vecs:    dense   smooth      PW
     Min        3740    1497    390               486920   123201   16474
     Max        3741    1498    391               486925   123204   16481
     Sum       29921   11977   3125              3895379   985619  131827
 


     bravais-lattice index     =            0
     lattice parameter (alat)  =      30.6665  a.u.
     unit-cell volume          =   28839.7502 (a.u.)^3
     number of atoms/cell      =          256
     number of atomic types    =            2
     number of electrons       =       766.00
     number of Kohn-Sham states=          460
     kinetic-energy cutoff     =      40.0000  Ry
     charge density cutoff     =     400.0000  Ry
     convergence threshold     =      1.0E-12
     mixing beta               =       0.4000
     number of iterations used =            8  local-TF  mixing
     Exchange-correlation      = SLA PW PBX PBC ( 1  4  3  4 0 0)

     celldm(1)=  30.666473  celldm(2)=   0.000000  celldm(3)=   0.000000
     celldm(4)=   0.000000  celldm(5)=   0.000000  celldm(6)=   0.000000

     crystal axes: (cart. coord. in units of alat)
               a(1) = (   1.000000   0.000000   0.000000 )  
               a(2) = (   0.000000   1.000000   0.000000 )  
               a(3) = (   0.000000   0.000000   1.000000 )  

     reciprocal axes: (cart. coord. in units 2 pi/alat)
               b(1) = (  1.000000  0.000000  0.000000 )  
               b(2) = (  0.000000  1.000000  0.000000 )  
               b(3) = (  0.000000  0.000000  1.000000 )  


     PseudoPot. # 1 for Mg read from file:
     /users/aglensk/Dropbox/Albert/scripts/dotfiles/scripts/potentials/quantum_espresso/pseudo_SSSPefV1.1_alalloy/Mg.pbe-n-kjpaw_psl.0.3.0.UPF
     MD5 check sum: 24ecedc7f3e3cbe212e682f4413594e4
     Pseudo is Projector augmented-wave + core cor, Zval =  2.0
     Generated using "atomic" code by A. Dal Corso v.5.0.99 svn rev. 10869
     Shape of augmentation charge: PSQ
     Using radial grid of 1129 points,  4 beta functions with: 
                l(1) =   0
                l(2) =   0
                l(3) =   1
                l(4) =   1
     Q(r) pseudized with 0 coefficients 


     PseudoPot. # 2 for Al read from file:
     /users/aglensk/Dropbox/Albert/scripts/dotfiles/scripts/potentials/quantum_espresso/pseudo_SSSPefV1.1_alalloy/Al.pbe-n-kjpaw_psl.1.0.0.UPF
     MD5 check sum: cfc449ca30b5f3223ec38ddd88ac046d
     Pseudo is Projector augmented-wave + core cor, Zval =  3.0
     Generated using "atomic" code by A. Dal Corso v.5.1
     Shape of augmentation charge: PSQ
     Using radial grid of 1135 points,  6 beta functions with: 
                l(1) =   0
                l(2) =   0
                l(3) =   1
                l(4) =   1
                l(5) =   2
                l(6) =   2
     Q(r) pseudized with 0 coefficients 


     atomic species   valence    mass     pseudopotential
        Mg             2.00    24.30500     Mg( 1.00)
        Al             3.00    26.98154     Al( 1.00)

     No symmetry found


                                    s                        frac. trans.

      isym =  1     identity                                     

 cryst.   s( 1) = (     1          0          0      )
                  (     0          1          0      )
                  (     0          0          1      )

 cart.    s( 1) = (  1.0000000  0.0000000  0.0000000 )
                  (  0.0000000  1.0000000  0.0000000 )
                  (  0.0000000  0.0000000  1.0000000 )


   Cartesian axes

     site n.     atom                  positions (alat units)
         1           Mg  tau(   1) = (   0.0000000   0.0004423   0.0000000  )
         2           Al  tau(   2) = (   0.1267729   0.9994396   0.1267729  )
         3           Al  tau(   3) = (   0.1285699   0.1250000   0.0000000  )
         4           Al  tau(   4) = (   0.0000000   0.1250000   0.1285699  )
         5           Al  tau(   5) = (   0.0000000   0.9994893   0.2506889  )
         6           Al  tau(   6) = (   0.1255597   0.1250000   0.2512667  )
         7           Al  tau(   7) = (   0.1250162   0.9999274   0.3752732  )
         8           Al  tau(   8) = (   0.0000000   0.1250000   0.3753827  )
         9           Al  tau(   9) = (   0.0000000   0.9999475   0.5000000  )
        10           Al  tau(  10) = (   0.1250517   0.1250000   0.5000000  )
        11           Al  tau(  11) = (   0.1250162   0.9999274   0.6247268  )
        12           Al  tau(  12) = (   0.0000000   0.1250000   0.6246173  )
        13           Al  tau(  13) = (   0.0000000   0.9994893   0.7493111  )
        14           Al  tau(  14) = (   0.1255597   0.1250000   0.7487333  )
        15           Al  tau(  15) = (   0.1267729   0.9994396   0.8732271  )
        16           Al  tau(  16) = (   0.0000000   0.1250000   0.8714302  )
        17           Mg  tau(  17) = (   0.0000000   0.2495577   0.0000000  )
        18           Al  tau(  18) = (   0.1265122   0.3766359   0.0000000  )
        19           Al  tau(  19) = (   0.1267729   0.2505604   0.1267729  )
        20           Al  tau(  20) = (   0.0000000   0.3766359   0.1265122  )
        21           Al  tau(  21) = (   0.0000000   0.2505107   0.2506889  )
        22           Al  tau(  22) = (   0.1252549   0.3753361   0.2506764  )
        23           Al  tau(  23) = (   0.1250162   0.2500725   0.3752732  )
        24           Al  tau(  24) = (   0.0000000   0.3750987   0.3752806  )
        25           Al  tau(  25) = (   0.0000000   0.2500525   0.5000000  )
        26           Al  tau(  26) = (   0.1250446   0.3750481   0.5000000  )
        27           Al  tau(  27) = (   0.1250162   0.2500725   0.6247268  )
        28           Al  tau(  28) = (   0.0000000   0.3750987   0.6247194  )
        29           Al  tau(  29) = (   0.0000000   0.2505107   0.7493111  )
        30           Al  tau(  30) = (   0.1252549   0.3753361   0.7493236  )
        31           Al  tau(  31) = (   0.1267729   0.2505604   0.8732271  )
        32           Al  tau(  32) = (   0.0000000   0.3766359   0.8734878  )
        33           Al  tau(  33) = (   0.0000000   0.5000970   0.0000000  )
        34           Al  tau(  34) = (   0.1250046   0.6250000   0.0000000  )
        35           Al  tau(  35) = (   0.1252869   0.5006112   0.1252869  )
        36           Al  tau(  36) = (   0.0000000   0.6250000   0.1250046  )
        37           Al  tau(  37) = (   0.0000000   0.5004628   0.2505083  )
        38           Al  tau(  38) = (   0.1250072   0.6250000   0.2501370  )
        39           Al  tau(  39) = (   0.1250254   0.5000736   0.3751041  )
        40           Al  tau(  40) = (   0.0000000   0.6250000   0.3751651  )
        41           Al  tau(  41) = (   0.0000000   0.5000575   0.5000000  )
        42           Al  tau(  42) = (   0.1250317   0.6250000   0.5000000  )
        43           Al  tau(  43) = (   0.1250254   0.5000736   0.6248959  )
        44           Al  tau(  44) = (   0.0000000   0.6250000   0.6248349  )
        45           Al  tau(  45) = (   0.0000000   0.5004628   0.7494917  )
        46           Al  tau(  46) = (   0.1250072   0.6250000   0.7498630  )
        47           Al  tau(  47) = (   0.1252869   0.5006112   0.8747131  )
        48           Al  tau(  48) = (   0.0000000   0.6250000   0.8749954  )
        49           Al  tau(  49) = (   0.0000000   0.7499030   0.0000000  )
        50           Al  tau(  50) = (   0.1265122   0.8733641   0.0000000  )
        51           Al  tau(  51) = (   0.1252869   0.7493888   0.1252869  )
        52           Al  tau(  52) = (   0.0000000   0.8733641   0.1265122  )
        53           Al  tau(  53) = (   0.0000000   0.7495372   0.2505083  )
        54           Al  tau(  54) = (   0.1252549   0.8746639   0.2506764  )
        55           Al  tau(  55) = (   0.1250254   0.7499264   0.3751041  )
        56           Al  tau(  56) = (   0.0000000   0.8749013   0.3752806  )
        57           Al  tau(  57) = (   0.0000000   0.7499425   0.5000000  )
        58           Al  tau(  58) = (   0.1250446   0.8749519   0.5000000  )
        59           Al  tau(  59) = (   0.1250254   0.7499264   0.6248959  )
        60           Al  tau(  60) = (   0.0000000   0.8749013   0.6247194  )
        61           Al  tau(  61) = (   0.0000000   0.7495372   0.7494917  )
        62           Al  tau(  62) = (   0.1252549   0.8746639   0.7493236  )
        63           Al  tau(  63) = (   0.1252869   0.7493888   0.8747131  )
        64           Al  tau(  64) = (   0.0000000   0.8733641   0.8734878  )
        65           Al  tau(  65) = (   0.2506889   0.9994893   0.0000000  )
        66           Al  tau(  66) = (   0.3753827   0.1250000   0.0000000  )
        67           Al  tau(  67) = (   0.3752732   0.9999274   0.1250162  )
        68           Al  tau(  68) = (   0.2512667   0.1250000   0.1255597  )
        69           Al  tau(  69) = (   0.2505184   0.9999562   0.2505184  )
        70           Al  tau(  70) = (   0.3751692   0.1250000   0.2501498  )
        71           Al  tau(  71) = (   0.3750730   0.0000056   0.3750730  )
        72           Al  tau(  72) = (   0.2501498   0.1250000   0.3751692  )
        73           Al  tau(  73) = (   0.2500753   0.9999792   0.5000000  )
        74           Al  tau(  74) = (   0.3750367   0.1250000   0.5000000  )
        75           Al  tau(  75) = (   0.3750730   0.0000056   0.6249271  )
        76           Al  tau(  76) = (   0.2501498   0.1250000   0.6248308  )
        77           Al  tau(  77) = (   0.2505184   0.9999562   0.7494816  )
        78           Al  tau(  78) = (   0.3751692   0.1250000   0.7498502  )
        79           Al  tau(  79) = (   0.3752732   0.9999274   0.8749838  )
        80           Al  tau(  80) = (   0.2512667   0.1250000   0.8744404  )
        81           Al  tau(  81) = (   0.2506889   0.2505107   0.0000000  )
        82           Al  tau(  82) = (   0.3752806   0.3750987   0.0000000  )
        83           Al  tau(  83) = (   0.3752732   0.2500725   0.1250162  )
        84           Al  tau(  84) = (   0.2506764   0.3753361   0.1252549  )
        85           Al  tau(  85) = (   0.2505184   0.2500438   0.2505184  )
        86           Al  tau(  86) = (   0.3750677   0.3749969   0.2500588  )
        87           Al  tau(  87) = (   0.3750730   0.2499944   0.3750730  )
        88           Al  tau(  88) = (   0.2500588   0.3749969   0.3750677  )
        89           Al  tau(  89) = (   0.2500753   0.2500208   0.5000000  )
        90           Al  tau(  90) = (   0.3750314   0.3750272   0.5000000  )
        91           Al  tau(  91) = (   0.3750730   0.2499944   0.6249271  )
        92           Al  tau(  92) = (   0.2500588   0.3749969   0.6249323  )
        93           Al  tau(  93) = (   0.2505184   0.2500438   0.7494816  )
        94           Al  tau(  94) = (   0.3750677   0.3749969   0.7499412  )
        95           Al  tau(  95) = (   0.3752732   0.2500725   0.8749838  )
        96           Al  tau(  96) = (   0.2506764   0.3753361   0.8747451  )
        97           Al  tau(  97) = (   0.2505083   0.5004628   0.0000000  )
        98           Al  tau(  98) = (   0.3751651   0.6250000   0.0000000  )
        99           Al  tau(  99) = (   0.3751041   0.5000736   0.1250254  )
       100           Al  tau( 100) = (   0.2501370   0.6250000   0.1250072  )
       101           Al  tau( 101) = (   0.2500699   0.5000483   0.2500699  )
       102           Al  tau( 102) = (   0.3749830   0.6250000   0.2499831  )
       103           Al  tau( 103) = (   0.3750043   0.4999925   0.3750043  )
       104           Al  tau( 104) = (   0.2499831   0.6250000   0.3749830  )
       105           Al  tau( 105) = (   0.2500526   0.5000203   0.5000000  )
       106           Al  tau( 106) = (   0.3750235   0.6250000   0.5000000  )
       107           Al  tau( 107) = (   0.3750043   0.4999925   0.6249958  )
       108           Al  tau( 108) = (   0.2499831   0.6250000   0.6250171  )
       109           Al  tau( 109) = (   0.2500699   0.5000483   0.7499301  )
       110           Al  tau( 110) = (   0.3749830   0.6250000   0.7500169  )
       111           Al  tau( 111) = (   0.3751041   0.5000736   0.8749747  )
       112           Al  tau( 112) = (   0.2501370   0.6250000   0.8749928  )
       113           Al  tau( 113) = (   0.2505083   0.7495372   0.0000000  )
       114           Al  tau( 114) = (   0.3752806   0.8749013   0.0000000  )
       115           Al  tau( 115) = (   0.3751041   0.7499264   0.1250254  )
       116           Al  tau( 116) = (   0.2506764   0.8746639   0.1252549  )
       117           Al  tau( 117) = (   0.2500699   0.7499517   0.2500699  )
       118           Al  tau( 118) = (   0.3750677   0.8750031   0.2500588  )
       119           Al  tau( 119) = (   0.3750043   0.7500075   0.3750043  )
       120           Al  tau( 120) = (   0.2500588   0.8750031   0.3750677  )
       121           Al  tau( 121) = (   0.2500526   0.7499797   0.5000000  )
       122           Al  tau( 122) = (   0.3750314   0.8749728   0.5000000  )
       123           Al  tau( 123) = (   0.3750043   0.7500075   0.6249958  )
       124           Al  tau( 124) = (   0.2500588   0.8750031   0.6249323  )
       125           Al  tau( 125) = (   0.2500699   0.7499517   0.7499301  )
       126           Al  tau( 126) = (   0.3750677   0.8750031   0.7499412  )
       127           Al  tau( 127) = (   0.3751041   0.7499264   0.8749747  )
       128           Al  tau( 128) = (   0.2506764   0.8746639   0.8747451  )
       129           Al  tau( 129) = (   0.5000000   0.9999475   0.0000000  )
       130           Al  tau( 130) = (   0.6246173   0.1250000   0.0000000  )
       131           Al  tau( 131) = (   0.6247268   0.9999274   0.1250162  )
       132           Al  tau( 132) = (   0.5000000   0.1250000   0.1250517  )
       133           Al  tau( 133) = (   0.5000000   0.9999792   0.2500753  )
       134           Al  tau( 134) = (   0.6248308   0.1250000   0.2501498  )
       135           Al  tau( 135) = (   0.6249271   0.0000056   0.3750730  )
       136           Al  tau( 136) = (   0.5000000   0.1250000   0.3750367  )
       137           Al  tau( 137) = (   0.5000000   0.9999737   0.5000000  )
       138           Al  tau( 138) = (   0.6249634   0.1250000   0.5000000  )
       139           Al  tau( 139) = (   0.6249271   0.0000056   0.6249271  )
       140           Al  tau( 140) = (   0.5000000   0.1250000   0.6249634  )
       141           Al  tau( 141) = (   0.5000000   0.9999792   0.7499247  )
       142           Al  tau( 142) = (   0.6248308   0.1250000   0.7498502  )
       143           Al  tau( 143) = (   0.6247268   0.9999274   0.8749838  )
       144           Al  tau( 144) = (   0.5000000   0.1250000   0.8749483  )
       145           Al  tau( 145) = (   0.5000000   0.2500525   0.0000000  )
       146           Al  tau( 146) = (   0.6247194   0.3750987   0.0000000  )
       147           Al  tau( 147) = (   0.6247268   0.2500725   0.1250162  )
       148           Al  tau( 148) = (   0.5000000   0.3750481   0.1250446  )
       149           Al  tau( 149) = (   0.5000000   0.2500208   0.2500753  )
       150           Al  tau( 150) = (   0.6249323   0.3749969   0.2500588  )
       151           Al  tau( 151) = (   0.6249271   0.2499944   0.3750730  )
       152           Al  tau( 152) = (   0.5000000   0.3750272   0.3750314  )
       153           Al  tau( 153) = (   0.5000000   0.2500263   0.5000000  )
       154           Al  tau( 154) = (   0.6249686   0.3750272   0.5000000  )
       155           Al  tau( 155) = (   0.6249271   0.2499944   0.6249271  )
       156           Al  tau( 156) = (   0.5000000   0.3750272   0.6249686  )
       157           Al  tau( 157) = (   0.5000000   0.2500208   0.7499247  )
       158           Al  tau( 158) = (   0.6249323   0.3749969   0.7499412  )
       159           Al  tau( 159) = (   0.6247268   0.2500725   0.8749838  )
       160           Al  tau( 160) = (   0.5000000   0.3750481   0.8749554  )
       161           Al  tau( 161) = (   0.5000000   0.5000575   0.0000000  )
       162           Al  tau( 162) = (   0.6248349   0.6250000   0.0000000  )
       163           Al  tau( 163) = (   0.6248959   0.5000736   0.1250254  )
       164           Al  tau( 164) = (   0.5000000   0.6250000   0.1250317  )
       165           Al  tau( 165) = (   0.5000000   0.5000203   0.2500526  )
       166           Al  tau( 166) = (   0.6250171   0.6250000   0.2499831  )
       167           Al  tau( 167) = (   0.6249958   0.4999925   0.3750043  )
       168           Al  tau( 168) = (   0.5000000   0.6250000   0.3750235  )
       169           Al  tau( 169) = (   0.5000000   0.5000309   0.5000000  )
       170           Al  tau( 170) = (   0.6249765   0.6250000   0.5000000  )
       171           Al  tau( 171) = (   0.6249958   0.4999925   0.6249958  )
       172           Al  tau( 172) = (   0.5000000   0.6250000   0.6249765  )
       173           Al  tau( 173) = (   0.5000000   0.5000203   0.7499474  )
       174           Al  tau( 174) = (   0.6250171   0.6250000   0.7500169  )
       175           Al  tau( 175) = (   0.6248959   0.5000736   0.8749747  )
       176           Al  tau( 176) = (   0.5000000   0.6250000   0.8749683  )
       177           Al  tau( 177) = (   0.5000000   0.7499425   0.0000000  )
       178           Al  tau( 178) = (   0.6247194   0.8749013   0.0000000  )
       179           Al  tau( 179) = (   0.6248959   0.7499264   0.1250254  )
       180           Al  tau( 180) = (   0.5000000   0.8749519   0.1250446  )
       181           Al  tau( 181) = (   0.5000000   0.7499797   0.2500526  )
       182           Al  tau( 182) = (   0.6249323   0.8750031   0.2500588  )
       183           Al  tau( 183) = (   0.6249958   0.7500075   0.3750043  )
       184           Al  tau( 184) = (   0.5000000   0.8749728   0.3750314  )
       185           Al  tau( 185) = (   0.5000000   0.7499691   0.5000000  )
       186           Al  tau( 186) = (   0.6249686   0.8749728   0.5000000  )
       187           Al  tau( 187) = (   0.6249958   0.7500075   0.6249958  )
       188           Al  tau( 188) = (   0.5000000   0.8749728   0.6249686  )
       189           Al  tau( 189) = (   0.5000000   0.7499797   0.7499474  )
       190           Al  tau( 190) = (   0.6249323   0.8750031   0.7499412  )
       191           Al  tau( 191) = (   0.6248959   0.7499264   0.8749747  )
       192           Al  tau( 192) = (   0.5000000   0.8749519   0.8749554  )
       193           Al  tau( 193) = (   0.7493111   0.9994893   0.0000000  )
       194           Al  tau( 194) = (   0.8714302   0.1250000   0.0000000  )
       195           Al  tau( 195) = (   0.8732271   0.9994396   0.1267729  )
       196           Al  tau( 196) = (   0.7487333   0.1250000   0.1255597  )
       197           Al  tau( 197) = (   0.7494816   0.9999562   0.2505184  )
       198           Al  tau( 198) = (   0.8744404   0.1250000   0.2512667  )
       199           Al  tau( 199) = (   0.8749838   0.9999274   0.3752732  )
       200           Al  tau( 200) = (   0.7498502   0.1250000   0.3751692  )
       201           Al  tau( 201) = (   0.7499247   0.9999792   0.5000000  )
       202           Al  tau( 202) = (   0.8749483   0.1250000   0.5000000  )
       203           Al  tau( 203) = (   0.8749838   0.9999274   0.6247268  )
       204           Al  tau( 204) = (   0.7498502   0.1250000   0.6248308  )
       205           Al  tau( 205) = (   0.7494816   0.9999562   0.7494816  )
       206           Al  tau( 206) = (   0.8744404   0.1250000   0.7487333  )
       207           Al  tau( 207) = (   0.8732271   0.9994396   0.8732271  )
       208           Al  tau( 208) = (   0.7487333   0.1250000   0.8744404  )
       209           Al  tau( 209) = (   0.7493111   0.2505107   0.0000000  )
       210           Al  tau( 210) = (   0.8734878   0.3766359   0.0000000  )
       211           Al  tau( 211) = (   0.8732271   0.2505604   0.1267729  )
       212           Al  tau( 212) = (   0.7493236   0.3753361   0.1252549  )
       213           Al  tau( 213) = (   0.7494816   0.2500438   0.2505184  )
       214           Al  tau( 214) = (   0.8747451   0.3753361   0.2506764  )
       215           Al  tau( 215) = (   0.8749838   0.2500725   0.3752732  )
       216           Al  tau( 216) = (   0.7499412   0.3749969   0.3750677  )
       217           Al  tau( 217) = (   0.7499247   0.2500208   0.5000000  )
       218           Al  tau( 218) = (   0.8749554   0.3750481   0.5000000  )
       219           Al  tau( 219) = (   0.8749838   0.2500725   0.6247268  )
       220           Al  tau( 220) = (   0.7499412   0.3749969   0.6249323  )
       221           Al  tau( 221) = (   0.7494816   0.2500438   0.7494816  )
       222           Al  tau( 222) = (   0.8747451   0.3753361   0.7493236  )
       223           Al  tau( 223) = (   0.8732271   0.2505604   0.8732271  )
       224           Al  tau( 224) = (   0.7493236   0.3753361   0.8747451  )
       225           Al  tau( 225) = (   0.7494917   0.5004628   0.0000000  )
       226           Al  tau( 226) = (   0.8749954   0.6250000   0.0000000  )
       227           Al  tau( 227) = (   0.8747131   0.5006112   0.1252869  )
       228           Al  tau( 228) = (   0.7498630   0.6250000   0.1250072  )
       229           Al  tau( 229) = (   0.7499301   0.5000483   0.2500699  )
       230           Al  tau( 230) = (   0.8749928   0.6250000   0.2501370  )
       231           Al  tau( 231) = (   0.8749747   0.5000736   0.3751041  )
       232           Al  tau( 232) = (   0.7500169   0.6250000   0.3749830  )
       233           Al  tau( 233) = (   0.7499474   0.5000203   0.5000000  )
       234           Al  tau( 234) = (   0.8749683   0.6250000   0.5000000  )
       235           Al  tau( 235) = (   0.8749747   0.5000736   0.6248959  )
       236           Al  tau( 236) = (   0.7500169   0.6250000   0.6250171  )
       237           Al  tau( 237) = (   0.7499301   0.5000483   0.7499301  )
       238           Al  tau( 238) = (   0.8749928   0.6250000   0.7498630  )
       239           Al  tau( 239) = (   0.8747131   0.5006112   0.8747131  )
       240           Al  tau( 240) = (   0.7498630   0.6250000   0.8749928  )
       241           Al  tau( 241) = (   0.7494917   0.7495372   0.0000000  )
       242           Al  tau( 242) = (   0.8734878   0.8733641   0.0000000  )
       243           Al  tau( 243) = (   0.8747131   0.7493888   0.1252869  )
       244           Al  tau( 244) = (   0.7493236   0.8746639   0.1252549  )
       245           Al  tau( 245) = (   0.7499301   0.7499517   0.2500699  )
       246           Al  tau( 246) = (   0.8747451   0.8746639   0.2506764  )
       247           Al  tau( 247) = (   0.8749747   0.7499264   0.3751041  )
       248           Al  tau( 248) = (   0.7499412   0.8750031   0.3750677  )
       249           Al  tau( 249) = (   0.7499474   0.7499797   0.5000000  )
       250           Al  tau( 250) = (   0.8749554   0.8749519   0.5000000  )
       251           Al  tau( 251) = (   0.8749747   0.7499264   0.6248959  )
       252           Al  tau( 252) = (   0.7499412   0.8750031   0.6249323  )
       253           Al  tau( 253) = (   0.7499301   0.7499517   0.7499301  )
       254           Al  tau( 254) = (   0.8747451   0.8746639   0.7493236  )
       255           Al  tau( 255) = (   0.8747131   0.7493888   0.8747131  )
       256           Al  tau( 256) = (   0.7493236   0.8746639   0.8747451  )

   Crystallographic axes

     site n.     atom                  positions (cryst. coord.)
         1           Mg  tau(   1) = (  0.0000000  0.0004423  0.0000000  )
         2           Al  tau(   2) = (  0.1267729  0.9994396  0.1267729  )
         3           Al  tau(   3) = (  0.1285699  0.1250000  0.0000000  )
         4           Al  tau(   4) = (  0.0000000  0.1250000  0.1285699  )
         5           Al  tau(   5) = (  0.0000000  0.9994893  0.2506889  )
         6           Al  tau(   6) = (  0.1255597  0.1250000  0.2512667  )
         7           Al  tau(   7) = (  0.1250162  0.9999274  0.3752732  )
         8           Al  tau(   8) = (  0.0000000  0.1250000  0.3753827  )
         9           Al  tau(   9) = (  0.0000000  0.9999475  0.5000000  )
        10           Al  tau(  10) = (  0.1250517  0.1250000  0.5000000  )
        11           Al  tau(  11) = (  0.1250162  0.9999274  0.6247268  )
        12           Al  tau(  12) = (  0.0000000  0.1250000  0.6246173  )
        13           Al  tau(  13) = (  0.0000000  0.9994893  0.7493111  )
        14           Al  tau(  14) = (  0.1255597  0.1250000  0.7487333  )
        15           Al  tau(  15) = (  0.1267729  0.9994396  0.8732271  )
        16           Al  tau(  16) = (  0.0000000  0.1250000  0.8714302  )
        17           Mg  tau(  17) = (  0.0000000  0.2495577  0.0000000  )
        18           Al  tau(  18) = (  0.1265122  0.3766359  0.0000000  )
        19           Al  tau(  19) = (  0.1267729  0.2505604  0.1267729  )
        20           Al  tau(  20) = (  0.0000000  0.3766359  0.1265122  )
        21           Al  tau(  21) = (  0.0000000  0.2505107  0.2506889  )
        22           Al  tau(  22) = (  0.1252549  0.3753361  0.2506764  )
        23           Al  tau(  23) = (  0.1250162  0.2500725  0.3752732  )
        24           Al  tau(  24) = (  0.0000000  0.3750987  0.3752806  )
        25           Al  tau(  25) = (  0.0000000  0.2500525  0.5000000  )
        26           Al  tau(  26) = (  0.1250446  0.3750481  0.5000000  )
        27           Al  tau(  27) = (  0.1250162  0.2500725  0.6247268  )
        28           Al  tau(  28) = (  0.0000000  0.3750987  0.6247194  )
        29           Al  tau(  29) = (  0.0000000  0.2505107  0.7493111  )
        30           Al  tau(  30) = (  0.1252549  0.3753361  0.7493236  )
        31           Al  tau(  31) = (  0.1267729  0.2505604  0.8732271  )
        32           Al  tau(  32) = (  0.0000000  0.3766359  0.8734878  )
        33           Al  tau(  33) = (  0.0000000  0.5000970  0.0000000  )
        34           Al  tau(  34) = (  0.1250046  0.6250000  0.0000000  )
        35           Al  tau(  35) = (  0.1252869  0.5006112  0.1252869  )
        36           Al  tau(  36) = (  0.0000000  0.6250000  0.1250046  )
        37           Al  tau(  37) = (  0.0000000  0.5004628  0.2505083  )
        38           Al  tau(  38) = (  0.1250072  0.6250000  0.2501370  )
        39           Al  tau(  39) = (  0.1250254  0.5000736  0.3751041  )
        40           Al  tau(  40) = (  0.0000000  0.6250000  0.3751651  )
        41           Al  tau(  41) = (  0.0000000  0.5000575  0.5000000  )
        42           Al  tau(  42) = (  0.1250317  0.6250000  0.5000000  )
        43           Al  tau(  43) = (  0.1250254  0.5000736  0.6248959  )
        44           Al  tau(  44) = (  0.0000000  0.6250000  0.6248349  )
        45           Al  tau(  45) = (  0.0000000  0.5004628  0.7494917  )
        46           Al  tau(  46) = (  0.1250072  0.6250000  0.7498630  )
        47           Al  tau(  47) = (  0.1252869  0.5006112  0.8747131  )
        48           Al  tau(  48) = (  0.0000000  0.6250000  0.8749954  )
        49           Al  tau(  49) = (  0.0000000  0.7499030  0.0000000  )
        50           Al  tau(  50) = (  0.1265122  0.8733641  0.0000000  )
        51           Al  tau(  51) = (  0.1252869  0.7493888  0.1252869  )
        52           Al  tau(  52) = (  0.0000000  0.8733641  0.1265122  )
        53           Al  tau(  53) = (  0.0000000  0.7495372  0.2505083  )
        54           Al  tau(  54) = (  0.1252549  0.8746639  0.2506764  )
        55           Al  tau(  55) = (  0.1250254  0.7499264  0.3751041  )
        56           Al  tau(  56) = (  0.0000000  0.8749013  0.3752806  )
        57           Al  tau(  57) = (  0.0000000  0.7499425  0.5000000  )
        58           Al  tau(  58) = (  0.1250446  0.8749519  0.5000000  )
        59           Al  tau(  59) = (  0.1250254  0.7499264  0.6248959  )
        60           Al  tau(  60) = (  0.0000000  0.8749013  0.6247194  )
        61           Al  tau(  61) = (  0.0000000  0.7495372  0.7494917  )
        62           Al  tau(  62) = (  0.1252549  0.8746639  0.7493236  )
        63           Al  tau(  63) = (  0.1252869  0.7493888  0.8747131  )
        64           Al  tau(  64) = (  0.0000000  0.8733641  0.8734878  )
        65           Al  tau(  65) = (  0.2506889  0.9994893  0.0000000  )
        66           Al  tau(  66) = (  0.3753827  0.1250000  0.0000000  )
        67           Al  tau(  67) = (  0.3752732  0.9999274  0.1250162  )
        68           Al  tau(  68) = (  0.2512667  0.1250000  0.1255597  )
        69           Al  tau(  69) = (  0.2505184  0.9999562  0.2505184  )
        70           Al  tau(  70) = (  0.3751692  0.1250000  0.2501498  )
        71           Al  tau(  71) = (  0.3750730  0.0000056  0.3750730  )
        72           Al  tau(  72) = (  0.2501498  0.1250000  0.3751692  )
        73           Al  tau(  73) = (  0.2500753  0.9999792  0.5000000  )
        74           Al  tau(  74) = (  0.3750367  0.1250000  0.5000000  )
        75           Al  tau(  75) = (  0.3750730  0.0000056  0.6249271  )
        76           Al  tau(  76) = (  0.2501498  0.1250000  0.6248308  )
        77           Al  tau(  77) = (  0.2505184  0.9999562  0.7494816  )
        78           Al  tau(  78) = (  0.3751692  0.1250000  0.7498502  )
        79           Al  tau(  79) = (  0.3752732  0.9999274  0.8749838  )
        80           Al  tau(  80) = (  0.2512667  0.1250000  0.8744404  )
        81           Al  tau(  81) = (  0.2506889  0.2505107  0.0000000  )
        82           Al  tau(  82) = (  0.3752806  0.3750987  0.0000000  )
        83           Al  tau(  83) = (  0.3752732  0.2500725  0.1250162  )
        84           Al  tau(  84) = (  0.2506764  0.3753361  0.1252549  )
        85           Al  tau(  85) = (  0.2505184  0.2500438  0.2505184  )
        86           Al  tau(  86) = (  0.3750677  0.3749969  0.2500588  )
        87           Al  tau(  87) = (  0.3750730  0.2499944  0.3750730  )
        88           Al  tau(  88) = (  0.2500588  0.3749969  0.3750677  )
        89           Al  tau(  89) = (  0.2500753  0.2500208  0.5000000  )
        90           Al  tau(  90) = (  0.3750314  0.3750272  0.5000000  )
        91           Al  tau(  91) = (  0.3750730  0.2499944  0.6249271  )
        92           Al  tau(  92) = (  0.2500588  0.3749969  0.6249323  )
        93           Al  tau(  93) = (  0.2505184  0.2500438  0.7494816  )
        94           Al  tau(  94) = (  0.3750677  0.3749969  0.7499412  )
        95           Al  tau(  95) = (  0.3752732  0.2500725  0.8749838  )
        96           Al  tau(  96) = (  0.2506764  0.3753361  0.8747451  )
        97           Al  tau(  97) = (  0.2505083  0.5004628  0.0000000  )
        98           Al  tau(  98) = (  0.3751651  0.6250000  0.0000000  )
        99           Al  tau(  99) = (  0.3751041  0.5000736  0.1250254  )
       100           Al  tau( 100) = (  0.2501370  0.6250000  0.1250072  )
       101           Al  tau( 101) = (  0.2500699  0.5000483  0.2500699  )
       102           Al  tau( 102) = (  0.3749830  0.6250000  0.2499831  )
       103           Al  tau( 103) = (  0.3750043  0.4999925  0.3750043  )
       104           Al  tau( 104) = (  0.2499831  0.6250000  0.3749830  )
       105           Al  tau( 105) = (  0.2500526  0.5000203  0.5000000  )
       106           Al  tau( 106) = (  0.3750235  0.6250000  0.5000000  )
       107           Al  tau( 107) = (  0.3750043  0.4999925  0.6249958  )
       108           Al  tau( 108) = (  0.2499831  0.6250000  0.6250171  )
       109           Al  tau( 109) = (  0.2500699  0.5000483  0.7499301  )
       110           Al  tau( 110) = (  0.3749830  0.6250000  0.7500169  )
       111           Al  tau( 111) = (  0.3751041  0.5000736  0.8749747  )
       112           Al  tau( 112) = (  0.2501370  0.6250000  0.8749928  )
       113           Al  tau( 113) = (  0.2505083  0.7495372  0.0000000  )
       114           Al  tau( 114) = (  0.3752806  0.8749013  0.0000000  )
       115           Al  tau( 115) = (  0.3751041  0.7499264  0.1250254  )
       116           Al  tau( 116) = (  0.2506764  0.8746639  0.1252549  )
       117           Al  tau( 117) = (  0.2500699  0.7499517  0.2500699  )
       118           Al  tau( 118) = (  0.3750677  0.8750031  0.2500588  )
       119           Al  tau( 119) = (  0.3750043  0.7500075  0.3750043  )
       120           Al  tau( 120) = (  0.2500588  0.8750031  0.3750677  )
       121           Al  tau( 121) = (  0.2500526  0.7499797  0.5000000  )
       122           Al  tau( 122) = (  0.3750314  0.8749728  0.5000000  )
       123           Al  tau( 123) = (  0.3750043  0.7500075  0.6249958  )
       124           Al  tau( 124) = (  0.2500588  0.8750031  0.6249323  )
       125           Al  tau( 125) = (  0.2500699  0.7499517  0.7499301  )
       126           Al  tau( 126) = (  0.3750677  0.8750031  0.7499412  )
       127           Al  tau( 127) = (  0.3751041  0.7499264  0.8749747  )
       128           Al  tau( 128) = (  0.2506764  0.8746639  0.8747451  )
       129           Al  tau( 129) = (  0.5000000  0.9999475  0.0000000  )
       130           Al  tau( 130) = (  0.6246173  0.1250000  0.0000000  )
       131           Al  tau( 131) = (  0.6247268  0.9999274  0.1250162  )
       132           Al  tau( 132) = (  0.5000000  0.1250000  0.1250517  )
       133           Al  tau( 133) = (  0.5000000  0.9999792  0.2500753  )
       134           Al  tau( 134) = (  0.6248308  0.1250000  0.2501498  )
       135           Al  tau( 135) = (  0.6249271  0.0000056  0.3750730  )
       136           Al  tau( 136) = (  0.5000000  0.1250000  0.3750367  )
       137           Al  tau( 137) = (  0.5000000  0.9999737  0.5000000  )
       138           Al  tau( 138) = (  0.6249634  0.1250000  0.5000000  )
       139           Al  tau( 139) = (  0.6249271  0.0000056  0.6249271  )
       140           Al  tau( 140) = (  0.5000000  0.1250000  0.6249634  )
       141           Al  tau( 141) = (  0.5000000  0.9999792  0.7499247  )
       142           Al  tau( 142) = (  0.6248308  0.1250000  0.7498502  )
       143           Al  tau( 143) = (  0.6247268  0.9999274  0.8749838  )
       144           Al  tau( 144) = (  0.5000000  0.1250000  0.8749483  )
       145           Al  tau( 145) = (  0.5000000  0.2500525  0.0000000  )
       146           Al  tau( 146) = (  0.6247194  0.3750987  0.0000000  )
       147           Al  tau( 147) = (  0.6247268  0.2500725  0.1250162  )
       148           Al  tau( 148) = (  0.5000000  0.3750481  0.1250446  )
       149           Al  tau( 149) = (  0.5000000  0.2500208  0.2500753  )
       150           Al  tau( 150) = (  0.6249323  0.3749969  0.2500588  )
       151           Al  tau( 151) = (  0.6249271  0.2499944  0.3750730  )
       152           Al  tau( 152) = (  0.5000000  0.3750272  0.3750314  )
       153           Al  tau( 153) = (  0.5000000  0.2500263  0.5000000  )
       154           Al  tau( 154) = (  0.6249686  0.3750272  0.5000000  )
       155           Al  tau( 155) = (  0.6249271  0.2499944  0.6249271  )
       156           Al  tau( 156) = (  0.5000000  0.3750272  0.6249686  )
       157           Al  tau( 157) = (  0.5000000  0.2500208  0.7499247  )
       158           Al  tau( 158) = (  0.6249323  0.3749969  0.7499412  )
       159           Al  tau( 159) = (  0.6247268  0.2500725  0.8749838  )
       160           Al  tau( 160) = (  0.5000000  0.3750481  0.8749554  )
       161           Al  tau( 161) = (  0.5000000  0.5000575  0.0000000  )
       162           Al  tau( 162) = (  0.6248349  0.6250000  0.0000000  )
       163           Al  tau( 163) = (  0.6248959  0.5000736  0.1250254  )
       164           Al  tau( 164) = (  0.5000000  0.6250000  0.1250317  )
       165           Al  tau( 165) = (  0.5000000  0.5000203  0.2500526  )
       166           Al  tau( 166) = (  0.6250171  0.6250000  0.2499831  )
       167           Al  tau( 167) = (  0.6249958  0.4999925  0.3750043  )
       168           Al  tau( 168) = (  0.5000000  0.6250000  0.3750235  )
       169           Al  tau( 169) = (  0.5000000  0.5000309  0.5000000  )
       170           Al  tau( 170) = (  0.6249765  0.6250000  0.5000000  )
       171           Al  tau( 171) = (  0.6249958  0.4999925  0.6249958  )
       172           Al  tau( 172) = (  0.5000000  0.6250000  0.6249765  )
       173           Al  tau( 173) = (  0.5000000  0.5000203  0.7499474  )
       174           Al  tau( 174) = (  0.6250171  0.6250000  0.7500169  )
       175           Al  tau( 175) = (  0.6248959  0.5000736  0.8749747  )
       176           Al  tau( 176) = (  0.5000000  0.6250000  0.8749683  )
       177           Al  tau( 177) = (  0.5000000  0.7499425  0.0000000  )
       178           Al  tau( 178) = (  0.6247194  0.8749013  0.0000000  )
       179           Al  tau( 179) = (  0.6248959  0.7499264  0.1250254  )
       180           Al  tau( 180) = (  0.5000000  0.8749519  0.1250446  )
       181           Al  tau( 181) = (  0.5000000  0.7499797  0.2500526  )
       182           Al  tau( 182) = (  0.6249323  0.8750031  0.2500588  )
       183           Al  tau( 183) = (  0.6249958  0.7500075  0.3750043  )
       184           Al  tau( 184) = (  0.5000000  0.8749728  0.3750314  )
       185           Al  tau( 185) = (  0.5000000  0.7499691  0.5000000  )
       186           Al  tau( 186) = (  0.6249686  0.8749728  0.5000000  )
       187           Al  tau( 187) = (  0.6249958  0.7500075  0.6249958  )
       188           Al  tau( 188) = (  0.5000000  0.8749728  0.6249686  )
       189           Al  tau( 189) = (  0.5000000  0.7499797  0.7499474  )
       190           Al  tau( 190) = (  0.6249323  0.8750031  0.7499412  )
       191           Al  tau( 191) = (  0.6248959  0.7499264  0.8749747  )
       192           Al  tau( 192) = (  0.5000000  0.8749519  0.8749554  )
       193           Al  tau( 193) = (  0.7493111  0.9994893  0.0000000  )
       194           Al  tau( 194) = (  0.8714302  0.1250000  0.0000000  )
       195           Al  tau( 195) = (  0.8732271  0.9994396  0.1267729  )
       196           Al  tau( 196) = (  0.7487333  0.1250000  0.1255597  )
       197           Al  tau( 197) = (  0.7494816  0.9999562  0.2505184  )
       198           Al  tau( 198) = (  0.8744404  0.1250000  0.2512667  )
       199           Al  tau( 199) = (  0.8749838  0.9999274  0.3752732  )
       200           Al  tau( 200) = (  0.7498502  0.1250000  0.3751692  )
       201           Al  tau( 201) = (  0.7499247  0.9999792  0.5000000  )
       202           Al  tau( 202) = (  0.8749483  0.1250000  0.5000000  )
       203           Al  tau( 203) = (  0.8749838  0.9999274  0.6247268  )
       204           Al  tau( 204) = (  0.7498502  0.1250000  0.6248308  )
       205           Al  tau( 205) = (  0.7494816  0.9999562  0.7494816  )
       206           Al  tau( 206) = (  0.8744404  0.1250000  0.7487333  )
       207           Al  tau( 207) = (  0.8732271  0.9994396  0.8732271  )
       208           Al  tau( 208) = (  0.7487333  0.1250000  0.8744404  )
       209           Al  tau( 209) = (  0.7493111  0.2505107  0.0000000  )
       210           Al  tau( 210) = (  0.8734878  0.3766359  0.0000000  )
       211           Al  tau( 211) = (  0.8732271  0.2505604  0.1267729  )
       212           Al  tau( 212) = (  0.7493236  0.3753361  0.1252549  )
       213           Al  tau( 213) = (  0.7494816  0.2500438  0.2505184  )
       214           Al  tau( 214) = (  0.8747451  0.3753361  0.2506764  )
       215           Al  tau( 215) = (  0.8749838  0.2500725  0.3752732  )
       216           Al  tau( 216) = (  0.7499412  0.3749969  0.3750677  )
       217           Al  tau( 217) = (  0.7499247  0.2500208  0.5000000  )
       218           Al  tau( 218) = (  0.8749554  0.3750481  0.5000000  )
       219           Al  tau( 219) = (  0.8749838  0.2500725  0.6247268  )
       220           Al  tau( 220) = (  0.7499412  0.3749969  0.6249323  )
       221           Al  tau( 221) = (  0.7494816  0.2500438  0.7494816  )
       222           Al  tau( 222) = (  0.8747451  0.3753361  0.7493236  )
       223           Al  tau( 223) = (  0.8732271  0.2505604  0.8732271  )
       224           Al  tau( 224) = (  0.7493236  0.3753361  0.8747451  )
       225           Al  tau( 225) = (  0.7494917  0.5004628  0.0000000  )
       226           Al  tau( 226) = (  0.8749954  0.6250000  0.0000000  )
       227           Al  tau( 227) = (  0.8747131  0.5006112  0.1252869  )
       228           Al  tau( 228) = (  0.7498630  0.6250000  0.1250072  )
       229           Al  tau( 229) = (  0.7499301  0.5000483  0.2500699  )
       230           Al  tau( 230) = (  0.8749928  0.6250000  0.2501370  )
       231           Al  tau( 231) = (  0.8749747  0.5000736  0.3751041  )
       232           Al  tau( 232) = (  0.7500169  0.6250000  0.3749830  )
       233           Al  tau( 233) = (  0.7499474  0.5000203  0.5000000  )
       234           Al  tau( 234) = (  0.8749683  0.6250000  0.5000000  )
       235           Al  tau( 235) = (  0.8749747  0.5000736  0.6248959  )
       236           Al  tau( 236) = (  0.7500169  0.6250000  0.6250171  )
       237           Al  tau( 237) = (  0.7499301  0.5000483  0.7499301  )
       238           Al  tau( 238) = (  0.8749928  0.6250000  0.7498630  )
       239           Al  tau( 239) = (  0.8747131  0.5006112  0.8747131  )
       240           Al  tau( 240) = (  0.7498630  0.6250000  0.8749928  )
       241           Al  tau( 241) = (  0.7494917  0.7495372  0.0000000  )
       242           Al  tau( 242) = (  0.8734878  0.8733641  0.0000000  )
       243           Al  tau( 243) = (  0.8747131  0.7493888  0.1252869  )
       244           Al  tau( 244) = (  0.7493236  0.8746639  0.1252549  )
       245           Al  tau( 245) = (  0.7499301  0.7499517  0.2500699  )
       246           Al  tau( 246) = (  0.8747451  0.8746639  0.2506764  )
       247           Al  tau( 247) = (  0.8749747  0.7499264  0.3751041  )
       248           Al  tau( 248) = (  0.7499412  0.8750031  0.3750677  )
       249           Al  tau( 249) = (  0.7499474  0.7499797  0.5000000  )
       250           Al  tau( 250) = (  0.8749554  0.8749519  0.5000000  )
       251           Al  tau( 251) = (  0.8749747  0.7499264  0.6248959  )
       252           Al  tau( 252) = (  0.7499412  0.8750031  0.6249323  )
       253           Al  tau( 253) = (  0.7499301  0.7499517  0.7499301  )
       254           Al  tau( 254) = (  0.8747451  0.8746639  0.7493236  )
       255           Al  tau( 255) = (  0.8747131  0.7493888  0.8747131  )
       256           Al  tau( 256) = (  0.7493236  0.8746639  0.8747451  )

     number of k points=    63  Methfessel-Paxton smearing, width (Ry)=  0.0441
                       cart. coord. in units 2pi/alat
        k(    1) = (   0.0000000   0.0000000   0.0000000), wk =   0.0160000
        k(    2) = (   0.0000000   0.0000000   0.2000000), wk =   0.0320000
        k(    3) = (   0.0000000   0.0000000   0.4000000), wk =   0.0320000
        k(    4) = (   0.0000000   0.2000000   0.0000000), wk =   0.0320000
        k(    5) = (   0.0000000   0.2000000   0.2000000), wk =   0.0320000
        k(    6) = (   0.0000000   0.2000000   0.4000000), wk =   0.0320000
        k(    7) = (   0.0000000   0.2000000  -0.4000000), wk =   0.0320000
        k(    8) = (   0.0000000   0.2000000  -0.2000000), wk =   0.0320000
        k(    9) = (   0.0000000   0.4000000   0.0000000), wk =   0.0320000
        k(   10) = (   0.0000000   0.4000000   0.2000000), wk =   0.0320000
        k(   11) = (   0.0000000   0.4000000   0.4000000), wk =   0.0320000
        k(   12) = (   0.0000000   0.4000000  -0.4000000), wk =   0.0320000
        k(   13) = (   0.0000000   0.4000000  -0.2000000), wk =   0.0320000
        k(   14) = (   0.2000000   0.0000000   0.0000000), wk =   0.0320000
        k(   15) = (   0.2000000   0.0000000   0.2000000), wk =   0.0320000
        k(   16) = (   0.2000000   0.0000000   0.4000000), wk =   0.0320000
        k(   17) = (   0.2000000   0.0000000  -0.4000000), wk =   0.0320000
        k(   18) = (   0.2000000   0.0000000  -0.2000000), wk =   0.0320000
        k(   19) = (   0.2000000   0.2000000   0.0000000), wk =   0.0320000
        k(   20) = (   0.2000000   0.2000000   0.2000000), wk =   0.0320000
        k(   21) = (   0.2000000   0.2000000   0.4000000), wk =   0.0320000
        k(   22) = (   0.2000000   0.2000000  -0.4000000), wk =   0.0320000
        k(   23) = (   0.2000000   0.2000000  -0.2000000), wk =   0.0320000
        k(   24) = (   0.2000000   0.4000000   0.0000000), wk =   0.0320000
        k(   25) = (   0.2000000   0.4000000   0.2000000), wk =   0.0320000
        k(   26) = (   0.2000000   0.4000000   0.4000000), wk =   0.0320000
        k(   27) = (   0.2000000   0.4000000  -0.4000000), wk =   0.0320000
        k(   28) = (   0.2000000   0.4000000  -0.2000000), wk =   0.0320000
        k(   29) = (   0.2000000  -0.4000000   0.0000000), wk =   0.0320000
        k(   30) = (   0.2000000  -0.4000000   0.2000000), wk =   0.0320000
        k(   31) = (   0.2000000  -0.4000000   0.4000000), wk =   0.0320000
        k(   32) = (   0.2000000  -0.4000000  -0.4000000), wk =   0.0320000
        k(   33) = (   0.2000000  -0.4000000  -0.2000000), wk =   0.0320000
        k(   34) = (   0.2000000  -0.2000000   0.0000000), wk =   0.0320000
        k(   35) = (   0.2000000  -0.2000000   0.2000000), wk =   0.0320000
        k(   36) = (   0.2000000  -0.2000000   0.4000000), wk =   0.0320000
        k(   37) = (   0.2000000  -0.2000000  -0.4000000), wk =   0.0320000
        k(   38) = (   0.2000000  -0.2000000  -0.2000000), wk =   0.0320000
        k(   39) = (   0.4000000   0.0000000   0.0000000), wk =   0.0320000
        k(   40) = (   0.4000000   0.0000000   0.2000000), wk =   0.0320000
        k(   41) = (   0.4000000   0.0000000   0.4000000), wk =   0.0320000
        k(   42) = (   0.4000000   0.0000000  -0.4000000), wk =   0.0320000
        k(   43) = (   0.4000000   0.0000000  -0.2000000), wk =   0.0320000
        k(   44) = (   0.4000000   0.2000000   0.0000000), wk =   0.0320000
        k(   45) = (   0.4000000   0.2000000   0.2000000), wk =   0.0320000
        k(   46) = (   0.4000000   0.2000000   0.4000000), wk =   0.0320000
        k(   47) = (   0.4000000   0.2000000  -0.4000000), wk =   0.0320000
        k(   48) = (   0.4000000   0.2000000  -0.2000000), wk =   0.0320000
        k(   49) = (   0.4000000   0.4000000   0.0000000), wk =   0.0320000
        k(   50) = (   0.4000000   0.4000000   0.2000000), wk =   0.0320000
        k(   51) = (   0.4000000   0.4000000   0.4000000), wk =   0.0320000
        k(   52) = (   0.4000000   0.4000000  -0.4000000), wk =   0.0320000
        k(   53) = (   0.4000000   0.4000000  -0.2000000), wk =   0.0320000
        k(   54) = (   0.4000000  -0.4000000   0.0000000), wk =   0.0320000
        k(   55) = (   0.4000000  -0.4000000   0.2000000), wk =   0.0320000
        k(   56) = (   0.4000000  -0.4000000   0.4000000), wk =   0.0320000
        k(   57) = (   0.4000000  -0.4000000  -0.4000000), wk =   0.0320000
        k(   58) = (   0.4000000  -0.4000000  -0.2000000), wk =   0.0320000
        k(   59) = (   0.4000000  -0.2000000   0.0000000), wk =   0.0320000
        k(   60) = (   0.4000000  -0.2000000   0.2000000), wk =   0.0320000
        k(   61) = (   0.4000000  -0.2000000   0.4000000), wk =   0.0320000
        k(   62) = (   0.4000000  -0.2000000  -0.4000000), wk =   0.0320000
        k(   63) = (   0.4000000  -0.2000000  -0.2000000), wk =   0.0320000

                       cryst. coord.
        k(    1) = (   0.0000000   0.0000000   0.0000000), wk =   0.0160000
        k(    2) = (   0.0000000   0.0000000   0.2000000), wk =   0.0320000
        k(    3) = (   0.0000000   0.0000000   0.4000000), wk =   0.0320000
        k(    4) = (   0.0000000   0.2000000   0.0000000), wk =   0.0320000
        k(    5) = (   0.0000000   0.2000000   0.2000000), wk =   0.0320000
        k(    6) = (   0.0000000   0.2000000   0.4000000), wk =   0.0320000
        k(    7) = (   0.0000000   0.2000000  -0.4000000), wk =   0.0320000
        k(    8) = (   0.0000000   0.2000000  -0.2000000), wk =   0.0320000
        k(    9) = (   0.0000000   0.4000000   0.0000000), wk =   0.0320000
        k(   10) = (   0.0000000   0.4000000   0.2000000), wk =   0.0320000
        k(   11) = (   0.0000000   0.4000000   0.4000000), wk =   0.0320000
        k(   12) = (   0.0000000   0.4000000  -0.4000000), wk =   0.0320000
        k(   13) = (   0.0000000   0.4000000  -0.2000000), wk =   0.0320000
        k(   14) = (   0.2000000   0.0000000   0.0000000), wk =   0.0320000
        k(   15) = (   0.2000000   0.0000000   0.2000000), wk =   0.0320000
        k(   16) = (   0.2000000   0.0000000   0.4000000), wk =   0.0320000
        k(   17) = (   0.2000000   0.0000000  -0.4000000), wk =   0.0320000
        k(   18) = (   0.2000000   0.0000000  -0.2000000), wk =   0.0320000
        k(   19) = (   0.2000000   0.2000000   0.0000000), wk =   0.0320000
        k(   20) = (   0.2000000   0.2000000   0.2000000), wk =   0.0320000
        k(   21) = (   0.2000000   0.2000000   0.4000000), wk =   0.0320000
        k(   22) = (   0.2000000   0.2000000  -0.4000000), wk =   0.0320000
        k(   23) = (   0.2000000   0.2000000  -0.2000000), wk =   0.0320000
        k(   24) = (   0.2000000   0.4000000   0.0000000), wk =   0.0320000
        k(   25) = (   0.2000000   0.4000000   0.2000000), wk =   0.0320000
        k(   26) = (   0.2000000   0.4000000   0.4000000), wk =   0.0320000
        k(   27) = (   0.2000000   0.4000000  -0.4000000), wk =   0.0320000
        k(   28) = (   0.2000000   0.4000000  -0.2000000), wk =   0.0320000
        k(   29) = (   0.2000000  -0.4000000   0.0000000), wk =   0.0320000
        k(   30) = (   0.2000000  -0.4000000   0.2000000), wk =   0.0320000
        k(   31) = (   0.2000000  -0.4000000   0.4000000), wk =   0.0320000
        k(   32) = (   0.2000000  -0.4000000  -0.4000000), wk =   0.0320000
        k(   33) = (   0.2000000  -0.4000000  -0.2000000), wk =   0.0320000
        k(   34) = (   0.2000000  -0.2000000   0.0000000), wk =   0.0320000
        k(   35) = (   0.2000000  -0.2000000   0.2000000), wk =   0.0320000
        k(   36) = (   0.2000000  -0.2000000   0.4000000), wk =   0.0320000
        k(   37) = (   0.2000000  -0.2000000  -0.4000000), wk =   0.0320000
        k(   38) = (   0.2000000  -0.2000000  -0.2000000), wk =   0.0320000
        k(   39) = (   0.4000000   0.0000000   0.0000000), wk =   0.0320000
        k(   40) = (   0.4000000   0.0000000   0.2000000), wk =   0.0320000
        k(   41) = (   0.4000000   0.0000000   0.4000000), wk =   0.0320000
        k(   42) = (   0.4000000   0.0000000  -0.4000000), wk =   0.0320000
        k(   43) = (   0.4000000   0.0000000  -0.2000000), wk =   0.0320000
        k(   44) = (   0.4000000   0.2000000   0.0000000), wk =   0.0320000
        k(   45) = (   0.4000000   0.2000000   0.2000000), wk =   0.0320000
        k(   46) = (   0.4000000   0.2000000   0.4000000), wk =   0.0320000
        k(   47) = (   0.4000000   0.2000000  -0.4000000), wk =   0.0320000
        k(   48) = (   0.4000000   0.2000000  -0.2000000), wk =   0.0320000
        k(   49) = (   0.4000000   0.4000000   0.0000000), wk =   0.0320000
        k(   50) = (   0.4000000   0.4000000   0.2000000), wk =   0.0320000
        k(   51) = (   0.4000000   0.4000000   0.4000000), wk =   0.0320000
        k(   52) = (   0.4000000   0.4000000  -0.4000000), wk =   0.0320000
        k(   53) = (   0.4000000   0.4000000  -0.2000000), wk =   0.0320000
        k(   54) = (   0.4000000  -0.4000000   0.0000000), wk =   0.0320000
        k(   55) = (   0.4000000  -0.4000000   0.2000000), wk =   0.0320000
        k(   56) = (   0.4000000  -0.4000000   0.4000000), wk =   0.0320000
        k(   57) = (   0.4000000  -0.4000000  -0.4000000), wk =   0.0320000
        k(   58) = (   0.4000000  -0.4000000  -0.2000000), wk =   0.0320000
        k(   59) = (   0.4000000  -0.2000000   0.0000000), wk =   0.0320000
        k(   60) = (   0.4000000  -0.2000000   0.2000000), wk =   0.0320000
        k(   61) = (   0.4000000  -0.2000000   0.4000000), wk =   0.0320000
        k(   62) = (   0.4000000  -0.2000000  -0.4000000), wk =   0.0320000
        k(   63) = (   0.4000000  -0.2000000  -0.2000000), wk =   0.0320000

     Dense  grid:  3895379 G-vectors     FFT dimensions: ( 200, 200, 200)

     Smooth grid:   985619 G-vectors     FFT dimensions: ( 125, 125, 125)

     Dynamical RAM for                 wfc:     108.09 MB

     Dynamical RAM for     wfc (w. buffer):     324.28 MB

     Dynamical RAM for           str. fact:      14.86 MB

     Dynamical RAM for           local pot:       0.00 MB

     Dynamical RAM for          nlocal pot:    1078.11 MB

     Dynamical RAM for                qrad:      15.65 MB

     Dynamical RAM for          rho,v,vnew:      45.18 MB

     Dynamical RAM for               rhoin:      15.06 MB

     Dynamical RAM for            rho*nmix:     118.88 MB

     Dynamical RAM for           G-vectors:      28.80 MB

     Dynamical RAM for          h,s,v(r/c):      38.75 MB

     Dynamical RAM for          <psi|beta>:      32.20 MB

     Dynamical RAM for                 psi:     432.37 MB

     Dynamical RAM for                hpsi:     432.37 MB

     Dynamical RAM for                spsi:     432.37 MB

     Dynamical RAM for      wfcinit/wfcrot:     505.26 MB

     Dynamical RAM for           addusdens:      98.03 MB

     Dynamical RAM for          addusforce:     201.19 MB

     Dynamical RAM for         addusstress:      45.09 MB

     Estimated static dynamical RAM per process >       1.66 GB

     Estimated max dynamical RAM per process >       3.00 GB

     Estimated total dynamical RAM >     863.25 GB

     Initial potential from superposition of free atoms

     starting charge  765.41644, renormalised to  766.00000
     Starting wfcs are 1024 randomized atomic wfcs
     Checking if some PAW data can be deallocated... 
       PAW data deallocated on  284 nodes for type:  1
       PAW data deallocated on    4 nodes for type:  2

     total cpu time spent up to now is      203.9 secs

     Self-consistent Calculation

     iteration #  1     ecut=    40.00 Ry     beta= 0.40
     Davidson diagonalization with overlap
     ethr =  1.00E-02,  avg # of iterations =  3.0

     Threshold (ethr) on eigenvalues was too large:
     Diagonalizing with lowered threshold

     Davidson diagonalization with overlap
     ethr =  1.97E-04,  avg # of iterations =  8.4

     total cpu time spent up to now is      970.2 secs

     total energy              =  -10101.10895470 Ry
     Harris-Foulkes estimate   =  -10101.28001606 Ry
     estimated scf accuracy    <       1.54054902 Ry

     iteration #  2     ecut=    40.00 Ry     beta= 0.40
     Davidson diagonalization with overlap
     ethr =  2.01E-04,  avg # of iterations =  1.1

     total cpu time spent up to now is     1196.8 secs

     total energy              =  -10100.89476677 Ry
     Harris-Foulkes estimate   =  -10101.11667884 Ry
     estimated scf accuracy    <       0.80401795 Ry

     iteration #  3     ecut=    40.00 Ry     beta= 0.40
     Davidson diagonalization with overlap
     ethr =  1.05E-04,  avg # of iterations =  1.1

     total cpu time spent up to now is     1422.7 secs

     total energy              =  -10100.91507625 Ry
     Harris-Foulkes estimate   =  -10100.91694904 Ry
     estimated scf accuracy    <       0.00473645 Ry

     iteration #  4     ecut=    40.00 Ry     beta= 0.40
     Davidson diagonalization with overlap
     c_bands:  3 eigenvalues not converged
     ethr =  6.18E-07,  avg # of iterations = 18.1

     total cpu time spent up to now is     2051.3 secs

     total energy              =  -10100.91968549 Ry
     Harris-Foulkes estimate   =  -10100.91959975 Ry
     estimated scf accuracy    <       0.01141704 Ry

     iteration #  5     ecut=    40.00 Ry     beta= 0.40
     Davidson diagonalization with overlap
     c_bands:  3 eigenvalues not converged
     ethr =  6.18E-07,  avg # of iterations =  8.0

     total cpu time spent up to now is     2346.2 secs

     total energy              =  -10100.91327292 Ry
     Harris-Foulkes estimate   =  -10100.91970504 Ry
     estimated scf accuracy    <       0.01483592 Ry

     iteration #  6     ecut=    40.00 Ry     beta= 0.40
     Davidson diagonalization with overlap
     ethr =  6.18E-07,  avg # of iterations =  8.8

     total cpu time spent up to now is     2892.8 secs

     total energy              =  -10100.91554697 Ry
     Harris-Foulkes estimate   =  -10100.92540628 Ry
     estimated scf accuracy    <       0.10646769 Ry

     iteration #  7     ecut=    40.00 Ry     beta= 0.40
     Davidson diagonalization with overlap
     ethr =  6.18E-07,  avg # of iterations =  4.0

     total cpu time spent up to now is     3200.5 secs

     total energy              =  -10100.91788681 Ry
     Harris-Foulkes estimate   =  -10100.91855353 Ry
     estimated scf accuracy    <       0.01127279 Ry

     iteration #  8     ecut=    40.00 Ry     beta= 0.40
     Davidson diagonalization with overlap
     ethr =  6.18E-07,  avg # of iterations =  1.1

     total cpu time spent up to now is     3427.0 secs

     total energy              =  -10100.91745507 Ry
     Harris-Foulkes estimate   =  -10100.91801253 Ry
     estimated scf accuracy    <       0.00453093 Ry

     iteration #  9     ecut=    40.00 Ry     beta= 0.40
     Davidson diagonalization with overlap
     ethr =  5.92E-07,  avg # of iterations =  3.0

     total cpu time spent up to now is     3668.5 secs

     total energy              =  -10100.91776717 Ry
     Harris-Foulkes estimate   =  -10100.91775027 Ry
     estimated scf accuracy    <       0.00002897 Ry

     iteration # 10     ecut=    40.00 Ry     beta= 0.40
     Davidson diagonalization with overlap
     ethr =  3.78E-09,  avg # of iterations =  5.7

     total cpu time spent up to now is     4149.4 secs

     total energy              =  -10100.91781922 Ry
     Harris-Foulkes estimate   =  -10100.91783050 Ry
     estimated scf accuracy    <       0.00019924 Ry

     iteration # 11     ecut=    40.00 Ry     beta= 0.40
     Davidson diagonalization with overlap
     ethr =  3.78E-09,  avg # of iterations =  2.0

     total cpu time spent up to now is     4382.3 secs

     total energy              =  -10100.91782112 Ry
     Harris-Foulkes estimate   =  -10100.91782075 Ry
     estimated scf accuracy    <       0.00008394 Ry

     iteration # 12     ecut=    40.00 Ry     beta= 0.40
     Davidson diagonalization with overlap
     ethr =  3.78E-09,  avg # of iterations =  1.0

     total cpu time spent up to now is     4608.3 secs

     total energy              =  -10100.91780757 Ry
     Harris-Foulkes estimate   =  -10100.91782115 Ry
     estimated scf accuracy    <       0.00008704 Ry

     iteration # 13     ecut=    40.00 Ry     beta= 0.40
     Davidson diagonalization with overlap
     ethr =  3.78E-09,  avg # of iterations =  3.1

     total cpu time spent up to now is     4884.7 secs

     total energy              =  -10100.91781432 Ry
     Harris-Foulkes estimate   =  -10100.91781466 Ry
     estimated scf accuracy    <       0.00000187 Ry

     iteration # 14     ecut=    40.00 Ry     beta= 0.40
     Davidson diagonalization with overlap
     ethr =  2.44E-10,  avg # of iterations =  3.9

     total cpu time spent up to now is     5155.6 secs

     total energy              =  -10100.91781434 Ry
     Harris-Foulkes estimate   =  -10100.91781453 Ry
     estimated scf accuracy    <       0.00000082 Ry

     iteration # 15     ecut=    40.00 Ry     beta= 0.40
     Davidson diagonalization with overlap
     ethr =  1.07E-10,  avg # of iterations =  4.0

     total cpu time spent up to now is     5438.7 secs

     total energy              =  -10100.91781456 Ry
     Harris-Foulkes estimate   =  -10100.91781453 Ry
     estimated scf accuracy    <       0.00000110 Ry

     iteration # 16     ecut=    40.00 Ry     beta= 0.40
     Davidson diagonalization with overlap
     ethr =  1.07E-10,  avg # of iterations =  1.0

     total cpu time spent up to now is     5664.3 secs

     total energy              =  -10100.91781443 Ry
     Harris-Foulkes estimate   =  -10100.91781457 Ry
     estimated scf accuracy    <       0.00000147 Ry

     iteration # 17     ecut=    40.00 Ry     beta= 0.40
     Davidson diagonalization with overlap
     ethr =  1.07E-10,  avg # of iterations =  1.0

     total cpu time spent up to now is     5890.3 secs

     total energy              =  -10100.91781439 Ry
     Harris-Foulkes estimate   =  -10100.91781445 Ry
     estimated scf accuracy    <       0.00000049 Ry

     iteration # 18     ecut=    40.00 Ry     beta= 0.40
     Davidson diagonalization with overlap
     ethr =  6.40E-11,  avg # of iterations =  2.3

     total cpu time spent up to now is     6125.3 secs

     total energy              =  -10100.91781441 Ry
     Harris-Foulkes estimate   =  -10100.91781441 Ry
     estimated scf accuracy    <       0.00000004 Ry

     iteration # 19     ecut=    40.00 Ry     beta= 0.40
     Davidson diagonalization with overlap
     ethr =  5.36E-12,  avg # of iterations =  5.0

     total cpu time spent up to now is     6489.8 secs

     total energy              =  -10100.91781440 Ry
     Harris-Foulkes estimate   =  -10100.91781440 Ry
     estimated scf accuracy    <       0.00000003 Ry

     iteration # 20     ecut=    40.00 Ry     beta= 0.40
     Davidson diagonalization with overlap
     ethr =  3.61E-12,  avg # of iterations =  2.0

     total cpu time spent up to now is     6734.2 secs

     total energy              =  -10100.91781439 Ry
     Harris-Foulkes estimate   =  -10100.91781439 Ry
     estimated scf accuracy    <          6.4E-09 Ry

     iteration # 21     ecut=    40.00 Ry     beta= 0.40
     Davidson diagonalization with overlap
     ethr =  8.36E-13,  avg # of iterations =  3.1

     total cpu time spent up to now is     6972.5 secs

     total energy              =  -10100.91781439 Ry
     Harris-Foulkes estimate   =  -10100.91781439 Ry
     estimated scf accuracy    <          5.0E-09 Ry

     iteration # 22     ecut=    40.00 Ry     beta= 0.40
     Davidson diagonalization with overlap
     ethr =  6.58E-13,  avg # of iterations =  1.0

     total cpu time spent up to now is     7197.8 secs

     total energy              =  -10100.91781438 Ry
     Harris-Foulkes estimate   =  -10100.91781438 Ry
     estimated scf accuracy    <          2.4E-09 Ry

     iteration # 23     ecut=    40.00 Ry     beta= 0.40
     Davidson diagonalization with overlap
     ethr =  3.15E-13,  avg # of iterations =  2.2

     total cpu time spent up to now is     7431.0 secs

     total energy              =  -10100.91781438 Ry
     Harris-Foulkes estimate   =  -10100.91781438 Ry
     estimated scf accuracy    <          1.2E-09 Ry

     iteration # 24     ecut=    40.00 Ry     beta= 0.40
     Davidson diagonalization with overlap
     ethr =  1.52E-13,  avg # of iterations =  3.0

     total cpu time spent up to now is     7669.5 secs

     total energy              =  -10100.91781438 Ry
     Harris-Foulkes estimate   =  -10100.91781438 Ry
     estimated scf accuracy    <          2.2E-10 Ry

     iteration # 25     ecut=    40.00 Ry     beta= 0.40
     Davidson diagonalization with overlap
     ethr =  1.00E-13,  avg # of iterations =  1.0

     total cpu time spent up to now is     7894.9 secs

     total energy              =  -10100.91781438 Ry
     Harris-Foulkes estimate   =  -10100.91781438 Ry
     estimated scf accuracy    <          9.4E-11 Ry

     iteration # 26     ecut=    40.00 Ry     beta= 0.40
     Davidson diagonalization with overlap
     ethr =  1.00E-13,  avg # of iterations =  1.0

     total cpu time spent up to now is     8121.0 secs

     total energy              =  -10100.91781438 Ry
     Harris-Foulkes estimate   =  -10100.91781438 Ry
     estimated scf accuracy    <          1.3E-11 Ry

     iteration # 27     ecut=    40.00 Ry     beta= 0.40
     Davidson diagonalization with overlap
     ethr =  1.00E-13,  avg # of iterations =  1.0

     total cpu time spent up to now is     8346.8 secs

     total energy              =  -10100.91781438 Ry
     Harris-Foulkes estimate   =  -10100.91781438 Ry
     estimated scf accuracy    <          6.1E-12 Ry

     iteration # 28     ecut=    40.00 Ry     beta= 0.40
     Davidson diagonalization with overlap
     ethr =  1.00E-13,  avg # of iterations =  1.0

     total cpu time spent up to now is     8573.0 secs

     total energy              =  -10100.91781438 Ry
     Harris-Foulkes estimate   =  -10100.91781438 Ry
     estimated scf accuracy    <          4.4E-12 Ry

     iteration # 29     ecut=    40.00 Ry     beta= 0.40
     Davidson diagonalization with overlap
     ethr =  1.00E-13,  avg # of iterations =  1.0

     total cpu time spent up to now is     8799.1 secs

     total energy              =  -10100.91781438 Ry
     Harris-Foulkes estimate   =  -10100.91781438 Ry
     estimated scf accuracy    <          4.7E-12 Ry

     iteration # 30     ecut=    40.00 Ry     beta= 0.40
     Davidson diagonalization with overlap
     ethr =  1.00E-13,  avg # of iterations =  1.0

     total cpu time spent up to now is     9024.9 secs

     total energy              =  -10100.91781438 Ry
     Harris-Foulkes estimate   =  -10100.91781438 Ry
     estimated scf accuracy    <          5.3E-12 Ry

     iteration # 31     ecut=    40.00 Ry     beta= 0.40
     Davidson diagonalization with overlap
     ethr =  1.00E-13,  avg # of iterations =  1.0

     total cpu time spent up to now is     9250.8 secs

     total energy              =  -10100.91781438 Ry
     Harris-Foulkes estimate   =  -10100.91781438 Ry
     estimated scf accuracy    <          1.7E-11 Ry

     iteration # 32     ecut=    40.00 Ry     beta= 0.40
     Davidson diagonalization with overlap
     ethr =  1.00E-13,  avg # of iterations =  1.0

     total cpu time spent up to now is     9476.9 secs

     total energy              =  -10100.91781438 Ry
     Harris-Foulkes estimate   =  -10100.91781438 Ry
     estimated scf accuracy    <          1.8E-11 Ry

     iteration # 33     ecut=    40.00 Ry     beta= 0.40
     Davidson diagonalization with overlap
     ethr =  1.00E-13,  avg # of iterations =  1.0

     total cpu time spent up to now is     9702.4 secs

     total energy              =  -10100.91781438 Ry
     Harris-Foulkes estimate   =  -10100.91781438 Ry
     estimated scf accuracy    <          1.9E-11 Ry

     iteration # 34     ecut=    40.00 Ry     beta= 0.40
     Davidson diagonalization with overlap
     ethr =  1.00E-13,  avg # of iterations =  1.0

     total cpu time spent up to now is     9928.3 secs

     total energy              =  -10100.91781437 Ry
     Harris-Foulkes estimate   =  -10100.91781437 Ry
     estimated scf accuracy    <          1.9E-11 Ry

     iteration # 35     ecut=    40.00 Ry     beta= 0.40
     Davidson diagonalization with overlap
     ethr =  1.00E-13,  avg # of iterations =  1.0

     total cpu time spent up to now is    10154.2 secs

     total energy              =  -10100.91781437 Ry
     Harris-Foulkes estimate   =  -10100.91781437 Ry
     estimated scf accuracy    <          1.9E-11 Ry

     iteration # 36     ecut=    40.00 Ry     beta= 0.40
     Davidson diagonalization with overlap
     ethr =  1.00E-13,  avg # of iterations =  1.0

     total cpu time spent up to now is    10379.9 secs

     total energy              =  -10100.91781437 Ry
     Harris-Foulkes estimate   =  -10100.91781437 Ry
     estimated scf accuracy    <          2.4E-11 Ry

     iteration # 37     ecut=    40.00 Ry     beta= 0.40
     Davidson diagonalization with overlap
     ethr =  1.00E-13,  avg # of iterations =  1.0

     total cpu time spent up to now is    10605.7 secs

     total energy              =  -10100.91781437 Ry
     Harris-Foulkes estimate   =  -10100.91781437 Ry
     estimated scf accuracy    <          2.0E-11 Ry

     iteration # 38     ecut=    40.00 Ry     beta= 0.40
     Davidson diagonalization with overlap
     ethr =  1.00E-13,  avg # of iterations =  1.0

     total cpu time spent up to now is    10831.4 secs

     total energy              =  -10100.91781437 Ry
     Harris-Foulkes estimate   =  -10100.91781437 Ry
     estimated scf accuracy    <          3.3E-11 Ry

     iteration # 39     ecut=    40.00 Ry     beta= 0.40
     Davidson diagonalization with overlap
     ethr =  1.00E-13,  avg # of iterations =  1.0

     total cpu time spent up to now is    11056.7 secs

     total energy              =  -10100.91781437 Ry
     Harris-Foulkes estimate   =  -10100.91781437 Ry
     estimated scf accuracy    <          2.4E-11 Ry

     iteration # 40     ecut=    40.00 Ry     beta= 0.40
     Davidson diagonalization with overlap
     ethr =  1.00E-13,  avg # of iterations =  1.0

     total cpu time spent up to now is    11282.4 secs

     total energy              =  -10100.91781437 Ry
     Harris-Foulkes estimate   =  -10100.91781437 Ry
     estimated scf accuracy    <          1.8E-11 Ry

     iteration # 41     ecut=    40.00 Ry     beta= 0.40
     Davidson diagonalization with overlap
     ethr =  1.00E-13,  avg # of iterations =  1.0

     total cpu time spent up to now is    11508.2 secs

     total energy              =  -10100.91781437 Ry
     Harris-Foulkes estimate   =  -10100.91781437 Ry
     estimated scf accuracy    <          1.8E-11 Ry

     iteration # 42     ecut=    40.00 Ry     beta= 0.40
     Davidson diagonalization with overlap
     ethr =  1.00E-13,  avg # of iterations =  1.0

     total cpu time spent up to now is    11734.1 secs

     total energy              =  -10100.91781437 Ry
     Harris-Foulkes estimate   =  -10100.91781437 Ry
     estimated scf accuracy    <          1.5E-11 Ry

     iteration # 43     ecut=    40.00 Ry     beta= 0.40
     Davidson diagonalization with overlap
     ethr =  1.00E-13,  avg # of iterations =  1.0

     total cpu time spent up to now is    11959.6 secs

     total energy              =  -10100.91781437 Ry
     Harris-Foulkes estimate   =  -10100.91781437 Ry
     estimated scf accuracy    <          1.2E-11 Ry

     iteration # 44     ecut=    40.00 Ry     beta= 0.40
     Davidson diagonalization with overlap
     ethr =  1.00E-13,  avg # of iterations =  1.0

     total cpu time spent up to now is    12185.3 secs

     total energy              =  -10100.91781437 Ry
     Harris-Foulkes estimate   =  -10100.91781437 Ry
     estimated scf accuracy    <          9.4E-12 Ry

     iteration # 45     ecut=    40.00 Ry     beta= 0.40
     Davidson diagonalization with overlap
     ethr =  1.00E-13,  avg # of iterations =  1.0

     total cpu time spent up to now is    12411.1 secs

     total energy              =  -10100.91781437 Ry
     Harris-Foulkes estimate   =  -10100.91781437 Ry
     estimated scf accuracy    <          1.1E-11 Ry

     iteration # 46     ecut=    40.00 Ry     beta= 0.40
     Davidson diagonalization with overlap
     ethr =  1.00E-13,  avg # of iterations =  1.0

     total cpu time spent up to now is    12637.2 secs

     total energy              =  -10100.91781437 Ry
     Harris-Foulkes estimate   =  -10100.91781437 Ry
     estimated scf accuracy    <          3.8E-12 Ry

     iteration # 47     ecut=    40.00 Ry     beta= 0.40
     Davidson diagonalization with overlap
     ethr =  1.00E-13,  avg # of iterations =  1.0

     total cpu time spent up to now is    12863.3 secs

     total energy              =  -10100.91781437 Ry
     Harris-Foulkes estimate   =  -10100.91781437 Ry
     estimated scf accuracy    <          2.8E-12 Ry

     iteration # 48     ecut=    40.00 Ry     beta= 0.40
     Davidson diagonalization with overlap
     ethr =  1.00E-13,  avg # of iterations =  1.0

     total cpu time spent up to now is    13088.1 secs

     End of self-consistent calculation

          k = 0.0000 0.0000 0.0000 (123065 PWs)   bands (ev):

    -3.2811  -2.7385  -2.7362  -2.7335  -2.7335  -2.7183  -2.6551  -2.1811
    -2.1811  -2.1802  -2.1794  -2.1792  -2.1739  -2.1739  -2.1712  -2.1623
    -2.1623  -2.1053  -2.0336  -1.6236  -1.6229  -1.6122  -1.6122  -1.6111
    -1.6111  -1.5490  -1.5355  -1.0633  -1.0521  -1.0508  -1.0508  -1.0415
    -1.0080  -0.5178  -0.5168  -0.5168  -0.5168  -0.5160  -0.5152  -0.5148
    -0.5148  -0.5143  -0.5143  -0.5127  -0.5084  -0.5083  -0.5083  -0.5071
    -0.5061  -0.5040  -0.4930  -0.4930  -0.4624  -0.4624  -0.4545  -0.3856
    -0.3369   0.0326   0.0330   0.0330   0.0331   0.0339   0.0339   0.0351
     0.0351   0.0381   0.0392   0.0395   0.0395   0.0423   0.0423   0.0475
     0.0489   0.0504   0.0763   0.0763   0.0858   0.0863   0.0863   0.2364
     0.2895   1.1316   1.1374   1.1434   1.1434   1.1437   1.1503   1.1503
     1.1510   1.1510   1.1673   1.1826   1.2077   1.6685   1.6726   1.6726
     1.6730   1.6731   1.6746   1.6753   1.6754   1.6757   1.6757   1.6761
     1.6761   1.6765   1.6765   1.6770   1.6774   1.6785   1.6813   1.6905
     1.6921   1.6985   1.6985   1.7002   1.7133   1.7133   1.7461   1.7461
     1.7493   1.7885   1.9016   2.2064   2.2064   2.2070   2.2097   2.2102
     2.2121   2.2124   2.2124   2.2127   2.2143   2.2143   2.2163   2.2180
     2.2180   2.2220   2.2305   2.2391   2.2391   2.2503   2.2758   2.2882
     2.2882   2.3296   2.3827   2.7482   2.7482   2.7484   2.7484   2.7493
     2.7493   2.7520   2.7527   2.7598   2.7598   2.7600   2.7600   2.7610
     2.7617   2.7632   2.7637   2.8028   2.8028   2.8102   2.8107   2.8107
     2.8175   2.8950   2.9271   3.2220   3.2388   3.2388   3.2413   3.4068
     3.4068   3.4077   3.4756   3.8167   3.8204   3.8204   3.8222   3.8236
     3.8258   3.8281   3.8281   3.8305   3.8305   3.8322   3.8351   3.8377
     3.8407   3.8486   3.8486   3.8579   3.8643   3.8643   3.8802   3.8807
     3.8807   3.9317   3.9325   4.2464   4.2473   4.2484   4.2484   4.2485
     4.2489   4.2489   4.2513   4.2525   4.2527   4.2546   4.2546   4.2591
     4.2597   4.2597   4.2697   4.2697   4.2784   4.3071   4.3071   4.3100
     4.3434   4.3434   4.3846   4.4775   4.4776   4.4776   4.4776   4.4794
     4.4807   4.4816   4.4823   4.4823   4.4832   4.4891   4.4891   4.4913
     4.4935   4.5054   4.5054   4.5077   4.5189   4.5293   4.5293   4.5299
     4.5299   4.6857   4.8591   4.8882   4.8882   4.8906   5.3761   5.3779
     5.3779   5.3779   5.3804   5.3804   5.3835   5.4029   5.4029   5.4533
     5.4533   5.4603   5.8899   5.8928   5.8944   5.8985   5.8991   5.9011
     5.9011   5.9241   5.9241   5.9440   5.9440   5.9483   5.9634   5.9640
     5.9655   5.9655   5.9680   5.9680   5.9684   5.9694   5.9705   5.9748
     5.9748   5.9754   5.9783   5.9810   5.9810   5.9995   5.9995   6.0047
     6.0158   6.0227   6.0501   6.0743   6.0743   6.1503   6.1717   6.1728
     6.2070   6.4236   6.4247   6.4258   6.4258   6.4330   6.4409   6.4455
     6.4455   6.4637   6.4641   6.4641   6.4665   6.6979   6.6990   6.6999
     6.6999   6.7030   6.7110   6.7110   6.7147   6.7404   6.7436   6.7534
     6.8284   6.9293   6.9325   6.9382   6.9382   6.9386   6.9386   6.9449
     6.9519   6.9519   6.9544   6.9544   6.9709   7.0072   7.0072   7.0077
     7.0077   7.0101   7.0108   7.0200   7.0201   7.0209   7.0223   7.0283
     7.0283   7.0293   7.0293   7.0339   7.0346   7.0355   7.0413   7.0779
     7.0779   7.0876   7.0876   7.1190   7.1364   7.3421   7.3460   7.3460
     7.3465   7.3465   7.3513   7.3513   7.3638   7.3643   7.3731   7.4355
     7.4375   7.4384   7.4406   7.4406   7.4455   7.4462   7.4490   7.4490
     7.4492   7.4503   7.4525   7.4585   7.4703   7.4703   7.4773   7.4780
     7.4780   7.4786   7.4862   7.4972   7.4972   7.5790   7.5790   7.5902
     7.6375   7.9537   7.9658   7.9758   7.9778   7.9778   7.9810   8.5865
     8.5865   8.5866   8.5866   8.5871   8.5874   8.5879   8.5879   8.5901
     8.5936   8.5936   8.5946   8.5990   8.5990   8.5992   8.6025   8.6361
     8.6391   8.6406   8.6406   8.6626   8.6650   8.6650   8.6692   8.8131
     8.8151   8.8154   8.8154   8.8314   8.8428   8.8862   8.8882   8.8885
     8.8885   8.8894   8.8894   8.8912   8.8912   8.8916   8.8991   8.8993
     8.9024   8.9024   8.9025   8.9028   8.9149   8.9149   8.9297   8.9444
     8.9482   8.9482   9.0006   9.0061

     occupation numbers 
     1.0000   1.0000   1.0000   1.0000   1.0000   1.0000   1.0000   1.0000
     1.0000   1.0000   1.0000   1.0000   1.0000   1.0000   1.0000   1.0000
     1.0000   1.0000   1.0000   1.0000   1.0000   1.0000   1.0000   1.0000
     1.0000   1.0000   1.0000   1.0000   1.0000   1.0000   1.0000   1.0000
     1.0000   1.0000   1.0000   1.0000   1.0000   1.0000   1.0000   1.0000
     1.0000   1.0000   1.0000   1.0000   1.0000   1.0000   1.0000   1.0000
     1.0000   1.0000   1.0000   1.0000   1.0000   1.0000   1.0000   1.0000
     1.0000   1.0000   1.0000   1.0000   1.0000   1.0000   1.0000   1.0000
     1.0000   1.0000   1.0000   1.0000   1.0000   1.0000   1.0000   1.0000
     1.0000   1.0000   1.0000   1.0000   1.0000   1.0000   1.0000   1.0000
     1.0000   1.0000   1.0000   1.0000   1.0000   1.0000   1.0000   1.0000
     1.0000   1.0000   1.0000   1.0000   1.0000   1.0000   1.0000   1.0000
     1.0000   1.0000   1.0000   1.0000   1.0000   1.0000   1.0000   1.0000
     1.0000   1.0000   1.0000   1.0000   1.0000   1.0000   1.0000   1.0000
     1.0000   1.0000   1.0000   1.0000   1.0000   1.0000   1.0000   1.0000
     1.0000   1.0000   1.0000   1.0000   1.0000   1.0000   1.0000   1.0000
     1.0000   1.0000   1.0000   1.0000   1.0000   1.0000   1.0000   1.0000
     1.0000   1.0000   1.0000   1.0000   1.0000   1.0000   1.0000   1.0000
     1.0000   1.0000   1.0000   1.0000   1.0000   1.0000   1.0000   1.0000
     1.0000   1.0000   1.0000   1.0000   1.0000   1.0000   1.0000   1.0000
[...]
     atom   75 type  2   force =    -0.00000004    0.00000000    0.00000004
     atom   76 type  2   force =    -0.00000005   -0.00000000   -0.00000000
     atom   77 type  2   force =     0.00000001    0.00000001   -0.00000001
     atom   78 type  2   force =    -0.00000000    0.00000000    0.00000005
     atom   79 type  2   force =     0.00000003    0.00000003    0.00000002
     atom   80 type  2   force =     0.00000004    0.00000000   -0.00000001
     atom   81 type  2   force =     0.00000004   -0.00000001   -0.00000001
     atom   82 type  2   force =     0.00000001   -0.00000003   -0.00000000
     atom   83 type  2   force =     0.00000003   -0.00000002   -0.00000001
     atom   84 type  2   force =     0.00000003    0.00000001    0.00000001
     atom   85 type  2   force =     0.00000001   -0.00000000    0.00000001
     atom   86 type  2   force =    -0.00000002   -0.00000001   -0.00000003
     atom   87 type  2   force =    -0.00000004   -0.00000001   -0.00000004
     atom   88 type  2   force =    -0.00000002   -0.00000001   -0.00000001
     atom   89 type  2   force =    -0.00000006   -0.00000002   -0.00000000
     atom   90 type  2   force =    -0.00000004    0.00000001    0.00000000
     atom   91 type  2   force =    -0.00000004    0.00000000    0.00000004
     atom   92 type  2   force =    -0.00000003   -0.00000001    0.00000002
     atom   93 type  2   force =     0.00000001    0.00000000   -0.00000001
     atom   94 type  2   force =    -0.00000002   -0.00000001    0.00000003
     atom   95 type  2   force =     0.00000003   -0.00000002    0.00000001
     atom   96 type  2   force =     0.00000002    0.00000000   -0.00000001
     atom   97 type  2   force =     0.00000000    0.00000001   -0.00000000
     atom   98 type  2   force =    -0.00000003   -0.00000001   -0.00000000
     atom   99 type  2   force =    -0.00000002   -0.00000002    0.00000000
     atom  100 type  2   force =    -0.00000001   -0.00000001    0.00000000
     atom  101 type  2   force =    -0.00000000    0.00000000   -0.00000001
     atom  102 type  2   force =    -0.00000003   -0.00000001    0.00000000
     atom  103 type  2   force =    -0.00000003    0.00000001   -0.00000002
     atom  104 type  2   force =    -0.00000000   -0.00000000   -0.00000002
     atom  105 type  2   force =    -0.00000001    0.00000000    0.00000000
     atom  106 type  2   force =    -0.00000002   -0.00000000   -0.00000000
     atom  107 type  2   force =    -0.00000003    0.00000001    0.00000002
     atom  108 type  2   force =    -0.00000001    0.00000000    0.00000002
     atom  109 type  2   force =    -0.00000001    0.00000000    0.00000001
     atom  110 type  2   force =    -0.00000004   -0.00000001    0.00000001
     atom  111 type  2   force =    -0.00000003   -0.00000002   -0.00000000
     atom  112 type  2   force =    -0.00000002   -0.00000000   -0.00000001
     atom  113 type  2   force =     0.00000000   -0.00000002   -0.00000000
     atom  114 type  2   force =     0.00000002    0.00000004    0.00000000
     atom  115 type  2   force =    -0.00000002    0.00000001    0.00000000
     atom  116 type  2   force =     0.00000003    0.00000000    0.00000001
     atom  117 type  2   force =    -0.00000001   -0.00000001   -0.00000000
     atom  118 type  2   force =    -0.00000002    0.00000002   -0.00000002
     atom  119 type  2   force =    -0.00000003   -0.00000001   -0.00000002
     atom  120 type  2   force =    -0.00000002    0.00000001   -0.00000000
     atom  121 type  2   force =    -0.00000002    0.00000000    0.00000001
     atom  122 type  2   force =    -0.00000004   -0.00000001    0.00000000
     atom  123 type  2   force =    -0.00000004   -0.00000001    0.00000001
     atom  124 type  2   force =    -0.00000003    0.00000001    0.00000001
     atom  125 type  2   force =    -0.00000002   -0.00000001    0.00000000
     atom  126 type  2   force =    -0.00000002    0.00000002    0.00000002
     atom  127 type  2   force =    -0.00000003    0.00000001   -0.00000000
     atom  128 type  2   force =     0.00000002    0.00000000   -0.00000002
     atom  129 type  2   force =     0.00000000    0.00000004   -0.00000000
     atom  130 type  2   force =    -0.00000005   -0.00000001   -0.00000000
     atom  131 type  2   force =    -0.00000002    0.00000003   -0.00000002
     atom  132 type  2   force =     0.00000000   -0.00000000   -0.00000004
     atom  133 type  2   force =    -0.00000000    0.00000002   -0.00000006
     atom  134 type  2   force =     0.00000001   -0.00000000   -0.00000005
     atom  135 type  2   force =     0.00000004    0.00000001   -0.00000004
     atom  136 type  2   force =    -0.00000000    0.00000000   -0.00000006
     atom  137 type  2   force =     0.00000000   -0.00000000    0.00000000
     atom  138 type  2   force =     0.00000006   -0.00000000    0.00000000
     atom  139 type  2   force =     0.00000005    0.00000001    0.00000004
     atom  140 type  2   force =     0.00000000    0.00000000    0.00000006
     atom  141 type  2   force =     0.00000001    0.00000003    0.00000006
     atom  142 type  2   force =     0.00000001   -0.00000001    0.00000005
     atom  143 type  2   force =    -0.00000002    0.00000003    0.00000001
     atom  144 type  2   force =     0.00000001   -0.00000000    0.00000004
     atom  145 type  2   force =    -0.00000000   -0.00000004   -0.00000000
     atom  146 type  2   force =    -0.00000002   -0.00000004   -0.00000001
     atom  147 type  2   force =    -0.00000003   -0.00000003   -0.00000001
     atom  148 type  2   force =    -0.00000001   -0.00000005   -0.00000001
     atom  149 type  2   force =    -0.00000000   -0.00000002   -0.00000006
     atom  150 type  2   force =     0.00000001   -0.00000002   -0.00000002
     atom  151 type  2   force =     0.00000004   -0.00000001   -0.00000004
     atom  152 type  2   force =    -0.00000000    0.00000001   -0.00000003
     atom  153 type  2   force =    -0.00000000    0.00000001    0.00000000
     atom  154 type  2   force =     0.00000003    0.00000000   -0.00000000
     atom  155 type  2   force =     0.00000004   -0.00000001    0.00000004
     atom  156 type  2   force =    -0.00000000    0.00000000    0.00000003
     atom  157 type  2   force =     0.00000000   -0.00000002    0.00000006
     atom  158 type  2   force =     0.00000001   -0.00000002    0.00000003
     atom  159 type  2   force =    -0.00000003   -0.00000003    0.00000001
     atom  160 type  2   force =    -0.00000000   -0.00000005    0.00000001
     atom  161 type  2   force =    -0.00000001   -0.00000003   -0.00000000
     atom  162 type  2   force =     0.00000003    0.00000001   -0.00000000
     atom  163 type  2   force =     0.00000002   -0.00000001    0.00000000
     atom  164 type  2   force =    -0.00000001   -0.00000000    0.00000001
     atom  165 type  2   force =    -0.00000001   -0.00000001   -0.00000001
     atom  166 type  2   force =     0.00000002    0.00000000   -0.00000000
     atom  167 type  2   force =     0.00000002    0.00000000   -0.00000002
     atom  168 type  2   force =    -0.00000001   -0.00000000   -0.00000001
     atom  169 type  2   force =    -0.00000001    0.00000002   -0.00000000
     atom  170 type  2   force =     0.00000001   -0.00000000   -0.00000001
     atom  171 type  2   force =     0.00000002   -0.00000000    0.00000002
     atom  172 type  2   force =    -0.00000001   -0.00000001    0.00000001
     atom  173 type  2   force =    -0.00000001   -0.00000001    0.00000001
     atom  174 type  2   force =     0.00000003   -0.00000000    0.00000001
     atom  175 type  2   force =     0.00000002   -0.00000002   -0.00000000
     atom  176 type  2   force =    -0.00000001   -0.00000000   -0.00000000
     atom  177 type  2   force =     0.00000000    0.00000003    0.00000000
     atom  178 type  2   force =    -0.00000001    0.00000003    0.00000000
     atom  179 type  2   force =     0.00000002    0.00000002   -0.00000001
     atom  180 type  2   force =     0.00000000    0.00000005   -0.00000002
     atom  181 type  2   force =    -0.00000000    0.00000001   -0.00000001
     atom  182 type  2   force =     0.00000002    0.00000002   -0.00000003
     atom  183 type  2   force =     0.00000002   -0.00000001   -0.00000002
     atom  184 type  2   force =    -0.00000000   -0.00000000   -0.00000003
     atom  185 type  2   force =    -0.00000001   -0.00000002   -0.00000001
     atom  186 type  2   force =     0.00000003    0.00000000   -0.00000000
     atom  187 type  2   force =     0.00000002   -0.00000000    0.00000002
     atom  188 type  2   force =    -0.00000000    0.00000000    0.00000003
     atom  189 type  2   force =    -0.00000001    0.00000001    0.00000001
     atom  190 type  2   force =     0.00000003    0.00000003    0.00000003
     atom  191 type  2   force =     0.00000003    0.00000002    0.00000001
     atom  192 type  2   force =     0.00000000    0.00000005    0.00000003
     atom  193 type  2   force =    -0.00000004    0.00000001   -0.00000000
     atom  194 type  2   force =     0.00000000   -0.00000001   -0.00000000
     atom  195 type  2   force =    -0.00000002    0.00000001   -0.00000001
     atom  196 type  2   force =    -0.00000004   -0.00000001    0.00000001
     atom  197 type  2   force =    -0.00000002    0.00000001    0.00000000
     atom  198 type  2   force =    -0.00000003    0.00000000    0.00000004
     atom  199 type  2   force =    -0.00000000    0.00000002    0.00000004
     atom  200 type  2   force =     0.00000004   -0.00000000   -0.00000000
     atom  201 type  2   force =     0.00000005    0.00000002    0.00000000
     atom  202 type  2   force =     0.00000003    0.00000000    0.00000000
     atom  203 type  2   force =     0.00000001    0.00000002   -0.00000002
     atom  204 type  2   force =     0.00000004   -0.00000001    0.00000001
     atom  205 type  2   force =    -0.00000001    0.00000001   -0.00000000
     atom  206 type  2   force =    -0.00000002   -0.00000001   -0.00000004
     atom  207 type  2   force =    -0.00000002    0.00000001   -0.00000001
     atom  208 type  2   force =    -0.00000004   -0.00000001   -0.00000001
     atom  209 type  2   force =    -0.00000004   -0.00000002   -0.00000000
     atom  210 type  2   force =    -0.00000001   -0.00000000   -0.00000000
     atom  211 type  2   force =    -0.00000001   -0.00000002    0.00000000
     atom  212 type  2   force =    -0.00000002   -0.00000001    0.00000001
     atom  213 type  2   force =    -0.00000001   -0.00000001    0.00000001
     atom  214 type  2   force =    -0.00000001   -0.00000000    0.00000003
     atom  215 type  2   force =     0.00000001   -0.00000002    0.00000003
     atom  216 type  2   force =     0.00000003   -0.00000002   -0.00000001
     atom  217 type  2   force =     0.00000006   -0.00000002   -0.00000000
     atom  218 type  2   force =     0.00000002   -0.00000004   -0.00000000
     atom  219 type  2   force =     0.00000001   -0.00000002   -0.00000003
     atom  220 type  2   force =     0.00000003   -0.00000002    0.00000001
     atom  221 type  2   force =    -0.00000001   -0.00000002   -0.00000000
     atom  222 type  2   force =    -0.00000001    0.00000000   -0.00000003
     atom  223 type  2   force =    -0.00000001   -0.00000002   -0.00000001
     atom  224 type  2   force =    -0.00000003   -0.00000000   -0.00000002
     atom  225 type  2   force =    -0.00000000    0.00000002   -0.00000001
     atom  226 type  2   force =    -0.00000001    0.00000000   -0.00000000
     atom  227 type  2   force =    -0.00000001    0.00000003    0.00000002
     atom  228 type  2   force =     0.00000002    0.00000001   -0.00000000
     atom  229 type  2   force =     0.00000001    0.00000001   -0.00000000
     atom  230 type  2   force =    -0.00000001   -0.00000000   -0.00000001
     atom  231 type  2   force =     0.00000000   -0.00000001   -0.00000001
     atom  232 type  2   force =     0.00000001   -0.00000000   -0.00000002
     atom  233 type  2   force =     0.00000001   -0.00000001   -0.00000000
     atom  234 type  2   force =     0.00000000   -0.00000000   -0.00000000
     atom  235 type  2   force =     0.00000001   -0.00000001    0.00000002
     atom  236 type  2   force =     0.00000001   -0.00000000    0.00000002
     atom  237 type  2   force =     0.00000001    0.00000000    0.00000001
     atom  238 type  2   force =     0.00000001   -0.00000000    0.00000001
     atom  239 type  2   force =    -0.00000001    0.00000003   -0.00000002
     atom  240 type  2   force =     0.00000002    0.00000000    0.00000000
     atom  241 type  2   force =    -0.00000001   -0.00000001   -0.00000000
     atom  242 type  2   force =    -0.00000003    0.00000001   -0.00000000
     atom  243 type  2   force =    -0.00000002   -0.00000003    0.00000001
     atom  244 type  2   force =    -0.00000003    0.00000001    0.00000000
     atom  245 type  2   force =     0.00000001   -0.00000000   -0.00000001
     atom  246 type  2   force =    -0.00000003   -0.00000000    0.00000002
     atom  247 type  2   force =    -0.00000000    0.00000001   -0.00000001
     atom  248 type  2   force =     0.00000002    0.00000002   -0.00000001
     atom  249 type  2   force =     0.00000002    0.00000001   -0.00000000
     atom  250 type  2   force =     0.00000002    0.00000004    0.00000000
     atom  251 type  2   force =     0.00000001    0.00000001    0.00000002
     atom  252 type  2   force =     0.00000003    0.00000003    0.00000002
     atom  253 type  2   force =     0.00000002    0.00000001    0.00000001
     atom  254 type  2   force =    -0.00000002    0.00000001   -0.00000002
     atom  255 type  2   force =    -0.00000002   -0.00000003   -0.00000002
     atom  256 type  2   force =    -0.00000002    0.00000001   -0.00000001

     Total force =     0.003785     Total SCF correction =     0.000001


     Computing stress (Cartesian axis) and pressure

          total   stress  (Ry/bohr**3)                   (kbar)     P=   -8.12
  -0.00005495   0.00000000   0.00000000         -8.08      0.00      0.00
   0.00000000  -0.00005561  -0.00000000          0.00     -8.18     -0.00
   0.00000000  -0.00000000  -0.00005495          0.00     -0.00     -8.08

     kinetic stress (kbar)   1429.96      0.00      0.00
                                0.00   1429.90     -0.00
                                0.00     -0.00   1429.96

     local   stress (kbar)    620.04     -0.00      0.00
                               -0.00    613.98     -0.00
                                0.00     -0.00    620.04

     nonloc. stress (kbar)   1036.58      0.00     -0.00
                                0.00   1036.52      0.00
                               -0.00      0.00   1036.58

     hartree stress (kbar)      4.10      0.00     -0.00
                                0.00      6.83      0.00
                               -0.00      0.00      4.10

     exc-cor stress (kbar)    500.99      0.00     -0.00
                                0.00    500.99      0.00
                               -0.00      0.00    500.99

     corecor stress (kbar)  -1269.13     -0.00     -0.00
                               -0.00  -1269.12     -0.00
                               -0.00     -0.00  -1269.13

     ewald   stress (kbar)  -2330.64      0.00     -0.00
                                0.00  -2327.28      0.00
                               -0.00      0.00  -2330.64

     hubbard stress (kbar)      0.00      0.00      0.00
                                0.00      0.00      0.00
                                0.00      0.00      0.00

     london  stress (kbar)      0.00      0.00      0.00
                                0.00      0.00      0.00
                                0.00      0.00      0.00

     DFT-D3  stress (kbar)      0.00      0.00      0.00
                                0.00      0.00      0.00
                                0.00      0.00      0.00

     XDM     stress (kbar)      0.00      0.00      0.00
                                0.00      0.00      0.00
                                0.00      0.00      0.00

     dft-nl  stress (kbar)      0.00      0.00      0.00
                                0.00      0.00      0.00
                                0.00      0.00      0.00

     TS-vdW  stress (kbar)      0.00      0.00      0.00
                                0.00      0.00      0.00
                                0.00      0.00      0.00



     Writing output data file aiida.save/
 
     init_run     :    199.69s CPU    201.82s WALL (       1 calls)
     electrons    :  12787.55s CPU  12884.63s WALL (       1 calls)
     forces       :     96.26s CPU     97.36s WALL (       1 calls)
     stress       :   1169.63s CPU   1171.19s WALL (       1 calls)

     Called by init_run:
     wfcinit      :    184.51s CPU    186.33s WALL (       1 calls)
     wfcinit:atom :      0.32s CPU      0.59s WALL (       2 calls)
     wfcinit:wfcr :    181.95s CPU    182.74s WALL (       2 calls)
     potinit      :      2.28s CPU      2.41s WALL (       1 calls)
     hinit0       :      2.63s CPU      2.70s WALL (       1 calls)

     Called by electrons:
     c_bands      :  10938.84s CPU  11017.02s WALL (      49 calls)
     sum_band     :   1699.98s CPU   1706.97s WALL (      49 calls)
     v_of_rho     :     71.25s CPU     75.64s WALL (      49 calls)
     v_h          :      7.25s CPU      7.25s WALL (      49 calls)
     v_xc         :     66.14s CPU     70.63s WALL (      51 calls)
     newd         :     14.35s CPU     17.61s WALL (      49 calls)
     PAW_pot      :     10.84s CPU     11.17s WALL (      49 calls)
     mix_rho      :     40.27s CPU     43.86s WALL (      49 calls)

     Called by c_bands:
     init_us_2    :    150.47s CPU    151.03s WALL (     202 calls)
     cegterg      :   9534.05s CPU   9608.25s WALL (      98 calls)

     Called by sum_band:
     sum_band:bec :      2.81s CPU      2.81s WALL (      98 calls)
     addusdens    :     11.85s CPU     15.65s WALL (      49 calls)

     Called by *egterg:
     h_psi        :   6266.30s CPU   6291.31s WALL (     347 calls)
     s_psi        :   1928.24s CPU   1932.07s WALL (     347 calls)
     g_psi        :      7.60s CPU      7.60s WALL (     247 calls)
     cdiaghg      :    401.11s CPU    408.16s WALL (     343 calls)
     cegterg:over :    462.15s CPU    464.12s WALL (     247 calls)
     cegterg:upda :    284.87s CPU    297.82s WALL (     247 calls)
     cegterg:last :    184.28s CPU    184.37s WALL (     100 calls)
     cdiaghg:chol :     17.85s CPU     18.00s WALL (     343 calls)
     cdiaghg:inve :      7.99s CPU      8.00s WALL (     343 calls)
     cdiaghg:para :     89.09s CPU     90.49s WALL (     686 calls)

     Called by h_psi:
     h_psi:pot    :   6257.88s CPU   6270.89s WALL (     347 calls)
     h_psi:calbec :   1901.69s CPU   1902.04s WALL (     347 calls)
     vloc_psi     :   2423.70s CPU   2431.97s WALL (     347 calls)
     add_vuspsi   :   1932.48s CPU   1936.88s WALL (     347 calls)

     General routines
     calbec       :   2814.43s CPU   2814.96s WALL (     455 calls)
     fft          :     76.98s CPU     81.88s WALL (     662 calls)
     ffts         :     17.37s CPU     17.47s WALL (     623 calls)
     fftw         :   2557.29s CPU   2565.28s WALL (  249314 calls)
     interpolate  :      7.73s CPU      8.02s WALL (      49 calls)
 
     Parallel routines
     fft_scatt_xy :    902.48s CPU    905.02s WALL (  250599 calls)
     fft_scatt_yz :    482.65s CPU    486.99s WALL (  250599 calls)

     PAW routines
     PAW_pot      :     10.84s CPU     11.17s WALL (      49 calls)
 
     PWSCF        :      4h 0m CPU      4h 3m WALL

 
   This run was terminated on:   5:49:45  27Feb2020            

=------------------------------------------------------------------------------=
   JOB DONE.
=------------------------------------------------------------------------------=
