begin
comment 256 atoms, species Al254Mg2
lattice     30.6664728719     0.0000000000     0.0000000000
lattice      0.0000000000    30.6664728719     0.0000000000
lattice      0.0000000000     0.0000000000    30.6664728719
atom      0.0000000000     0.0135637810     0.0000000000   Mg  0.0 0.0    9.99999925e-09  1.08019992e-04  1.49999989e-08
atom      3.8876776987    30.6492873805     3.8876776987   Al  0.0 0.0   -2.89349978e-05  7.26699945e-05 -2.89099978e-05
atom      3.9427853505     3.8333091090     0.0000000000   Al  0.0 0.0    1.32149990e-05  1.99999985e-08  9.99999925e-09
atom      0.0000000000     3.8333091090     3.9427853505   Al  0.0 0.0   -1.49999989e-08  9.99999925e-09  1.32099990e-05
atom      0.0000000000    30.6508115042     7.6877443511   Al  0.0 0.0    4.99999962e-09  3.40949974e-05  3.58399973e-05
atom      3.8504731339     3.8333091090     7.7054634392   Al  0.0 0.0   -2.62849980e-05  1.49999989e-08 -1.67404987e-04
atom      3.8338059058    30.6642464860    11.5083054074   Al  0.0 0.0    4.37299967e-05 -7.69349942e-05  1.14969991e-04
atom      0.0000000000     3.8333091090    11.5116633861   Al  0.0 0.0   -1.49999989e-08  9.99999925e-09  2.20549983e-05
atom      0.0000000000    30.6648628821    15.3332364360   Al  0.0 0.0    4.99999962e-09 -5.17549961e-05 -9.99999925e-09
atom      3.8348945656     3.8333091090    15.3332364360   Al  0.0 0.0    3.98849970e-05  4.99999962e-09 -2.99999977e-08
atom      3.8338059058    30.6642464860    19.1581674646   Al  0.0 0.0    4.37299967e-05 -7.69549942e-05 -1.14929991e-04
atom      0.0000000000     3.8333091090    19.1548094858   Al  0.0 0.0   -4.99999962e-09  0.00000000e+00 -2.20799983e-05
atom      0.0000000000    30.6508115042    22.9787285208   Al  0.0 0.0    4.99999962e-09  3.41099974e-05 -3.58649973e-05
atom      3.8504731339     3.8333091090    22.9610094327   Al  0.0 0.0   -2.62849980e-05  1.99999985e-08  1.67454987e-04
atom      3.8876776987    30.6492873805    26.7787951732   Al  0.0 0.0   -2.89299978e-05  7.26849945e-05  2.89099978e-05
atom      0.0000000000     3.8333091090    26.7236905881   Al  0.0 0.0    0.00000000e+00  2.99999977e-08 -1.32549990e-05
atom      0.0000000000     7.6530544370     0.0000000000   Mg  0.0 0.0    9.99999925e-09 -1.08074992e-04  9.99999925e-09
atom      3.8796829493    11.5500946099     0.0000000000   Al  0.0 0.0   -3.86399971e-05 -4.65549965e-05  2.49999981e-08
atom      3.8876776987     7.6838037094     3.8876776987   Al  0.0 0.0   -2.89149978e-05 -7.26999945e-05 -2.89099978e-05
atom      0.0000000000    11.5500946099     3.8796829493   Al  0.0 0.0    4.99999962e-09 -4.65399965e-05 -3.86149971e-05
atom      0.0000000000     7.6822795857     7.6877443511   Al  0.0 0.0    0.00000000e+00 -3.40949974e-05  3.58399973e-05
atom      3.8411259929    11.5102343285     7.6873610202   Al  0.0 0.0    1.01399992e-05  5.69599957e-05 -5.27199960e-05
atom      3.8338059058     7.6688415373    11.5083054074   Al  0.0 0.0    4.37399967e-05  7.69399942e-05  1.14969991e-04
atom      0.0000000000    11.5029541078    11.5085323393   Al  0.0 0.0    1.49999989e-08  1.01404992e-04  1.09534992e-04
atom      0.0000000000     7.6682282078    15.3332364360   Al  0.0 0.0    4.99999962e-09  5.17599961e-05 -9.99999925e-09
atom      3.8346768337    11.5014023843    15.3332364360   Al  0.0 0.0    4.25199968e-05  4.39799967e-05 -4.99999962e-09
atom      3.8338059058     7.6688415373    19.1581674646   Al  0.0 0.0    4.37299967e-05  7.69749942e-05 -1.14934991e-04
atom      0.0000000000    11.5029541078    19.1579405327   Al  0.0 0.0    1.49999989e-08  1.01394992e-04 -1.09544992e-04
atom      0.0000000000     7.6822795857    22.9787285208   Al  0.0 0.0    4.99999962e-09 -3.40949974e-05 -3.58649973e-05
atom      3.8411259929    11.5102343285    22.9791118517   Al  0.0 0.0    1.01499992e-05  5.69499957e-05  5.27049960e-05
atom      3.8876776987     7.6838037094    26.7787951732   Al  0.0 0.0   -2.89249978e-05 -7.27349945e-05  2.88949978e-05
atom      0.0000000000    11.5500946099    26.7867899226   Al  0.0 0.0    1.49999989e-08 -4.65349965e-05  3.86199971e-05
atom      0.0000000000    15.3362110838     0.0000000000   Al  0.0 0.0    4.99999962e-09  3.80949971e-05  4.99999962e-09
atom      3.8334501748    19.1665455449     0.0000000000   Al  0.0 0.0   -6.15999954e-06 -4.99999962e-09 -4.99999962e-09
atom      3.8421073201    15.3519797842     3.8421073201   Al  0.0 0.0   -1.69699987e-05 -1.20654991e-04 -1.69499987e-05
atom      0.0000000000    19.1665455449     3.8334501748   Al  0.0 0.0   -9.99999925e-09 -4.99999962e-09 -6.16999954e-06
atom      0.0000000000    15.3474288796     7.6822059861   Al  0.0 0.0    9.99999925e-09 -9.15399931e-05 -5.26599960e-05
atom      3.8335299076    19.1665455449     7.6708195248   Al  0.0 0.0    7.79499941e-05 -0.00000000e+00  1.33239990e-04
atom      3.8340880374    15.3354934884    11.5031197068   Al  0.0 0.0    6.42299952e-05  7.53399943e-05  1.23239991e-04
atom      0.0000000000    19.1665455449    11.5049903616   Al  0.0 0.0    4.99999962e-09 -0.00000000e+00  1.80069986e-04
atom      0.0000000000    15.3349997581    15.3332364360   Al  0.0 0.0    9.99999925e-09  5.53799958e-05 -1.99999985e-08
atom      3.8342812362    19.1665455449    15.3332364360   Al  0.0 0.0    4.40999967e-05 -0.00000000e+00 -2.49999981e-08
atom      3.8340880374    15.3354934884    19.1633531651   Al  0.0 0.0    6.42349952e-05  7.53199943e-05 -1.23204991e-04
atom      0.0000000000    19.1665455449    19.1614825103   Al  0.0 0.0    0.00000000e+00  4.99999962e-09 -1.80029986e-04
atom      0.0000000000    15.3474288796    22.9842668858   Al  0.0 0.0    4.99999962e-09 -9.15299931e-05  5.26199960e-05
atom      3.8335299076    19.1665455449    22.9956533471   Al  0.0 0.0    7.79549941e-05 -0.00000000e+00 -1.33249990e-04
atom      3.8421073201    15.3519797842    26.8243655519   Al  0.0 0.0   -1.69699987e-05 -1.20634991e-04  1.69599987e-05
atom      0.0000000000    19.1665455449    26.8330226971   Al  0.0 0.0    0.00000000e+00 -0.00000000e+00  6.17499954e-06
atom      0.0000000000    22.9968800061     0.0000000000   Al  0.0 0.0    4.99999962e-09 -3.80749971e-05  4.99999962e-09
atom      3.8796829493    26.7829964800     0.0000000000   Al  0.0 0.0   -3.86499971e-05  4.65849965e-05  1.99999985e-08
atom      3.8421073201    22.9811113057     3.8421073201   Al  0.0 0.0   -1.69499987e-05  1.20639991e-04 -1.69399987e-05
atom      0.0000000000    26.7829964800     3.8796829493   Al  0.0 0.0    0.00000000e+00  4.65899965e-05 -3.86199971e-05
atom      0.0000000000    22.9856622103     7.6822059861   Al  0.0 0.0    4.99999962e-09  9.15249931e-05 -5.26549960e-05
atom      3.8411259929    26.8228567614     7.6873610202   Al  0.0 0.0    1.01549992e-05 -5.69699957e-05 -5.27299960e-05
atom      3.8340880374    22.9975976015    11.5031197068   Al  0.0 0.0    6.42399952e-05 -7.53599943e-05  1.23244991e-04
atom      0.0000000000    26.8301369820    11.5085323393   Al  0.0 0.0    1.49999989e-08 -1.01359992e-04  1.09534992e-04
atom      0.0000000000    22.9980913317    15.3332364360   Al  0.0 0.0    1.49999989e-08 -5.53949958e-05 -9.99999925e-09
atom      3.8346768337    26.8316887056    15.3332364360   Al  0.0 0.0    4.25299968e-05 -4.40099967e-05 -4.99999962e-09
atom      3.8340880374    22.9975976015    19.1633531651   Al  0.0 0.0    6.42249952e-05 -7.53449943e-05 -1.23204991e-04
atom      0.0000000000    26.8301369820    19.1579405327   Al  0.0 0.0    9.99999925e-09 -1.01379992e-04 -1.09544992e-04
atom      0.0000000000    22.9856622103    22.9842668858   Al  0.0 0.0    4.99999962e-09  9.15149931e-05  5.26199960e-05
atom      3.8411259929    26.8228567614    22.9791118517   Al  0.0 0.0    1.01649992e-05 -5.69749957e-05  5.27249960e-05
atom      3.8421073201    22.9811113057    26.8243655519   Al  0.0 0.0   -1.69549987e-05  1.20619991e-04  1.69499987e-05
atom      0.0000000000    26.7829964800    26.7867899226   Al  0.0 0.0    1.49999989e-08  4.65799965e-05  3.86499971e-05
atom      7.6877443511    30.6508115042     0.0000000000   Al  0.0 0.0    3.58299973e-05  3.41299974e-05  4.99999962e-09
atom     11.5116633861     3.8333091090     0.0000000000   Al  0.0 0.0    2.20499983e-05  4.99999962e-09 -0.00000000e+00
atom     11.5083054074    30.6642464860     3.8338059058   Al  0.0 0.0    1.14984991e-04 -7.69449942e-05  4.37649967e-05
atom      7.7054634392     3.8333091090     3.8504731339   Al  0.0 0.0   -1.67429987e-04  2.49999981e-08 -2.62849980e-05
atom      7.6825157175    30.6651296804     7.6825157175   Al  0.0 0.0   -9.86499926e-06 -8.19749938e-05 -9.86999926e-06
atom     11.5051160942     3.8333091090     7.6712120556   Al  0.0 0.0    2.10499984e-04  4.99999962e-09  1.60129988e-04
atom     11.5021659795     0.0001717322    11.5021659795   Al  0.0 0.0    1.08769992e-04 -2.32649983e-05  1.08739992e-04
atom      7.6712120556     3.8333091090    11.5051160942   Al  0.0 0.0    1.60109988e-04  1.49999989e-08  2.10489984e-04
atom      7.6689274034    30.6658350093    15.3332364360   Al  0.0 0.0    8.33399937e-05 -3.79199972e-05 -1.99999985e-08
atom     11.5010527865     3.8333091090    15.3332364360   Al  0.0 0.0    4.89849963e-05  9.99999925e-09 -9.99999925e-09
atom     11.5021659795     0.0001717322    19.1643099591   Al  0.0 0.0    1.08769992e-04 -2.32899982e-05 -1.08769992e-04
atom      7.6712120556     3.8333091090    19.1613567777   Al  0.0 0.0    1.60124988e-04  1.49999989e-08 -2.10479984e-04
atom      7.6825157175    30.6651296804    22.9839571544   Al  0.0 0.0   -9.87999926e-06 -8.19699938e-05  9.87999926e-06
atom     11.5051160942     3.8333091090    22.9952608163   Al  0.0 0.0    2.10499984e-04  4.99999962e-09 -1.60084988e-04
atom     11.5083054074    30.6642464860    26.8326669661   Al  0.0 0.0    1.14979991e-04 -7.69249942e-05 -4.37499967e-05
atom      7.7054634392     3.8333091090    26.8160028047   Al  0.0 0.0   -1.67424987e-04  1.99999985e-08  2.62449980e-05
atom      7.6877443511     7.6822795857     0.0000000000   Al  0.0 0.0    3.58349973e-05 -3.41249974e-05  1.99999985e-08
atom     11.5085323393    11.5029541078     0.0000000000   Al  0.0 0.0    1.09569992e-04  1.01399992e-04  1.99999985e-08
atom     11.5083054074     7.6688415373     3.8338059058   Al  0.0 0.0    1.14969991e-04  7.69449942e-05  4.37549967e-05
atom      7.6873610202    11.5102343285     3.8411259929   Al  0.0 0.0   -5.27399960e-05  5.69649957e-05  1.01749992e-05
atom      7.6825157175     7.6679614095     7.6825157175   Al  0.0 0.0   -9.87499926e-06  8.19399938e-05 -9.86999926e-06
atom     11.5020034472    11.4998322609     7.6684214066   Al  0.0 0.0    1.12054992e-04  5.80349956e-05  8.72649934e-05
atom     11.5021659795     7.6664464857    11.5021659795   Al  0.0 0.0    1.08764992e-04  2.32749983e-05  1.08744992e-04
atom      7.6684214066    11.4998322609    11.5020034472   Al  0.0 0.0    8.72499934e-05  5.80199956e-05  1.12019992e-04
atom      7.6689274034     7.6672560806    15.3332364360   Al  0.0 0.0    8.33399937e-05  3.79249971e-05 -1.99999985e-08
atom     11.5008902542    11.5007614550    15.3332364360   Al  0.0 0.0    3.05399977e-05  2.63799980e-05 -4.99999962e-09
atom     11.5021659795     7.6664464857    19.1643099591   Al  0.0 0.0    1.08759992e-04  2.32799983e-05 -1.08774992e-04
atom      7.6684214066    11.4998322609    19.1644694247   Al  0.0 0.0    8.72549934e-05  5.80249956e-05 -1.11994992e-04
atom      7.6825157175     7.6679614095    22.9839571544   Al  0.0 0.0   -9.88499926e-06  8.19449938e-05  9.88999926e-06
atom     11.5020034472    11.4998322609    22.9980514653   Al  0.0 0.0    1.12054992e-04  5.80399956e-05 -8.72649934e-05
atom     11.5083054074     7.6688415373    26.8326669661   Al  0.0 0.0    1.14974991e-04  7.69249942e-05 -4.37549967e-05
atom      7.6873610202    11.5102343285    26.8253468790   Al  0.0 0.0   -5.27299960e-05  5.69649957e-05 -1.01849992e-05
atom      7.6822059861    15.3474288796     0.0000000000   Al  0.0 0.0   -5.26599960e-05 -9.15149931e-05  1.49999989e-08
atom     11.5049903616    19.1665455449     0.0000000000   Al  0.0 0.0    1.80084986e-04  4.99999962e-09  0.00000000e+00
atom     11.5031197068    15.3354934884     3.8340880374   Al  0.0 0.0    1.23274991e-04  7.53449943e-05  6.42699952e-05
atom      7.6708195248    19.1665455449     3.8335299076   Al  0.0 0.0    1.33224990e-04  9.99999925e-09  7.79499941e-05
atom      7.6687618044    15.3347176266     7.6687618044   Al  0.0 0.0    1.13624991e-04  8.20799938e-05  1.13629991e-04
atom     11.4994059969    19.1665455449     7.6660999546   Al  0.0 0.0    3.29799975e-05 -1.99999985e-08  3.70249972e-05
atom     11.5000591928    15.3330064374    11.5000591928   Al  0.0 0.0    2.29299983e-05  1.97349985e-05  2.28899983e-05
atom      7.6660999546    19.1665455449    11.4994059969   Al  0.0 0.0    3.70249972e-05 -4.99999962e-09  3.29649975e-05
atom      7.6682312745    15.3338589654    15.3332364360   Al  0.0 0.0    5.92699955e-05  3.50499974e-05 -4.99999962e-09
atom     11.5006479891    19.1665455449    15.3332364360   Al  0.0 0.0    1.42399989e-05  0.00000000e+00 -9.99999925e-09
atom     11.5000591928    15.3330064374    19.1664167458   Al  0.0 0.0    2.29299983e-05  1.97199985e-05 -2.29199983e-05
atom      7.6660999546    19.1665455449    19.1670699416   Al  0.0 0.0    3.70149972e-05 -9.99999925e-09 -3.29749975e-05
atom      7.6687618044    15.3347176266    22.9977110675   Al  0.0 0.0    1.13619991e-04  8.20699938e-05 -1.13594991e-04
atom     11.4994059969    19.1665455449    23.0003729173   Al  0.0 0.0    3.29949975e-05 -1.49999989e-08 -3.69599972e-05
atom     11.5031197068    15.3354934884    26.8323879012   Al  0.0 0.0    1.23269991e-04  7.53699943e-05 -6.43049952e-05
atom      7.6708195248    19.1665455449    26.8329429643   Al  0.0 0.0    1.33239990e-04  4.99999962e-09 -7.79499941e-05
atom      7.6822059861    22.9856622103     0.0000000000   Al  0.0 0.0   -5.26599960e-05  9.14899931e-05  4.99999962e-09
atom     11.5085323393    26.8301369820     0.0000000000   Al  0.0 0.0    1.09574992e-04 -1.01379992e-04  2.49999981e-08
atom     11.5031197068    22.9975976015     3.8340880374   Al  0.0 0.0    1.23259991e-04 -7.53599943e-05  6.42749952e-05
atom      7.6873610202    26.8228567614     3.8411259929   Al  0.0 0.0   -5.27449960e-05 -5.69799957e-05  1.01799992e-05
atom      7.6687618044    22.9983734633     7.6687618044   Al  0.0 0.0    1.13604991e-04 -8.20449938e-05  1.13604991e-04
atom     11.5020034472    26.8332588290     7.6684214066   Al  0.0 0.0    1.12049992e-04 -5.80199956e-05  8.72549934e-05
atom     11.5000591928    23.0000846525    11.5000591928   Al  0.0 0.0    2.29299983e-05 -1.97849985e-05  2.29049983e-05
atom      7.6684214066    26.8332588290    11.5020034472   Al  0.0 0.0    8.72499934e-05 -5.80149956e-05  1.11994992e-04
atom      7.6682312745    22.9992321245    15.3332364360   Al  0.0 0.0    5.92649955e-05 -3.50299974e-05 -1.99999985e-08
atom     11.5008902542    26.8323296349    15.3332364360   Al  0.0 0.0    3.05449977e-05 -2.63649980e-05  9.99999925e-09
atom     11.5000591928    23.0000846525    19.1664167458   Al  0.0 0.0    2.29249983e-05 -1.97499985e-05 -2.29199983e-05
atom      7.6684214066    26.8332588290    19.1644694247   Al  0.0 0.0    8.72599934e-05 -5.80099956e-05 -1.12009992e-04
atom      7.6687618044    22.9983734633    22.9977110675   Al  0.0 0.0    1.13609991e-04 -8.20399938e-05 -1.13599991e-04
atom     11.5020034472    26.8332588290    22.9980514653   Al  0.0 0.0    1.12054992e-04 -5.80249956e-05 -8.72449934e-05
atom     11.5031197068    22.9975976015    26.8323879012   Al  0.0 0.0    1.23269991e-04 -7.53799943e-05 -6.42999952e-05
atom      7.6873610202    26.8228567614    26.8253468790   Al  0.0 0.0   -5.27349960e-05 -5.69799957e-05 -1.02099992e-05
atom     15.3332364360    30.6648628821     0.0000000000   Al  0.0 0.0   -9.99999925e-09 -5.17599961e-05  4.99999962e-09
atom     19.1548094858     3.8333091090     0.0000000000   Al  0.0 0.0   -2.20599983e-05  0.00000000e+00  0.00000000e+00
atom     19.1581674646    30.6642464860     3.8338059058   Al  0.0 0.0   -1.14959991e-04 -7.69649942e-05  4.37499967e-05
atom     15.3332364360     3.8333091090     3.8348945656   Al  0.0 0.0   -2.49999981e-08  0.00000000e+00  3.99049970e-05
atom     15.3332364360    30.6658350093     7.6689274034   Al  0.0 0.0   -1.99999985e-08 -3.79599971e-05  8.33549937e-05
atom     19.1613567777     3.8333091090     7.6712120556   Al  0.0 0.0   -2.10474984e-04  0.00000000e+00  1.60114988e-04
atom     19.1643099591     0.0001717322    11.5021659795   Al  0.0 0.0   -1.08794992e-04 -2.32799983e-05  1.08759992e-04
atom     15.3332364360     3.8333091090    11.5010527865   Al  0.0 0.0   -1.99999985e-08  0.00000000e+00  4.89799963e-05
atom     15.3332364360    30.6656663437    15.3332364360   Al  0.0 0.0   -4.99999962e-09 -2.06149985e-05 -4.99999962e-09
atom     19.1654231520     3.8333091090    15.3332364360   Al  0.0 0.0   -4.90049963e-05  4.99999962e-09 -1.99999985e-08
atom     19.1643099591     0.0001717322    19.1643099591   Al  0.0 0.0   -1.08794992e-04 -2.33099982e-05 -1.08769992e-04
atom     15.3332364360     3.8333091090    19.1654231520   Al  0.0 0.0   -4.99999962e-09  4.99999962e-09 -4.90199963e-05
atom     15.3332364360    30.6658350093    22.9975454685   Al  0.0 0.0   -2.49999981e-08 -3.79649971e-05 -8.33349937e-05
atom     19.1613567777     3.8333091090    22.9952608163   Al  0.0 0.0   -2.10459984e-04  1.49999989e-08 -1.60084988e-04
atom     19.1581674646    30.6642464860    26.8326669661   Al  0.0 0.0   -1.14959991e-04 -7.69449942e-05 -4.37499967e-05
atom     15.3332364360     3.8333091090    26.8315783063   Al  0.0 0.0   -3.49999974e-08  0.00000000e+00 -3.99199970e-05
atom     15.3332364360     7.6682282078     0.0000000000   Al  0.0 0.0   -4.99999962e-09  5.17749961e-05  4.99999962e-09
atom     19.1579405327    11.5029541078     0.0000000000   Al  0.0 0.0   -1.09564992e-04  1.01394992e-04  1.49999989e-08
atom     19.1581674646     7.6688415373     3.8338059058   Al  0.0 0.0   -1.14949991e-04  7.69599942e-05  4.37399967e-05
atom     15.3332364360    11.5014023843     3.8346768337   Al  0.0 0.0   -1.49999989e-08  4.40099967e-05  4.25499968e-05
atom     15.3332364360     7.6672560806     7.6689274034   Al  0.0 0.0   -2.49999981e-08  3.79599971e-05  8.33499937e-05
atom     19.1644694247    11.4998322609     7.6684214066   Al  0.0 0.0   -1.12029992e-04  5.80449956e-05  8.72549934e-05
atom     19.1643099591     7.6664464857    11.5021659795   Al  0.0 0.0   -1.08784992e-04  2.32799983e-05  1.08754992e-04
atom     15.3332364360    11.5007614550    11.5008902542   Al  0.0 0.0   -1.49999989e-08  2.63999980e-05  3.04949977e-05
atom     15.3332364360     7.6674247462    15.3332364360   Al  0.0 0.0   -4.99999962e-09  2.05749985e-05 -0.00000000e+00
atom     19.1655826177    11.5007614550    15.3332364360   Al  0.0 0.0   -3.05149977e-05  2.63799980e-05 -4.99999962e-09
atom     19.1643099591     7.6664464857    19.1643099591   Al  0.0 0.0   -1.08784992e-04  2.32999982e-05 -1.08774992e-04
atom     15.3332364360    11.5007614550    19.1655826177   Al  0.0 0.0    0.00000000e+00  2.64049980e-05 -3.04799977e-05
atom     15.3332364360     7.6672560806    22.9975454685   Al  0.0 0.0   -1.49999989e-08  3.79749971e-05 -8.33249937e-05
atom     19.1644694247    11.4998322609    22.9980514653   Al  0.0 0.0   -1.12034992e-04  5.80399956e-05 -8.72699934e-05
atom     19.1581674646     7.6688415373    26.8326669661   Al  0.0 0.0   -1.14949991e-04  7.69499942e-05 -4.37549967e-05
atom     15.3332364360    11.5014023843    26.8317960382   Al  0.0 0.0   -1.49999989e-08  4.40149967e-05 -4.25699968e-05
atom     15.3332364360    15.3349997581     0.0000000000   Al  0.0 0.0   -1.99999985e-08  5.53899958e-05  1.49999989e-08
atom     19.1614825103    19.1665455449     0.0000000000   Al  0.0 0.0   -1.80044986e-04  0.00000000e+00  4.99999962e-09
atom     19.1633531651    15.3354934884     3.8340880374   Al  0.0 0.0   -1.23229991e-04  7.53199943e-05  6.42599952e-05
atom     15.3332364360    19.1665455449     3.8342812362   Al  0.0 0.0   -3.49999974e-08 -4.99999962e-09  4.40999967e-05
atom     15.3332364360    15.3338589654     7.6682312745   Al  0.0 0.0   -1.49999989e-08  3.50349974e-05  5.92699955e-05
atom     19.1670699416    19.1665455449     7.6660999546   Al  0.0 0.0   -3.29949975e-05 -1.99999985e-08  3.70099972e-05
atom     19.1664167458    15.3330064374    11.5000591928   Al  0.0 0.0   -2.29499983e-05  1.97099985e-05  2.28999983e-05
atom     15.3332364360    19.1665455449    11.5006479891   Al  0.0 0.0   -2.49999981e-08  0.00000000e+00  1.42099989e-05
atom     15.3332364360    15.3341840300    15.3332364360   Al  0.0 0.0   -9.99999925e-09  2.75849979e-05 -9.99999925e-09
atom     19.1658248828    19.1665455449    15.3332364360   Al  0.0 0.0   -1.42249989e-05 -4.99999962e-09 -1.49999989e-08
atom     19.1664167458    15.3330064374    19.1664167458   Al  0.0 0.0   -2.29549983e-05  1.96949985e-05 -2.29249983e-05
atom     15.3332364360    19.1665455449    19.1658248828   Al  0.0 0.0   -1.99999985e-08 -4.99999962e-09 -1.42099989e-05
atom     15.3332364360    15.3338589654    22.9982415975   Al  0.0 0.0   -1.49999989e-08  3.50249974e-05 -5.92499955e-05
atom     19.1670699416    19.1665455449    23.0003729173   Al  0.0 0.0   -3.29949975e-05 -4.99999962e-09 -3.69649972e-05
atom     19.1633531651    15.3354934884    26.8323879012   Al  0.0 0.0   -1.23234991e-04  7.53499943e-05 -6.43049952e-05
atom     15.3332364360    19.1665455449    26.8321916357   Al  0.0 0.0   -2.99999977e-08 -4.99999962e-09 -4.41249967e-05
atom     15.3332364360    22.9980913317     0.0000000000   Al  0.0 0.0   -1.99999985e-08 -5.54049958e-05  1.49999989e-08
atom     19.1579405327    26.8301369820     0.0000000000   Al  0.0 0.0   -1.09569992e-04 -1.01384992e-04  1.99999985e-08
atom     19.1633531651    22.9975976015     3.8340880374   Al  0.0 0.0   -1.23229991e-04 -7.53399943e-05  6.42549952e-05
atom     15.3332364360    26.8316887056     3.8346768337   Al  0.0 0.0   -1.49999989e-08 -4.40199967e-05  4.25649968e-05
atom     15.3332364360    22.9992321245     7.6682312745   Al  0.0 0.0   -1.99999985e-08 -3.50049974e-05  5.92749955e-05
atom     19.1644694247    26.8332588290     7.6684214066   Al  0.0 0.0   -1.12024992e-04 -5.80149956e-05  8.72499934e-05
atom     19.1664167458    23.0000846525    11.5000591928   Al  0.0 0.0   -2.29449983e-05 -1.97499985e-05  2.29099983e-05
atom     15.3332364360    26.8323296349    11.5008902542   Al  0.0 0.0   -4.99999962e-09 -2.63649980e-05  3.04949977e-05
atom     15.3332364360    22.9989070599    15.3332364360   Al  0.0 0.0   -9.99999925e-09 -2.76149979e-05  0.00000000e+00
atom     19.1655826177    26.8323296349    15.3332364360   Al  0.0 0.0   -3.05149977e-05 -2.63649980e-05  0.00000000e+00
atom     19.1664167458    23.0000846525    19.1664167458   Al  0.0 0.0   -2.29499983e-05 -1.97249985e-05 -2.29249983e-05
atom     15.3332364360    26.8323296349    19.1655826177   Al  0.0 0.0    0.00000000e+00 -2.63699980e-05 -3.04749977e-05
atom     15.3332364360    22.9992321245    22.9982415975   Al  0.0 0.0   -1.49999989e-08 -3.50149974e-05 -5.92399955e-05
atom     19.1644694247    26.8332588290    22.9980514653   Al  0.0 0.0   -1.12029992e-04 -5.80249956e-05 -8.72549934e-05
atom     19.1633531651    22.9975976015    26.8323879012   Al  0.0 0.0   -1.23224991e-04 -7.53549943e-05 -6.42999952e-05
atom     15.3332364360    26.8316887056    26.8317960382   Al  0.0 0.0   -9.99999925e-09 -4.40349967e-05 -4.25699968e-05
atom     22.9787285208    30.6508115042     0.0000000000   Al  0.0 0.0   -3.58499973e-05  3.41349974e-05  4.99999962e-09
atom     26.7236905881     3.8333091090     0.0000000000   Al  0.0 0.0   -1.32399990e-05  2.49999981e-08 -4.99999962e-09
atom     26.7787951732    30.6492873805     3.8876776987   Al  0.0 0.0    2.89449978e-05  7.26949945e-05 -2.88949978e-05
atom     22.9610094327     3.8333091090     3.8504731339   Al  0.0 0.0    1.67454987e-04  2.49999981e-08 -2.62799980e-05
atom     22.9839571544    30.6651296804     7.6825157175   Al  0.0 0.0    9.88499926e-06 -8.19799938e-05 -9.87999926e-06
atom     26.8160028047     3.8333091090     7.7054634392   Al  0.0 0.0    2.62599980e-05  1.99999985e-08 -1.67419987e-04
atom     26.8326669661    30.6642464860    11.5083054074   Al  0.0 0.0   -4.37249967e-05 -7.69099942e-05  1.14964991e-04
atom     22.9952608163     3.8333091090    11.5051160942   Al  0.0 0.0   -1.60074988e-04  1.49999989e-08  2.10494984e-04
atom     22.9975454685    30.6658350093    15.3332364360   Al  0.0 0.0   -8.33249937e-05 -3.79199972e-05 -1.49999989e-08
atom     26.8315783063     3.8333091090    15.3332364360   Al  0.0 0.0   -3.98949970e-05  4.99999962e-09 -3.49999974e-08
atom     26.8326669661    30.6642464860    19.1581674646   Al  0.0 0.0   -4.37199967e-05 -7.69299942e-05 -1.14939991e-04
atom     22.9952608163     3.8333091090    19.1613567777   Al  0.0 0.0   -1.60069988e-04  1.49999989e-08 -2.10474984e-04
atom     22.9839571544    30.6651296804    22.9839571544   Al  0.0 0.0    9.88999926e-06 -8.19649938e-05  9.88499926e-06
atom     26.8160028047     3.8333091090    22.9610094327   Al  0.0 0.0    2.62549980e-05  1.99999985e-08  1.67444987e-04
atom     26.7787951732    30.6492873805    26.7787951732   Al  0.0 0.0    2.89249978e-05  7.27149945e-05  2.89049978e-05
atom     22.9610094327     3.8333091090    26.8160028047   Al  0.0 0.0    1.67459987e-04  1.99999985e-08  2.62399980e-05
atom     22.9787285208     7.6822795857     0.0000000000   Al  0.0 0.0   -3.58549973e-05 -3.41299974e-05  1.49999989e-08
atom     26.7867899226    11.5500946099     0.0000000000   Al  0.0 0.0    3.86649971e-05 -4.65549965e-05  9.99999925e-09
atom     26.7787951732     7.6838037094     3.8876776987   Al  0.0 0.0    2.89249978e-05 -7.27299945e-05 -2.88949978e-05
atom     22.9791118517    11.5102343285     3.8411259929   Al  0.0 0.0    5.27099960e-05  5.69699957e-05  1.01899992e-05
atom     22.9839571544     7.6679614095     7.6825157175   Al  0.0 0.0    9.89999926e-06  8.19349938e-05 -9.87499926e-06
atom     26.8253468790    11.5102343285     7.6873610202   Al  0.0 0.0   -1.01449992e-05  5.69499957e-05 -5.27349960e-05
atom     26.8326669661     7.6688415373    11.5083054074   Al  0.0 0.0   -4.37399967e-05  7.69149942e-05  1.14959991e-04
atom     22.9980514653    11.4998322609    11.5020034472   Al  0.0 0.0   -8.72599934e-05  5.80399956e-05  1.12014992e-04
atom     22.9975454685     7.6672560806    15.3332364360   Al  0.0 0.0   -8.33249937e-05  3.79199972e-05 -9.99999925e-09
atom     26.8317960382    11.5014023843    15.3332364360   Al  0.0 0.0   -4.25049968e-05  4.39799967e-05 -4.99999962e-09
atom     26.8326669661     7.6688415373    19.1581674646   Al  0.0 0.0   -4.37199967e-05  7.69499942e-05 -1.14934991e-04
atom     22.9980514653    11.4998322609    19.1644694247   Al  0.0 0.0   -8.72549934e-05  5.80399956e-05 -1.11989992e-04
atom     22.9839571544     7.6679614095    22.9839571544   Al  0.0 0.0    9.89999926e-06  8.19299938e-05  9.89999926e-06
atom     26.8253468790    11.5102343285    22.9791118517   Al  0.0 0.0   -1.01549992e-05  5.69499957e-05  5.26949960e-05
atom     26.7787951732     7.6838037094    26.7787951732   Al  0.0 0.0    2.89149978e-05 -7.27599945e-05  2.88949978e-05
atom     22.9791118517    11.5102343285    26.8253468790   Al  0.0 0.0    5.27149960e-05  5.69649957e-05 -1.01949992e-05
atom     22.9842668858    15.3474288796     0.0000000000   Al  0.0 0.0    5.26149960e-05 -9.15099931e-05  1.99999985e-08
atom     26.8330226971    19.1665455449     0.0000000000   Al  0.0 0.0    6.17499954e-06 -9.99999925e-09 -9.99999925e-09
atom     26.8243655519    15.3519797842     3.8421073201   Al  0.0 0.0    1.69749987e-05 -1.20639991e-04 -1.69399987e-05
atom     22.9956533471    19.1665455449     3.8335299076   Al  0.0 0.0   -1.33254990e-04  0.00000000e+00  7.79449941e-05
atom     22.9977110675    15.3347176266     7.6687618044   Al  0.0 0.0   -1.13609991e-04  8.20699938e-05  1.13619991e-04
atom     26.8329429643    19.1665455449     7.6708195248   Al  0.0 0.0   -7.79399941e-05 -0.00000000e+00  1.33229990e-04
atom     26.8323879012    15.3354934884    11.5031197068   Al  0.0 0.0   -6.42749952e-05  7.53599943e-05  1.23234991e-04
atom     23.0003729173    19.1665455449    11.4994059969   Al  0.0 0.0   -3.69749972e-05  0.00000000e+00  3.29699975e-05
atom     22.9982415975    15.3338589654    15.3332364360   Al  0.0 0.0   -5.92599955e-05  3.50449974e-05  4.99999962e-09
atom     26.8321916357    19.1665455449    15.3332364360   Al  0.0 0.0   -4.41049967e-05 -0.00000000e+00 -2.49999981e-08
atom     26.8323879012    15.3354934884    19.1633531651   Al  0.0 0.0   -6.42799952e-05  7.53349943e-05 -1.23209991e-04
atom     23.0003729173    19.1665455449    19.1670699416   Al  0.0 0.0   -3.69699972e-05  0.00000000e+00 -3.29849975e-05
atom     22.9977110675    15.3347176266    22.9977110675   Al  0.0 0.0   -1.13599991e-04  8.20599938e-05 -1.13594991e-04
atom     26.8329429643    19.1665455449    22.9956533471   Al  0.0 0.0   -7.79349941e-05 -9.99999925e-09 -1.33259990e-04
atom     26.8243655519    15.3519797842    26.8243655519   Al  0.0 0.0    1.69749987e-05 -1.20624991e-04  1.69549987e-05
atom     22.9956533471    19.1665455449    26.8329429643   Al  0.0 0.0   -1.33249990e-04 -4.99999962e-09 -7.79499941e-05
atom     22.9842668858    22.9856622103     0.0000000000   Al  0.0 0.0    5.26149960e-05  9.14999931e-05  4.99999962e-09
atom     26.7867899226    26.7829964800     0.0000000000   Al  0.0 0.0    3.86749971e-05  4.65849965e-05  4.99999962e-09
atom     26.8243655519    22.9811113057     3.8421073201   Al  0.0 0.0    1.69699987e-05  1.20624991e-04 -1.69249987e-05
atom     22.9791118517    26.8228567614     3.8411259929   Al  0.0 0.0    5.27099960e-05 -5.69799957e-05  1.01949992e-05
atom     22.9977110675    22.9983734633     7.6687618044   Al  0.0 0.0   -1.13589991e-04 -8.20399938e-05  1.13604991e-04
atom     26.8253468790    26.8228567614     7.6873610202   Al  0.0 0.0   -1.01599992e-05 -5.69699957e-05 -5.27449960e-05