begin
comment 4 atoms, species Al4
lattice      8.1499259660     0.0000000000     0.0000000000
lattice      0.0000000000     8.0959490063     0.0000000000
lattice      0.0000000000     0.0000000000     8.0959490063
atom      0.0000000000     0.0000000000     0.0000000000   Al  0.0 0.0   -4.99999962e-09 -4.99999962e-09 -9.99999925e-09
atom      4.0749629830     4.0479761331     0.0000000000   Al  0.0 0.0    4.99999962e-09  4.99999962e-09 -4.99999962e-09
atom      4.0749629830     0.0000000000     4.0479761331   Al  0.0 0.0    4.99999962e-09 -0.00000000e+00  4.99999962e-09
atom      0.0000000000     4.0479761331     4.0479761331   Al  0.0 0.0   -4.99999962e-09  4.99999962e-09  9.99999925e-09
energy -7.898878369846138e+01
charge 0.0000
end
