begin
comment Mg hcp pure
lattice 6.017568 0.000000 0.000000
lattice -3.008783 5.211367 0.000000
lattice -0.000000 -0.000000 9.762415
atom  0.629908 1.259818 0.472431  Mg 0.0000 0.0000	0.00000000e+00 0.00000000e+00 0.00000000e+00
atom  1.259818 0.629908 1.417294  Mg 0.0000 0.0000	0.00000000e+00 0.00000000e+00 0.00000000e+00
energy 0.000 
charge 0.0000
end
