begin
comment 4 atoms, species Al4
lattice      7.6331373306    -0.3816568665     0.0000000000
lattice     -0.3816568665     7.6331373306     0.0000000000
lattice      0.0000000000     0.0000000000     7.6522680006
atom      0.0000000000     0.0000000000     0.0000000000   Al  0.0 0.0   -2.63242174e-14  1.30483790e-13 -1.90165879e-13
atom     -0.1908284333     3.8165686653     3.8261340003   Al  0.0 0.0   -1.79491517e-13 -2.08170842e-13  1.90182207e-13
atom      3.8165686653    -0.1908284333     3.8261340003   Al  0.0 0.0    1.79482782e-13  2.08158274e-13  1.90152067e-13
atom      3.6257402320     3.6257402320     0.0000000000   Al  0.0 0.0    2.63383718e-14 -1.30454706e-13 -1.90163895e-13
energy -7.900211170790018e+01
charge 0.0000
end
begin
comment 4 atoms, species Al4
lattice      7.6331373306    -0.2968442295     0.0000000000
lattice     -0.2968442295     7.6331373306     0.0000000000
lattice      0.0000000000     0.0000000000     7.6446987577
atom      0.0000000000     0.0000000000     0.0000000000   Al  0.0 0.0   -1.74137474e-13 -1.48199759e-13 -5.09327085e-14
atom     -0.1484221148     3.8165686653     3.8223493789   Al  0.0 0.0   -1.18895529e-13  6.10963900e-14  5.09854620e-14
atom      3.8165686653    -0.1484221148     3.8223493789   Al  0.0 0.0    1.18904767e-13 -6.10810843e-14  5.09692379e-14
atom      3.6681465505     3.6681465505     0.0000000000   Al  0.0 0.0    1.74135580e-13  1.48185788e-13 -5.09146604e-14
energy -7.900325995137877e+01
charge 0.0000
end
begin
comment 4 atoms, species Al4
lattice      7.6331373306    -0.2120315925     0.0000000000
lattice     -0.2120315925     7.6331373306     0.0000000000
lattice      0.0000000000     0.0000000000     7.6390316451
atom      0.0000000000     0.0000000000     0.0000000000   Al  0.0 0.0   -1.83790772e-13 -9.19616818e-14 -2.21636206e-13
atom     -0.1060157963     3.8165686653     3.8195158226   Al  0.0 0.0   -1.62850542e-13  1.75954467e-14  2.21611634e-13
atom      3.8165686653    -0.1060157963     3.8195158226   Al  0.0 0.0    1.62855285e-13 -1.75899256e-14  2.21606637e-13
atom      3.7105528690     3.7105528690     0.0000000000   Al  0.0 0.0    1.83785344e-13  9.19995291e-14 -2.21644248e-13
energy -7.900409032170190e+01
charge 0.0000
end
begin
comment 4 atoms, species Al4
lattice      7.6331373306    -0.1272189555     0.0000000000
lattice     -0.1272189555     7.6331373306     0.0000000000
lattice      0.0000000000     0.0000000000     7.6352582357
atom      0.0000000000     0.0000000000     0.0000000000   Al  0.0 0.0   -8.68016861e-14  9.74779384e-14  2.12299920e-13
atom     -0.0636094778     3.8165686653     3.8176291178   Al  0.0 0.0   -1.11931984e-13 -1.23236355e-13 -2.12195407e-13
atom      3.8165686653    -0.0636094778     3.8176291178   Al  0.0 0.0    1.11962057e-13  1.23246119e-13 -2.12183764e-13
atom      3.7529591875     3.7529591875     0.0000000000   Al  0.0 0.0    8.67899328e-14 -9.74513244e-14  2.12193233e-13
energy -7.900463035261411e+01
charge 0.0000
end
begin
comment 4 atoms, species Al4
lattice      7.6331373306    -0.0424063185     0.0000000000
lattice     -0.0424063185     7.6331373306     0.0000000000
lattice      0.0000000000     0.0000000000     7.6333729285
atom      0.0000000000     0.0000000000     0.0000000000   Al  0.0 0.0    5.15945880e-14  1.78046414e-13  1.63645591e-13
atom     -0.0212031593     3.8165686653     3.8166864643   Al  0.0 0.0    3.39876328e-14 -1.74343457e-13 -1.63595482e-13
atom      3.8165686653    -0.0212031593     3.8166864643   Al  0.0 0.0   -3.39636131e-14  1.74392029e-13 -1.63586697e-13
atom      3.7953655060     3.7953655060     0.0000000000   Al  0.0 0.0   -5.15938431e-14 -1.78058082e-13  1.63661245e-13
energy -7.900489631876887e+01
charge 0.0000
end
begin
comment 4 atoms, species Al4
lattice      7.6331373306     0.0424063185     0.0000000000
lattice      0.0424063185     7.6331373306     0.0000000000
lattice      0.0000000000     0.0000000000     7.6333729285
atom      0.0000000000     0.0000000000     0.0000000000   Al  0.0 0.0    3.39616353e-14  1.74407983e-13  1.63634628e-13
atom      0.0212031593     3.8165686653     3.8166864643   Al  0.0 0.0    5.15697351e-14 -1.78060405e-13 -1.63597280e-13
atom      3.8165686653     0.0212031593     3.8166864643   Al  0.0 0.0   -5.15599205e-14  1.78118531e-13 -1.63569052e-13
atom      3.8377718246     3.8377718246     0.0000000000   Al  0.0 0.0   -3.39642145e-14 -1.74417368e-13  1.63581358e-13
energy -7.900489631876887e+01
charge 0.0000
end
begin
comment 4 atoms, species Al4
lattice      7.6331373306     0.1272189555     0.0000000000
lattice      0.1272189555     7.6331373306     0.0000000000
lattice      0.0000000000     0.0000000000     7.6352582357
atom      0.0000000000     0.0000000000     0.0000000000   Al  0.0 0.0   -1.11978125e-13  1.23221289e-13  2.12255253e-13
atom      0.0636094778     3.8165686653     3.8176291178   Al  0.0 0.0   -8.68462282e-14 -9.74776011e-14 -2.12195481e-13
atom      3.8165686653     0.0636094778     3.8176291178   Al  0.0 0.0    8.68335374e-14  9.74616838e-14 -2.12203383e-13
atom      3.8801781431     3.8801781431     0.0000000000   Al  0.0 0.0    1.11986502e-13 -1.23205680e-13  2.12286421e-13
energy -7.900463035261411e+01
charge 0.0000
end
begin
comment 4 atoms, species Al4
lattice      7.6331373306     0.2120315925     0.0000000000
lattice      0.2120315925     7.6331373306     0.0000000000
lattice      0.0000000000     0.0000000000     7.6390316451
atom      0.0000000000     0.0000000000     0.0000000000   Al  0.0 0.0   -1.62867377e-13 -1.75822801e-14 -2.21656934e-13
atom      0.1060157963     3.8165686653     3.8195158226   Al  0.0 0.0   -1.83780396e-13  9.19799577e-14  2.21602455e-13
atom      3.8165686653     0.1060157963     3.8195158226   Al  0.0 0.0    1.83794609e-13 -9.19770993e-14  2.21619711e-13
atom      3.9225844616     3.9225844616     0.0000000000   Al  0.0 0.0    1.62852257e-13  1.75944819e-14 -2.21633369e-13
energy -7.900409032170190e+01
charge 0.0000
end
begin
comment 4 atoms, species Al4
lattice      7.6331373306     0.2968442295     0.0000000000
lattice      0.2968442295     7.6331373306     0.0000000000
lattice      0.0000000000     0.0000000000     7.6446987577
atom      0.0000000000     0.0000000000     0.0000000000   Al  0.0 0.0   -1.18901245e-13 -6.10952618e-14 -5.09928942e-14
atom      0.1484221148     3.8165686653     3.8223493789   Al  0.0 0.0   -1.74125828e-13  1.48193274e-13  5.09889733e-14
atom      3.8165686653     0.1484221148     3.8223493789   Al  0.0 0.0    1.74149418e-13 -1.48211718e-13  5.09605448e-14
atom      3.9649907801     3.9649907801     0.0000000000   Al  0.0 0.0    1.18893729e-13  6.10853816e-14 -5.09369819e-14
energy -7.900325995137877e+01
charge 0.0000
end
begin
comment 4 atoms, species Al4
lattice      7.6331373306     0.3816568665     0.0000000000
lattice      0.3816568665     7.6331373306     0.0000000000
lattice      0.0000000000     0.0000000000     7.6522680006
atom      0.0000000000     0.0000000000     0.0000000000   Al  0.0 0.0   -1.79466544e-13  2.08152365e-13 -1.90156239e-13
atom      0.1908284333     3.8165686653     3.8261340003   Al  0.0 0.0   -2.63207875e-14 -1.30476052e-13  1.90183275e-13
atom      3.8165686653     0.1908284333     3.8261340003   Al  0.0 0.0    2.63299991e-14  1.30468136e-13  1.90171720e-13
atom      4.0073970986     4.0073970986     0.0000000000   Al  0.0 0.0    1.79459630e-13 -2.08114069e-13 -1.90215495e-13
energy -7.900211170790018e+01
charge 0.0000
end
