
     Program PWSCF v.6.3 starts on 22Feb2020 at  7:45:33 

     This program is part of the open-source Quantum ESPRESSO suite
     for quantum simulation of materials; please cite
         "P. Giannozzi et al., J. Phys.:Condens. Matter 21 395502 (2009);
         "P. Giannozzi et al., J. Phys.:Condens. Matter 29 465901 (2017);
          URL http://www.quantum-espresso.org", 
     in publications or presentations arising from this work. More details at
     http://www.quantum-espresso.org/quote

 *** WARNING: using old-style file format, will disappear from next version ***

     Parallel version (MPI & OpenMP), running on      36 processor cores
     Number of MPI processes:                36
     Threads/MPI process:                     1

     MPI processes distributed on     1 nodes
     K-points division:     npool     =       4
     R & G space division:  proc/nbgrp/npool/nimage =       9
     Reading input from aiida.in
Warning: card &IONS ignored
Warning: card   !PRESS_CONV_THR = 0.05                 ! JUST FOR VOLUME RELAXATIONS ignored
Warning: card / ignored

     Current dimensions of program PWSCF are:
     Max number of different atomic species (ntypx) = 10
     Max number of k-points (npk) =  40000
     Max angular momentum in pseudopotentials (lmaxx) =  3
               file Al.pbe-n-kjpaw_psl.1.0.0.UPF: wavefunction(s)  3S 3P renormalized

     Subspace diagonalization in iterative solution of the eigenvalue problem:
     one sub-group per band group will be used
     scalapack distributed-memory algorithm (size of sub-group:  2*  2 procs)

 
     Parallelization info
     --------------------
     sticks:   dense  smooth     PW     G-vecs:    dense   smooth      PW
     Min        3324    1330    347               432816   109512   14645
     Max        3325    1331    348               432821   109515   14652
     Sum       29921   11977   3125              3895379   985619  131827
 


     bravais-lattice index     =            0
     lattice parameter (alat)  =      30.6665  a.u.
     unit-cell volume          =   28839.7502 (a.u.)^3
     number of atoms/cell      =          254
     number of atomic types    =            1
     number of electrons       =       762.00
     number of Kohn-Sham states=          457
     kinetic-energy cutoff     =      40.0000  Ry
     charge density cutoff     =     400.0000  Ry
     convergence threshold     =      1.0E-12
     mixing beta               =       0.4000
     number of iterations used =            8  local-TF  mixing
     Exchange-correlation      = SLA PW PBX PBC ( 1  4  3  4 0 0)

     celldm(1)=  30.666473  celldm(2)=   0.000000  celldm(3)=   0.000000
     celldm(4)=   0.000000  celldm(5)=   0.000000  celldm(6)=   0.000000

     crystal axes: (cart. coord. in units of alat)
               a(1) = (   1.000000   0.000000   0.000000 )  
               a(2) = (   0.000000   1.000000   0.000000 )  
               a(3) = (   0.000000   0.000000   1.000000 )  

     reciprocal axes: (cart. coord. in units 2 pi/alat)
               b(1) = (  1.000000  0.000000  0.000000 )  
               b(2) = (  0.000000  1.000000  0.000000 )  
               b(3) = (  0.000000  0.000000  1.000000 )  


     PseudoPot. # 1 for Al read from file:
     /users/aglensk/Dropbox/Albert/scripts/dotfiles/scripts/potentials/quantum_espresso/pseudo_SSSPefV1.1_alalloy/Al.pbe-n-kjpaw_psl.1.0.0.UPF
     MD5 check sum: cfc449ca30b5f3223ec38ddd88ac046d
     Pseudo is Projector augmented-wave + core cor, Zval =  3.0
     Generated using "atomic" code by A. Dal Corso v.5.1
     Shape of augmentation charge: PSQ
     Using radial grid of 1135 points,  6 beta functions with: 
                l(1) =   0
                l(2) =   0
                l(3) =   1
                l(4) =   1
                l(5) =   2
                l(6) =   2
     Q(r) pseudized with 0 coefficients 


     atomic species   valence    mass     pseudopotential
        Al             3.00    26.98154     Al( 1.00)

     No symmetry found


                                    s                        frac. trans.

      isym =  1     identity                                     

 cryst.   s( 1) = (     1          0          0      )
                  (     0          1          0      )
                  (     0          0          1      )

 cart.    s( 1) = (  1.0000000  0.0000000  0.0000000 )
                  (  0.0000000  1.0000000  0.0000000 )
                  (  0.0000000  0.0000000  1.0000000 )


   Cartesian axes

     site n.     atom                  positions (alat units)
         1           Al  tau(   1) = (   0.1229804   0.0002310   0.1229804  )
         2           Al  tau(   2) = (   0.1232940   0.1250000   0.0017060  )
         3           Al  tau(   3) = (   0.0017060   0.1250000   0.1232940  )
         4           Al  tau(   4) = (   0.0000665   0.9999662   0.2496905  )
         5           Al  tau(   5) = (   0.1250081   0.1270262   0.2480406  )
         6           Al  tau(   6) = (   0.1249681   0.0006078   0.3744548  )
         7           Al  tau(   7) = (   0.0000114   0.1249931   0.3751471  )
         8           Al  tau(   8) = (   0.0000560   0.9999858   0.4999440  )
         9           Al  tau(   9) = (   0.1250247   0.1250436   0.5000745  )
        10           Al  tau(  10) = (   0.1249778   0.9999738   0.6249494  )
        11           Al  tau(  11) = (   0.9999752   0.1249564   0.6249256  )
        12           Al  tau(  12) = (   0.0000598   0.9999938   0.7502920  )
        13           Al  tau(  13) = (   0.1249886   0.1250068   0.7498529  )
        14           Al  tau(  14) = (   0.1227459   0.0006946   0.8778866  )
        15           Al  tau(  15) = (   0.9999919   0.1229738   0.8769594  )
        16           Al  tau(  16) = (   0.0020196   0.2497690   0.0020196  )
        17           Al  tau(  17) = (   0.1249586   0.3728598   0.0021652  )
        18           Al  tau(  18) = (   0.0021652   0.3728598   0.1249586  )
        19           Al  tau(  19) = (   0.0022541   0.2493054   0.2471134  )
        20           Al  tau(  20) = (   0.1249312   0.3728103   0.2478463  )
        21           Al  tau(  21) = (   0.1249402   0.2500062   0.3747081  )
        22           Al  tau(  22) = (   0.0000085   0.3749612   0.3750242  )
        23           Al  tau(  23) = (   0.0000222   0.2500262   0.5000506  )
        24           Al  tau(  24) = (   0.1250163   0.3750059   0.5000433  )
        25           Al  tau(  25) = (   0.1249440   0.2500142   0.6250560  )
        26           Al  tau(  26) = (   0.9999731   0.3749881   0.6250376  )
        27           Al  tau(  27) = (   0.0000319   0.2493923   0.7505452  )
        28           Al  tau(  28) = (   0.1249480   0.3749415   0.7499271  )
        29           Al  tau(  29) = (   0.1249335   0.2500338   0.8753095  )
        30           Al  tau(  30) = (   0.0000094   0.3750690   0.8749366  )
        31           Al  tau(  31) = (   0.0000237   0.5000316   0.0000237  )
        32           Al  tau(  32) = (   0.1249741   0.6250000   0.0000259  )
        33           Al  tau(  33) = (   0.1250174   0.4997400   0.1250174  )
        34           Al  tau(  34) = (   0.0000259   0.6250000   0.1249741  )
        35           Al  tau(  35) = (   0.0000179   0.5000568   0.2499896  )
        36           Al  tau(  36) = (   0.1249418   0.6251103   0.2499811  )
        37           Al  tau(  37) = (   0.1250148   0.4993790   0.3744090  )
        38           Al  tau(  38) = (   0.0000623   0.6249802   0.3749672  )
        39           Al  tau(  39) = (   0.0000605   0.5000010   0.4999395  )
        40           Al  tau(  40) = (   0.1250156   0.6249339   0.4999525  )
        41           Al  tau(  41) = (   0.1250122   0.5000156   0.6249770  )
        42           Al  tau(  42) = (   0.9999844   0.6250661   0.6250475  )
        43           Al  tau(  43) = (   0.0000546   0.5000175   0.7500286  )
        44           Al  tau(  44) = (   0.1249376   0.6250198   0.7500328  )
        45           Al  tau(  45) = (   0.1250276   0.4993997   0.8755864  )
        46           Al  tau(  46) = (   0.0000582   0.6248897   0.8750189  )
        47           Al  tau(  47) = (   0.9999826   0.7502600   0.9999826  )
        48           Al  tau(  48) = (   0.1228348   0.8771402   0.0000414  )
        49           Al  tau(  49) = (   0.1249763   0.7499684   0.1249763  )
        50           Al  tau(  50) = (   0.0000414   0.8771402   0.1228348  )
        51           Al  tau(  51) = (   0.9999724   0.7506003   0.2494136  )
        52           Al  tau(  52) = (   0.1249906   0.8749311   0.2500634  )
        53           Al  tau(  53) = (   0.1249454   0.7499825   0.3749715  )
        54           Al  tau(  54) = (   0.0000520   0.8750585   0.3750729  )
        55           Al  tau(  55) = (   0.9999878   0.7499844   0.5000230  )
        56           Al  tau(  56) = (   0.1250269   0.8750120   0.4999624  )
        57           Al  tau(  57) = (   0.1249395   0.7499990   0.6250605  )
        58           Al  tau(  58) = (   0.9999837   0.8749941   0.6249567  )
        59           Al  tau(  59) = (   0.9999852   0.7506210   0.7505910  )
        60           Al  tau(  60) = (   0.1249915   0.8750388   0.7499758  )
        61           Al  tau(  61) = (   0.1249821   0.7499432   0.8750104  )
        62           Al  tau(  62) = (   0.0000688   0.8771897   0.8771537  )
        63           Al  tau(  63) = (   0.2496905   0.9999662   0.0000665  )
        64           Al  tau(  64) = (   0.3751471   0.1249931   0.0000114  )
        65           Al  tau(  65) = (   0.3744548   0.0006078   0.1249681  )
        66           Al  tau(  66) = (   0.2480406   0.1270262   0.1250081  )
        67           Al  tau(  67) = (   0.2494222   0.9998993   0.2494222  )
        68           Al  tau(  68) = (   0.3749914   0.1249742   0.2499870  )
        69           Al  tau(  69) = (   0.3751046   0.9998586   0.3751046  )
        70           Al  tau(  70) = (   0.2499870   0.1249742   0.3749914  )
        71           Al  tau(  71) = (   0.2499622   0.9999949   0.4999355  )
        72           Al  tau(  72) = (   0.3750437   0.1250706   0.4999473  )
        73           Al  tau(  73) = (   0.3749570   0.9999949   0.6250431  )
        74           Al  tau(  74) = (   0.2500363   0.1249191   0.6250538  )
        75           Al  tau(  75) = (   0.2493163   0.9999967   0.7506941  )
        76           Al  tau(  76) = (   0.3749649   0.1250000   0.7500351  )
        77           Al  tau(  77) = (   0.3751772   0.9998575   0.8748903  )
        78           Al  tau(  78) = (   0.2500902   0.1250000   0.8749098  )
        79           Al  tau(  79) = (   0.2471134   0.2493054   0.0022541  )
        80           Al  tau(  80) = (   0.3750242   0.3749612   0.0000085  )
        81           Al  tau(  81) = (   0.3747081   0.2500062   0.1249402  )
        82           Al  tau(  82) = (   0.2478463   0.3728103   0.1249312  )
        83           Al  tau(  83) = (   0.2479283   0.2501290   0.2479283  )
        84           Al  tau(  84) = (   0.3750608   0.3749914   0.2499772  )
        85           Al  tau(  85) = (   0.3743915   0.2499889   0.3743915  )
        86           Al  tau(  86) = (   0.2499772   0.3749914   0.3750608  )
        87           Al  tau(  87) = (   0.2499760   0.2499938   0.5000448  )
        88           Al  tau(  88) = (   0.3749932   0.3749210   0.4999520  )
        89           Al  tau(  89) = (   0.3750307   0.2499826   0.6249969  )
        90           Al  tau(  90) = (   0.2500117   0.3750335   0.6249878  )
        91           Al  tau(  91) = (   0.2501097   0.2501425   0.7498228  )
        92           Al  tau(  92) = (   0.3750031   0.3749419   0.7500886  )
        93           Al  tau(  93) = (   0.3743059   0.2500034   0.8756837  )
        94           Al  tau(  94) = (   0.2499499   0.3748889   0.8750444  )
        95           Al  tau(  95) = (   0.2499896   0.5000568   0.0000179  )
        96           Al  tau(  96) = (   0.3749672   0.6249802   0.0000623  )
        97           Al  tau(  97) = (   0.3744090   0.4993790   0.1250148  )
        98           Al  tau(  98) = (   0.2499811   0.6251103   0.1249418  )
        99           Al  tau(  99) = (   0.2499804   0.5000674   0.2499804  )
       100           Al  tau( 100) = (   0.3750177   0.6249358   0.2499222  )
       101           Al  tau( 101) = (   0.3751334   0.5001528   0.3751334  )
       102           Al  tau( 102) = (   0.2499222   0.6249358   0.3750177  )
       103           Al  tau( 103) = (   0.2499885   0.5000020   0.4999422  )
       104           Al  tau( 104) = (   0.3749544   0.6250219   0.5000089  )
       105           Al  tau( 105) = (   0.3749888   0.5000057   0.6250099  )
       106           Al  tau( 106) = (   0.2499859   0.6250194   0.6250045  )
       107           Al  tau( 107) = (   0.2499537   0.5000089   0.7500511  )
       108           Al  tau( 108) = (   0.3749863   0.6250000   0.7500137  )
       109           Al  tau( 109) = (   0.3751688   0.5001457   0.8748337  )
       110           Al  tau( 110) = (   0.2499521   0.6250000   0.8750479  )
       111           Al  tau( 111) = (   0.2494136   0.7506003   0.9999724  )
       112           Al  tau( 112) = (   0.3750729   0.8750585   0.0000520  )
       113           Al  tau( 113) = (   0.3749715   0.7499825   0.1249454  )
       114           Al  tau( 114) = (   0.2500634   0.8749311   0.1249906  )
       115           Al  tau( 115) = (   0.2501726   0.7498472   0.2501726  )
       116           Al  tau( 116) = (   0.3749682   0.8750998   0.2499583  )
       117           Al  tau( 117) = (   0.3750038   0.7500224   0.3750038  )
       118           Al  tau( 118) = (   0.2499583   0.8750998   0.3749682  )
       119           Al  tau( 119) = (   0.2500076   0.7500063   0.5000259  )
       120           Al  tau( 120) = (   0.3749967   0.8749869   0.5000029  )
       121           Al  tau( 121) = (   0.3750673   0.7500146   0.6249892  )
       122           Al  tau( 122) = (   0.2500376   0.8750297   0.6250526  )
       123           Al  tau( 123) = (   0.2501663   0.7498542   0.7498312  )
       124           Al  tau( 124) = (   0.3749114   0.8750581   0.7499969  )
       125           Al  tau( 125) = (   0.3749489   0.7499911   0.8750463  )
       126           Al  tau( 126) = (   0.2499557   0.8751111   0.8750502  )
       127           Al  tau( 127) = (   0.4999440   0.9999858   0.0000560  )
       128           Al  tau( 128) = (   0.6249256   0.1249564   0.9999752  )
       129           Al  tau( 129) = (   0.6249494   0.9999738   0.1249778  )
       130           Al  tau( 130) = (   0.5000745   0.1250436   0.1250247  )
       131           Al  tau( 131) = (   0.4999355   0.9999949   0.2499622  )
       132           Al  tau( 132) = (   0.6250538   0.1249191   0.2500363  )
       133           Al  tau( 133) = (   0.6250431   0.9999949   0.3749570  )
       134           Al  tau( 134) = (   0.4999473   0.1250706   0.3750437  )
       135           Al  tau( 135) = (   0.5000110   0.0000213   0.5000110  )
       136           Al  tau( 136) = (   0.6249762   0.1250000   0.5000238  )
       137           Al  tau( 137) = (   0.6250401   0.9999490   0.6250401  )
       138           Al  tau( 138) = (   0.5000238   0.1250000   0.6249762  )
       139           Al  tau( 139) = (   0.5000031   0.0000174   0.7499693  )
       140           Al  tau( 140) = (   0.6250527   0.1249294   0.7499563  )
       141           Al  tau( 141) = (   0.6249552   0.0000062   0.8750241  )
       142           Al  tau( 142) = (   0.4999462   0.1250809   0.8749637  )
       143           Al  tau( 143) = (   0.5000506   0.2500262   0.0000222  )
       144           Al  tau( 144) = (   0.6250376   0.3749881   0.9999731  )
       145           Al  tau( 145) = (   0.6250560   0.2500142   0.1249440  )
       146           Al  tau( 146) = (   0.5000433   0.3750059   0.1250163  )
       147           Al  tau( 147) = (   0.5000448   0.2499938   0.2499760  )
       148           Al  tau( 148) = (   0.6249878   0.3750335   0.2500117  )
       149           Al  tau( 149) = (   0.6249969   0.2499826   0.3750307  )
       150           Al  tau( 150) = (   0.4999520   0.3749210   0.3749932  )
       151           Al  tau( 151) = (   0.4999599   0.2500510   0.4999599  )
       152           Al  tau( 152) = (   0.6250128   0.3750032   0.5000257  )
       153           Al  tau( 153) = (   0.6249890   0.2499787   0.6249890  )
       154           Al  tau( 154) = (   0.5000257   0.3750032   0.6250128  )
       155           Al  tau( 155) = (   0.4999569   0.2500051   0.7500431  )
       156           Al  tau( 156) = (   0.6249971   0.3750131   0.7500033  )
       157           Al  tau( 157) = (   0.6250645   0.2500051   0.8750378  )
       158           Al  tau( 158) = (   0.4999474   0.3749703   0.8749624  )
       159           Al  tau( 159) = (   0.4999395   0.5000010   0.0000605  )
       160           Al  tau( 160) = (   0.6250475   0.6250661   0.9999844  )
       161           Al  tau( 161) = (   0.6249770   0.5000156   0.1250122  )
       162           Al  tau( 162) = (   0.4999525   0.6249339   0.1250156  )
       163           Al  tau( 163) = (   0.4999422   0.5000020   0.2499885  )
       164           Al  tau( 164) = (   0.6250045   0.6250194   0.2499859  )
       165           Al  tau( 165) = (   0.6250099   0.5000057   0.3749888  )
       166           Al  tau( 166) = (   0.5000089   0.6250219   0.3749544  )
       167           Al  tau( 167) = (   0.4999990   0.4999754   0.4999990  )
       168           Al  tau( 168) = (   0.6250102   0.6250000   0.4999898  )
       169           Al  tau( 169) = (   0.6250236   0.5000511   0.6250236  )
       170           Al  tau( 170) = (   0.4999898   0.6250000   0.6250102  )
       171           Al  tau( 171) = (   0.5000109   0.4999855   0.7499327  )
       172           Al  tau( 172) = (   0.6249911   0.6249781   0.7500456  )
       173           Al  tau( 173) = (   0.6249741   0.4999937   0.8749925  )
       174           Al  tau( 174) = (   0.4999955   0.6249806   0.8750141  )
       175           Al  tau( 175) = (   0.5000230   0.7499844   0.9999878  )
       176           Al  tau( 176) = (   0.6249567   0.8749941   0.9999837  )
       177           Al  tau( 177) = (   0.6250605   0.7499990   0.1249395  )
       178           Al  tau( 178) = (   0.4999624   0.8750120   0.1250269  )
       179           Al  tau( 179) = (   0.5000259   0.7500063   0.2500076  )
       180           Al  tau( 180) = (   0.6250526   0.8750297   0.2500376  )
       181           Al  tau( 181) = (   0.6249892   0.7500146   0.3750673  )
       182           Al  tau( 182) = (   0.5000029   0.8749869   0.3749967  )
       183           Al  tau( 183) = (   0.4999764   0.7499489   0.4999764  )
       184           Al  tau( 184) = (   0.6249743   0.8749968   0.4999872  )
       185           Al  tau( 185) = (   0.6250011   0.7500246   0.6250011  )
       186           Al  tau( 186) = (   0.4999872   0.8749968   0.6249743  )
       187           Al  tau( 187) = (   0.4999901   0.7499943   0.7500113  )
       188           Al  tau( 188) = (   0.6250480   0.8750790   0.7500068  )
       189           Al  tau( 189) = (   0.6250578   0.7499980   0.8750115  )
       190           Al  tau( 190) = (   0.5000122   0.8749665   0.8749883  )
       191           Al  tau( 191) = (   0.7502920   0.9999938   0.0000598  )
       192           Al  tau( 192) = (   0.8769594   0.1229738   0.9999919  )
       193           Al  tau( 193) = (   0.8778866   0.0006946   0.1227459  )
       194           Al  tau( 194) = (   0.7498529   0.1250068   0.1249886  )
       195           Al  tau( 195) = (   0.7506941   0.9999967   0.2493163  )
       196           Al  tau( 196) = (   0.8749098   0.1250000   0.2500902  )
       197           Al  tau( 197) = (   0.8748903   0.9998575   0.3751772  )
       198           Al  tau( 198) = (   0.7500351   0.1250000   0.3749649  )
       199           Al  tau( 199) = (   0.7499693   0.0000174   0.5000031  )
       200           Al  tau( 200) = (   0.8749637   0.1250809   0.4999462  )
       201           Al  tau( 201) = (   0.8750241   0.0000062   0.6249552  )
       202           Al  tau( 202) = (   0.7499563   0.1249294   0.6250527  )
       203           Al  tau( 203) = (   0.7506085   0.0000111   0.7506085  )
       204           Al  tau( 204) = (   0.8750130   0.1250259   0.7500086  )
       205           Al  tau( 205) = (   0.8770717   0.9998710   0.8770717  )
       206           Al  tau( 206) = (   0.7500086   0.1250259   0.8750130  )
       207           Al  tau( 207) = (   0.7505452   0.2493923   0.0000319  )
       208           Al  tau( 208) = (   0.8749366   0.3750690   0.0000094  )
       209           Al  tau( 209) = (   0.8753095   0.2500338   0.1249335  )
       210           Al  tau( 210) = (   0.7499271   0.3749415   0.1249480  )
       211           Al  tau( 211) = (   0.7498228   0.2501425   0.2501097  )
       212           Al  tau( 212) = (   0.8750444   0.3748889   0.2499499  )
       213           Al  tau( 213) = (   0.8756837   0.2500034   0.3743059  )
       214           Al  tau( 214) = (   0.7500886   0.3749419   0.3750031  )
       215           Al  tau( 215) = (   0.7500431   0.2500051   0.4999569  )
       216           Al  tau( 216) = (   0.8749624   0.3749703   0.4999474  )
       217           Al  tau( 217) = (   0.8750378   0.2500051   0.6250645  )
       218           Al  tau( 218) = (   0.7500033   0.3750131   0.6249971  )
       219           Al  tau( 219) = (   0.7498954   0.2501414   0.7498954  )
       220           Al  tau( 220) = (   0.8750417   0.3749002   0.7500318  )
       221           Al  tau( 221) = (   0.8755778   0.2501007   0.8755778  )
       222           Al  tau( 222) = (   0.7500318   0.3749002   0.8750417  )
       223           Al  tau( 223) = (   0.7500286   0.5000175   0.0000546  )
       224           Al  tau( 224) = (   0.8750189   0.6248897   0.0000582  )
       225           Al  tau( 225) = (   0.8755864   0.4993997   0.1250276  )
       226           Al  tau( 226) = (   0.7500328   0.6250198   0.1249376  )
       227           Al  tau( 227) = (   0.7500511   0.5000089   0.2499537  )
       228           Al  tau( 228) = (   0.8750479   0.6250000   0.2499521  )
       229           Al  tau( 229) = (   0.8748337   0.5001457   0.3751688  )
       230           Al  tau( 230) = (   0.7500137   0.6250000   0.3749863  )
       231           Al  tau( 231) = (   0.7499327   0.4999855   0.5000109  )
       232           Al  tau( 232) = (   0.8750141   0.6249806   0.4999955  )
       233           Al  tau( 233) = (   0.8749925   0.4999937   0.6249741  )
       234           Al  tau( 234) = (   0.7500456   0.6249781   0.6249911  )
       235           Al  tau( 235) = (   0.7499962   0.4999776   0.7499962  )
       236           Al  tau( 236) = (   0.8750778   0.6250642   0.7499823  )
       237           Al  tau( 237) = (   0.8748275   0.5001528   0.8748275  )
       238           Al  tau( 238) = (   0.7499823   0.6250642   0.8750778  )
       239           Al  tau( 239) = (   0.7505910   0.7506210   0.9999852  )
       240           Al  tau( 240) = (   0.8771537   0.8771897   0.0000688  )
       241           Al  tau( 241) = (   0.8750104   0.7499432   0.1249821  )
       242           Al  tau( 242) = (   0.7499758   0.8750388   0.1249915  )
       243           Al  tau( 243) = (   0.7498312   0.7498542   0.2501663  )
       244           Al  tau( 244) = (   0.8750502   0.8751111   0.2499557  )
       245           Al  tau( 245) = (   0.8750463   0.7499911   0.3749489  )
       246           Al  tau( 246) = (   0.7499969   0.8750581   0.3749114  )
       247           Al  tau( 247) = (   0.7500113   0.7499943   0.4999901  )
       248           Al  tau( 248) = (   0.8749883   0.8749665   0.5000122  )
       249           Al  tau( 249) = (   0.8750115   0.7499980   0.6250578  )
       250           Al  tau( 250) = (   0.7500068   0.8750790   0.6250480  )
       251           Al  tau( 251) = (   0.7498666   0.7498472   0.7498666  )
       252           Al  tau( 252) = (   0.8750228   0.8750086   0.7499392  )
       253           Al  tau( 253) = (   0.8750197   0.7499326   0.8750197  )
       254           Al  tau( 254) = (   0.7499392   0.8750086   0.8750228  )

   Crystallographic axes

     site n.     atom                  positions (cryst. coord.)
         1           Al  tau(   1) = (  0.1229804  0.0002310  0.1229804  )
         2           Al  tau(   2) = (  0.1232940  0.1250000  0.0017060  )
         3           Al  tau(   3) = (  0.0017060  0.1250000  0.1232940  )
         4           Al  tau(   4) = (  0.0000665  0.9999662  0.2496905  )
         5           Al  tau(   5) = (  0.1250081  0.1270262  0.2480406  )
         6           Al  tau(   6) = (  0.1249681  0.0006078  0.3744548  )
         7           Al  tau(   7) = (  0.0000114  0.1249931  0.3751471  )
         8           Al  tau(   8) = (  0.0000560  0.9999858  0.4999440  )
         9           Al  tau(   9) = (  0.1250247  0.1250436  0.5000745  )
        10           Al  tau(  10) = (  0.1249778  0.9999738  0.6249494  )
        11           Al  tau(  11) = (  0.9999752  0.1249564  0.6249256  )
        12           Al  tau(  12) = (  0.0000598  0.9999938  0.7502920  )
        13           Al  tau(  13) = (  0.1249886  0.1250068  0.7498529  )
        14           Al  tau(  14) = (  0.1227459  0.0006946  0.8778866  )
        15           Al  tau(  15) = (  0.9999919  0.1229738  0.8769594  )
        16           Al  tau(  16) = (  0.0020196  0.2497690  0.0020196  )
        17           Al  tau(  17) = (  0.1249586  0.3728598  0.0021652  )
        18           Al  tau(  18) = (  0.0021652  0.3728598  0.1249586  )
        19           Al  tau(  19) = (  0.0022541  0.2493054  0.2471134  )
        20           Al  tau(  20) = (  0.1249312  0.3728103  0.2478463  )
        21           Al  tau(  21) = (  0.1249402  0.2500062  0.3747081  )
        22           Al  tau(  22) = (  0.0000085  0.3749612  0.3750242  )
        23           Al  tau(  23) = (  0.0000222  0.2500262  0.5000506  )
        24           Al  tau(  24) = (  0.1250163  0.3750059  0.5000433  )
        25           Al  tau(  25) = (  0.1249440  0.2500142  0.6250560  )
        26           Al  tau(  26) = (  0.9999731  0.3749881  0.6250376  )
        27           Al  tau(  27) = (  0.0000319  0.2493923  0.7505452  )
        28           Al  tau(  28) = (  0.1249480  0.3749415  0.7499271  )
        29           Al  tau(  29) = (  0.1249335  0.2500338  0.8753095  )
        30           Al  tau(  30) = (  0.0000094  0.3750690  0.8749366  )
        31           Al  tau(  31) = (  0.0000237  0.5000316  0.0000237  )
        32           Al  tau(  32) = (  0.1249741  0.6250000  0.0000259  )
        33           Al  tau(  33) = (  0.1250174  0.4997400  0.1250174  )
        34           Al  tau(  34) = (  0.0000259  0.6250000  0.1249741  )
        35           Al  tau(  35) = (  0.0000179  0.5000568  0.2499896  )
        36           Al  tau(  36) = (  0.1249418  0.6251103  0.2499811  )
        37           Al  tau(  37) = (  0.1250148  0.4993790  0.3744090  )
        38           Al  tau(  38) = (  0.0000623  0.6249802  0.3749672  )
        39           Al  tau(  39) = (  0.0000605  0.5000010  0.4999395  )
        40           Al  tau(  40) = (  0.1250156  0.6249339  0.4999525  )
        41           Al  tau(  41) = (  0.1250122  0.5000156  0.6249770  )
        42           Al  tau(  42) = (  0.9999844  0.6250661  0.6250475  )
        43           Al  tau(  43) = (  0.0000546  0.5000175  0.7500286  )
        44           Al  tau(  44) = (  0.1249376  0.6250198  0.7500328  )
        45           Al  tau(  45) = (  0.1250276  0.4993997  0.8755864  )
        46           Al  tau(  46) = (  0.0000582  0.6248897  0.8750189  )
        47           Al  tau(  47) = (  0.9999826  0.7502600  0.9999826  )
        48           Al  tau(  48) = (  0.1228348  0.8771402  0.0000414  )
        49           Al  tau(  49) = (  0.1249763  0.7499684  0.1249763  )
        50           Al  tau(  50) = (  0.0000414  0.8771402  0.1228348  )
        51           Al  tau(  51) = (  0.9999724  0.7506003  0.2494136  )
        52           Al  tau(  52) = (  0.1249906  0.8749311  0.2500634  )
        53           Al  tau(  53) = (  0.1249454  0.7499825  0.3749715  )
        54           Al  tau(  54) = (  0.0000520  0.8750585  0.3750729  )
        55           Al  tau(  55) = (  0.9999878  0.7499844  0.5000230  )
        56           Al  tau(  56) = (  0.1250269  0.8750120  0.4999624  )
        57           Al  tau(  57) = (  0.1249395  0.7499990  0.6250605  )
        58           Al  tau(  58) = (  0.9999837  0.8749941  0.6249567  )
        59           Al  tau(  59) = (  0.9999852  0.7506210  0.7505910  )
        60           Al  tau(  60) = (  0.1249915  0.8750388  0.7499758  )
        61           Al  tau(  61) = (  0.1249821  0.7499432  0.8750104  )
        62           Al  tau(  62) = (  0.0000688  0.8771897  0.8771537  )
        63           Al  tau(  63) = (  0.2496905  0.9999662  0.0000665  )
        64           Al  tau(  64) = (  0.3751471  0.1249931  0.0000114  )
        65           Al  tau(  65) = (  0.3744548  0.0006078  0.1249681  )
        66           Al  tau(  66) = (  0.2480406  0.1270262  0.1250081  )
        67           Al  tau(  67) = (  0.2494222  0.9998993  0.2494222  )
        68           Al  tau(  68) = (  0.3749914  0.1249742  0.2499870  )
        69           Al  tau(  69) = (  0.3751046  0.9998586  0.3751046  )
        70           Al  tau(  70) = (  0.2499870  0.1249742  0.3749914  )
        71           Al  tau(  71) = (  0.2499622  0.9999949  0.4999355  )
        72           Al  tau(  72) = (  0.3750437  0.1250706  0.4999473  )
        73           Al  tau(  73) = (  0.3749570  0.9999949  0.6250431  )
        74           Al  tau(  74) = (  0.2500363  0.1249191  0.6250538  )
        75           Al  tau(  75) = (  0.2493163  0.9999967  0.7506941  )
        76           Al  tau(  76) = (  0.3749649  0.1250000  0.7500351  )
        77           Al  tau(  77) = (  0.3751772  0.9998575  0.8748903  )
        78           Al  tau(  78) = (  0.2500902  0.1250000  0.8749098  )
        79           Al  tau(  79) = (  0.2471134  0.2493054  0.0022541  )
        80           Al  tau(  80) = (  0.3750242  0.3749612  0.0000085  )
        81           Al  tau(  81) = (  0.3747081  0.2500062  0.1249402  )
        82           Al  tau(  82) = (  0.2478463  0.3728103  0.1249312  )
        83           Al  tau(  83) = (  0.2479283  0.2501290  0.2479283  )
        84           Al  tau(  84) = (  0.3750608  0.3749914  0.2499772  )
        85           Al  tau(  85) = (  0.3743915  0.2499889  0.3743915  )
        86           Al  tau(  86) = (  0.2499772  0.3749914  0.3750608  )
        87           Al  tau(  87) = (  0.2499760  0.2499938  0.5000448  )
        88           Al  tau(  88) = (  0.3749932  0.3749210  0.4999520  )
        89           Al  tau(  89) = (  0.3750307  0.2499826  0.6249969  )
        90           Al  tau(  90) = (  0.2500117  0.3750335  0.6249878  )
        91           Al  tau(  91) = (  0.2501097  0.2501425  0.7498228  )
        92           Al  tau(  92) = (  0.3750031  0.3749419  0.7500886  )
        93           Al  tau(  93) = (  0.3743059  0.2500034  0.8756837  )
        94           Al  tau(  94) = (  0.2499499  0.3748889  0.8750444  )
        95           Al  tau(  95) = (  0.2499896  0.5000568  0.0000179  )
        96           Al  tau(  96) = (  0.3749672  0.6249802  0.0000623  )
        97           Al  tau(  97) = (  0.3744090  0.4993790  0.1250148  )
        98           Al  tau(  98) = (  0.2499811  0.6251103  0.1249418  )
        99           Al  tau(  99) = (  0.2499804  0.5000674  0.2499804  )
       100           Al  tau( 100) = (  0.3750177  0.6249358  0.2499222  )
       101           Al  tau( 101) = (  0.3751334  0.5001528  0.3751334  )
       102           Al  tau( 102) = (  0.2499222  0.6249358  0.3750177  )
       103           Al  tau( 103) = (  0.2499885  0.5000020  0.4999422  )
       104           Al  tau( 104) = (  0.3749544  0.6250219  0.5000089  )
       105           Al  tau( 105) = (  0.3749888  0.5000057  0.6250099  )
       106           Al  tau( 106) = (  0.2499859  0.6250194  0.6250045  )
       107           Al  tau( 107) = (  0.2499537  0.5000089  0.7500511  )
       108           Al  tau( 108) = (  0.3749863  0.6250000  0.7500137  )
       109           Al  tau( 109) = (  0.3751688  0.5001457  0.8748337  )
       110           Al  tau( 110) = (  0.2499521  0.6250000  0.8750479  )
       111           Al  tau( 111) = (  0.2494136  0.7506003  0.9999724  )
       112           Al  tau( 112) = (  0.3750729  0.8750585  0.0000520  )
       113           Al  tau( 113) = (  0.3749715  0.7499825  0.1249454  )
       114           Al  tau( 114) = (  0.2500634  0.8749311  0.1249906  )
       115           Al  tau( 115) = (  0.2501726  0.7498472  0.2501726  )
       116           Al  tau( 116) = (  0.3749682  0.8750998  0.2499583  )
       117           Al  tau( 117) = (  0.3750038  0.7500224  0.3750038  )
       118           Al  tau( 118) = (  0.2499583  0.8750998  0.3749682  )
       119           Al  tau( 119) = (  0.2500076  0.7500063  0.5000259  )
       120           Al  tau( 120) = (  0.3749967  0.8749869  0.5000029  )
       121           Al  tau( 121) = (  0.3750673  0.7500146  0.6249892  )
       122           Al  tau( 122) = (  0.2500376  0.8750297  0.6250526  )
       123           Al  tau( 123) = (  0.2501663  0.7498542  0.7498312  )
       124           Al  tau( 124) = (  0.3749114  0.8750581  0.7499969  )
       125           Al  tau( 125) = (  0.3749489  0.7499911  0.8750463  )
       126           Al  tau( 126) = (  0.2499557  0.8751111  0.8750502  )
       127           Al  tau( 127) = (  0.4999440  0.9999858  0.0000560  )
       128           Al  tau( 128) = (  0.6249256  0.1249564  0.9999752  )
       129           Al  tau( 129) = (  0.6249494  0.9999738  0.1249778  )
       130           Al  tau( 130) = (  0.5000745  0.1250436  0.1250247  )
       131           Al  tau( 131) = (  0.4999355  0.9999949  0.2499622  )
       132           Al  tau( 132) = (  0.6250538  0.1249191  0.2500363  )
       133           Al  tau( 133) = (  0.6250431  0.9999949  0.3749570  )
       134           Al  tau( 134) = (  0.4999473  0.1250706  0.3750437  )
       135           Al  tau( 135) = (  0.5000110  0.0000213  0.5000110  )
       136           Al  tau( 136) = (  0.6249762  0.1250000  0.5000238  )
       137           Al  tau( 137) = (  0.6250401  0.9999490  0.6250401  )
       138           Al  tau( 138) = (  0.5000238  0.1250000  0.6249762  )
       139           Al  tau( 139) = (  0.5000031  0.0000174  0.7499693  )
       140           Al  tau( 140) = (  0.6250527  0.1249294  0.7499563  )
       141           Al  tau( 141) = (  0.6249552  0.0000062  0.8750241  )
       142           Al  tau( 142) = (  0.4999462  0.1250809  0.8749637  )
       143           Al  tau( 143) = (  0.5000506  0.2500262  0.0000222  )
       144           Al  tau( 144) = (  0.6250376  0.3749881  0.9999731  )
       145           Al  tau( 145) = (  0.6250560  0.2500142  0.1249440  )
       146           Al  tau( 146) = (  0.5000433  0.3750059  0.1250163  )
       147           Al  tau( 147) = (  0.5000448  0.2499938  0.2499760  )
       148           Al  tau( 148) = (  0.6249878  0.3750335  0.2500117  )
       149           Al  tau( 149) = (  0.6249969  0.2499826  0.3750307  )
       150           Al  tau( 150) = (  0.4999520  0.3749210  0.3749932  )
       151           Al  tau( 151) = (  0.4999599  0.2500510  0.4999599  )
       152           Al  tau( 152) = (  0.6250128  0.3750032  0.5000257  )
       153           Al  tau( 153) = (  0.6249890  0.2499787  0.6249890  )
       154           Al  tau( 154) = (  0.5000257  0.3750032  0.6250128  )
       155           Al  tau( 155) = (  0.4999569  0.2500051  0.7500431  )
       156           Al  tau( 156) = (  0.6249971  0.3750131  0.7500033  )
       157           Al  tau( 157) = (  0.6250645  0.2500051  0.8750378  )
       158           Al  tau( 158) = (  0.4999474  0.3749703  0.8749624  )
       159           Al  tau( 159) = (  0.4999395  0.5000010  0.0000605  )
       160           Al  tau( 160) = (  0.6250475  0.6250661  0.9999844  )
       161           Al  tau( 161) = (  0.6249770  0.5000156  0.1250122  )
       162           Al  tau( 162) = (  0.4999525  0.6249339  0.1250156  )
       163           Al  tau( 163) = (  0.4999422  0.5000020  0.2499885  )
       164           Al  tau( 164) = (  0.6250045  0.6250194  0.2499859  )
       165           Al  tau( 165) = (  0.6250099  0.5000057  0.3749888  )
       166           Al  tau( 166) = (  0.5000089  0.6250219  0.3749544  )
       167           Al  tau( 167) = (  0.4999990  0.4999754  0.4999990  )
       168           Al  tau( 168) = (  0.6250102  0.6250000  0.4999898  )
       169           Al  tau( 169) = (  0.6250236  0.5000511  0.6250236  )
       170           Al  tau( 170) = (  0.4999898  0.6250000  0.6250102  )
       171           Al  tau( 171) = (  0.5000109  0.4999855  0.7499327  )
       172           Al  tau( 172) = (  0.6249911  0.6249781  0.7500456  )
       173           Al  tau( 173) = (  0.6249741  0.4999937  0.8749925  )
       174           Al  tau( 174) = (  0.4999955  0.6249806  0.8750141  )
       175           Al  tau( 175) = (  0.5000230  0.7499844  0.9999878  )
       176           Al  tau( 176) = (  0.6249567  0.8749941  0.9999837  )
       177           Al  tau( 177) = (  0.6250605  0.7499990  0.1249395  )
       178           Al  tau( 178) = (  0.4999624  0.8750120  0.1250269  )
       179           Al  tau( 179) = (  0.5000259  0.7500063  0.2500076  )
       180           Al  tau( 180) = (  0.6250526  0.8750297  0.2500376  )
       181           Al  tau( 181) = (  0.6249892  0.7500146  0.3750673  )
       182           Al  tau( 182) = (  0.5000029  0.8749869  0.3749967  )
       183           Al  tau( 183) = (  0.4999764  0.7499489  0.4999764  )
       184           Al  tau( 184) = (  0.6249743  0.8749968  0.4999872  )
       185           Al  tau( 185) = (  0.6250011  0.7500246  0.6250011  )
       186           Al  tau( 186) = (  0.4999872  0.8749968  0.6249743  )
       187           Al  tau( 187) = (  0.4999901  0.7499943  0.7500113  )
       188           Al  tau( 188) = (  0.6250480  0.8750790  0.7500068  )
       189           Al  tau( 189) = (  0.6250578  0.7499980  0.8750115  )
       190           Al  tau( 190) = (  0.5000122  0.8749665  0.8749883  )
       191           Al  tau( 191) = (  0.7502920  0.9999938  0.0000598  )
       192           Al  tau( 192) = (  0.8769594  0.1229738  0.9999919  )
       193           Al  tau( 193) = (  0.8778866  0.0006946  0.1227459  )
       194           Al  tau( 194) = (  0.7498529  0.1250068  0.1249886  )
       195           Al  tau( 195) = (  0.7506941  0.9999967  0.2493163  )
       196           Al  tau( 196) = (  0.8749098  0.1250000  0.2500902  )
       197           Al  tau( 197) = (  0.8748903  0.9998575  0.3751772  )
       198           Al  tau( 198) = (  0.7500351  0.1250000  0.3749649  )
       199           Al  tau( 199) = (  0.7499693  0.0000174  0.5000031  )
       200           Al  tau( 200) = (  0.8749637  0.1250809  0.4999462  )
       201           Al  tau( 201) = (  0.8750241  0.0000062  0.6249552  )
       202           Al  tau( 202) = (  0.7499563  0.1249294  0.6250527  )
       203           Al  tau( 203) = (  0.7506085  0.0000111  0.7506085  )
       204           Al  tau( 204) = (  0.8750130  0.1250259  0.7500086  )
       205           Al  tau( 205) = (  0.8770717  0.9998710  0.8770717  )
       206           Al  tau( 206) = (  0.7500086  0.1250259  0.8750130  )
       207           Al  tau( 207) = (  0.7505452  0.2493923  0.0000319  )
       208           Al  tau( 208) = (  0.8749366  0.3750690  0.0000094  )
       209           Al  tau( 209) = (  0.8753095  0.2500338  0.1249335  )
       210           Al  tau( 210) = (  0.7499271  0.3749415  0.1249480  )
       211           Al  tau( 211) = (  0.7498228  0.2501425  0.2501097  )
       212           Al  tau( 212) = (  0.8750444  0.3748889  0.2499499  )
       213           Al  tau( 213) = (  0.8756837  0.2500034  0.3743059  )
       214           Al  tau( 214) = (  0.7500886  0.3749419  0.3750031  )
       215           Al  tau( 215) = (  0.7500431  0.2500051  0.4999569  )
       216           Al  tau( 216) = (  0.8749624  0.3749703  0.4999474  )
       217           Al  tau( 217) = (  0.8750378  0.2500051  0.6250645  )
       218           Al  tau( 218) = (  0.7500033  0.3750131  0.6249971  )
       219           Al  tau( 219) = (  0.7498954  0.2501414  0.7498954  )
       220           Al  tau( 220) = (  0.8750417  0.3749002  0.7500318  )
       221           Al  tau( 221) = (  0.8755778  0.2501007  0.8755778  )
       222           Al  tau( 222) = (  0.7500318  0.3749002  0.8750417  )
       223           Al  tau( 223) = (  0.7500286  0.5000175  0.0000546  )
       224           Al  tau( 224) = (  0.8750189  0.6248897  0.0000582  )
       225           Al  tau( 225) = (  0.8755864  0.4993997  0.1250276  )
       226           Al  tau( 226) = (  0.7500328  0.6250198  0.1249376  )
       227           Al  tau( 227) = (  0.7500511  0.5000089  0.2499537  )
       228           Al  tau( 228) = (  0.8750479  0.6250000  0.2499521  )
       229           Al  tau( 229) = (  0.8748337  0.5001457  0.3751688  )
       230           Al  tau( 230) = (  0.7500137  0.6250000  0.3749863  )
       231           Al  tau( 231) = (  0.7499327  0.4999855  0.5000109  )
       232           Al  tau( 232) = (  0.8750141  0.6249806  0.4999955  )
       233           Al  tau( 233) = (  0.8749925  0.4999937  0.6249741  )
       234           Al  tau( 234) = (  0.7500456  0.6249781  0.6249911  )
       235           Al  tau( 235) = (  0.7499962  0.4999776  0.7499962  )
       236           Al  tau( 236) = (  0.8750778  0.6250642  0.7499823  )
       237           Al  tau( 237) = (  0.8748275  0.5001528  0.8748275  )
       238           Al  tau( 238) = (  0.7499823  0.6250642  0.8750778  )
       239           Al  tau( 239) = (  0.7505910  0.7506210  0.9999852  )
       240           Al  tau( 240) = (  0.8771537  0.8771897  0.0000688  )
       241           Al  tau( 241) = (  0.8750104  0.7499432  0.1249821  )
       242           Al  tau( 242) = (  0.7499758  0.8750388  0.1249915  )
       243           Al  tau( 243) = (  0.7498312  0.7498542  0.2501663  )
       244           Al  tau( 244) = (  0.8750502  0.8751111  0.2499557  )
       245           Al  tau( 245) = (  0.8750463  0.7499911  0.3749489  )
       246           Al  tau( 246) = (  0.7499969  0.8750581  0.3749114  )
       247           Al  tau( 247) = (  0.7500113  0.7499943  0.4999901  )
       248           Al  tau( 248) = (  0.8749883  0.8749665  0.5000122  )
       249           Al  tau( 249) = (  0.8750115  0.7499980  0.6250578  )
       250           Al  tau( 250) = (  0.7500068  0.8750790  0.6250480  )
       251           Al  tau( 251) = (  0.7498666  0.7498472  0.7498666  )
       252           Al  tau( 252) = (  0.8750228  0.8750086  0.7499392  )
       253           Al  tau( 253) = (  0.8750197  0.7499326  0.8750197  )
       254           Al  tau( 254) = (  0.7499392  0.8750086  0.8750228  )

     number of k points=    63  Methfessel-Paxton smearing, width (Ry)=  0.0441
                       cart. coord. in units 2pi/alat
        k(    1) = (   0.0000000   0.0000000   0.0000000), wk =   0.0160000
        k(    2) = (   0.0000000   0.0000000   0.2000000), wk =   0.0320000
        k(    3) = (   0.0000000   0.0000000   0.4000000), wk =   0.0320000
        k(    4) = (   0.0000000   0.2000000   0.0000000), wk =   0.0320000
        k(    5) = (   0.0000000   0.2000000   0.2000000), wk =   0.0320000
        k(    6) = (   0.0000000   0.2000000   0.4000000), wk =   0.0320000
        k(    7) = (   0.0000000   0.2000000  -0.4000000), wk =   0.0320000
        k(    8) = (   0.0000000   0.2000000  -0.2000000), wk =   0.0320000
        k(    9) = (   0.0000000   0.4000000   0.0000000), wk =   0.0320000
        k(   10) = (   0.0000000   0.4000000   0.2000000), wk =   0.0320000
        k(   11) = (   0.0000000   0.4000000   0.4000000), wk =   0.0320000
        k(   12) = (   0.0000000   0.4000000  -0.4000000), wk =   0.0320000
        k(   13) = (   0.0000000   0.4000000  -0.2000000), wk =   0.0320000
        k(   14) = (   0.2000000   0.0000000   0.0000000), wk =   0.0320000
        k(   15) = (   0.2000000   0.0000000   0.2000000), wk =   0.0320000
        k(   16) = (   0.2000000   0.0000000   0.4000000), wk =   0.0320000
        k(   17) = (   0.2000000   0.0000000  -0.4000000), wk =   0.0320000
        k(   18) = (   0.2000000   0.0000000  -0.2000000), wk =   0.0320000
        k(   19) = (   0.2000000   0.2000000   0.0000000), wk =   0.0320000
        k(   20) = (   0.2000000   0.2000000   0.2000000), wk =   0.0320000
        k(   21) = (   0.2000000   0.2000000   0.4000000), wk =   0.0320000
        k(   22) = (   0.2000000   0.2000000  -0.4000000), wk =   0.0320000
        k(   23) = (   0.2000000   0.2000000  -0.2000000), wk =   0.0320000
        k(   24) = (   0.2000000   0.4000000   0.0000000), wk =   0.0320000
        k(   25) = (   0.2000000   0.4000000   0.2000000), wk =   0.0320000
        k(   26) = (   0.2000000   0.4000000   0.4000000), wk =   0.0320000
        k(   27) = (   0.2000000   0.4000000  -0.4000000), wk =   0.0320000
        k(   28) = (   0.2000000   0.4000000  -0.2000000), wk =   0.0320000
        k(   29) = (   0.2000000  -0.4000000   0.0000000), wk =   0.0320000
        k(   30) = (   0.2000000  -0.4000000   0.2000000), wk =   0.0320000
        k(   31) = (   0.2000000  -0.4000000   0.4000000), wk =   0.0320000
        k(   32) = (   0.2000000  -0.4000000  -0.4000000), wk =   0.0320000
        k(   33) = (   0.2000000  -0.4000000  -0.2000000), wk =   0.0320000
        k(   34) = (   0.2000000  -0.2000000   0.0000000), wk =   0.0320000
        k(   35) = (   0.2000000  -0.2000000   0.2000000), wk =   0.0320000
        k(   36) = (   0.2000000  -0.2000000   0.4000000), wk =   0.0320000
        k(   37) = (   0.2000000  -0.2000000  -0.4000000), wk =   0.0320000
        k(   38) = (   0.2000000  -0.2000000  -0.2000000), wk =   0.0320000
        k(   39) = (   0.4000000   0.0000000   0.0000000), wk =   0.0320000
        k(   40) = (   0.4000000   0.0000000   0.2000000), wk =   0.0320000
        k(   41) = (   0.4000000   0.0000000   0.4000000), wk =   0.0320000
        k(   42) = (   0.4000000   0.0000000  -0.4000000), wk =   0.0320000
        k(   43) = (   0.4000000   0.0000000  -0.2000000), wk =   0.0320000
        k(   44) = (   0.4000000   0.2000000   0.0000000), wk =   0.0320000
        k(   45) = (   0.4000000   0.2000000   0.2000000), wk =   0.0320000
        k(   46) = (   0.4000000   0.2000000   0.4000000), wk =   0.0320000
        k(   47) = (   0.4000000   0.2000000  -0.4000000), wk =   0.0320000
        k(   48) = (   0.4000000   0.2000000  -0.2000000), wk =   0.0320000
        k(   49) = (   0.4000000   0.4000000   0.0000000), wk =   0.0320000
        k(   50) = (   0.4000000   0.4000000   0.2000000), wk =   0.0320000
        k(   51) = (   0.4000000   0.4000000   0.4000000), wk =   0.0320000
        k(   52) = (   0.4000000   0.4000000  -0.4000000), wk =   0.0320000
        k(   53) = (   0.4000000   0.4000000  -0.2000000), wk =   0.0320000
        k(   54) = (   0.4000000  -0.4000000   0.0000000), wk =   0.0320000
        k(   55) = (   0.4000000  -0.4000000   0.2000000), wk =   0.0320000
        k(   56) = (   0.4000000  -0.4000000   0.4000000), wk =   0.0320000
        k(   57) = (   0.4000000  -0.4000000  -0.4000000), wk =   0.0320000
        k(   58) = (   0.4000000  -0.4000000  -0.2000000), wk =   0.0320000
        k(   59) = (   0.4000000  -0.2000000   0.0000000), wk =   0.0320000
        k(   60) = (   0.4000000  -0.2000000   0.2000000), wk =   0.0320000
        k(   61) = (   0.4000000  -0.2000000   0.4000000), wk =   0.0320000
        k(   62) = (   0.4000000  -0.2000000  -0.4000000), wk =   0.0320000
        k(   63) = (   0.4000000  -0.2000000  -0.2000000), wk =   0.0320000

                       cryst. coord.
        k(    1) = (   0.0000000   0.0000000   0.0000000), wk =   0.0160000
        k(    2) = (   0.0000000   0.0000000   0.2000000), wk =   0.0320000
        k(    3) = (   0.0000000   0.0000000   0.4000000), wk =   0.0320000
        k(    4) = (   0.0000000   0.2000000   0.0000000), wk =   0.0320000
        k(    5) = (   0.0000000   0.2000000   0.2000000), wk =   0.0320000
        k(    6) = (   0.0000000   0.2000000   0.4000000), wk =   0.0320000
        k(    7) = (   0.0000000   0.2000000  -0.4000000), wk =   0.0320000
        k(    8) = (   0.0000000   0.2000000  -0.2000000), wk =   0.0320000
        k(    9) = (   0.0000000   0.4000000   0.0000000), wk =   0.0320000
        k(   10) = (   0.0000000   0.4000000   0.2000000), wk =   0.0320000
        k(   11) = (   0.0000000   0.4000000   0.4000000), wk =   0.0320000
        k(   12) = (   0.0000000   0.4000000  -0.4000000), wk =   0.0320000
        k(   13) = (   0.0000000   0.4000000  -0.2000000), wk =   0.0320000
        k(   14) = (   0.2000000   0.0000000   0.0000000), wk =   0.0320000
        k(   15) = (   0.2000000   0.0000000   0.2000000), wk =   0.0320000
        k(   16) = (   0.2000000   0.0000000   0.4000000), wk =   0.0320000
        k(   17) = (   0.2000000   0.0000000  -0.4000000), wk =   0.0320000
        k(   18) = (   0.2000000   0.0000000  -0.2000000), wk =   0.0320000
        k(   19) = (   0.2000000   0.2000000   0.0000000), wk =   0.0320000
        k(   20) = (   0.2000000   0.2000000   0.2000000), wk =   0.0320000
        k(   21) = (   0.2000000   0.2000000   0.4000000), wk =   0.0320000
        k(   22) = (   0.2000000   0.2000000  -0.4000000), wk =   0.0320000
        k(   23) = (   0.2000000   0.2000000  -0.2000000), wk =   0.0320000
        k(   24) = (   0.2000000   0.4000000   0.0000000), wk =   0.0320000
        k(   25) = (   0.2000000   0.4000000   0.2000000), wk =   0.0320000
        k(   26) = (   0.2000000   0.4000000   0.4000000), wk =   0.0320000
        k(   27) = (   0.2000000   0.4000000  -0.4000000), wk =   0.0320000
        k(   28) = (   0.2000000   0.4000000  -0.2000000), wk =   0.0320000
        k(   29) = (   0.2000000  -0.4000000   0.0000000), wk =   0.0320000
        k(   30) = (   0.2000000  -0.4000000   0.2000000), wk =   0.0320000
        k(   31) = (   0.2000000  -0.4000000   0.4000000), wk =   0.0320000
        k(   32) = (   0.2000000  -0.4000000  -0.4000000), wk =   0.0320000
        k(   33) = (   0.2000000  -0.4000000  -0.2000000), wk =   0.0320000
        k(   34) = (   0.2000000  -0.2000000   0.0000000), wk =   0.0320000
        k(   35) = (   0.2000000  -0.2000000   0.2000000), wk =   0.0320000
        k(   36) = (   0.2000000  -0.2000000   0.4000000), wk =   0.0320000
        k(   37) = (   0.2000000  -0.2000000  -0.4000000), wk =   0.0320000
        k(   38) = (   0.2000000  -0.2000000  -0.2000000), wk =   0.0320000
        k(   39) = (   0.4000000   0.0000000   0.0000000), wk =   0.0320000
        k(   40) = (   0.4000000   0.0000000   0.2000000), wk =   0.0320000
        k(   41) = (   0.4000000   0.0000000   0.4000000), wk =   0.0320000
        k(   42) = (   0.4000000   0.0000000  -0.4000000), wk =   0.0320000
        k(   43) = (   0.4000000   0.0000000  -0.2000000), wk =   0.0320000
        k(   44) = (   0.4000000   0.2000000   0.0000000), wk =   0.0320000
        k(   45) = (   0.4000000   0.2000000   0.2000000), wk =   0.0320000
        k(   46) = (   0.4000000   0.2000000   0.4000000), wk =   0.0320000
        k(   47) = (   0.4000000   0.2000000  -0.4000000), wk =   0.0320000
        k(   48) = (   0.4000000   0.2000000  -0.2000000), wk =   0.0320000
        k(   49) = (   0.4000000   0.4000000   0.0000000), wk =   0.0320000
        k(   50) = (   0.4000000   0.4000000   0.2000000), wk =   0.0320000
        k(   51) = (   0.4000000   0.4000000   0.4000000), wk =   0.0320000
        k(   52) = (   0.4000000   0.4000000  -0.4000000), wk =   0.0320000
        k(   53) = (   0.4000000   0.4000000  -0.2000000), wk =   0.0320000
        k(   54) = (   0.4000000  -0.4000000   0.0000000), wk =   0.0320000
        k(   55) = (   0.4000000  -0.4000000   0.2000000), wk =   0.0320000
        k(   56) = (   0.4000000  -0.4000000   0.4000000), wk =   0.0320000
        k(   57) = (   0.4000000  -0.4000000  -0.4000000), wk =   0.0320000
        k(   58) = (   0.4000000  -0.4000000  -0.2000000), wk =   0.0320000
        k(   59) = (   0.4000000  -0.2000000   0.0000000), wk =   0.0320000
        k(   60) = (   0.4000000  -0.2000000   0.2000000), wk =   0.0320000
        k(   61) = (   0.4000000  -0.2000000   0.4000000), wk =   0.0320000
        k(   62) = (   0.4000000  -0.2000000  -0.4000000), wk =   0.0320000
        k(   63) = (   0.4000000  -0.2000000  -0.2000000), wk =   0.0320000

     Dense  grid:  3895379 G-vectors     FFT dimensions: ( 200, 200, 200)

     Smooth grid:   985619 G-vectors     FFT dimensions: ( 125, 125, 125)

     Dynamical RAM for                 wfc:      95.46 MB

     Dynamical RAM for     wfc (w. buffer):    1622.77 MB

     Dynamical RAM for           str. fact:       6.60 MB

     Dynamical RAM for           local pot:       0.00 MB

     Dynamical RAM for          nlocal pot:     954.99 MB

     Dynamical RAM for                qrad:       7.82 MB

     Dynamical RAM for          rho,v,vnew:      40.87 MB

     Dynamical RAM for               rhoin:      13.62 MB

     Dynamical RAM for            rho*nmix:     105.67 MB

     Dynamical RAM for           G-vectors:      25.60 MB

     Dynamical RAM for          h,s,v(r/c):      38.24 MB

     Dynamical RAM for          <psi|beta>:      31.88 MB

     Dynamical RAM for                 psi:     381.83 MB

     Dynamical RAM for                hpsi:     381.83 MB

     Dynamical RAM for                spsi:     381.83 MB

     Dynamical RAM for      wfcinit/wfcrot:     448.07 MB

     Dynamical RAM for           addusdens:     731.43 MB

     Dynamical RAM for          addusforce:    1566.22 MB

     Dynamical RAM for         addusstress:     334.34 MB

     Estimated static dynamical RAM per process >       2.76 GB

     Estimated max dynamical RAM per process >       4.29 GB

     Estimated total dynamical RAM >     154.42 GB

     Initial potential from superposition of free atoms

     starting charge  761.41829, renormalised to  762.00000
     Starting wfcs are 1016 randomized atomic wfcs
