
     Program PWSCF v.6.3 starts on 26Feb2020 at 22:51:36 

     This program is part of the open-source Quantum ESPRESSO suite
     for quantum simulation of materials; please cite
         "P. Giannozzi et al., J. Phys.:Condens. Matter 21 395502 (2009);
         "P. Giannozzi et al., J. Phys.:Condens. Matter 29 465901 (2017);
          URL http://www.quantum-espresso.org", 
     in publications or presentations arising from this work. More details at
     http://www.quantum-espresso.org/quote

 *** WARNING: using old-style file format, will disappear from next version ***

     Parallel version (MPI & OpenMP), running on     288 processor cores
     Number of MPI processes:               288
     Threads/MPI process:                     1

     MPI processes distributed on     8 nodes
     K-points division:     npool     =      36
     R & G space division:  proc/nbgrp/npool/nimage =       8
     Reading input from aiida.in
Warning: card &IONS ignored
Warning: card   !PRESS_CONV_THR = 0.05                 ! JUST FOR VOLUME RELAXATIONS ignored
Warning: card / ignored

     Current dimensions of program PWSCF are:
     Max number of different atomic species (ntypx) = 10
     Max number of k-points (npk) =  40000
     Max angular momentum in pseudopotentials (lmaxx) =  3
               file Al.pbe-n-kjpaw_psl.1.0.0.UPF: wavefunction(s)  3S 3P renormalized

     Subspace diagonalization in iterative solution of the eigenvalue problem:
     one sub-group per band group will be used
     scalapack distributed-memory algorithm (size of sub-group:  2*  2 procs)

 
     Parallelization info
     --------------------
     sticks:   dense  smooth     PW     G-vecs:    dense   smooth      PW
     Min        3740    1497    390               486920   123201   16474
     Max        3741    1498    391               486925   123204   16481
     Sum       29921   11977   3125              3895379   985619  131827
 


     bravais-lattice index     =            0
     lattice parameter (alat)  =      30.6665  a.u.
     unit-cell volume          =   28839.7502 (a.u.)^3
     number of atoms/cell      =          254
     number of atomic types    =            1
     number of electrons       =       762.00
     number of Kohn-Sham states=          457
     kinetic-energy cutoff     =      40.0000  Ry
     charge density cutoff     =     400.0000  Ry
     convergence threshold     =      1.0E-12
     mixing beta               =       0.4000
     number of iterations used =            8  local-TF  mixing
     Exchange-correlation      = SLA PW PBX PBC ( 1  4  3  4 0 0)

     celldm(1)=  30.666473  celldm(2)=   0.000000  celldm(3)=   0.000000
     celldm(4)=   0.000000  celldm(5)=   0.000000  celldm(6)=   0.000000

     crystal axes: (cart. coord. in units of alat)
               a(1) = (   1.000000   0.000000   0.000000 )  
               a(2) = (   0.000000   1.000000   0.000000 )  
               a(3) = (   0.000000   0.000000   1.000000 )  

     reciprocal axes: (cart. coord. in units 2 pi/alat)
               b(1) = (  1.000000  0.000000  0.000000 )  
               b(2) = (  0.000000  1.000000  0.000000 )  
               b(3) = (  0.000000  0.000000  1.000000 )  


     PseudoPot. # 1 for Al read from file:
     /users/aglensk/Dropbox/Albert/scripts/dotfiles/scripts/potentials/quantum_espresso/pseudo_SSSPefV1.1_alalloy/Al.pbe-n-kjpaw_psl.1.0.0.UPF
     MD5 check sum: cfc449ca30b5f3223ec38ddd88ac046d
     Pseudo is Projector augmented-wave + core cor, Zval =  3.0
     Generated using "atomic" code by A. Dal Corso v.5.1
     Shape of augmentation charge: PSQ
     Using radial grid of 1135 points,  6 beta functions with: 
                l(1) =   0
                l(2) =   0
                l(3) =   1
                l(4) =   1
                l(5) =   2
                l(6) =   2
     Q(r) pseudized with 0 coefficients 


     atomic species   valence    mass     pseudopotential
        Al             3.00    26.98154     Al( 1.00)

     No symmetry found


                                    s                        frac. trans.

      isym =  1     identity                                     

 cryst.   s( 1) = (     1          0          0      )
                  (     0          1          0      )
                  (     0          0          1      )

 cart.    s( 1) = (  1.0000000  0.0000000  0.0000000 )
                  (  0.0000000  1.0000000  0.0000000 )
                  (  0.0000000  0.0000000  1.0000000 )


   Cartesian axes

     site n.     atom                  positions (alat units)
         1           Al  tau(   1) = (   0.1229804   0.0002310   0.1229804  )
         2           Al  tau(   2) = (   0.1232940   0.1250000   0.0017060  )
         3           Al  tau(   3) = (   0.0017060   0.1250000   0.1232940  )
         4           Al  tau(   4) = (   0.0000665   0.9999662   0.2496905  )
         5           Al  tau(   5) = (   0.1250081   0.1270262   0.2480406  )
         6           Al  tau(   6) = (   0.1249681   0.0006078   0.3744548  )
         7           Al  tau(   7) = (   0.0000114   0.1249931   0.3751471  )
         8           Al  tau(   8) = (   0.0000560   0.9999858   0.4999440  )
         9           Al  tau(   9) = (   0.1250247   0.1250436   0.5000745  )
        10           Al  tau(  10) = (   0.1249778   0.9999738   0.6249494  )
        11           Al  tau(  11) = (   0.9999752   0.1249564   0.6249256  )
        12           Al  tau(  12) = (   0.0000598   0.9999938   0.7502920  )
        13           Al  tau(  13) = (   0.1249886   0.1250068   0.7498529  )
        14           Al  tau(  14) = (   0.1227459   0.0006946   0.8778866  )
        15           Al  tau(  15) = (   0.9999919   0.1229738   0.8769594  )
        16           Al  tau(  16) = (   0.0020196   0.2497690   0.0020196  )
        17           Al  tau(  17) = (   0.1249586   0.3728598   0.0021652  )
        18           Al  tau(  18) = (   0.0021652   0.3728598   0.1249586  )
        19           Al  tau(  19) = (   0.0022541   0.2493054   0.2471134  )
        20           Al  tau(  20) = (   0.1249312   0.3728103   0.2478463  )
        21           Al  tau(  21) = (   0.1249402   0.2500062   0.3747081  )
        22           Al  tau(  22) = (   0.0000085   0.3749612   0.3750242  )
        23           Al  tau(  23) = (   0.0000222   0.2500262   0.5000506  )
        24           Al  tau(  24) = (   0.1250163   0.3750059   0.5000433  )
        25           Al  tau(  25) = (   0.1249440   0.2500142   0.6250560  )
        26           Al  tau(  26) = (   0.9999731   0.3749881   0.6250376  )
        27           Al  tau(  27) = (   0.0000319   0.2493923   0.7505452  )
        28           Al  tau(  28) = (   0.1249480   0.3749415   0.7499271  )
        29           Al  tau(  29) = (   0.1249335   0.2500338   0.8753095  )
        30           Al  tau(  30) = (   0.0000094   0.3750690   0.8749366  )
        31           Al  tau(  31) = (   0.0000237   0.5000316   0.0000237  )
        32           Al  tau(  32) = (   0.1249741   0.6250000   0.0000259  )
        33           Al  tau(  33) = (   0.1250174   0.4997400   0.1250174  )
        34           Al  tau(  34) = (   0.0000259   0.6250000   0.1249741  )
        35           Al  tau(  35) = (   0.0000179   0.5000568   0.2499896  )
        36           Al  tau(  36) = (   0.1249418   0.6251103   0.2499811  )
        37           Al  tau(  37) = (   0.1250148   0.4993790   0.3744090  )
        38           Al  tau(  38) = (   0.0000623   0.6249802   0.3749672  )
        39           Al  tau(  39) = (   0.0000605   0.5000010   0.4999395  )
        40           Al  tau(  40) = (   0.1250156   0.6249339   0.4999525  )
        41           Al  tau(  41) = (   0.1250122   0.5000156   0.6249770  )
        42           Al  tau(  42) = (   0.9999844   0.6250661   0.6250475  )
        43           Al  tau(  43) = (   0.0000546   0.5000175   0.7500286  )
        44           Al  tau(  44) = (   0.1249376   0.6250198   0.7500328  )
        45           Al  tau(  45) = (   0.1250276   0.4993997   0.8755864  )
        46           Al  tau(  46) = (   0.0000582   0.6248897   0.8750189  )
        47           Al  tau(  47) = (   0.9999826   0.7502600   0.9999826  )
        48           Al  tau(  48) = (   0.1228348   0.8771402   0.0000414  )
        49           Al  tau(  49) = (   0.1249763   0.7499684   0.1249763  )
        50           Al  tau(  50) = (   0.0000414   0.8771402   0.1228348  )
        51           Al  tau(  51) = (   0.9999724   0.7506003   0.2494136  )
        52           Al  tau(  52) = (   0.1249906   0.8749311   0.2500634  )
        53           Al  tau(  53) = (   0.1249454   0.7499825   0.3749715  )
        54           Al  tau(  54) = (   0.0000520   0.8750585   0.3750729  )
        55           Al  tau(  55) = (   0.9999878   0.7499844   0.5000230  )
        56           Al  tau(  56) = (   0.1250269   0.8750120   0.4999624  )
        57           Al  tau(  57) = (   0.1249395   0.7499990   0.6250605  )
        58           Al  tau(  58) = (   0.9999837   0.8749941   0.6249567  )
        59           Al  tau(  59) = (   0.9999852   0.7506210   0.7505910  )
        60           Al  tau(  60) = (   0.1249915   0.8750388   0.7499758  )
        61           Al  tau(  61) = (   0.1249821   0.7499432   0.8750104  )
        62           Al  tau(  62) = (   0.0000688   0.8771897   0.8771537  )
        63           Al  tau(  63) = (   0.2496905   0.9999662   0.0000665  )
        64           Al  tau(  64) = (   0.3751471   0.1249931   0.0000114  )
        65           Al  tau(  65) = (   0.3744548   0.0006078   0.1249681  )
        66           Al  tau(  66) = (   0.2480406   0.1270262   0.1250081  )
        67           Al  tau(  67) = (   0.2494222   0.9998993   0.2494222  )
        68           Al  tau(  68) = (   0.3749914   0.1249742   0.2499870  )
        69           Al  tau(  69) = (   0.3751046   0.9998586   0.3751046  )
        70           Al  tau(  70) = (   0.2499870   0.1249742   0.3749914  )
        71           Al  tau(  71) = (   0.2499622   0.9999949   0.4999355  )
        72           Al  tau(  72) = (   0.3750437   0.1250706   0.4999473  )
        73           Al  tau(  73) = (   0.3749570   0.9999949   0.6250431  )
        74           Al  tau(  74) = (   0.2500363   0.1249191   0.6250538  )
        75           Al  tau(  75) = (   0.2493163   0.9999967   0.7506941  )
        76           Al  tau(  76) = (   0.3749649   0.1250000   0.7500351  )
        77           Al  tau(  77) = (   0.3751772   0.9998575   0.8748903  )
        78           Al  tau(  78) = (   0.2500902   0.1250000   0.8749098  )
        79           Al  tau(  79) = (   0.2471134   0.2493054   0.0022541  )
        80           Al  tau(  80) = (   0.3750242   0.3749612   0.0000085  )
        81           Al  tau(  81) = (   0.3747081   0.2500062   0.1249402  )
        82           Al  tau(  82) = (   0.2478463   0.3728103   0.1249312  )
        83           Al  tau(  83) = (   0.2479283   0.2501290   0.2479283  )
        84           Al  tau(  84) = (   0.3750608   0.3749914   0.2499772  )
        85           Al  tau(  85) = (   0.3743915   0.2499889   0.3743915  )
        86           Al  tau(  86) = (   0.2499772   0.3749914   0.3750608  )
        87           Al  tau(  87) = (   0.2499760   0.2499938   0.5000448  )
        88           Al  tau(  88) = (   0.3749932   0.3749210   0.4999520  )
        89           Al  tau(  89) = (   0.3750307   0.2499826   0.6249969  )
        90           Al  tau(  90) = (   0.2500117   0.3750335   0.6249878  )
        91           Al  tau(  91) = (   0.2501097   0.2501425   0.7498228  )
        92           Al  tau(  92) = (   0.3750031   0.3749419   0.7500886  )
        93           Al  tau(  93) = (   0.3743059   0.2500034   0.8756837  )
        94           Al  tau(  94) = (   0.2499499   0.3748889   0.8750444  )
        95           Al  tau(  95) = (   0.2499896   0.5000568   0.0000179  )
        96           Al  tau(  96) = (   0.3749672   0.6249802   0.0000623  )
        97           Al  tau(  97) = (   0.3744090   0.4993790   0.1250148  )
        98           Al  tau(  98) = (   0.2499811   0.6251103   0.1249418  )
        99           Al  tau(  99) = (   0.2499804   0.5000674   0.2499804  )
       100           Al  tau( 100) = (   0.3750177   0.6249358   0.2499222  )
       101           Al  tau( 101) = (   0.3751334   0.5001528   0.3751334  )
       102           Al  tau( 102) = (   0.2499222   0.6249358   0.3750177  )
       103           Al  tau( 103) = (   0.2499885   0.5000020   0.4999422  )
       104           Al  tau( 104) = (   0.3749544   0.6250219   0.5000089  )
       105           Al  tau( 105) = (   0.3749888   0.5000057   0.6250099  )
       106           Al  tau( 106) = (   0.2499859   0.6250194   0.6250045  )
       107           Al  tau( 107) = (   0.2499537   0.5000089   0.7500511  )
       108           Al  tau( 108) = (   0.3749863   0.6250000   0.7500137  )
       109           Al  tau( 109) = (   0.3751688   0.5001457   0.8748337  )
       110           Al  tau( 110) = (   0.2499521   0.6250000   0.8750479  )
       111           Al  tau( 111) = (   0.2494136   0.7506003   0.9999724  )
       112           Al  tau( 112) = (   0.3750729   0.8750585   0.0000520  )
       113           Al  tau( 113) = (   0.3749715   0.7499825   0.1249454  )
       114           Al  tau( 114) = (   0.2500634   0.8749311   0.1249906  )
       115           Al  tau( 115) = (   0.2501726   0.7498472   0.2501726  )
       116           Al  tau( 116) = (   0.3749682   0.8750998   0.2499583  )
       117           Al  tau( 117) = (   0.3750038   0.7500224   0.3750038  )
       118           Al  tau( 118) = (   0.2499583   0.8750998   0.3749682  )
       119           Al  tau( 119) = (   0.2500076   0.7500063   0.5000259  )
       120           Al  tau( 120) = (   0.3749967   0.8749869   0.5000029  )
       121           Al  tau( 121) = (   0.3750673   0.7500146   0.6249892  )
       122           Al  tau( 122) = (   0.2500376   0.8750297   0.6250526  )
       123           Al  tau( 123) = (   0.2501663   0.7498542   0.7498312  )
       124           Al  tau( 124) = (   0.3749114   0.8750581   0.7499969  )
       125           Al  tau( 125) = (   0.3749489   0.7499911   0.8750463  )
       126           Al  tau( 126) = (   0.2499557   0.8751111   0.8750502  )
       127           Al  tau( 127) = (   0.4999440   0.9999858   0.0000560  )
       128           Al  tau( 128) = (   0.6249256   0.1249564   0.9999752  )
       129           Al  tau( 129) = (   0.6249494   0.9999738   0.1249778  )
       130           Al  tau( 130) = (   0.5000745   0.1250436   0.1250247  )
       131           Al  tau( 131) = (   0.4999355   0.9999949   0.2499622  )
       132           Al  tau( 132) = (   0.6250538   0.1249191   0.2500363  )
       133           Al  tau( 133) = (   0.6250431   0.9999949   0.3749570  )
       134           Al  tau( 134) = (   0.4999473   0.1250706   0.3750437  )
       135           Al  tau( 135) = (   0.5000110   0.0000213   0.5000110  )
       136           Al  tau( 136) = (   0.6249762   0.1250000   0.5000238  )
       137           Al  tau( 137) = (   0.6250401   0.9999490   0.6250401  )
       138           Al  tau( 138) = (   0.5000238   0.1250000   0.6249762  )
       139           Al  tau( 139) = (   0.5000031   0.0000174   0.7499693  )
       140           Al  tau( 140) = (   0.6250527   0.1249294   0.7499563  )
       141           Al  tau( 141) = (   0.6249552   0.0000062   0.8750241  )
       142           Al  tau( 142) = (   0.4999462   0.1250809   0.8749637  )
       143           Al  tau( 143) = (   0.5000506   0.2500262   0.0000222  )
       144           Al  tau( 144) = (   0.6250376   0.3749881   0.9999731  )
       145           Al  tau( 145) = (   0.6250560   0.2500142   0.1249440  )
       146           Al  tau( 146) = (   0.5000433   0.3750059   0.1250163  )
       147           Al  tau( 147) = (   0.5000448   0.2499938   0.2499760  )
       148           Al  tau( 148) = (   0.6249878   0.3750335   0.2500117  )
       149           Al  tau( 149) = (   0.6249969   0.2499826   0.3750307  )
       150           Al  tau( 150) = (   0.4999520   0.3749210   0.3749932  )
       151           Al  tau( 151) = (   0.4999599   0.2500510   0.4999599  )
       152           Al  tau( 152) = (   0.6250128   0.3750032   0.5000257  )
       153           Al  tau( 153) = (   0.6249890   0.2499787   0.6249890  )
       154           Al  tau( 154) = (   0.5000257   0.3750032   0.6250128  )
       155           Al  tau( 155) = (   0.4999569   0.2500051   0.7500431  )
       156           Al  tau( 156) = (   0.6249971   0.3750131   0.7500033  )
       157           Al  tau( 157) = (   0.6250645   0.2500051   0.8750378  )
       158           Al  tau( 158) = (   0.4999474   0.3749703   0.8749624  )
       159           Al  tau( 159) = (   0.4999395   0.5000010   0.0000605  )
       160           Al  tau( 160) = (   0.6250475   0.6250661   0.9999844  )
       161           Al  tau( 161) = (   0.6249770   0.5000156   0.1250122  )
       162           Al  tau( 162) = (   0.4999525   0.6249339   0.1250156  )
       163           Al  tau( 163) = (   0.4999422   0.5000020   0.2499885  )
       164           Al  tau( 164) = (   0.6250045   0.6250194   0.2499859  )
       165           Al  tau( 165) = (   0.6250099   0.5000057   0.3749888  )
       166           Al  tau( 166) = (   0.5000089   0.6250219   0.3749544  )
       167           Al  tau( 167) = (   0.4999990   0.4999754   0.4999990  )
       168           Al  tau( 168) = (   0.6250102   0.6250000   0.4999898  )
       169           Al  tau( 169) = (   0.6250236   0.5000511   0.6250236  )
       170           Al  tau( 170) = (   0.4999898   0.6250000   0.6250102  )
       171           Al  tau( 171) = (   0.5000109   0.4999855   0.7499327  )
       172           Al  tau( 172) = (   0.6249911   0.6249781   0.7500456  )
       173           Al  tau( 173) = (   0.6249741   0.4999937   0.8749925  )
       174           Al  tau( 174) = (   0.4999955   0.6249806   0.8750141  )
       175           Al  tau( 175) = (   0.5000230   0.7499844   0.9999878  )
       176           Al  tau( 176) = (   0.6249567   0.8749941   0.9999837  )
       177           Al  tau( 177) = (   0.6250605   0.7499990   0.1249395  )
       178           Al  tau( 178) = (   0.4999624   0.8750120   0.1250269  )
       179           Al  tau( 179) = (   0.5000259   0.7500063   0.2500076  )
       180           Al  tau( 180) = (   0.6250526   0.8750297   0.2500376  )
       181           Al  tau( 181) = (   0.6249892   0.7500146   0.3750673  )
       182           Al  tau( 182) = (   0.5000029   0.8749869   0.3749967  )
       183           Al  tau( 183) = (   0.4999764   0.7499489   0.4999764  )
       184           Al  tau( 184) = (   0.6249743   0.8749968   0.4999872  )
       185           Al  tau( 185) = (   0.6250011   0.7500246   0.6250011  )
       186           Al  tau( 186) = (   0.4999872   0.8749968   0.6249743  )
       187           Al  tau( 187) = (   0.4999901   0.7499943   0.7500113  )
       188           Al  tau( 188) = (   0.6250480   0.8750790   0.7500068  )
       189           Al  tau( 189) = (   0.6250578   0.7499980   0.8750115  )
       190           Al  tau( 190) = (   0.5000122   0.8749665   0.8749883  )
       191           Al  tau( 191) = (   0.7502920   0.9999938   0.0000598  )
       192           Al  tau( 192) = (   0.8769594   0.1229738   0.9999919  )
       193           Al  tau( 193) = (   0.8778866   0.0006946   0.1227459  )
       194           Al  tau( 194) = (   0.7498529   0.1250068   0.1249886  )
       195           Al  tau( 195) = (   0.7506941   0.9999967   0.2493163  )
       196           Al  tau( 196) = (   0.8749098   0.1250000   0.2500902  )
       197           Al  tau( 197) = (   0.8748903   0.9998575   0.3751772  )
       198           Al  tau( 198) = (   0.7500351   0.1250000   0.3749649  )
       199           Al  tau( 199) = (   0.7499693   0.0000174   0.5000031  )
       200           Al  tau( 200) = (   0.8749637   0.1250809   0.4999462  )
       201           Al  tau( 201) = (   0.8750241   0.0000062   0.6249552  )
       202           Al  tau( 202) = (   0.7499563   0.1249294   0.6250527  )
       203           Al  tau( 203) = (   0.7506085   0.0000111   0.7506085  )
       204           Al  tau( 204) = (   0.8750130   0.1250259   0.7500086  )
       205           Al  tau( 205) = (   0.8770717   0.9998710   0.8770717  )
       206           Al  tau( 206) = (   0.7500086   0.1250259   0.8750130  )
       207           Al  tau( 207) = (   0.7505452   0.2493923   0.0000319  )
       208           Al  tau( 208) = (   0.8749366   0.3750690   0.0000094  )
       209           Al  tau( 209) = (   0.8753095   0.2500338   0.1249335  )
       210           Al  tau( 210) = (   0.7499271   0.3749415   0.1249480  )
       211           Al  tau( 211) = (   0.7498228   0.2501425   0.2501097  )
       212           Al  tau( 212) = (   0.8750444   0.3748889   0.2499499  )
       213           Al  tau( 213) = (   0.8756837   0.2500034   0.3743059  )
       214           Al  tau( 214) = (   0.7500886   0.3749419   0.3750031  )
       215           Al  tau( 215) = (   0.7500431   0.2500051   0.4999569  )
       216           Al  tau( 216) = (   0.8749624   0.3749703   0.4999474  )
       217           Al  tau( 217) = (   0.8750378   0.2500051   0.6250645  )
       218           Al  tau( 218) = (   0.7500033   0.3750131   0.6249971  )
       219           Al  tau( 219) = (   0.7498954   0.2501414   0.7498954  )
       220           Al  tau( 220) = (   0.8750417   0.3749002   0.7500318  )
       221           Al  tau( 221) = (   0.8755778   0.2501007   0.8755778  )
       222           Al  tau( 222) = (   0.7500318   0.3749002   0.8750417  )
       223           Al  tau( 223) = (   0.7500286   0.5000175   0.0000546  )
       224           Al  tau( 224) = (   0.8750189   0.6248897   0.0000582  )
       225           Al  tau( 225) = (   0.8755864   0.4993997   0.1250276  )
       226           Al  tau( 226) = (   0.7500328   0.6250198   0.1249376  )
       227           Al  tau( 227) = (   0.7500511   0.5000089   0.2499537  )
       228           Al  tau( 228) = (   0.8750479   0.6250000   0.2499521  )
       229           Al  tau( 229) = (   0.8748337   0.5001457   0.3751688  )
       230           Al  tau( 230) = (   0.7500137   0.6250000   0.3749863  )
       231           Al  tau( 231) = (   0.7499327   0.4999855   0.5000109  )
       232           Al  tau( 232) = (   0.8750141   0.6249806   0.4999955  )
       233           Al  tau( 233) = (   0.8749925   0.4999937   0.6249741  )
       234           Al  tau( 234) = (   0.7500456   0.6249781   0.6249911  )
       235           Al  tau( 235) = (   0.7499962   0.4999776   0.7499962  )
       236           Al  tau( 236) = (   0.8750778   0.6250642   0.7499823  )
       237           Al  tau( 237) = (   0.8748275   0.5001528   0.8748275  )
       238           Al  tau( 238) = (   0.7499823   0.6250642   0.8750778  )
       239           Al  tau( 239) = (   0.7505910   0.7506210   0.9999852  )
       240           Al  tau( 240) = (   0.8771537   0.8771897   0.0000688  )
       241           Al  tau( 241) = (   0.8750104   0.7499432   0.1249821  )
       242           Al  tau( 242) = (   0.7499758   0.8750388   0.1249915  )
       243           Al  tau( 243) = (   0.7498312   0.7498542   0.2501663  )
       244           Al  tau( 244) = (   0.8750502   0.8751111   0.2499557  )
       245           Al  tau( 245) = (   0.8750463   0.7499911   0.3749489  )
       246           Al  tau( 246) = (   0.7499969   0.8750581   0.3749114  )
       247           Al  tau( 247) = (   0.7500113   0.7499943   0.4999901  )
       248           Al  tau( 248) = (   0.8749883   0.8749665   0.5000122  )
       249           Al  tau( 249) = (   0.8750115   0.7499980   0.6250578  )
       250           Al  tau( 250) = (   0.7500068   0.8750790   0.6250480  )
       251           Al  tau( 251) = (   0.7498666   0.7498472   0.7498666  )
       252           Al  tau( 252) = (   0.8750228   0.8750086   0.7499392  )
       253           Al  tau( 253) = (   0.8750197   0.7499326   0.8750197  )
       254           Al  tau( 254) = (   0.7499392   0.8750086   0.8750228  )

   Crystallographic axes

     site n.     atom                  positions (cryst. coord.)
         1           Al  tau(   1) = (  0.1229804  0.0002310  0.1229804  )
         2           Al  tau(   2) = (  0.1232940  0.1250000  0.0017060  )
         3           Al  tau(   3) = (  0.0017060  0.1250000  0.1232940  )
         4           Al  tau(   4) = (  0.0000665  0.9999662  0.2496905  )
         5           Al  tau(   5) = (  0.1250081  0.1270262  0.2480406  )
         6           Al  tau(   6) = (  0.1249681  0.0006078  0.3744548  )
         7           Al  tau(   7) = (  0.0000114  0.1249931  0.3751471  )
         8           Al  tau(   8) = (  0.0000560  0.9999858  0.4999440  )
         9           Al  tau(   9) = (  0.1250247  0.1250436  0.5000745  )
        10           Al  tau(  10) = (  0.1249778  0.9999738  0.6249494  )
        11           Al  tau(  11) = (  0.9999752  0.1249564  0.6249256  )
        12           Al  tau(  12) = (  0.0000598  0.9999938  0.7502920  )
        13           Al  tau(  13) = (  0.1249886  0.1250068  0.7498529  )
        14           Al  tau(  14) = (  0.1227459  0.0006946  0.8778866  )
        15           Al  tau(  15) = (  0.9999919  0.1229738  0.8769594  )
        16           Al  tau(  16) = (  0.0020196  0.2497690  0.0020196  )
        17           Al  tau(  17) = (  0.1249586  0.3728598  0.0021652  )
        18           Al  tau(  18) = (  0.0021652  0.3728598  0.1249586  )
        19           Al  tau(  19) = (  0.0022541  0.2493054  0.2471134  )
        20           Al  tau(  20) = (  0.1249312  0.3728103  0.2478463  )
        21           Al  tau(  21) = (  0.1249402  0.2500062  0.3747081  )
        22           Al  tau(  22) = (  0.0000085  0.3749612  0.3750242  )
        23           Al  tau(  23) = (  0.0000222  0.2500262  0.5000506  )
        24           Al  tau(  24) = (  0.1250163  0.3750059  0.5000433  )
        25           Al  tau(  25) = (  0.1249440  0.2500142  0.6250560  )
        26           Al  tau(  26) = (  0.9999731  0.3749881  0.6250376  )
        27           Al  tau(  27) = (  0.0000319  0.2493923  0.7505452  )
        28           Al  tau(  28) = (  0.1249480  0.3749415  0.7499271  )
        29           Al  tau(  29) = (  0.1249335  0.2500338  0.8753095  )
        30           Al  tau(  30) = (  0.0000094  0.3750690  0.8749366  )
        31           Al  tau(  31) = (  0.0000237  0.5000316  0.0000237  )
        32           Al  tau(  32) = (  0.1249741  0.6250000  0.0000259  )
        33           Al  tau(  33) = (  0.1250174  0.4997400  0.1250174  )
        34           Al  tau(  34) = (  0.0000259  0.6250000  0.1249741  )
        35           Al  tau(  35) = (  0.0000179  0.5000568  0.2499896  )
        36           Al  tau(  36) = (  0.1249418  0.6251103  0.2499811  )
        37           Al  tau(  37) = (  0.1250148  0.4993790  0.3744090  )
        38           Al  tau(  38) = (  0.0000623  0.6249802  0.3749672  )
        39           Al  tau(  39) = (  0.0000605  0.5000010  0.4999395  )
        40           Al  tau(  40) = (  0.1250156  0.6249339  0.4999525  )
        41           Al  tau(  41) = (  0.1250122  0.5000156  0.6249770  )
        42           Al  tau(  42) = (  0.9999844  0.6250661  0.6250475  )
        43           Al  tau(  43) = (  0.0000546  0.5000175  0.7500286  )
        44           Al  tau(  44) = (  0.1249376  0.6250198  0.7500328  )
        45           Al  tau(  45) = (  0.1250276  0.4993997  0.8755864  )
        46           Al  tau(  46) = (  0.0000582  0.6248897  0.8750189  )
        47           Al  tau(  47) = (  0.9999826  0.7502600  0.9999826  )
        48           Al  tau(  48) = (  0.1228348  0.8771402  0.0000414  )
        49           Al  tau(  49) = (  0.1249763  0.7499684  0.1249763  )
        50           Al  tau(  50) = (  0.0000414  0.8771402  0.1228348  )
        51           Al  tau(  51) = (  0.9999724  0.7506003  0.2494136  )
        52           Al  tau(  52) = (  0.1249906  0.8749311  0.2500634  )
        53           Al  tau(  53) = (  0.1249454  0.7499825  0.3749715  )
        54           Al  tau(  54) = (  0.0000520  0.8750585  0.3750729  )
        55           Al  tau(  55) = (  0.9999878  0.7499844  0.5000230  )
        56           Al  tau(  56) = (  0.1250269  0.8750120  0.4999624  )
        57           Al  tau(  57) = (  0.1249395  0.7499990  0.6250605  )
        58           Al  tau(  58) = (  0.9999837  0.8749941  0.6249567  )
        59           Al  tau(  59) = (  0.9999852  0.7506210  0.7505910  )
        60           Al  tau(  60) = (  0.1249915  0.8750388  0.7499758  )
        61           Al  tau(  61) = (  0.1249821  0.7499432  0.8750104  )
        62           Al  tau(  62) = (  0.0000688  0.8771897  0.8771537  )
        63           Al  tau(  63) = (  0.2496905  0.9999662  0.0000665  )
        64           Al  tau(  64) = (  0.3751471  0.1249931  0.0000114  )
        65           Al  tau(  65) = (  0.3744548  0.0006078  0.1249681  )
        66           Al  tau(  66) = (  0.2480406  0.1270262  0.1250081  )
        67           Al  tau(  67) = (  0.2494222  0.9998993  0.2494222  )
        68           Al  tau(  68) = (  0.3749914  0.1249742  0.2499870  )
        69           Al  tau(  69) = (  0.3751046  0.9998586  0.3751046  )
        70           Al  tau(  70) = (  0.2499870  0.1249742  0.3749914  )
        71           Al  tau(  71) = (  0.2499622  0.9999949  0.4999355  )
        72           Al  tau(  72) = (  0.3750437  0.1250706  0.4999473  )
        73           Al  tau(  73) = (  0.3749570  0.9999949  0.6250431  )
        74           Al  tau(  74) = (  0.2500363  0.1249191  0.6250538  )
        75           Al  tau(  75) = (  0.2493163  0.9999967  0.7506941  )
        76           Al  tau(  76) = (  0.3749649  0.1250000  0.7500351  )
        77           Al  tau(  77) = (  0.3751772  0.9998575  0.8748903  )
        78           Al  tau(  78) = (  0.2500902  0.1250000  0.8749098  )
        79           Al  tau(  79) = (  0.2471134  0.2493054  0.0022541  )
        80           Al  tau(  80) = (  0.3750242  0.3749612  0.0000085  )
        81           Al  tau(  81) = (  0.3747081  0.2500062  0.1249402  )
        82           Al  tau(  82) = (  0.2478463  0.3728103  0.1249312  )
        83           Al  tau(  83) = (  0.2479283  0.2501290  0.2479283  )
        84           Al  tau(  84) = (  0.3750608  0.3749914  0.2499772  )
        85           Al  tau(  85) = (  0.3743915  0.2499889  0.3743915  )
        86           Al  tau(  86) = (  0.2499772  0.3749914  0.3750608  )
        87           Al  tau(  87) = (  0.2499760  0.2499938  0.5000448  )
        88           Al  tau(  88) = (  0.3749932  0.3749210  0.4999520  )
        89           Al  tau(  89) = (  0.3750307  0.2499826  0.6249969  )
        90           Al  tau(  90) = (  0.2500117  0.3750335  0.6249878  )
        91           Al  tau(  91) = (  0.2501097  0.2501425  0.7498228  )
        92           Al  tau(  92) = (  0.3750031  0.3749419  0.7500886  )
        93           Al  tau(  93) = (  0.3743059  0.2500034  0.8756837  )
        94           Al  tau(  94) = (  0.2499499  0.3748889  0.8750444  )
        95           Al  tau(  95) = (  0.2499896  0.5000568  0.0000179  )
        96           Al  tau(  96) = (  0.3749672  0.6249802  0.0000623  )
        97           Al  tau(  97) = (  0.3744090  0.4993790  0.1250148  )
        98           Al  tau(  98) = (  0.2499811  0.6251103  0.1249418  )
        99           Al  tau(  99) = (  0.2499804  0.5000674  0.2499804  )
       100           Al  tau( 100) = (  0.3750177  0.6249358  0.2499222  )
       101           Al  tau( 101) = (  0.3751334  0.5001528  0.3751334  )
       102           Al  tau( 102) = (  0.2499222  0.6249358  0.3750177  )
       103           Al  tau( 103) = (  0.2499885  0.5000020  0.4999422  )
       104           Al  tau( 104) = (  0.3749544  0.6250219  0.5000089  )
       105           Al  tau( 105) = (  0.3749888  0.5000057  0.6250099  )
       106           Al  tau( 106) = (  0.2499859  0.6250194  0.6250045  )
       107           Al  tau( 107) = (  0.2499537  0.5000089  0.7500511  )
       108           Al  tau( 108) = (  0.3749863  0.6250000  0.7500137  )
       109           Al  tau( 109) = (  0.3751688  0.5001457  0.8748337  )
       110           Al  tau( 110) = (  0.2499521  0.6250000  0.8750479  )
       111           Al  tau( 111) = (  0.2494136  0.7506003  0.9999724  )
       112           Al  tau( 112) = (  0.3750729  0.8750585  0.0000520  )
       113           Al  tau( 113) = (  0.3749715  0.7499825  0.1249454  )
       114           Al  tau( 114) = (  0.2500634  0.8749311  0.1249906  )
       115           Al  tau( 115) = (  0.2501726  0.7498472  0.2501726  )
       116           Al  tau( 116) = (  0.3749682  0.8750998  0.2499583  )
       117           Al  tau( 117) = (  0.3750038  0.7500224  0.3750038  )
       118           Al  tau( 118) = (  0.2499583  0.8750998  0.3749682  )
       119           Al  tau( 119) = (  0.2500076  0.7500063  0.5000259  )
       120           Al  tau( 120) = (  0.3749967  0.8749869  0.5000029  )
       121           Al  tau( 121) = (  0.3750673  0.7500146  0.6249892  )
       122           Al  tau( 122) = (  0.2500376  0.8750297  0.6250526  )
       123           Al  tau( 123) = (  0.2501663  0.7498542  0.7498312  )
       124           Al  tau( 124) = (  0.3749114  0.8750581  0.7499969  )
       125           Al  tau( 125) = (  0.3749489  0.7499911  0.8750463  )
       126           Al  tau( 126) = (  0.2499557  0.8751111  0.8750502  )
       127           Al  tau( 127) = (  0.4999440  0.9999858  0.0000560  )
       128           Al  tau( 128) = (  0.6249256  0.1249564  0.9999752  )
       129           Al  tau( 129) = (  0.6249494  0.9999738  0.1249778  )
       130           Al  tau( 130) = (  0.5000745  0.1250436  0.1250247  )
       131           Al  tau( 131) = (  0.4999355  0.9999949  0.2499622  )
       132           Al  tau( 132) = (  0.6250538  0.1249191  0.2500363  )
       133           Al  tau( 133) = (  0.6250431  0.9999949  0.3749570  )
       134           Al  tau( 134) = (  0.4999473  0.1250706  0.3750437  )
       135           Al  tau( 135) = (  0.5000110  0.0000213  0.5000110  )
       136           Al  tau( 136) = (  0.6249762  0.1250000  0.5000238  )
       137           Al  tau( 137) = (  0.6250401  0.9999490  0.6250401  )
       138           Al  tau( 138) = (  0.5000238  0.1250000  0.6249762  )
       139           Al  tau( 139) = (  0.5000031  0.0000174  0.7499693  )
       140           Al  tau( 140) = (  0.6250527  0.1249294  0.7499563  )
       141           Al  tau( 141) = (  0.6249552  0.0000062  0.8750241  )
       142           Al  tau( 142) = (  0.4999462  0.1250809  0.8749637  )
       143           Al  tau( 143) = (  0.5000506  0.2500262  0.0000222  )
       144           Al  tau( 144) = (  0.6250376  0.3749881  0.9999731  )
       145           Al  tau( 145) = (  0.6250560  0.2500142  0.1249440  )
       146           Al  tau( 146) = (  0.5000433  0.3750059  0.1250163  )
       147           Al  tau( 147) = (  0.5000448  0.2499938  0.2499760  )
       148           Al  tau( 148) = (  0.6249878  0.3750335  0.2500117  )
       149           Al  tau( 149) = (  0.6249969  0.2499826  0.3750307  )
       150           Al  tau( 150) = (  0.4999520  0.3749210  0.3749932  )
       151           Al  tau( 151) = (  0.4999599  0.2500510  0.4999599  )
       152           Al  tau( 152) = (  0.6250128  0.3750032  0.5000257  )
       153           Al  tau( 153) = (  0.6249890  0.2499787  0.6249890  )
       154           Al  tau( 154) = (  0.5000257  0.3750032  0.6250128  )
       155           Al  tau( 155) = (  0.4999569  0.2500051  0.7500431  )
       156           Al  tau( 156) = (  0.6249971  0.3750131  0.7500033  )
       157           Al  tau( 157) = (  0.6250645  0.2500051  0.8750378  )
       158           Al  tau( 158) = (  0.4999474  0.3749703  0.8749624  )
       159           Al  tau( 159) = (  0.4999395  0.5000010  0.0000605  )
       160           Al  tau( 160) = (  0.6250475  0.6250661  0.9999844  )
       161           Al  tau( 161) = (  0.6249770  0.5000156  0.1250122  )
       162           Al  tau( 162) = (  0.4999525  0.6249339  0.1250156  )
       163           Al  tau( 163) = (  0.4999422  0.5000020  0.2499885  )
       164           Al  tau( 164) = (  0.6250045  0.6250194  0.2499859  )
       165           Al  tau( 165) = (  0.6250099  0.5000057  0.3749888  )
       166           Al  tau( 166) = (  0.5000089  0.6250219  0.3749544  )
       167           Al  tau( 167) = (  0.4999990  0.4999754  0.4999990  )
       168           Al  tau( 168) = (  0.6250102  0.6250000  0.4999898  )
       169           Al  tau( 169) = (  0.6250236  0.5000511  0.6250236  )
       170           Al  tau( 170) = (  0.4999898  0.6250000  0.6250102  )
       171           Al  tau( 171) = (  0.5000109  0.4999855  0.7499327  )
       172           Al  tau( 172) = (  0.6249911  0.6249781  0.7500456  )
       173           Al  tau( 173) = (  0.6249741  0.4999937  0.8749925  )
       174           Al  tau( 174) = (  0.4999955  0.6249806  0.8750141  )
       175           Al  tau( 175) = (  0.5000230  0.7499844  0.9999878  )
       176           Al  tau( 176) = (  0.6249567  0.8749941  0.9999837  )
       177           Al  tau( 177) = (  0.6250605  0.7499990  0.1249395  )
       178           Al  tau( 178) = (  0.4999624  0.8750120  0.1250269  )
       179           Al  tau( 179) = (  0.5000259  0.7500063  0.2500076  )
       180           Al  tau( 180) = (  0.6250526  0.8750297  0.2500376  )
       181           Al  tau( 181) = (  0.6249892  0.7500146  0.3750673  )
       182           Al  tau( 182) = (  0.5000029  0.8749869  0.3749967  )
       183           Al  tau( 183) = (  0.4999764  0.7499489  0.4999764  )
       184           Al  tau( 184) = (  0.6249743  0.8749968  0.4999872  )
       185           Al  tau( 185) = (  0.6250011  0.7500246  0.6250011  )
       186           Al  tau( 186) = (  0.4999872  0.8749968  0.6249743  )
       187           Al  tau( 187) = (  0.4999901  0.7499943  0.7500113  )
       188           Al  tau( 188) = (  0.6250480  0.8750790  0.7500068  )
       189           Al  tau( 189) = (  0.6250578  0.7499980  0.8750115  )
       190           Al  tau( 190) = (  0.5000122  0.8749665  0.8749883  )
       191           Al  tau( 191) = (  0.7502920  0.9999938  0.0000598  )
       192           Al  tau( 192) = (  0.8769594  0.1229738  0.9999919  )
       193           Al  tau( 193) = (  0.8778866  0.0006946  0.1227459  )
       194           Al  tau( 194) = (  0.7498529  0.1250068  0.1249886  )
       195           Al  tau( 195) = (  0.7506941  0.9999967  0.2493163  )
       196           Al  tau( 196) = (  0.8749098  0.1250000  0.2500902  )
       197           Al  tau( 197) = (  0.8748903  0.9998575  0.3751772  )
       198           Al  tau( 198) = (  0.7500351  0.1250000  0.3749649  )
       199           Al  tau( 199) = (  0.7499693  0.0000174  0.5000031  )
       200           Al  tau( 200) = (  0.8749637  0.1250809  0.4999462  )
       201           Al  tau( 201) = (  0.8750241  0.0000062  0.6249552  )
       202           Al  tau( 202) = (  0.7499563  0.1249294  0.6250527  )
       203           Al  tau( 203) = (  0.7506085  0.0000111  0.7506085  )
       204           Al  tau( 204) = (  0.8750130  0.1250259  0.7500086  )
       205           Al  tau( 205) = (  0.8770717  0.9998710  0.8770717  )
       206           Al  tau( 206) = (  0.7500086  0.1250259  0.8750130  )
       207           Al  tau( 207) = (  0.7505452  0.2493923  0.0000319  )
       208           Al  tau( 208) = (  0.8749366  0.3750690  0.0000094  )
       209           Al  tau( 209) = (  0.8753095  0.2500338  0.1249335  )
       210           Al  tau( 210) = (  0.7499271  0.3749415  0.1249480  )
       211           Al  tau( 211) = (  0.7498228  0.2501425  0.2501097  )
       212           Al  tau( 212) = (  0.8750444  0.3748889  0.2499499  )
       213           Al  tau( 213) = (  0.8756837  0.2500034  0.3743059  )
       214           Al  tau( 214) = (  0.7500886  0.3749419  0.3750031  )
       215           Al  tau( 215) = (  0.7500431  0.2500051  0.4999569  )
       216           Al  tau( 216) = (  0.8749624  0.3749703  0.4999474  )
       217           Al  tau( 217) = (  0.8750378  0.2500051  0.6250645  )
       218           Al  tau( 218) = (  0.7500033  0.3750131  0.6249971  )
       219           Al  tau( 219) = (  0.7498954  0.2501414  0.7498954  )
       220           Al  tau( 220) = (  0.8750417  0.3749002  0.7500318  )
       221           Al  tau( 221) = (  0.8755778  0.2501007  0.8755778  )
       222           Al  tau( 222) = (  0.7500318  0.3749002  0.8750417  )
       223           Al  tau( 223) = (  0.7500286  0.5000175  0.0000546  )
       224           Al  tau( 224) = (  0.8750189  0.6248897  0.0000582  )
       225           Al  tau( 225) = (  0.8755864  0.4993997  0.1250276  )
       226           Al  tau( 226) = (  0.7500328  0.6250198  0.1249376  )
       227           Al  tau( 227) = (  0.7500511  0.5000089  0.2499537  )
       228           Al  tau( 228) = (  0.8750479  0.6250000  0.2499521  )
       229           Al  tau( 229) = (  0.8748337  0.5001457  0.3751688  )
       230           Al  tau( 230) = (  0.7500137  0.6250000  0.3749863  )
       231           Al  tau( 231) = (  0.7499327  0.4999855  0.5000109  )
       232           Al  tau( 232) = (  0.8750141  0.6249806  0.4999955  )
       233           Al  tau( 233) = (  0.8749925  0.4999937  0.6249741  )
       234           Al  tau( 234) = (  0.7500456  0.6249781  0.6249911  )
       235           Al  tau( 235) = (  0.7499962  0.4999776  0.7499962  )
       236           Al  tau( 236) = (  0.8750778  0.6250642  0.7499823  )
       237           Al  tau( 237) = (  0.8748275  0.5001528  0.8748275  )
       238           Al  tau( 238) = (  0.7499823  0.6250642  0.8750778  )
       239           Al  tau( 239) = (  0.7505910  0.7506210  0.9999852  )
       240           Al  tau( 240) = (  0.8771537  0.8771897  0.0000688  )
       241           Al  tau( 241) = (  0.8750104  0.7499432  0.1249821  )
       242           Al  tau( 242) = (  0.7499758  0.8750388  0.1249915  )
       243           Al  tau( 243) = (  0.7498312  0.7498542  0.2501663  )
       244           Al  tau( 244) = (  0.8750502  0.8751111  0.2499557  )
       245           Al  tau( 245) = (  0.8750463  0.7499911  0.3749489  )
       246           Al  tau( 246) = (  0.7499969  0.8750581  0.3749114  )
       247           Al  tau( 247) = (  0.7500113  0.7499943  0.4999901  )
       248           Al  tau( 248) = (  0.8749883  0.8749665  0.5000122  )
       249           Al  tau( 249) = (  0.8750115  0.7499980  0.6250578  )
       250           Al  tau( 250) = (  0.7500068  0.8750790  0.6250480  )
       251           Al  tau( 251) = (  0.7498666  0.7498472  0.7498666  )
       252           Al  tau( 252) = (  0.8750228  0.8750086  0.7499392  )
       253           Al  tau( 253) = (  0.8750197  0.7499326  0.8750197  )
       254           Al  tau( 254) = (  0.7499392  0.8750086  0.8750228  )

     number of k points=    63  Methfessel-Paxton smearing, width (Ry)=  0.0441
                       cart. coord. in units 2pi/alat
        k(    1) = (   0.0000000   0.0000000   0.0000000), wk =   0.0160000
        k(    2) = (   0.0000000   0.0000000   0.2000000), wk =   0.0320000
        k(    3) = (   0.0000000   0.0000000   0.4000000), wk =   0.0320000
        k(    4) = (   0.0000000   0.2000000   0.0000000), wk =   0.0320000
        k(    5) = (   0.0000000   0.2000000   0.2000000), wk =   0.0320000
        k(    6) = (   0.0000000   0.2000000   0.4000000), wk =   0.0320000
        k(    7) = (   0.0000000   0.2000000  -0.4000000), wk =   0.0320000
        k(    8) = (   0.0000000   0.2000000  -0.2000000), wk =   0.0320000
        k(    9) = (   0.0000000   0.4000000   0.0000000), wk =   0.0320000
        k(   10) = (   0.0000000   0.4000000   0.2000000), wk =   0.0320000
        k(   11) = (   0.0000000   0.4000000   0.4000000), wk =   0.0320000
        k(   12) = (   0.0000000   0.4000000  -0.4000000), wk =   0.0320000
        k(   13) = (   0.0000000   0.4000000  -0.2000000), wk =   0.0320000
        k(   14) = (   0.2000000   0.0000000   0.0000000), wk =   0.0320000
        k(   15) = (   0.2000000   0.0000000   0.2000000), wk =   0.0320000
        k(   16) = (   0.2000000   0.0000000   0.4000000), wk =   0.0320000
        k(   17) = (   0.2000000   0.0000000  -0.4000000), wk =   0.0320000
        k(   18) = (   0.2000000   0.0000000  -0.2000000), wk =   0.0320000
        k(   19) = (   0.2000000   0.2000000   0.0000000), wk =   0.0320000
        k(   20) = (   0.2000000   0.2000000   0.2000000), wk =   0.0320000
        k(   21) = (   0.2000000   0.2000000   0.4000000), wk =   0.0320000
        k(   22) = (   0.2000000   0.2000000  -0.4000000), wk =   0.0320000
        k(   23) = (   0.2000000   0.2000000  -0.2000000), wk =   0.0320000
        k(   24) = (   0.2000000   0.4000000   0.0000000), wk =   0.0320000
        k(   25) = (   0.2000000   0.4000000   0.2000000), wk =   0.0320000
        k(   26) = (   0.2000000   0.4000000   0.4000000), wk =   0.0320000
        k(   27) = (   0.2000000   0.4000000  -0.4000000), wk =   0.0320000
        k(   28) = (   0.2000000   0.4000000  -0.2000000), wk =   0.0320000
        k(   29) = (   0.2000000  -0.4000000   0.0000000), wk =   0.0320000
        k(   30) = (   0.2000000  -0.4000000   0.2000000), wk =   0.0320000
        k(   31) = (   0.2000000  -0.4000000   0.4000000), wk =   0.0320000
        k(   32) = (   0.2000000  -0.4000000  -0.4000000), wk =   0.0320000
        k(   33) = (   0.2000000  -0.4000000  -0.2000000), wk =   0.0320000
        k(   34) = (   0.2000000  -0.2000000   0.0000000), wk =   0.0320000
        k(   35) = (   0.2000000  -0.2000000   0.2000000), wk =   0.0320000
        k(   36) = (   0.2000000  -0.2000000   0.4000000), wk =   0.0320000
        k(   37) = (   0.2000000  -0.2000000  -0.4000000), wk =   0.0320000
        k(   38) = (   0.2000000  -0.2000000  -0.2000000), wk =   0.0320000
        k(   39) = (   0.4000000   0.0000000   0.0000000), wk =   0.0320000
        k(   40) = (   0.4000000   0.0000000   0.2000000), wk =   0.0320000
        k(   41) = (   0.4000000   0.0000000   0.4000000), wk =   0.0320000
        k(   42) = (   0.4000000   0.0000000  -0.4000000), wk =   0.0320000
        k(   43) = (   0.4000000   0.0000000  -0.2000000), wk =   0.0320000
        k(   44) = (   0.4000000   0.2000000   0.0000000), wk =   0.0320000
        k(   45) = (   0.4000000   0.2000000   0.2000000), wk =   0.0320000
        k(   46) = (   0.4000000   0.2000000   0.4000000), wk =   0.0320000
        k(   47) = (   0.4000000   0.2000000  -0.4000000), wk =   0.0320000
        k(   48) = (   0.4000000   0.2000000  -0.2000000), wk =   0.0320000
        k(   49) = (   0.4000000   0.4000000   0.0000000), wk =   0.0320000
        k(   50) = (   0.4000000   0.4000000   0.2000000), wk =   0.0320000
        k(   51) = (   0.4000000   0.4000000   0.4000000), wk =   0.0320000
        k(   52) = (   0.4000000   0.4000000  -0.4000000), wk =   0.0320000
        k(   53) = (   0.4000000   0.4000000  -0.2000000), wk =   0.0320000
        k(   54) = (   0.4000000  -0.4000000   0.0000000), wk =   0.0320000
        k(   55) = (   0.4000000  -0.4000000   0.2000000), wk =   0.0320000
        k(   56) = (   0.4000000  -0.4000000   0.4000000), wk =   0.0320000
        k(   57) = (   0.4000000  -0.4000000  -0.4000000), wk =   0.0320000
        k(   58) = (   0.4000000  -0.4000000  -0.2000000), wk =   0.0320000
        k(   59) = (   0.4000000  -0.2000000   0.0000000), wk =   0.0320000
        k(   60) = (   0.4000000  -0.2000000   0.2000000), wk =   0.0320000
        k(   61) = (   0.4000000  -0.2000000   0.4000000), wk =   0.0320000
        k(   62) = (   0.4000000  -0.2000000  -0.4000000), wk =   0.0320000
        k(   63) = (   0.4000000  -0.2000000  -0.2000000), wk =   0.0320000

                       cryst. coord.
        k(    1) = (   0.0000000   0.0000000   0.0000000), wk =   0.0160000
        k(    2) = (   0.0000000   0.0000000   0.2000000), wk =   0.0320000
        k(    3) = (   0.0000000   0.0000000   0.4000000), wk =   0.0320000
        k(    4) = (   0.0000000   0.2000000   0.0000000), wk =   0.0320000
        k(    5) = (   0.0000000   0.2000000   0.2000000), wk =   0.0320000
        k(    6) = (   0.0000000   0.2000000   0.4000000), wk =   0.0320000
        k(    7) = (   0.0000000   0.2000000  -0.4000000), wk =   0.0320000
        k(    8) = (   0.0000000   0.2000000  -0.2000000), wk =   0.0320000
        k(    9) = (   0.0000000   0.4000000   0.0000000), wk =   0.0320000
        k(   10) = (   0.0000000   0.4000000   0.2000000), wk =   0.0320000
        k(   11) = (   0.0000000   0.4000000   0.4000000), wk =   0.0320000
        k(   12) = (   0.0000000   0.4000000  -0.4000000), wk =   0.0320000
        k(   13) = (   0.0000000   0.4000000  -0.2000000), wk =   0.0320000
        k(   14) = (   0.2000000   0.0000000   0.0000000), wk =   0.0320000
        k(   15) = (   0.2000000   0.0000000   0.2000000), wk =   0.0320000
        k(   16) = (   0.2000000   0.0000000   0.4000000), wk =   0.0320000
        k(   17) = (   0.2000000   0.0000000  -0.4000000), wk =   0.0320000
        k(   18) = (   0.2000000   0.0000000  -0.2000000), wk =   0.0320000
        k(   19) = (   0.2000000   0.2000000   0.0000000), wk =   0.0320000
        k(   20) = (   0.2000000   0.2000000   0.2000000), wk =   0.0320000
        k(   21) = (   0.2000000   0.2000000   0.4000000), wk =   0.0320000
        k(   22) = (   0.2000000   0.2000000  -0.4000000), wk =   0.0320000
        k(   23) = (   0.2000000   0.2000000  -0.2000000), wk =   0.0320000
        k(   24) = (   0.2000000   0.4000000   0.0000000), wk =   0.0320000
        k(   25) = (   0.2000000   0.4000000   0.2000000), wk =   0.0320000
        k(   26) = (   0.2000000   0.4000000   0.4000000), wk =   0.0320000
        k(   27) = (   0.2000000   0.4000000  -0.4000000), wk =   0.0320000
        k(   28) = (   0.2000000   0.4000000  -0.2000000), wk =   0.0320000
        k(   29) = (   0.2000000  -0.4000000   0.0000000), wk =   0.0320000
        k(   30) = (   0.2000000  -0.4000000   0.2000000), wk =   0.0320000
        k(   31) = (   0.2000000  -0.4000000   0.4000000), wk =   0.0320000
        k(   32) = (   0.2000000  -0.4000000  -0.4000000), wk =   0.0320000
        k(   33) = (   0.2000000  -0.4000000  -0.2000000), wk =   0.0320000
        k(   34) = (   0.2000000  -0.2000000   0.0000000), wk =   0.0320000
        k(   35) = (   0.2000000  -0.2000000   0.2000000), wk =   0.0320000
        k(   36) = (   0.2000000  -0.2000000   0.4000000), wk =   0.0320000
        k(   37) = (   0.2000000  -0.2000000  -0.4000000), wk =   0.0320000
        k(   38) = (   0.2000000  -0.2000000  -0.2000000), wk =   0.0320000
        k(   39) = (   0.4000000   0.0000000   0.0000000), wk =   0.0320000
        k(   40) = (   0.4000000   0.0000000   0.2000000), wk =   0.0320000
        k(   41) = (   0.4000000   0.0000000   0.4000000), wk =   0.0320000
        k(   42) = (   0.4000000   0.0000000  -0.4000000), wk =   0.0320000
        k(   43) = (   0.4000000   0.0000000  -0.2000000), wk =   0.0320000
        k(   44) = (   0.4000000   0.2000000   0.0000000), wk =   0.0320000
        k(   45) = (   0.4000000   0.2000000   0.2000000), wk =   0.0320000
        k(   46) = (   0.4000000   0.2000000   0.4000000), wk =   0.0320000
        k(   47) = (   0.4000000   0.2000000  -0.4000000), wk =   0.0320000
        k(   48) = (   0.4000000   0.2000000  -0.2000000), wk =   0.0320000
        k(   49) = (   0.4000000   0.4000000   0.0000000), wk =   0.0320000
        k(   50) = (   0.4000000   0.4000000   0.2000000), wk =   0.0320000
        k(   51) = (   0.4000000   0.4000000   0.4000000), wk =   0.0320000
        k(   52) = (   0.4000000   0.4000000  -0.4000000), wk =   0.0320000
        k(   53) = (   0.4000000   0.4000000  -0.2000000), wk =   0.0320000
        k(   54) = (   0.4000000  -0.4000000   0.0000000), wk =   0.0320000
        k(   55) = (   0.4000000  -0.4000000   0.2000000), wk =   0.0320000
        k(   56) = (   0.4000000  -0.4000000   0.4000000), wk =   0.0320000
        k(   57) = (   0.4000000  -0.4000000  -0.4000000), wk =   0.0320000
        k(   58) = (   0.4000000  -0.4000000  -0.2000000), wk =   0.0320000
        k(   59) = (   0.4000000  -0.2000000   0.0000000), wk =   0.0320000
        k(   60) = (   0.4000000  -0.2000000   0.2000000), wk =   0.0320000
        k(   61) = (   0.4000000  -0.2000000   0.4000000), wk =   0.0320000
        k(   62) = (   0.4000000  -0.2000000  -0.4000000), wk =   0.0320000
        k(   63) = (   0.4000000  -0.2000000  -0.2000000), wk =   0.0320000

     Dense  grid:  3895379 G-vectors     FFT dimensions: ( 200, 200, 200)

     Smooth grid:   985619 G-vectors     FFT dimensions: ( 125, 125, 125)

     Dynamical RAM for                 wfc:     107.39 MB

     Dynamical RAM for     wfc (w. buffer):     322.16 MB

     Dynamical RAM for           str. fact:       7.43 MB

     Dynamical RAM for           local pot:       0.00 MB

     Dynamical RAM for          nlocal pot:    1074.35 MB

     Dynamical RAM for                qrad:       7.82 MB

     Dynamical RAM for          rho,v,vnew:      45.18 MB

     Dynamical RAM for               rhoin:      15.06 MB

     Dynamical RAM for            rho*nmix:     118.88 MB

     Dynamical RAM for           G-vectors:      28.80 MB

     Dynamical RAM for          h,s,v(r/c):      38.24 MB

     Dynamical RAM for          <psi|beta>:      31.88 MB

     Dynamical RAM for                 psi:     429.55 MB

     Dynamical RAM for                hpsi:     429.55 MB

     Dynamical RAM for                spsi:     429.55 MB

     Dynamical RAM for      wfcinit/wfcrot:     501.12 MB

     Dynamical RAM for           addusdens:      98.03 MB

     Dynamical RAM for          addusforce:     199.94 MB

     Dynamical RAM for         addusstress:      45.09 MB

     Estimated static dynamical RAM per process >       1.63 GB

     Estimated max dynamical RAM per process >       2.96 GB

     Estimated total dynamical RAM >     852.60 GB

     Initial potential from superposition of free atoms

     starting charge  761.41829, renormalised to  762.00000
     Starting wfcs are 1016 randomized atomic wfcs
     Checking if some PAW data can be deallocated... 

     total cpu time spent up to now is      202.1 secs

     Self-consistent Calculation

     iteration #  1     ecut=    40.00 Ry     beta= 0.40
     Davidson diagonalization with overlap
     ethr =  1.00E-02,  avg # of iterations =  3.0

     Threshold (ethr) on eigenvalues was too large:
     Diagonalizing with lowered threshold

     Davidson diagonalization with overlap
     ethr =  2.03E-04,  avg # of iterations =  8.2

     total cpu time spent up to now is      968.0 secs

     total energy              =  -10033.78409723 Ry
     Harris-Foulkes estimate   =  -10033.95822183 Ry
     estimated scf accuracy    <       1.61033249 Ry

     iteration #  2     ecut=    40.00 Ry     beta= 0.40
     Davidson diagonalization with overlap
     ethr =  2.11E-04,  avg # of iterations =  1.1

     total cpu time spent up to now is     1194.4 secs

     total energy              =  -10033.56410160 Ry
     Harris-Foulkes estimate   =  -10033.79244299 Ry
     estimated scf accuracy    <       0.84231817 Ry

     iteration #  3     ecut=    40.00 Ry     beta= 0.40
     Davidson diagonalization with overlap
     ethr =  1.11E-04,  avg # of iterations =  1.0

     total cpu time spent up to now is     1420.5 secs

     total energy              =  -10033.58835338 Ry
     Harris-Foulkes estimate   =  -10033.59024797 Ry
     estimated scf accuracy    <       0.00492987 Ry

     iteration #  4     ecut=    40.00 Ry     beta= 0.40
     Davidson diagonalization with overlap
     c_bands:  4 eigenvalues not converged
     ethr =  6.47E-07,  avg # of iterations = 20.0

     total cpu time spent up to now is     2120.1 secs

     total energy              =  -10033.59351789 Ry
     Harris-Foulkes estimate   =  -10033.59342534 Ry
     estimated scf accuracy    <       0.01557078 Ry

     iteration #  5     ecut=    40.00 Ry     beta= 0.40
     Davidson diagonalization with overlap
     c_bands:  3 eigenvalues not converged
     ethr =  6.47E-07,  avg # of iterations =  7.3

     total cpu time spent up to now is     2402.2 secs

     total energy              =  -10033.58713746 Ry
     Harris-Foulkes estimate   =  -10033.59353090 Ry
     estimated scf accuracy    <       0.01881500 Ry

     iteration #  6     ecut=    40.00 Ry     beta= 0.40
     Davidson diagonalization with overlap
     ethr =  6.47E-07,  avg # of iterations =  9.1

     total cpu time spent up to now is     2919.9 secs

     total energy              =  -10033.59059294 Ry
     Harris-Foulkes estimate   =  -10033.59622374 Ry
     estimated scf accuracy    <       0.07907967 Ry

     iteration #  7     ecut=    40.00 Ry     beta= 0.40
     Davidson diagonalization with overlap
     ethr =  6.47E-07,  avg # of iterations =  3.1

     total cpu time spent up to now is     3198.9 secs

     total energy              =  -10033.59198361 Ry
     Harris-Foulkes estimate   =  -10033.59218620 Ry
     estimated scf accuracy    <       0.01226226 Ry

     iteration #  8     ecut=    40.00 Ry     beta= 0.40
     Davidson diagonalization with overlap
     ethr =  6.47E-07,  avg # of iterations =  1.0

     total cpu time spent up to now is     3425.2 secs

     total energy              =  -10033.59137629 Ry
     Harris-Foulkes estimate   =  -10033.59201195 Ry
     estimated scf accuracy    <       0.00976103 Ry

     iteration #  9     ecut=    40.00 Ry     beta= 0.40
     Davidson diagonalization with overlap
     ethr =  6.47E-07,  avg # of iterations =  1.7

     total cpu time spent up to now is     3656.0 secs

     total energy              =  -10033.59129351 Ry
     Harris-Foulkes estimate   =  -10033.59156035 Ry
     estimated scf accuracy    <       0.00218966 Ry

     iteration # 10     ecut=    40.00 Ry     beta= 0.40
     Davidson diagonalization with overlap
     ethr =  2.87E-07,  avg # of iterations =  4.0

     total cpu time spent up to now is     3921.8 secs

     total energy              =  -10033.59152615 Ry
     Harris-Foulkes estimate   =  -10033.59156443 Ry
     estimated scf accuracy    <       0.00026474 Ry

     iteration # 11     ecut=    40.00 Ry     beta= 0.40
     Davidson diagonalization with overlap
     ethr =  3.47E-08,  avg # of iterations =  3.3

     total cpu time spent up to now is     4189.8 secs

     total energy              =  -10033.59155706 Ry
     Harris-Foulkes estimate   =  -10033.59156205 Ry
     estimated scf accuracy    <       0.00001297 Ry

     iteration # 12     ecut=    40.00 Ry     beta= 0.40
     Davidson diagonalization with overlap
     ethr =  1.70E-09,  avg # of iterations =  5.0

     total cpu time spent up to now is     4592.8 secs

     total energy              =  -10033.59157036 Ry
     Harris-Foulkes estimate   =  -10033.59157034 Ry
     estimated scf accuracy    <       0.00013773 Ry

     iteration # 13     ecut=    40.00 Ry     beta= 0.40
     Davidson diagonalization with overlap
     ethr =  1.70E-09,  avg # of iterations =  1.0

     total cpu time spent up to now is     4818.9 secs

     total energy              =  -10033.59156641 Ry
     Harris-Foulkes estimate   =  -10033.59157033 Ry
     estimated scf accuracy    <       0.00014346 Ry

     iteration # 14     ecut=    40.00 Ry     beta= 0.40
     Davidson diagonalization with overlap
     ethr =  1.70E-09,  avg # of iterations =  1.4

     total cpu time spent up to now is     5047.8 secs

     total energy              =  -10033.59156680 Ry
     Harris-Foulkes estimate   =  -10033.59156710 Ry
     estimated scf accuracy    <       0.00007891 Ry

     iteration # 15     ecut=    40.00 Ry     beta= 0.40
     Davidson diagonalization with overlap
     ethr =  1.70E-09,  avg # of iterations =  2.0

     total cpu time spent up to now is     5278.4 secs

     total energy              =  -10033.59156668 Ry
     Harris-Foulkes estimate   =  -10033.59156743 Ry
     estimated scf accuracy    <       0.00006125 Ry

     iteration # 16     ecut=    40.00 Ry     beta= 0.40
     Davidson diagonalization with overlap
     ethr =  1.70E-09,  avg # of iterations =  1.0

     total cpu time spent up to now is     5504.4 secs

     total energy              =  -10033.59156524 Ry
     Harris-Foulkes estimate   =  -10033.59156686 Ry
     estimated scf accuracy    <       0.00005342 Ry

     iteration # 17     ecut=    40.00 Ry     beta= 0.40
     Davidson diagonalization with overlap
     ethr =  1.70E-09,  avg # of iterations =  1.0

     total cpu time spent up to now is     5731.3 secs

     total energy              =  -10033.59156535 Ry
     Harris-Foulkes estimate   =  -10033.59156603 Ry
     estimated scf accuracy    <       0.00005945 Ry

     iteration # 18     ecut=    40.00 Ry     beta= 0.40
     Davidson diagonalization with overlap
     ethr =  1.70E-09,  avg # of iterations =  1.0

     total cpu time spent up to now is     5957.5 secs

     total energy              =  -10033.59155756 Ry
     Harris-Foulkes estimate   =  -10033.59156581 Ry
     estimated scf accuracy    <       0.00006567 Ry

     iteration # 19     ecut=    40.00 Ry     beta= 0.40
     Davidson diagonalization with overlap
     ethr =  1.70E-09,  avg # of iterations =  3.3

     total cpu time spent up to now is     6250.5 secs

     total energy              =  -10033.59156208 Ry
     Harris-Foulkes estimate   =  -10033.59156255 Ry
     estimated scf accuracy    <       0.00000318 Ry

     iteration # 20     ecut=    40.00 Ry     beta= 0.40
     Davidson diagonalization with overlap
     ethr =  4.17E-10,  avg # of iterations =  2.0

     total cpu time spent up to now is     6488.9 secs

     total energy              =  -10033.59156231 Ry
     Harris-Foulkes estimate   =  -10033.59156230 Ry
     estimated scf accuracy    <       0.00000005 Ry

     iteration # 21     ecut=    40.00 Ry     beta= 0.40
     Davidson diagonalization with overlap
     ethr =  6.69E-12,  avg # of iterations =  5.0

     total cpu time spent up to now is     6913.2 secs

     total energy              =  -10033.59156231 Ry
     Harris-Foulkes estimate   =  -10033.59156233 Ry
     estimated scf accuracy    <       0.00000005 Ry

     iteration # 22     ecut=    40.00 Ry     beta= 0.40
     Davidson diagonalization with overlap
     ethr =  6.48E-12,  avg # of iterations =  2.2

     total cpu time spent up to now is     7182.0 secs

     total energy              =  -10033.59156232 Ry
     Harris-Foulkes estimate   =  -10033.59156232 Ry
     estimated scf accuracy    <       0.00000002 Ry

     iteration # 23     ecut=    40.00 Ry     beta= 0.40
     Davidson diagonalization with overlap
     ethr =  3.00E-12,  avg # of iterations =  1.0

     total cpu time spent up to now is     7407.4 secs

     total energy              =  -10033.59156231 Ry
     Harris-Foulkes estimate   =  -10033.59156232 Ry
     estimated scf accuracy    <       0.00000001 Ry

     iteration # 24     ecut=    40.00 Ry     beta= 0.40
     Davidson diagonalization with overlap
     ethr =  1.86E-12,  avg # of iterations =  1.1

     total cpu time spent up to now is     7635.1 secs

     total energy              =  -10033.59156231 Ry
     Harris-Foulkes estimate   =  -10033.59156231 Ry
     estimated scf accuracy    <          2.0E-09 Ry

     iteration # 25     ecut=    40.00 Ry     beta= 0.40
     Davidson diagonalization with overlap
     ethr =  2.63E-13,  avg # of iterations =  4.0

     total cpu time spent up to now is     7925.4 secs

     total energy              =  -10033.59156231 Ry
     Harris-Foulkes estimate   =  -10033.59156231 Ry
     estimated scf accuracy    <          5.0E-11 Ry

     iteration # 26     ecut=    40.00 Ry     beta= 0.40
     Davidson diagonalization with overlap
     ethr =  1.00E-13,  avg # of iterations =  1.0

     total cpu time spent up to now is     8151.4 secs

     total energy              =  -10033.59156231 Ry
     Harris-Foulkes estimate   =  -10033.59156231 Ry
     estimated scf accuracy    <          1.3E-10 Ry

     iteration # 27     ecut=    40.00 Ry     beta= 0.40
     Davidson diagonalization with overlap
     ethr =  1.00E-13,  avg # of iterations =  1.0

     total cpu time spent up to now is     8378.3 secs

     total energy              =  -10033.59156231 Ry
     Harris-Foulkes estimate   =  -10033.59156231 Ry
     estimated scf accuracy    <          5.3E-11 Ry

     iteration # 28     ecut=    40.00 Ry     beta= 0.40
     Davidson diagonalization with overlap
     ethr =  1.00E-13,  avg # of iterations =  1.0

     total cpu time spent up to now is     8604.7 secs

     total energy              =  -10033.59156231 Ry
     Harris-Foulkes estimate   =  -10033.59156231 Ry
     estimated scf accuracy    <          2.7E-11 Ry

     iteration # 29     ecut=    40.00 Ry     beta= 0.40
     Davidson diagonalization with overlap
     ethr =  1.00E-13,  avg # of iterations =  1.0

     total cpu time spent up to now is     8830.0 secs

     total energy              =  -10033.59156231 Ry
     Harris-Foulkes estimate   =  -10033.59156231 Ry
     estimated scf accuracy    <          3.7E-12 Ry

     iteration # 30     ecut=    40.00 Ry     beta= 0.40
     Davidson diagonalization with overlap
     ethr =  1.00E-13,  avg # of iterations =  1.0

     total cpu time spent up to now is     9054.8 secs

     End of self-consistent calculation

          k = 0.0000 0.0000 0.0000 (123065 PWs)   bands (ev):

    -3.3308  -2.7932  -2.7898  -2.7868  -2.7848  -2.7546  -2.7000  -2.2352
    -2.2350  -2.2326  -2.2324  -2.2323  -2.2274  -2.2239  -2.2139  -2.2103
    -2.2098  -2.1281  -2.0655  -1.6686  -1.6680  -1.6607  -1.6600  -1.6594
    -1.6587  -1.5943  -1.5610  -1.1085  -1.1070  -1.1064  -1.1034  -1.0718
    -1.0622  -0.5740  -0.5725  -0.5718  -0.5715  -0.5713  -0.5690  -0.5681
    -0.5662  -0.5648  -0.5631  -0.5612  -0.5610  -0.5592  -0.5581  -0.5568
    -0.5537  -0.5515  -0.5324  -0.5284  -0.5213  -0.5144  -0.4983  -0.4033
    -0.3638  -0.0200  -0.0197  -0.0181  -0.0178  -0.0172  -0.0168  -0.0153
    -0.0136  -0.0133  -0.0128  -0.0124  -0.0085  -0.0078  -0.0035  -0.0005
     0.0011   0.0184   0.0209   0.0269   0.0381   0.0390   0.0648   0.2483
     0.3499   1.0860   1.0878   1.0881   1.0886   1.0890   1.0938   1.1017
     1.1034   1.1084   1.1131   1.1729   1.1746   1.6179   1.6183   1.6189
     1.6197   1.6198   1.6209   1.6216   1.6220   1.6221   1.6235   1.6240
     1.6251   1.6269   1.6269   1.6274   1.6277   1.6299   1.6317   1.6368
     1.6369   1.6411   1.6420   1.6696   1.6749   1.6903   1.6930   1.6998
     1.7091   1.8319   1.8534   2.1539   2.1545   2.1561   2.1562   2.1570
     2.1577   2.1599   2.1602   2.1607   2.1628   2.1629   2.1629   2.1709
     2.1721   2.1725   2.1756   2.1984   2.2095   2.2123   2.2170   2.2347
     2.2535   2.3373   2.4094   2.6983   2.6984   2.6987   2.6988   2.7032
     2.7034   2.7039   2.7041   2.7060   2.7068   2.7074   2.7079   2.7086
     2.7088   2.7152   2.7154   2.7518   2.7582   2.7631   2.7758   2.7763
     2.7849   2.9560   3.0407   3.1825   3.1864   3.2044   3.2101   3.3561
     3.3563   3.4141   3.4516   3.7696   3.7705   3.7711   3.7711   3.7720
     3.7730   3.7739   3.7755   3.7757   3.7783   3.7783   3.7849   3.7858
     3.7888   3.7910   3.7921   3.8022   3.8058   3.8174   3.8425   3.8451
     3.8609   3.9449   3.9545   4.1929   4.1932   4.1933   4.1941   4.1943
     4.1963   4.1976   4.1979   4.1992   4.2000   4.2017   4.2026   4.2071
     4.2100   4.2126   4.2182   4.2189   4.2202   4.2581   4.3099   4.3184
     4.3192   4.3378   4.3681   4.4240   4.4256   4.4258   4.4261   4.4264
     4.4281   4.4305   4.4321   4.4328   4.4336   4.4376   4.4415   4.4476
     4.4486   4.4592   4.4679   4.4728   4.4787   4.4801   4.5020   4.5153
     4.5183   4.8456   4.8472   4.8487   4.9098   4.9952   5.3219   5.3229
     5.3249   5.3250   5.3325   5.3342   5.3502   5.3709   5.3743   5.4143
     5.4292   5.4342   5.8402   5.8422   5.8442   5.8541   5.8550   5.8581
     5.8594   5.8646   5.8672   5.8738   5.8757   5.8880   5.9101   5.9125
     5.9125   5.9130   5.9133   5.9137   5.9149   5.9153   5.9169   5.9176
     5.9228   5.9277   5.9349   5.9406   5.9507   5.9680   5.9828   6.0017
     6.0114   6.0246   6.0606   6.0651   6.0799   6.1065   6.1295   6.1696
     6.2072   6.3713   6.3780   6.3785   6.3800   6.3806   6.3897   6.4009
     6.4047   6.4142   6.4345   6.4485   6.4492   6.6439   6.6474   6.6475
     6.6536   6.6542   6.6543   6.6695   6.6800   6.6942   6.7098   6.7713
     6.7821   6.8809   6.8826   6.8848   6.8851   6.8868   6.8890   6.8930
     6.8991   6.9001   6.9079   6.9085   6.9150   6.9581   6.9583   6.9617
     6.9618   6.9641   6.9644   6.9650   6.9653   6.9677   6.9678   6.9796
     6.9834   6.9878   6.9935   6.9948   6.9949   7.0154   7.0358   7.0613
     7.0710   7.0783   7.0887   7.1118   7.1146   7.2919   7.2934   7.2941
     7.2943   7.2957   7.2963   7.3097   7.3203   7.3251   7.3305   7.3847
     7.3871   7.3883   7.3889   7.3908   7.3913   7.3939   7.3963   7.3968
     7.3970   7.4010   7.4038   7.4117   7.4158   7.4214   7.4472   7.4573
     7.4690   7.5053   7.5083   7.5724   7.5827   7.6155   7.6338   7.6644
     7.6703   7.9294   7.9418   7.9470   7.9521   7.9526   7.9755   8.5291
     8.5327   8.5332   8.5342   8.5345   8.5354   8.5354   8.5357   8.5359
     8.5365   8.5388   8.5546   8.5606   8.5621   8.5632   8.5641   8.5948
     8.6079   8.6187   8.6209   8.6355   8.6405   8.6409   8.6481   8.7514
     8.7540   8.7549   8.7562   8.7774   8.7794   8.8342   8.8343   8.8358
     8.8378   8.8395   8.8417   8.8419   8.8458   8.8494   8.8504   8.8504
     8.8566   8.8617   8.8633   8.8656   8.8684   8.8730   8.8775   8.8839
     8.8941

     occupation numbers 
     1.0000   1.0000   1.0000   1.0000   1.0000   1.0000   1.0000   1.0000
     1.0000   1.0000   1.0000   1.0000   1.0000   1.0000   1.0000   1.0000
     1.0000   1.0000   1.0000   1.0000   1.0000   1.0000   1.0000   1.0000
     1.0000   1.0000   1.0000   1.0000   1.0000   1.0000   1.0000   1.0000
     1.0000   1.0000   1.0000   1.0000   1.0000   1.0000   1.0000   1.0000
     1.0000   1.0000   1.0000   1.0000   1.0000   1.0000   1.0000   1.0000
     1.0000   1.0000   1.0000   1.0000   1.0000   1.0000   1.0000   1.0000
     1.0000   1.0000   1.0000   1.0000   1.0000   1.0000   1.0000   1.0000
     1.0000   1.0000   1.0000   1.0000   1.0000   1.0000   1.0000   1.0000
     1.0000   1.0000   1.0000   1.0000   1.0000   1.0000   1.0000   1.0000
     1.0000   1.0000   1.0000   1.0000   1.0000   1.0000   1.0000   1.0000
     1.0000   1.0000   1.0000   1.0000   1.0000   1.0000   1.0000   1.0000
     1.0000   1.0000   1.0000   1.0000   1.0000   1.0000   1.0000   1.0000
     1.0000   1.0000   1.0000   1.0000   1.0000   1.0000   1.0000   1.0000
     1.0000   1.0000   1.0000   1.0000   1.0000   1.0000   1.0000   1.0000
     1.0000   1.0000   1.0000   1.0000   1.0000   1.0000   1.0000   1.0000
     1.0000   1.0000   1.0000   1.0000   1.0000   1.0000   1.0000   1.0000
     1.0000   1.0000   1.0000   1.0000   1.0000   1.0000   1.0000   1.0000
     1.0000   1.0000   1.0000   1.0000   1.0000   1.0000   1.0000   1.0000
     1.0000   1.0000   1.0000   1.0000   1.0000   1.0000   1.0000   1.0000
     1.0000   1.0000   1.0000   1.0000   1.0000   1.0000   1.0000   1.0000
     1.0000   1.0000   1.0000   1.0000   1.0000   1.0000   1.0000   1.0000
     1.0000   1.0000   1.0000   1.0000   1.0000   1.0000   1.0000   1.0000
     1.0000   1.0000   1.0000   1.0000   1.0000   1.0000   1.0000   1.0000
     1.0000   1.0000   1.0000   1.0000   1.0000   1.0000   1.0000   1.0000
     1.0000   1.0000   1.0000   1.0000   1.0000   1.0000   1.0000   1.0000
     1.0000   1.0000   1.0000   1.0000   1.0000   1.0000   1.0000   1.0000
     1.0000   1.0000   1.0000   1.0000   1.0000   1.0000   1.0000   1.0000
     1.0000   1.0000   1.0000   1.0000   1.0000   1.0000   1.0000   1.0000
     1.0000   1.0000   1.0000   1.0000   1.0000   1.0000   1.0000   1.0000
     1.0000   1.0000   1.0000   1.0000   1.0000   1.0000   1.0000   1.0000
     1.0000   1.0000   1.0000   1.0000   1.0000   1.0000   1.0000   1.0000
     1.0000   1.0000   1.0000   1.0000   1.0000   1.0000   1.0000   1.0000
     1.0000   1.0000   1.0001   1.0001   1.0001   1.0001   1.0001   1.0001
     1.0001   1.0001   1.0001   1.0001   1.0001   1.0001   1.0001   1.0001
     1.0001   1.0001   1.0001   1.0001   1.0001   1.0001   1.0001   1.0001
     1.0001   1.0001   1.0001   1.0001   1.0001   1.0002   1.0002   1.0002
     1.0003   1.0003   1.0004   1.0004   1.0005   1.0006   1.0007   1.0009
     1.0012   1.0038   1.0039   1.0039   1.0040   1.0040   1.0042   1.0045
     1.0046   1.0049   1.0055   1.0060   1.0060   1.0160   1.0163   1.0163
     1.0167   1.0167   1.0167   1.0178   1.0186   1.0196   1.0208   1.0255
     1.0263   1.0330   1.0331   1.0332   1.0332   1.0333   1.0334   1.0336
     1.0339   1.0339   1.0342   1.0343   1.0345   1.0354   1.0354   1.0355
     1.0355   1.0355   1.0355   1.0355   1.0355   1.0355   1.0355   1.0354
     1.0353   1.0352   1.0351   1.0350   1.0350   1.0342   1.0329   1.0306
     1.0294   1.0284   1.0269   1.0229   1.0224   0.9526   0.9516   0.9512
     0.9511   0.9502   0.9498   0.9412   0.9340   0.9306   0.9267   0.8835
     0.8814   0.8803   0.8798   0.8781   0.8776   0.8753   0.8731   0.8727
     0.8725   0.8689   0.8663   0.8589   0.8550   0.8496   0.8235   0.8129
     0.8002   0.7589   0.7553   0.6751   0.6616   0.6175   0.5922   0.5497
     0.5414   0.2008   0.1874   0.1818   0.1766   0.1759   0.1528  -0.0324
    -0.0322  -0.0322  -0.0321  -0.0321  -0.0320  -0.0320  -0.0320  -0.0320
    -0.0320  -0.0318  -0.0308  -0.0304  -0.0303  -0.0303  -0.0302  -0.0280
    -0.0270  -0.0262  -0.0261  -0.0249  -0.0245  -0.0245  -0.0240  -0.0163
    -0.0161  -0.0161  -0.0160  -0.0146  -0.0145  -0.0112  -0.0112  -0.0111
    -0.0110  -0.0109  -0.0108  -0.0108  -0.0106  -0.0104  -0.0103  -0.0103
    -0.0100  -0.0098  -0.0097  -0.0096  -0.0094  -0.0092  -0.0090  -0.0087
    -0.0082

          k = 0.0000 0.0000 0.2000 (123202 PWs)   bands (ev):

    -3.3087  -2.9726  -2.7681  -2.7637  -2.7399  -2.7165  -2.5211  -2.4323
    -2.4278  -2.4015  -2.3695  -2.1991  -2.1985  -2.1720  -2.1621  -1.9859
    -1.9809  -1.9523  -1.9232  -1.8634  -1.8632  -1.8212  -1.7898  -1.5129
    -1.4195  -1.4192  -1.3856  -1.3669  -1.0860  -1.0817  -1.0701  -1.0586
    -0.9869  -0.9822  -0.9536  -0.9129  -0.7540  -0.7496  -0.7331  -0.7230
    -0.6330  -0.5448  -0.5418  -0.5356  -0.5289  -0.5226  -0.5099  -0.5048
    -0.4854  -0.4242  -0.4236  -0.3865  -0.3789  -0.3123  -0.3060  -0.2977
    -0.2778  -0.2138  -0.2108  -0.2033  -0.1939  -0.1858  -0.1665  -0.1374
    -0.1087  -0.1037  -0.0997  -0.0378   0.0240   0.2255   0.2287   0.2359
     0.2445   0.2505   0.2672   0.2920   0.3432   0.4565   0.4573   0.5326
     0.5556   0.6755   0.6816   0.7050   0.7431   1.0119   1.1156   1.1174
     1.1347   1.1378   1.2095   1.2128   1.2194   1.2270   1.2325   1.2471
     1.2637   1.3122   1.4453   1.4488   1.4636   1.4775   1.5324   1.5364
     1.5470   1.5518   1.5663   1.5824   1.6010   1.6196   1.6519   1.6612
     1.6818   1.7164   1.8772   1.8786   1.8983   1.8996   1.9763   1.9854
     1.9921   2.0026   2.0778   2.0807   2.0829   2.0837   2.0904   2.0954
     2.1009   2.1125   2.1246   2.1312   2.1382   2.1585   2.1893   2.1895
     2.2033   2.2100   2.2123   2.2180   2.2682   2.2914   2.3308   2.4109
     2.4221   2.4389   2.4595   2.5139   2.5141   2.5289   2.5331   2.5414
     2.5505   2.6166   2.6557   2.8205   2.8251   2.8468   2.8484   2.8590
     2.8765   2.8843   2.8911   2.9444   2.9444   2.9594   2.9638   2.9740
     2.9817   3.0572   3.1076   3.1658   3.1710   3.2044   3.2248   3.3667
     3.3674   3.3809   3.3892   3.4033   3.4129   3.4394   3.4761   3.6812
     3.6841   3.6895   3.6961   3.7022   3.7141   3.7259   3.7271   3.7348
     3.7528   3.7675   3.7785   3.7946   3.7956   3.8052   3.8187   3.8292
     3.8347   3.8602   3.8678   3.9002   3.9003   3.9181   3.9206   3.9313
     3.9456   3.9957   4.0314   4.1056   4.1080   4.1174   4.1455   4.1581
     4.1686   4.2034   4.2275   4.2423   4.2603   4.2850   4.2949   4.4363
     4.4409   4.4471   4.4628   4.4882   4.5654   4.5656   4.5767   4.5867
     4.6034   4.6172   4.6458   4.6740   4.7857   4.7858   4.7951   4.7990
     4.8052   4.8177   4.8488   4.8741   4.8788   4.8899   4.9256   4.9302
     4.9752   4.9820   4.9855   4.9939   5.0026   5.0074   5.0206   5.0255
     5.1635   5.1692   5.1819   5.2813   5.3153   5.3174   5.3469   5.3539
     5.3608   5.3768   5.3871   5.3964   5.4533   5.4552   5.4981   5.5070
     5.5137   5.5141   5.5245   5.5345   5.5447   5.5612   5.5921   5.5952
     5.6263   5.6628   5.6760   5.7058   5.7366   5.7625   5.8189   5.8276
     5.8485   5.8660   6.0838   6.1043   6.1151   6.1325   6.1583   6.1632
     6.3539   6.3560   6.3604   6.3632   6.3673   6.3694   6.3710   6.3753
     6.3791   6.3844   6.3880   6.3957   6.4003   6.4091   6.4120   6.4255
     6.4492   6.4518   6.4641   6.4762   6.4895   6.4967   6.4973   6.5044
     6.5364   6.5465   6.5613   6.5795   6.5821   6.5932   6.5942   6.6339
     6.6422   6.6805   6.6904   6.7218   6.7367   6.7915   6.7987   6.8119
     6.8141   6.8341   6.8392   6.8556   6.8646   6.9100   6.9302   6.9371
     6.9430   6.9452   6.9543   7.0124   7.0206   7.0223   7.0239   7.0272
     7.0326   7.0405   7.0651   7.0745   7.0853   7.0927   7.1026   7.1326
     7.1355   7.1717   7.2052   7.2166   7.2196   7.2263   7.2287   7.2592
     7.2680   7.2910   7.3037   7.3044   7.3202   7.3520   7.3654   7.3822
     7.3979   7.5071   7.5194   7.5456   7.5760   7.6048   7.6068   7.6116
     7.6133   7.6140   7.6370   7.6410   7.6519   7.6547   7.6826   7.6866
     7.6959   7.7052   7.7263   7.7771   7.7862   7.8531   7.8808   7.8937
     7.9023   7.9050   7.9358   7.9363   7.9459   7.9499   7.9685   7.9839
     7.9921   8.0138   8.0441   8.1448   8.1477   8.1559   8.1647   8.1914
     8.2106   8.2211   8.2338   8.4522   8.4646   8.4898   8.5116   8.5677
     8.5800   8.5854   8.6093   8.6155   8.6200   8.6450   8.6558   8.6759
     8.6935   8.7140   8.7661   8.9054   8.9084   8.9626   8.9674   8.9834
     8.9863   8.9894   8.9919   9.0025   9.0102   9.0285   9.0517   9.0984
     9.1046   9.1193   9.1274   9.1383   9.1418   9.1634   9.1739   9.1752
     9.1814

     occupation numbers 
     1.0000   1.0000   1.0000   1.0000   1.0000   1.0000   1.0000   1.0000
     1.0000   1.0000   1.0000   1.0000   1.0000   1.0000   1.0000   1.0000
     1.0000   1.0000   1.0000   1.0000   1.0000   1.0000   1.0000   1.0000
     1.0000   1.0000   1.0000   1.0000   1.0000   1.0000   1.0000   1.0000
     1.0000   1.0000   1.0000   1.0000   1.0000   1.0000   1.0000   1.0000
     1.0000   1.0000   1.0000   1.0000   1.0000   1.0000   1.0000   1.0000
     1.0000   1.0000   1.0000   1.0000   1.0000   1.0000   1.0000   1.0000
     1.0000   1.0000   1.0000   1.0000   1.0000   1.0000   1.0000   1.0000
     1.0000   1.0000   1.0000   1.0000   1.0000   1.0000   1.0000   1.0000
[...]
     atom   73 type  1   force =     0.00000003   -0.00000000   -0.00000004
     atom   74 type  1   force =     0.00000009   -0.00000003   -0.00000001
     atom   75 type  1   force =    -0.00000002   -0.00000004    0.00000003
     atom   76 type  1   force =     0.00000003    0.00000001   -0.00000002
     atom   77 type  1   force =    -0.00000007    0.00000000   -0.00000003
     atom   78 type  1   force =    -0.00000006    0.00000000    0.00000006
     atom   79 type  1   force =    -0.00000007    0.00000001    0.00000007
     atom   80 type  1   force =    -0.00000006   -0.00000000    0.00000002
     atom   81 type  1   force =    -0.00000012    0.00000003    0.00000002
     atom   82 type  1   force =    -0.00000006   -0.00000004    0.00000003
     atom   83 type  1   force =    -0.00000006    0.00000002   -0.00000004
     atom   84 type  1   force =    -0.00000005    0.00000004    0.00000003
     atom   85 type  1   force =    -0.00000000    0.00000003    0.00000002
     atom   86 type  1   force =     0.00000002    0.00000001   -0.00000006
     atom   87 type  1   force =     0.00000010    0.00000004   -0.00000008
     atom   88 type  1   force =     0.00000007    0.00000002   -0.00000001
     atom   89 type  1   force =     0.00000010    0.00000004   -0.00000007
     atom   90 type  1   force =     0.00000008    0.00000009   -0.00000004
     atom   91 type  1   force =     0.00000004    0.00000001    0.00000006
     atom   92 type  1   force =     0.00000007    0.00000005   -0.00000003
     atom   93 type  1   force =     0.00000000    0.00000003    0.00000003
     atom   94 type  1   force =     0.00000001    0.00000000    0.00000007
     atom   95 type  1   force =     0.00000001   -0.00000008    0.00000003
     atom   96 type  1   force =     0.00000005   -0.00000000    0.00000001
     atom   97 type  1   force =     0.00000000   -0.00000003    0.00000005
     atom   98 type  1   force =     0.00000004   -0.00000005    0.00000001
     atom   99 type  1   force =     0.00000002   -0.00000009    0.00000000
     atom  100 type  1   force =     0.00000007   -0.00000006    0.00000005
     atom  101 type  1   force =     0.00000006   -0.00000002   -0.00000000
     atom  102 type  1   force =     0.00000004   -0.00000004    0.00000004
     atom  103 type  1   force =     0.00000003    0.00000001    0.00000001
     atom  104 type  1   force =     0.00000006   -0.00000003    0.00000000
     atom  105 type  1   force =     0.00000006    0.00000001   -0.00000002
     atom  106 type  1   force =     0.00000000   -0.00000002   -0.00000002
     atom  107 type  1   force =     0.00000004    0.00000003   -0.00000004
     atom  108 type  1   force =     0.00000005   -0.00000003   -0.00000005
     atom  109 type  1   force =     0.00000003   -0.00000000   -0.00000003
     atom  110 type  1   force =     0.00000003    0.00000000   -0.00000004
     atom  111 type  1   force =    -0.00000001    0.00000005   -0.00000002
     atom  112 type  1   force =    -0.00000003   -0.00000005    0.00000004
     atom  113 type  1   force =     0.00000005    0.00000001   -0.00000000
     atom  114 type  1   force =    -0.00000004    0.00000005   -0.00000000
     atom  115 type  1   force =     0.00000003    0.00000003    0.00000002
     atom  116 type  1   force =     0.00000004    0.00000003    0.00000002
     atom  117 type  1   force =     0.00000005   -0.00000002    0.00000003
     atom  118 type  1   force =     0.00000003    0.00000002    0.00000001
     atom  119 type  1   force =     0.00000002   -0.00000002    0.00000002
     atom  120 type  1   force =     0.00000002   -0.00000001   -0.00000002
     atom  121 type  1   force =     0.00000002   -0.00000004   -0.00000002
     atom  122 type  1   force =     0.00000002   -0.00000004   -0.00000001
     atom  123 type  1   force =    -0.00000001   -0.00000000   -0.00000002
     atom  124 type  1   force =    -0.00000003   -0.00000003   -0.00000003
     atom  125 type  1   force =     0.00000002   -0.00000003   -0.00000001
     atom  126 type  1   force =    -0.00000008   -0.00000001    0.00000000
     atom  127 type  1   force =    -0.00000002   -0.00000003    0.00000006
     atom  128 type  1   force =     0.00000006    0.00000001   -0.00000005
     atom  129 type  1   force =     0.00000004   -0.00000008    0.00000009
     atom  130 type  1   force =    -0.00000008   -0.00000004    0.00000006
     atom  131 type  1   force =    -0.00000001   -0.00000006    0.00000005
     atom  132 type  1   force =    -0.00000001   -0.00000011    0.00000006
     atom  133 type  1   force =    -0.00000003   -0.00000008    0.00000002
     atom  134 type  1   force =    -0.00000004   -0.00000003    0.00000005
     atom  135 type  1   force =     0.00000003   -0.00000001   -0.00000002
     atom  136 type  1   force =    -0.00000004   -0.00000003    0.00000002
     atom  137 type  1   force =     0.00000004   -0.00000004   -0.00000005
     atom  138 type  1   force =     0.00000001    0.00000002   -0.00000006
     atom  139 type  1   force =     0.00000002    0.00000002   -0.00000009
     atom  140 type  1   force =     0.00000003    0.00000001   -0.00000003
     atom  141 type  1   force =     0.00000010    0.00000001   -0.00000005
     atom  142 type  1   force =     0.00000000    0.00000008   -0.00000005
     atom  143 type  1   force =    -0.00000007    0.00000003   -0.00000006
     atom  144 type  1   force =    -0.00000002    0.00000005   -0.00000006
     atom  145 type  1   force =     0.00000000   -0.00000000   -0.00000001
     atom  146 type  1   force =    -0.00000008    0.00000009    0.00000004
     atom  147 type  1   force =    -0.00000010    0.00000002    0.00000008
     atom  148 type  1   force =    -0.00000004    0.00000013    0.00000008
     atom  149 type  1   force =    -0.00000004    0.00000003    0.00000009
     atom  150 type  1   force =    -0.00000004    0.00000006    0.00000006
     atom  151 type  1   force =    -0.00000003    0.00000004    0.00000001
     atom  152 type  1   force =    -0.00000004    0.00000008    0.00000004
     atom  153 type  1   force =    -0.00000004    0.00000004   -0.00000002
     atom  154 type  1   force =     0.00000001    0.00000006   -0.00000004
     atom  155 type  1   force =     0.00000002    0.00000005   -0.00000003
     atom  156 type  1   force =    -0.00000004    0.00000005   -0.00000006
     atom  157 type  1   force =    -0.00000000    0.00000001   -0.00000005
     atom  158 type  1   force =    -0.00000001    0.00000002   -0.00000006
     atom  159 type  1   force =    -0.00000000    0.00000005    0.00000001
     atom  160 type  1   force =     0.00000000    0.00000004   -0.00000001
     atom  161 type  1   force =    -0.00000003    0.00000010    0.00000005
     atom  162 type  1   force =     0.00000004   -0.00000002    0.00000002
     atom  163 type  1   force =    -0.00000001    0.00000004    0.00000005
     atom  164 type  1   force =    -0.00000002   -0.00000002    0.00000005
     atom  165 type  1   force =    -0.00000005    0.00000007    0.00000006
     atom  166 type  1   force =     0.00000005   -0.00000003    0.00000004
     atom  167 type  1   force =     0.00000004    0.00000002    0.00000001
     atom  168 type  1   force =     0.00000001   -0.00000001    0.00000002
     atom  169 type  1   force =    -0.00000001    0.00000005   -0.00000004
     atom  170 type  1   force =     0.00000006   -0.00000005   -0.00000003
     atom  171 type  1   force =     0.00000003    0.00000002   -0.00000007
     atom  172 type  1   force =    -0.00000001   -0.00000001   -0.00000005
     atom  173 type  1   force =    -0.00000004    0.00000006   -0.00000006
     atom  174 type  1   force =     0.00000005    0.00000000   -0.00000003
     atom  175 type  1   force =     0.00000004   -0.00000006    0.00000001
     atom  176 type  1   force =     0.00000007   -0.00000010    0.00000004
     atom  177 type  1   force =     0.00000002   -0.00000002    0.00000000
     atom  178 type  1   force =     0.00000001   -0.00000003    0.00000007
     atom  179 type  1   force =     0.00000004   -0.00000001    0.00000004
     atom  180 type  1   force =     0.00000000   -0.00000001    0.00000005
     atom  181 type  1   force =     0.00000000   -0.00000002    0.00000005
     atom  182 type  1   force =     0.00000005   -0.00000000   -0.00000000
     atom  183 type  1   force =     0.00000007   -0.00000005   -0.00000002
     atom  184 type  1   force =     0.00000003   -0.00000003   -0.00000001
     atom  185 type  1   force =     0.00000005   -0.00000006   -0.00000006
     atom  186 type  1   force =     0.00000004   -0.00000002   -0.00000006
     atom  187 type  1   force =     0.00000003   -0.00000009   -0.00000003
     atom  188 type  1   force =     0.00000008   -0.00000004   -0.00000008
     atom  189 type  1   force =     0.00000004   -0.00000008    0.00000000
     atom  190 type  1   force =     0.00000000   -0.00000010   -0.00000002
     atom  191 type  1   force =     0.00000014   -0.00000004   -0.00000001
     atom  192 type  1   force =     0.00000011   -0.00000007   -0.00000001
     atom  193 type  1   force =     0.00000007   -0.00000002   -0.00000008
     atom  194 type  1   force =     0.00000011   -0.00000008   -0.00000001
     atom  195 type  1   force =    -0.00000001   -0.00000007   -0.00000002
     atom  196 type  1   force =     0.00000007    0.00000000   -0.00000007
     atom  197 type  1   force =    -0.00000006   -0.00000002   -0.00000006
     atom  198 type  1   force =    -0.00000001   -0.00000003    0.00000002
     atom  199 type  1   force =    -0.00000009   -0.00000007    0.00000004
     atom  200 type  1   force =    -0.00000006    0.00000006    0.00000000
     atom  201 type  1   force =    -0.00000011   -0.00000004    0.00000009
     atom  202 type  1   force =    -0.00000002   -0.00000004    0.00000001
     atom  203 type  1   force =     0.00000005   -0.00000003   -0.00000001
     atom  204 type  1   force =    -0.00000002   -0.00000003    0.00000008
     atom  205 type  1   force =     0.00000006   -0.00000002    0.00000005
     atom  206 type  1   force =     0.00000009   -0.00000002   -0.00000002
     atom  207 type  1   force =     0.00000009   -0.00000004   -0.00000006
     atom  208 type  1   force =     0.00000007   -0.00000004    0.00000003
     atom  209 type  1   force =     0.00000013   -0.00000003   -0.00000001
     atom  210 type  1   force =     0.00000007    0.00000006    0.00000001
     atom  211 type  1   force =     0.00000009   -0.00000000    0.00000004
     atom  212 type  1   force =     0.00000010    0.00000002    0.00000001
     atom  213 type  1   force =     0.00000006    0.00000005   -0.00000001
     atom  214 type  1   force =     0.00000002    0.00000006    0.00000007
     atom  215 type  1   force =    -0.00000001    0.00000005    0.00000001
     atom  216 type  1   force =    -0.00000000    0.00000005    0.00000000
     atom  217 type  1   force =    -0.00000002    0.00000005    0.00000001
     atom  218 type  1   force =    -0.00000002    0.00000008   -0.00000003
     atom  219 type  1   force =     0.00000002   -0.00000000    0.00000001
     atom  220 type  1   force =    -0.00000001   -0.00000001   -0.00000005
     atom  221 type  1   force =     0.00000003   -0.00000006    0.00000001
     atom  222 type  1   force =     0.00000000   -0.00000002   -0.00000004
     atom  223 type  1   force =    -0.00000001    0.00000007    0.00000001
     atom  224 type  1   force =    -0.00000004    0.00000007    0.00000003
     atom  225 type  1   force =     0.00000004    0.00000001    0.00000004
     atom  226 type  1   force =    -0.00000001    0.00000003    0.00000001
     atom  227 type  1   force =    -0.00000001    0.00000007    0.00000003
     atom  228 type  1   force =    -0.00000002   -0.00000001   -0.00000000
     atom  229 type  1   force =     0.00000001    0.00000001    0.00000004
     atom  230 type  1   force =    -0.00000006    0.00000000    0.00000006
     atom  231 type  1   force =    -0.00000004    0.00000006    0.00000005
     atom  232 type  1   force =    -0.00000004   -0.00000002    0.00000005
     atom  233 type  1   force =    -0.00000003    0.00000004   -0.00000006
     atom  234 type  1   force =    -0.00000004   -0.00000000   -0.00000006
     atom  235 type  1   force =    -0.00000005    0.00000004   -0.00000010
     atom  236 type  1   force =    -0.00000003    0.00000006   -0.00000008
     atom  237 type  1   force =    -0.00000002    0.00000001   -0.00000001
     atom  238 type  1   force =    -0.00000005    0.00000008   -0.00000001
     atom  239 type  1   force =     0.00000002    0.00000000   -0.00000001
     atom  240 type  1   force =     0.00000006    0.00000004   -0.00000001
     atom  241 type  1   force =    -0.00000002    0.00000004   -0.00000003
     atom  242 type  1   force =     0.00000006   -0.00000002    0.00000000
     atom  243 type  1   force =    -0.00000002    0.00000001    0.00000001
     atom  244 type  1   force =    -0.00000003   -0.00000001   -0.00000008
     atom  245 type  1   force =    -0.00000007   -0.00000004    0.00000001
     atom  246 type  1   force =    -0.00000009   -0.00000004    0.00000001
     atom  247 type  1   force =    -0.00000007   -0.00000004    0.00000003
     atom  248 type  1   force =    -0.00000013   -0.00000008    0.00000004
     atom  249 type  1   force =    -0.00000005   -0.00000006    0.00000002
     atom  250 type  1   force =    -0.00000003   -0.00000003   -0.00000001
     atom  251 type  1   force =     0.00000001   -0.00000001   -0.00000003
     atom  252 type  1   force =    -0.00000002   -0.00000002    0.00000006
     atom  253 type  1   force =    -0.00000002    0.00000008    0.00000000
     atom  254 type  1   force =     0.00000011   -0.00000003   -0.00000000

     Total force =     0.006346     Total SCF correction =     0.000001


     Computing stress (Cartesian axis) and pressure

          total   stress  (Ry/bohr**3)                   (kbar)     P=  -11.65
  -0.00007925  -0.00000015   0.00000004        -11.66     -0.02      0.01
  -0.00000015  -0.00007900  -0.00000015         -0.02    -11.62     -0.02
   0.00000004  -0.00000015  -0.00007925          0.01     -0.02    -11.66

     kinetic stress (kbar)   1420.02     -0.03     -0.01
                               -0.03   1419.99     -0.03
                               -0.01     -0.03   1420.02

     local   stress (kbar)    605.77     -3.42     -1.55
                               -3.42    598.29     -3.42
                               -1.55     -3.42    605.77

     nonloc. stress (kbar)   1030.08      0.02     -0.00
                                0.02   1030.14      0.02
                               -0.00      0.02   1030.08

     hartree stress (kbar)      7.67      1.47      0.69
                                1.47     11.00      1.47
                                0.69      1.47      7.67

     exc-cor stress (kbar)    498.07      0.00     -0.00
                                0.00    498.08      0.00
                               -0.00      0.00    498.07

     corecor stress (kbar)  -1261.33     -0.00     -0.00
                               -0.00  -1261.34     -0.00
                               -0.00     -0.00  -1261.33

     ewald   stress (kbar)  -2311.93      1.94      0.88
                                1.94  -2307.77      1.94
                                0.88      1.94  -2311.93

     hubbard stress (kbar)      0.00      0.00      0.00
                                0.00      0.00      0.00
                                0.00      0.00      0.00

     london  stress (kbar)      0.00      0.00      0.00
                                0.00      0.00      0.00
                                0.00      0.00      0.00

     DFT-D3  stress (kbar)      0.00      0.00      0.00
                                0.00      0.00      0.00
                                0.00      0.00      0.00

     XDM     stress (kbar)      0.00      0.00      0.00
                                0.00      0.00      0.00
                                0.00      0.00      0.00

     dft-nl  stress (kbar)      0.00      0.00      0.00
                                0.00      0.00      0.00
                                0.00      0.00      0.00

     TS-vdW  stress (kbar)      0.00      0.00      0.00
                                0.00      0.00      0.00
                                0.00      0.00      0.00



     Writing output data file aiida.save/
 
     init_run     :    198.72s CPU    200.98s WALL (       1 calls)
     electrons    :   8787.91s CPU   8853.15s WALL (       1 calls)
     forces       :     95.10s CPU     96.05s WALL (       1 calls)
     stress       :   1190.37s CPU   1192.17s WALL (       1 calls)

     Called by init_run:
     wfcinit      :    183.39s CPU    185.23s WALL (       1 calls)
     wfcinit:atom :      0.34s CPU      0.58s WALL (       2 calls)
     wfcinit:wfcr :    180.90s CPU    181.70s WALL (       2 calls)
     potinit      :      2.16s CPU      2.34s WALL (       1 calls)
     hinit0       :      2.56s CPU      2.61s WALL (       1 calls)

     Called by electrons:
     c_bands      :   7603.25s CPU   7658.96s WALL (      31 calls)
     sum_band     :   1084.25s CPU   1088.53s WALL (      31 calls)
     v_of_rho     :     45.76s CPU     46.64s WALL (      31 calls)
     v_h          :      5.16s CPU      5.19s WALL (      31 calls)
     v_xc         :     42.94s CPU     43.85s WALL (      33 calls)
     newd         :      9.36s CPU     11.30s WALL (      31 calls)
     PAW_pot      :      7.38s CPU      7.98s WALL (      31 calls)
     mix_rho      :     30.29s CPU     31.73s WALL (      31 calls)

     Called by c_bands:
     init_us_2    :     97.60s CPU     98.21s WALL (     130 calls)
     cegterg      :   6483.25s CPU   6535.57s WALL (      62 calls)

     Called by sum_band:
     sum_band:bec :      1.61s CPU      1.61s WALL (      62 calls)
     addusdens    :      7.19s CPU      9.59s WALL (      31 calls)

     Called by *egterg:
     h_psi        :   4246.71s CPU   4263.77s WALL (     258 calls)
     s_psi        :   1303.19s CPU   1305.66s WALL (     258 calls)
     g_psi        :      5.26s CPU      5.26s WALL (     194 calls)
     cdiaghg      :    332.12s CPU    337.90s WALL (     254 calls)
     cegterg:over :    323.18s CPU    324.97s WALL (     194 calls)
     cegterg:upda :    213.92s CPU    223.57s WALL (     194 calls)
     cegterg:last :    128.57s CPU    128.63s WALL (      64 calls)
     cdiaghg:chol :     14.69s CPU     14.84s WALL (     254 calls)
     cdiaghg:inve :      6.88s CPU      6.88s WALL (     254 calls)
     cdiaghg:para :     73.43s CPU     74.60s WALL (     508 calls)

     Called by h_psi:
     h_psi:pot    :   4241.28s CPU   4250.29s WALL (     258 calls)
     h_psi:calbec :   1277.99s CPU   1278.11s WALL (     258 calls)
     vloc_psi     :   1654.92s CPU   1661.00s WALL (     258 calls)
     add_vuspsi   :   1308.36s CPU   1311.18s WALL (     258 calls)

     General routines
     calbec       :   1876.54s CPU   1876.70s WALL (     330 calls)
     fft          :     49.38s CPU     49.69s WALL (     428 calls)
     ffts         :     14.19s CPU     14.26s WALL (     493 calls)
     fftw         :   1717.54s CPU   1723.54s WALL (  166200 calls)
     interpolate  :      4.74s CPU      4.78s WALL (      31 calls)
 
     Parallel routines
     fft_scatt_xy :    587.92s CPU    589.70s WALL (  167121 calls)
     fft_scatt_yz :    329.42s CPU    331.43s WALL (  167121 calls)

     PAW routines
     PAW_pot      :      7.38s CPU      7.98s WALL (      31 calls)
 
     PWSCF        :      2h54m CPU      2h56m WALL

 
   This run was terminated on:   1:48: 0  27Feb2020            

=------------------------------------------------------------------------------=
   JOB DONE.
=------------------------------------------------------------------------------=
