
     Program PWSCF v.6.3 starts on 22Feb2020 at 14:12:25 

     This program is part of the open-source Quantum ESPRESSO suite
     for quantum simulation of materials; please cite
         "P. Giannozzi et al., J. Phys.:Condens. Matter 21 395502 (2009);
         "P. Giannozzi et al., J. Phys.:Condens. Matter 29 465901 (2017);
          URL http://www.quantum-espresso.org", 
     in publications or presentations arising from this work. More details at
     http://www.quantum-espresso.org/quote

 *** WARNING: using old-style file format, will disappear from next version ***

     Parallel version (MPI & OpenMP), running on      36 processor cores
     Number of MPI processes:                36
     Threads/MPI process:                     1

     MPI processes distributed on     1 nodes
     K-points division:     npool     =       4
     R & G space division:  proc/nbgrp/npool/nimage =       9
     Reading input from aiida.in
Warning: card &IONS ignored
Warning: card   !PRESS_CONV_THR = 0.05                 ! JUST FOR VOLUME RELAXATIONS ignored
Warning: card / ignored

     Current dimensions of program PWSCF are:
     Max number of different atomic species (ntypx) = 10
     Max number of k-points (npk) =  40000
     Max angular momentum in pseudopotentials (lmaxx) =  3
               file Mg.pbe-n-kjpaw_psl.0.3.0.UPF: wavefunction(s)  3S renormalized
               file Al.pbe-n-kjpaw_psl.1.0.0.UPF: wavefunction(s)  3S 3P renormalized

     Subspace diagonalization in iterative solution of the eigenvalue problem:
     one sub-group per band group will be used
     scalapack distributed-memory algorithm (size of sub-group:  2*  2 procs)

     Found symmetry operation: I + ( -0.5000 -0.5000  0.0000)
     This is a supercell, fractional translations are disabled
 
     Parallelization info
     --------------------
     sticks:   dense  smooth     PW     G-vecs:    dense   smooth      PW
     Min         786     314     91                41470    10490    1641
     Max         787     315     92                41472    10494    1643
     Sum        7077    2831    827               373239    94431   14779
 


     bravais-lattice index     =            0
     lattice parameter (alat)  =      28.9756  a.u.
     unit-cell volume          =    2762.8524 (a.u.)^3
     number of atoms/cell      =           22
     number of atomic types    =            3
     number of electrons       =        64.00
     number of Kohn-Sham states=           38
     kinetic-energy cutoff     =      40.0000  Ry
     charge density cutoff     =     400.0000  Ry
     convergence threshold     =      1.0E-12
     mixing beta               =       0.4000
     number of iterations used =            8  local-TF  mixing
     Exchange-correlation      = SLA PW PBX PBC ( 1  4  3  4 0 0)

     celldm(1)=  28.975565  celldm(2)=   0.000000  celldm(3)=   0.000000
     celldm(4)=   0.000000  celldm(5)=   0.000000  celldm(6)=   0.000000

     crystal axes: (cart. coord. in units of alat)
               a(1) = (   0.961322   0.000000  -0.275428 )  
               a(2) = (   0.000000   0.264413   0.000000 )  
               a(3) = (   0.000000   0.000000   0.446798 )  

     reciprocal axes: (cart. coord. in units 2 pi/alat)
               b(1) = (  1.040235  0.000000  0.000000 )  
               b(2) = (  0.000000  3.781967  0.000000 )  
               b(3) = (  0.641252  0.000000  2.238149 )  


     PseudoPot. # 1 for Mg read from file:
     /users/aglensk/Dropbox/Albert/scripts/dotfiles/scripts/potentials/quantum_espresso/pseudo_SSSPefV1.1_alalloy/Mg.pbe-n-kjpaw_psl.0.3.0.UPF
     MD5 check sum: 24ecedc7f3e3cbe212e682f4413594e4
     Pseudo is Projector augmented-wave + core cor, Zval =  2.0
     Generated using "atomic" code by A. Dal Corso v.5.0.99 svn rev. 10869
     Shape of augmentation charge: PSQ
     Using radial grid of 1129 points,  4 beta functions with: 
                l(1) =   0
                l(2) =   0
                l(3) =   1
                l(4) =   1
     Q(r) pseudized with 0 coefficients 


     PseudoPot. # 2 for Si read from file:
     /users/aglensk/Dropbox/Albert/scripts/dotfiles/scripts/potentials/quantum_espresso/pseudo_SSSPefV1.1_alalloy/Si.pbe-n-rrkjus_psl.1.0.0.UPF
     MD5 check sum: 0b0bb1205258b0d07b9f9672cf965d36
     Pseudo is Ultrasoft + core correction, Zval =  4.0
     Generated using "atomic" code by A. Dal Corso v.5.1
     Using radial grid of 1141 points,  6 beta functions with: 
                l(1) =   0
                l(2) =   0
                l(3) =   1
                l(4) =   1
                l(5) =   2
                l(6) =   2
     Q(r) pseudized with 0 coefficients 


     PseudoPot. # 3 for Al read from file:
     /users/aglensk/Dropbox/Albert/scripts/dotfiles/scripts/potentials/quantum_espresso/pseudo_SSSPefV1.1_alalloy/Al.pbe-n-kjpaw_psl.1.0.0.UPF
     MD5 check sum: cfc449ca30b5f3223ec38ddd88ac046d
     Pseudo is Projector augmented-wave + core cor, Zval =  3.0
     Generated using "atomic" code by A. Dal Corso v.5.1
     Shape of augmentation charge: PSQ
     Using radial grid of 1135 points,  6 beta functions with: 
                l(1) =   0
                l(2) =   0
                l(3) =   1
                l(4) =   1
                l(5) =   2
                l(6) =   2
     Q(r) pseudized with 0 coefficients 


     atomic species   valence    mass     pseudopotential
        Mg             2.00    24.30500     Mg( 1.00)
        Si             4.00    28.08500     Si( 1.00)
        Al             3.00    26.98154     Al( 1.00)

     No symmetry found


                                    s                        frac. trans.

      isym =  1     identity                                     

 cryst.   s( 1) = (     1          0          0      )
                  (     0          1          0      )
                  (     0          0          1      )

 cart.    s( 1) = (  1.0000000  0.0000000  0.0000000 )
                  (  0.0000000  1.0000000  0.0000000 )
                  (  0.0000000  0.0000000  1.0000000 )


   Cartesian axes

     site n.     atom                  positions (alat units)
         1           Mg  tau(   1) = (   0.0013559   0.0000000   0.4413060  )
         2           Mg  tau(   2) = (   0.0728288   0.1322064   0.1344986  )
         3           Mg  tau(   3) = (   0.1501950   0.1322064   0.3599956  )
         4           Mg  tau(   4) = (   0.3331790   0.0000000  -0.0618982  )
         5           Mg  tau(   5) = (   0.4105436   0.0000000   0.1636017  )
         6           Si  tau(   6) = (   0.0568878   0.0000000   0.2726153  )
         7           Si  tau(   7) = (   0.1798280   0.0000000   0.0428482  )
         8           Al  tau(   8) = (   0.2097534   0.0000000   0.2104881  )
         9           Al  tau(   9) = (   0.2736185   0.1322064   0.0876108  )
        10           Si  tau(  10) = (   0.3035462   0.1322064   0.2552497  )
        11           Si  tau(  11) = (   0.4264828   0.1322064   0.0254842  )
        12           Mg  tau(  12) = (   0.4820168   0.1322064   0.3035919  )
        13           Mg  tau(  13) = (   0.5534897   0.0000000  -0.0032155  )
        14           Mg  tau(  14) = (   0.6308559   0.0000000   0.2222815  )
        15           Mg  tau(  15) = (   0.8138398   0.1322064  -0.1996124  )
        16           Mg  tau(  16) = (   0.8912044   0.1322064   0.0258875  )
        17           Si  tau(  17) = (   0.5375486   0.1322064   0.1349011  )
        18           Si  tau(  18) = (   0.6604888   0.1322064  -0.0948660  )
        19           Al  tau(  19) = (   0.6904142   0.1322064   0.0727739  )
        20           Al  tau(  20) = (   0.7542793   0.0000000  -0.0501034  )
        21           Si  tau(  21) = (   0.7842070   0.0000000   0.1175356  )
        22           Si  tau(  22) = (   0.9071436   0.0000000  -0.1122299  )

   Crystallographic axes

     site n.     atom                  positions (cryst. coord.)
         1           Mg  tau(   1) = (  0.0014105  0.0000000  0.9885783  )
         2           Mg  tau(   2) = (  0.0757591  0.5000001  0.3477297  )
         3           Mg  tau(   3) = (  0.1562381  0.5000001  0.9020369  )
         4           Mg  tau(   4) = (  0.3465843  0.0000000  0.0751143  )
         5           Mg  tau(   5) = (  0.4270617  0.0000000  0.6294271  )
         6           Si  tau(   6) = (  0.0591766  0.0000000  0.6466331  )
         7           Si  tau(   7) = (  0.1870633  0.0000000  0.2112157  )
         8           Al  tau(   8) = (  0.2181927  0.0000000  0.6056086  )
         9           Al  tau(   9) = (  0.2846275  0.5000001  0.3715446  )
        10           Si  tau(  10) = (  0.3157592  0.5000001  0.7659367  )
        11           Si  tau(  11) = (  0.4436422  0.5000001  0.3305206  )
        12           Mg  tau(  12) = (  0.5014105  0.5000001  0.9885783  )
        13           Mg  tau(  13) = (  0.5757591  0.0000000  0.3477298  )
        14           Mg  tau(  14) = (  0.6562381  0.0000000  0.9020369  )
        15           Mg  tau(  15) = (  0.8465843  0.5000001  0.0751143  )
        16           Mg  tau(  16) = (  0.9270617  0.5000001  0.6294270  )
        17           Si  tau(  17) = (  0.5591766  0.5000001  0.6466330  )
        18           Si  tau(  18) = (  0.6870633  0.5000001  0.2112157  )
        19           Al  tau(  19) = (  0.7181928  0.5000001  0.6056086  )
        20           Al  tau(  20) = (  0.7846275  0.0000000  0.3715445  )
        21           Si  tau(  21) = (  0.8157592  0.0000000  0.7659367  )
        22           Si  tau(  22) = (  0.9436422  0.0000000  0.3305206  )

     number of k points=   782  Methfessel-Paxton smearing, width (Ry)=  0.0441
                       cart. coord. in units 2pi/alat
        k(    1) = (   0.0000000   0.0000000   0.0000000), wk =   0.0012821
        k(    2) = (   0.0493271   0.0000000   0.1721653), wk =   0.0025641
        k(    3) = (   0.0986542   0.0000000   0.3443307), wk =   0.0025641
        k(    4) = (   0.1479813   0.0000000   0.5164960), wk =   0.0025641
        k(    5) = (   0.1973084   0.0000000   0.6886613), wk =   0.0025641
        k(    6) = (   0.2466355   0.0000000   0.8608267), wk =   0.0025641
        k(    7) = (   0.2959626   0.0000000   1.0329920), wk =   0.0025641
        k(    8) = (   0.0000000   0.1890983   0.0000000), wk =   0.0025641
        k(    9) = (   0.0493271   0.1890983   0.1721653), wk =   0.0025641
        k(   10) = (   0.0986542   0.1890983   0.3443307), wk =   0.0025641
        k(   11) = (   0.1479813   0.1890983   0.5164960), wk =   0.0025641
        k(   12) = (   0.1973084   0.1890983   0.6886613), wk =   0.0025641
        k(   13) = (   0.2466355   0.1890983   0.8608267), wk =   0.0025641
        k(   14) = (   0.2959626   0.1890983   1.0329920), wk =   0.0025641
        k(   15) = (  -0.2959626   0.1890983  -1.0329920), wk =   0.0025641
        k(   16) = (  -0.2466355   0.1890983  -0.8608267), wk =   0.0025641
        k(   17) = (  -0.1973084   0.1890983  -0.6886613), wk =   0.0025641
        k(   18) = (  -0.1479813   0.1890983  -0.5164960), wk =   0.0025641
        k(   19) = (  -0.0986542   0.1890983  -0.3443307), wk =   0.0025641
        k(   20) = (  -0.0493271   0.1890983  -0.1721653), wk =   0.0025641
        k(   21) = (   0.0000000   0.3781967   0.0000000), wk =   0.0025641
        k(   22) = (   0.0493271   0.3781967   0.1721653), wk =   0.0025641
        k(   23) = (   0.0986542   0.3781967   0.3443307), wk =   0.0025641
        k(   24) = (   0.1479813   0.3781967   0.5164960), wk =   0.0025641
        k(   25) = (   0.1973084   0.3781967   0.6886613), wk =   0.0025641
        k(   26) = (   0.2466355   0.3781967   0.8608267), wk =   0.0025641
        k(   27) = (   0.2959626   0.3781967   1.0329920), wk =   0.0025641
        k(   28) = (  -0.2959626   0.3781967  -1.0329920), wk =   0.0025641
        k(   29) = (  -0.2466355   0.3781967  -0.8608267), wk =   0.0025641
        k(   30) = (  -0.1973084   0.3781967  -0.6886613), wk =   0.0025641
        k(   31) = (  -0.1479813   0.3781967  -0.5164960), wk =   0.0025641
        k(   32) = (  -0.0986542   0.3781967  -0.3443307), wk =   0.0025641
        k(   33) = (  -0.0493271   0.3781967  -0.1721653), wk =   0.0025641
        k(   34) = (   0.0000000   0.5672950   0.0000000), wk =   0.0025641
        k(   35) = (   0.0493271   0.5672950   0.1721653), wk =   0.0025641
        k(   36) = (   0.0986542   0.5672950   0.3443307), wk =   0.0025641
        k(   37) = (   0.1479813   0.5672950   0.5164960), wk =   0.0025641
        k(   38) = (   0.1973084   0.5672950   0.6886613), wk =   0.0025641
        k(   39) = (   0.2466355   0.5672950   0.8608267), wk =   0.0025641
        k(   40) = (   0.2959626   0.5672950   1.0329920), wk =   0.0025641
        k(   41) = (  -0.2959626   0.5672950  -1.0329920), wk =   0.0025641
        k(   42) = (  -0.2466355   0.5672950  -0.8608267), wk =   0.0025641
        k(   43) = (  -0.1973084   0.5672950  -0.6886613), wk =   0.0025641
        k(   44) = (  -0.1479813   0.5672950  -0.5164960), wk =   0.0025641
        k(   45) = (  -0.0986542   0.5672950  -0.3443307), wk =   0.0025641
        k(   46) = (  -0.0493271   0.5672950  -0.1721653), wk =   0.0025641
        k(   47) = (   0.0000000   0.7563934   0.0000000), wk =   0.0025641
        k(   48) = (   0.0493271   0.7563934   0.1721653), wk =   0.0025641
        k(   49) = (   0.0986542   0.7563934   0.3443307), wk =   0.0025641
        k(   50) = (   0.1479813   0.7563934   0.5164960), wk =   0.0025641
        k(   51) = (   0.1973084   0.7563934   0.6886613), wk =   0.0025641
        k(   52) = (   0.2466355   0.7563934   0.8608267), wk =   0.0025641
        k(   53) = (   0.2959626   0.7563934   1.0329920), wk =   0.0025641
        k(   54) = (  -0.2959626   0.7563934  -1.0329920), wk =   0.0025641
        k(   55) = (  -0.2466355   0.7563934  -0.8608267), wk =   0.0025641
        k(   56) = (  -0.1973084   0.7563934  -0.6886613), wk =   0.0025641
        k(   57) = (  -0.1479813   0.7563934  -0.5164960), wk =   0.0025641
        k(   58) = (  -0.0986542   0.7563934  -0.3443307), wk =   0.0025641
        k(   59) = (  -0.0493271   0.7563934  -0.1721653), wk =   0.0025641
        k(   60) = (   0.0000000   0.9454917   0.0000000), wk =   0.0025641
        k(   61) = (   0.0493271   0.9454917   0.1721653), wk =   0.0025641
        k(   62) = (   0.0986542   0.9454917   0.3443307), wk =   0.0025641
        k(   63) = (   0.1479813   0.9454917   0.5164960), wk =   0.0025641
        k(   64) = (   0.1973084   0.9454917   0.6886613), wk =   0.0025641
        k(   65) = (   0.2466355   0.9454917   0.8608267), wk =   0.0025641
        k(   66) = (   0.2959626   0.9454917   1.0329920), wk =   0.0025641
        k(   67) = (  -0.2959626   0.9454917  -1.0329920), wk =   0.0025641
        k(   68) = (  -0.2466355   0.9454917  -0.8608267), wk =   0.0025641
        k(   69) = (  -0.1973084   0.9454917  -0.6886613), wk =   0.0025641
        k(   70) = (  -0.1479813   0.9454917  -0.5164960), wk =   0.0025641
        k(   71) = (  -0.0986542   0.9454917  -0.3443307), wk =   0.0025641
        k(   72) = (  -0.0493271   0.9454917  -0.1721653), wk =   0.0025641
        k(   73) = (   0.0000000   1.1345900   0.0000000), wk =   0.0025641
        k(   74) = (   0.0493271   1.1345900   0.1721653), wk =   0.0025641
        k(   75) = (   0.0986542   1.1345900   0.3443307), wk =   0.0025641
        k(   76) = (   0.1479813   1.1345900   0.5164960), wk =   0.0025641
        k(   77) = (   0.1973084   1.1345900   0.6886613), wk =   0.0025641
        k(   78) = (   0.2466355   1.1345900   0.8608267), wk =   0.0025641
        k(   79) = (   0.2959626   1.1345900   1.0329920), wk =   0.0025641
        k(   80) = (  -0.2959626   1.1345900  -1.0329920), wk =   0.0025641
        k(   81) = (  -0.2466355   1.1345900  -0.8608267), wk =   0.0025641
        k(   82) = (  -0.1973084   1.1345900  -0.6886613), wk =   0.0025641
        k(   83) = (  -0.1479813   1.1345900  -0.5164960), wk =   0.0025641
        k(   84) = (  -0.0986542   1.1345900  -0.3443307), wk =   0.0025641
        k(   85) = (  -0.0493271   1.1345900  -0.1721653), wk =   0.0025641
        k(   86) = (   0.0000000   1.3236884   0.0000000), wk =   0.0025641
        k(   87) = (   0.0493271   1.3236884   0.1721653), wk =   0.0025641
        k(   88) = (   0.0986542   1.3236884   0.3443307), wk =   0.0025641
        k(   89) = (   0.1479813   1.3236884   0.5164960), wk =   0.0025641
        k(   90) = (   0.1973084   1.3236884   0.6886613), wk =   0.0025641
        k(   91) = (   0.2466355   1.3236884   0.8608267), wk =   0.0025641
        k(   92) = (   0.2959626   1.3236884   1.0329920), wk =   0.0025641
        k(   93) = (  -0.2959626   1.3236884  -1.0329920), wk =   0.0025641
        k(   94) = (  -0.2466355   1.3236884  -0.8608267), wk =   0.0025641
        k(   95) = (  -0.1973084   1.3236884  -0.6886613), wk =   0.0025641
        k(   96) = (  -0.1479813   1.3236884  -0.5164960), wk =   0.0025641
        k(   97) = (  -0.0986542   1.3236884  -0.3443307), wk =   0.0025641
        k(   98) = (  -0.0493271   1.3236884  -0.1721653), wk =   0.0025641
        k(   99) = (   0.0000000   1.5127867   0.0000000), wk =   0.0025641
        k(  100) = (   0.0493271   1.5127867   0.1721653), wk =   0.0025641
        k(  101) = (   0.0986542   1.5127867   0.3443307), wk =   0.0025641
        k(  102) = (   0.1479813   1.5127867   0.5164960), wk =   0.0025641
        k(  103) = (   0.1973084   1.5127867   0.6886613), wk =   0.0025641
        k(  104) = (   0.2466355   1.5127867   0.8608267), wk =   0.0025641
        k(  105) = (   0.2959626   1.5127867   1.0329920), wk =   0.0025641
        k(  106) = (  -0.2959626   1.5127867  -1.0329920), wk =   0.0025641
        k(  107) = (  -0.2466355   1.5127867  -0.8608267), wk =   0.0025641
        k(  108) = (  -0.1973084   1.5127867  -0.6886613), wk =   0.0025641
        k(  109) = (  -0.1479813   1.5127867  -0.5164960), wk =   0.0025641
        k(  110) = (  -0.0986542   1.5127867  -0.3443307), wk =   0.0025641
        k(  111) = (  -0.0493271   1.5127867  -0.1721653), wk =   0.0025641
        k(  112) = (   0.0000000   1.7018850   0.0000000), wk =   0.0025641
        k(  113) = (   0.0493271   1.7018850   0.1721653), wk =   0.0025641
        k(  114) = (   0.0986542   1.7018850   0.3443307), wk =   0.0025641
        k(  115) = (   0.1479813   1.7018850   0.5164960), wk =   0.0025641
        k(  116) = (   0.1973084   1.7018850   0.6886613), wk =   0.0025641
        k(  117) = (   0.2466355   1.7018850   0.8608267), wk =   0.0025641
        k(  118) = (   0.2959626   1.7018850   1.0329920), wk =   0.0025641
        k(  119) = (  -0.2959626   1.7018850  -1.0329920), wk =   0.0025641
        k(  120) = (  -0.2466355   1.7018850  -0.8608267), wk =   0.0025641
        k(  121) = (  -0.1973084   1.7018850  -0.6886613), wk =   0.0025641
        k(  122) = (  -0.1479813   1.7018850  -0.5164960), wk =   0.0025641
        k(  123) = (  -0.0986542   1.7018850  -0.3443307), wk =   0.0025641
        k(  124) = (  -0.0493271   1.7018850  -0.1721653), wk =   0.0025641
        k(  125) = (   0.0000000  -1.8909834   0.0000000), wk =   0.0012821
        k(  126) = (   0.0493271  -1.8909834   0.1721653), wk =   0.0025641
        k(  127) = (   0.0986542  -1.8909834   0.3443307), wk =   0.0025641
        k(  128) = (   0.1479813  -1.8909834   0.5164960), wk =   0.0025641
        k(  129) = (   0.1973084  -1.8909834   0.6886613), wk =   0.0025641
        k(  130) = (   0.2466355  -1.8909834   0.8608267), wk =   0.0025641
        k(  131) = (   0.2959626  -1.8909834   1.0329920), wk =   0.0025641
        k(  132) = (   0.1733724   0.0000000   0.0000000), wk =   0.0025641
        k(  133) = (   0.2226995   0.0000000   0.1721653), wk =   0.0025641
        k(  134) = (   0.2720266   0.0000000   0.3443307), wk =   0.0025641
        k(  135) = (   0.3213537   0.0000000   0.5164960), wk =   0.0025641
        k(  136) = (   0.3706808   0.0000000   0.6886613), wk =   0.0025641
        k(  137) = (   0.4200079   0.0000000   0.8608267), wk =   0.0025641
        k(  138) = (   0.4693350   0.0000000   1.0329920), wk =   0.0025641
        k(  139) = (  -0.1225901   0.0000000  -1.0329920), wk =   0.0025641
        k(  140) = (  -0.0732630   0.0000000  -0.8608267), wk =   0.0025641
        k(  141) = (  -0.0239359   0.0000000  -0.6886613), wk =   0.0025641
        k(  142) = (   0.0253911   0.0000000  -0.5164960), wk =   0.0025641
        k(  143) = (   0.0747182   0.0000000  -0.3443307), wk =   0.0025641
        k(  144) = (   0.1240453   0.0000000  -0.1721653), wk =   0.0025641
        k(  145) = (   0.1733724   0.1890983   0.0000000), wk =   0.0025641
        k(  146) = (   0.2226995   0.1890983   0.1721653), wk =   0.0025641
        k(  147) = (   0.2720266   0.1890983   0.3443307), wk =   0.0025641
        k(  148) = (   0.3213537   0.1890983   0.5164960), wk =   0.0025641
        k(  149) = (   0.3706808   0.1890983   0.6886613), wk =   0.0025641
        k(  150) = (   0.4200079   0.1890983   0.8608267), wk =   0.0025641
        k(  151) = (   0.4693350   0.1890983   1.0329920), wk =   0.0025641
        k(  152) = (  -0.1225901   0.1890983  -1.0329920), wk =   0.0025641
        k(  153) = (  -0.0732630   0.1890983  -0.8608267), wk =   0.0025641
        k(  154) = (  -0.0239359   0.1890983  -0.6886613), wk =   0.0025641
        k(  155) = (   0.0253911   0.1890983  -0.5164960), wk =   0.0025641
        k(  156) = (   0.0747182   0.1890983  -0.3443307), wk =   0.0025641
        k(  157) = (   0.1240453   0.1890983  -0.1721653), wk =   0.0025641
        k(  158) = (   0.1733724   0.3781967   0.0000000), wk =   0.0025641
        k(  159) = (   0.2226995   0.3781967   0.1721653), wk =   0.0025641
        k(  160) = (   0.2720266   0.3781967   0.3443307), wk =   0.0025641
        k(  161) = (   0.3213537   0.3781967   0.5164960), wk =   0.0025641
        k(  162) = (   0.3706808   0.3781967   0.6886613), wk =   0.0025641
        k(  163) = (   0.4200079   0.3781967   0.8608267), wk =   0.0025641
        k(  164) = (   0.4693350   0.3781967   1.0329920), wk =   0.0025641
        k(  165) = (  -0.1225901   0.3781967  -1.0329920), wk =   0.0025641
        k(  166) = (  -0.0732630   0.3781967  -0.8608267), wk =   0.0025641
        k(  167) = (  -0.0239359   0.3781967  -0.6886613), wk =   0.0025641
        k(  168) = (   0.0253911   0.3781967  -0.5164960), wk =   0.0025641
        k(  169) = (   0.0747182   0.3781967  -0.3443307), wk =   0.0025641
        k(  170) = (   0.1240453   0.3781967  -0.1721653), wk =   0.0025641
        k(  171) = (   0.1733724   0.5672950   0.0000000), wk =   0.0025641
        k(  172) = (   0.2226995   0.5672950   0.1721653), wk =   0.0025641
        k(  173) = (   0.2720266   0.5672950   0.3443307), wk =   0.0025641
        k(  174) = (   0.3213537   0.5672950   0.5164960), wk =   0.0025641
        k(  175) = (   0.3706808   0.5672950   0.6886613), wk =   0.0025641
        k(  176) = (   0.4200079   0.5672950   0.8608267), wk =   0.0025641
        k(  177) = (   0.4693350   0.5672950   1.0329920), wk =   0.0025641
        k(  178) = (  -0.1225901   0.5672950  -1.0329920), wk =   0.0025641
        k(  179) = (  -0.0732630   0.5672950  -0.8608267), wk =   0.0025641
        k(  180) = (  -0.0239359   0.5672950  -0.6886613), wk =   0.0025641
        k(  181) = (   0.0253911   0.5672950  -0.5164960), wk =   0.0025641
        k(  182) = (   0.0747182   0.5672950  -0.3443307), wk =   0.0025641
        k(  183) = (   0.1240453   0.5672950  -0.1721653), wk =   0.0025641
        k(  184) = (   0.1733724   0.7563934   0.0000000), wk =   0.0025641
        k(  185) = (   0.2226995   0.7563934   0.1721653), wk =   0.0025641
        k(  186) = (   0.2720266   0.7563934   0.3443307), wk =   0.0025641
        k(  187) = (   0.3213537   0.7563934   0.5164960), wk =   0.0025641
        k(  188) = (   0.3706808   0.7563934   0.6886613), wk =   0.0025641
        k(  189) = (   0.4200079   0.7563934   0.8608267), wk =   0.0025641
        k(  190) = (   0.4693350   0.7563934   1.0329920), wk =   0.0025641
        k(  191) = (  -0.1225901   0.7563934  -1.0329920), wk =   0.0025641
        k(  192) = (  -0.0732630   0.7563934  -0.8608267), wk =   0.0025641
        k(  193) = (  -0.0239359   0.7563934  -0.6886613), wk =   0.0025641
        k(  194) = (   0.0253911   0.7563934  -0.5164960), wk =   0.0025641
        k(  195) = (   0.0747182   0.7563934  -0.3443307), wk =   0.0025641
        k(  196) = (   0.1240453   0.7563934  -0.1721653), wk =   0.0025641
        k(  197) = (   0.1733724   0.9454917   0.0000000), wk =   0.0025641
        k(  198) = (   0.2226995   0.9454917   0.1721653), wk =   0.0025641
        k(  199) = (   0.2720266   0.9454917   0.3443307), wk =   0.0025641
        k(  200) = (   0.3213537   0.9454917   0.5164960), wk =   0.0025641
        k(  201) = (   0.3706808   0.9454917   0.6886613), wk =   0.0025641
        k(  202) = (   0.4200079   0.9454917   0.8608267), wk =   0.0025641
        k(  203) = (   0.4693350   0.9454917   1.0329920), wk =   0.0025641
        k(  204) = (  -0.1225901   0.9454917  -1.0329920), wk =   0.0025641
        k(  205) = (  -0.0732630   0.9454917  -0.8608267), wk =   0.0025641
        k(  206) = (  -0.0239359   0.9454917  -0.6886613), wk =   0.0025641
        k(  207) = (   0.0253911   0.9454917  -0.5164960), wk =   0.0025641
        k(  208) = (   0.0747182   0.9454917  -0.3443307), wk =   0.0025641
        k(  209) = (   0.1240453   0.9454917  -0.1721653), wk =   0.0025641
        k(  210) = (   0.1733724   1.1345900   0.0000000), wk =   0.0025641
        k(  211) = (   0.2226995   1.1345900   0.1721653), wk =   0.0025641
        k(  212) = (   0.2720266   1.1345900   0.3443307), wk =   0.0025641
        k(  213) = (   0.3213537   1.1345900   0.5164960), wk =   0.0025641
        k(  214) = (   0.3706808   1.1345900   0.6886613), wk =   0.0025641
        k(  215) = (   0.4200079   1.1345900   0.8608267), wk =   0.0025641
        k(  216) = (   0.4693350   1.1345900   1.0329920), wk =   0.0025641
        k(  217) = (  -0.1225901   1.1345900  -1.0329920), wk =   0.0025641
        k(  218) = (  -0.0732630   1.1345900  -0.8608267), wk =   0.0025641
        k(  219) = (  -0.0239359   1.1345900  -0.6886613), wk =   0.0025641
        k(  220) = (   0.0253911   1.1345900  -0.5164960), wk =   0.0025641
        k(  221) = (   0.0747182   1.1345900  -0.3443307), wk =   0.0025641
        k(  222) = (   0.1240453   1.1345900  -0.1721653), wk =   0.0025641
        k(  223) = (   0.1733724   1.3236884   0.0000000), wk =   0.0025641
        k(  224) = (   0.2226995   1.3236884   0.1721653), wk =   0.0025641
        k(  225) = (   0.2720266   1.3236884   0.3443307), wk =   0.0025641
        k(  226) = (   0.3213537   1.3236884   0.5164960), wk =   0.0025641
        k(  227) = (   0.3706808   1.3236884   0.6886613), wk =   0.0025641
        k(  228) = (   0.4200079   1.3236884   0.8608267), wk =   0.0025641
        k(  229) = (   0.4693350   1.3236884   1.0329920), wk =   0.0025641
        k(  230) = (  -0.1225901   1.3236884  -1.0329920), wk =   0.0025641
        k(  231) = (  -0.0732630   1.3236884  -0.8608267), wk =   0.0025641
        k(  232) = (  -0.0239359   1.3236884  -0.6886613), wk =   0.0025641
        k(  233) = (   0.0253911   1.3236884  -0.5164960), wk =   0.0025641
        k(  234) = (   0.0747182   1.3236884  -0.3443307), wk =   0.0025641
        k(  235) = (   0.1240453   1.3236884  -0.1721653), wk =   0.0025641
        k(  236) = (   0.1733724   1.5127867   0.0000000), wk =   0.0025641
        k(  237) = (   0.2226995   1.5127867   0.1721653), wk =   0.0025641
        k(  238) = (   0.2720266   1.5127867   0.3443307), wk =   0.0025641
        k(  239) = (   0.3213537   1.5127867   0.5164960), wk =   0.0025641
        k(  240) = (   0.3706808   1.5127867   0.6886613), wk =   0.0025641
        k(  241) = (   0.4200079   1.5127867   0.8608267), wk =   0.0025641
        k(  242) = (   0.4693350   1.5127867   1.0329920), wk =   0.0025641
        k(  243) = (  -0.1225901   1.5127867  -1.0329920), wk =   0.0025641
        k(  244) = (  -0.0732630   1.5127867  -0.8608267), wk =   0.0025641
        k(  245) = (  -0.0239359   1.5127867  -0.6886613), wk =   0.0025641
        k(  246) = (   0.0253911   1.5127867  -0.5164960), wk =   0.0025641
        k(  247) = (   0.0747182   1.5127867  -0.3443307), wk =   0.0025641
        k(  248) = (   0.1240453   1.5127867  -0.1721653), wk =   0.0025641
        k(  249) = (   0.1733724   1.7018850   0.0000000), wk =   0.0025641
        k(  250) = (   0.2226995   1.7018850   0.1721653), wk =   0.0025641
        k(  251) = (   0.2720266   1.7018850   0.3443307), wk =   0.0025641
        k(  252) = (   0.3213537   1.7018850   0.5164960), wk =   0.0025641
        k(  253) = (   0.3706808   1.7018850   0.6886613), wk =   0.0025641
        k(  254) = (   0.4200079   1.7018850   0.8608267), wk =   0.0025641
        k(  255) = (   0.4693350   1.7018850   1.0329920), wk =   0.0025641
        k(  256) = (  -0.1225901   1.7018850  -1.0329920), wk =   0.0025641
        k(  257) = (  -0.0732630   1.7018850  -0.8608267), wk =   0.0025641
        k(  258) = (  -0.0239359   1.7018850  -0.6886613), wk =   0.0025641
        k(  259) = (   0.0253911   1.7018850  -0.5164960), wk =   0.0025641
        k(  260) = (   0.0747182   1.7018850  -0.3443307), wk =   0.0025641
        k(  261) = (   0.1240453   1.7018850  -0.1721653), wk =   0.0025641
        k(  262) = (   0.1733724  -1.8909834   0.0000000), wk =   0.0025641
        k(  263) = (   0.2226995  -1.8909834   0.1721653), wk =   0.0025641
        k(  264) = (   0.2720266  -1.8909834   0.3443307), wk =   0.0025641
        k(  265) = (   0.3213537  -1.8909834   0.5164960), wk =   0.0025641
        k(  266) = (   0.3706808  -1.8909834   0.6886613), wk =   0.0025641
        k(  267) = (   0.4200079  -1.8909834   0.8608267), wk =   0.0025641
        k(  268) = (   0.4693350  -1.8909834   1.0329920), wk =   0.0025641
        k(  269) = (  -0.1225901  -1.8909834  -1.0329920), wk =   0.0025641
        k(  270) = (  -0.0732630  -1.8909834  -0.8608267), wk =   0.0025641
        k(  271) = (  -0.0239359  -1.8909834  -0.6886613), wk =   0.0025641
        k(  272) = (   0.0253911  -1.8909834  -0.5164960), wk =   0.0025641
        k(  273) = (   0.0747182  -1.8909834  -0.3443307), wk =   0.0025641
        k(  274) = (   0.1240453  -1.8909834  -0.1721653), wk =   0.0025641
        k(  275) = (   0.1733724  -1.7018850   0.0000000), wk =   0.0025641
        k(  276) = (   0.2226995  -1.7018850   0.1721653), wk =   0.0025641
        k(  277) = (   0.2720266  -1.7018850   0.3443307), wk =   0.0025641
        k(  278) = (   0.3213537  -1.7018850   0.5164960), wk =   0.0025641
        k(  279) = (   0.3706808  -1.7018850   0.6886613), wk =   0.0025641
        k(  280) = (   0.4200079  -1.7018850   0.8608267), wk =   0.0025641
        k(  281) = (   0.4693350  -1.7018850   1.0329920), wk =   0.0025641
        k(  282) = (  -0.1225901  -1.7018850  -1.0329920), wk =   0.0025641
        k(  283) = (  -0.0732630  -1.7018850  -0.8608267), wk =   0.0025641
        k(  284) = (  -0.0239359  -1.7018850  -0.6886613), wk =   0.0025641
        k(  285) = (   0.0253911  -1.7018850  -0.5164960), wk =   0.0025641
        k(  286) = (   0.0747182  -1.7018850  -0.3443307), wk =   0.0025641
        k(  287) = (   0.1240453  -1.7018850  -0.1721653), wk =   0.0025641
        k(  288) = (   0.1733724  -1.5127867   0.0000000), wk =   0.0025641
        k(  289) = (   0.2226995  -1.5127867   0.1721653), wk =   0.0025641
        k(  290) = (   0.2720266  -1.5127867   0.3443307), wk =   0.0025641
        k(  291) = (   0.3213537  -1.5127867   0.5164960), wk =   0.0025641
        k(  292) = (   0.3706808  -1.5127867   0.6886613), wk =   0.0025641
        k(  293) = (   0.4200079  -1.5127867   0.8608267), wk =   0.0025641
        k(  294) = (   0.4693350  -1.5127867   1.0329920), wk =   0.0025641
        k(  295) = (  -0.1225901  -1.5127867  -1.0329920), wk =   0.0025641
        k(  296) = (  -0.0732630  -1.5127867  -0.8608267), wk =   0.0025641
        k(  297) = (  -0.0239359  -1.5127867  -0.6886613), wk =   0.0025641
        k(  298) = (   0.0253911  -1.5127867  -0.5164960), wk =   0.0025641
        k(  299) = (   0.0747182  -1.5127867  -0.3443307), wk =   0.0025641
        k(  300) = (   0.1240453  -1.5127867  -0.1721653), wk =   0.0025641
        k(  301) = (   0.1733724  -1.3236884   0.0000000), wk =   0.0025641
        k(  302) = (   0.2226995  -1.3236884   0.1721653), wk =   0.0025641
        k(  303) = (   0.2720266  -1.3236884   0.3443307), wk =   0.0025641
        k(  304) = (   0.3213537  -1.3236884   0.5164960), wk =   0.0025641
        k(  305) = (   0.3706808  -1.3236884   0.6886613), wk =   0.0025641
        k(  306) = (   0.4200079  -1.3236884   0.8608267), wk =   0.0025641
        k(  307) = (   0.4693350  -1.3236884   1.0329920), wk =   0.0025641
        k(  308) = (  -0.1225901  -1.3236884  -1.0329920), wk =   0.0025641
        k(  309) = (  -0.0732630  -1.3236884  -0.8608267), wk =   0.0025641
        k(  310) = (  -0.0239359  -1.3236884  -0.6886613), wk =   0.0025641
        k(  311) = (   0.0253911  -1.3236884  -0.5164960), wk =   0.0025641
        k(  312) = (   0.0747182  -1.3236884  -0.3443307), wk =   0.0025641
        k(  313) = (   0.1240453  -1.3236884  -0.1721653), wk =   0.0025641
        k(  314) = (   0.1733724  -1.1345900   0.0000000), wk =   0.0025641
        k(  315) = (   0.2226995  -1.1345900   0.1721653), wk =   0.0025641
        k(  316) = (   0.2720266  -1.1345900   0.3443307), wk =   0.0025641
        k(  317) = (   0.3213537  -1.1345900   0.5164960), wk =   0.0025641
        k(  318) = (   0.3706808  -1.1345900   0.6886613), wk =   0.0025641
        k(  319) = (   0.4200079  -1.1345900   0.8608267), wk =   0.0025641
        k(  320) = (   0.4693350  -1.1345900   1.0329920), wk =   0.0025641
        k(  321) = (  -0.1225901  -1.1345900  -1.0329920), wk =   0.0025641
        k(  322) = (  -0.0732630  -1.1345900  -0.8608267), wk =   0.0025641
        k(  323) = (  -0.0239359  -1.1345900  -0.6886613), wk =   0.0025641
        k(  324) = (   0.0253911  -1.1345900  -0.5164960), wk =   0.0025641
        k(  325) = (   0.0747182  -1.1345900  -0.3443307), wk =   0.0025641
        k(  326) = (   0.1240453  -1.1345900  -0.1721653), wk =   0.0025641
        k(  327) = (   0.1733724  -0.9454917   0.0000000), wk =   0.0025641
        k(  328) = (   0.2226995  -0.9454917   0.1721653), wk =   0.0025641
        k(  329) = (   0.2720266  -0.9454917   0.3443307), wk =   0.0025641
        k(  330) = (   0.3213537  -0.9454917   0.5164960), wk =   0.0025641
        k(  331) = (   0.3706808  -0.9454917   0.6886613), wk =   0.0025641
        k(  332) = (   0.4200079  -0.9454917   0.8608267), wk =   0.0025641
        k(  333) = (   0.4693350  -0.9454917   1.0329920), wk =   0.0025641
        k(  334) = (  -0.1225901  -0.9454917  -1.0329920), wk =   0.0025641
        k(  335) = (  -0.0732630  -0.9454917  -0.8608267), wk =   0.0025641
        k(  336) = (  -0.0239359  -0.9454917  -0.6886613), wk =   0.0025641
        k(  337) = (   0.0253911  -0.9454917  -0.5164960), wk =   0.0025641
        k(  338) = (   0.0747182  -0.9454917  -0.3443307), wk =   0.0025641
        k(  339) = (   0.1240453  -0.9454917  -0.1721653), wk =   0.0025641
        k(  340) = (   0.1733724  -0.7563934   0.0000000), wk =   0.0025641
        k(  341) = (   0.2226995  -0.7563934   0.1721653), wk =   0.0025641
        k(  342) = (   0.2720266  -0.7563934   0.3443307), wk =   0.0025641
        k(  343) = (   0.3213537  -0.7563934   0.5164960), wk =   0.0025641
        k(  344) = (   0.3706808  -0.7563934   0.6886613), wk =   0.0025641
        k(  345) = (   0.4200079  -0.7563934   0.8608267), wk =   0.0025641
        k(  346) = (   0.4693350  -0.7563934   1.0329920), wk =   0.0025641
        k(  347) = (  -0.1225901  -0.7563934  -1.0329920), wk =   0.0025641
        k(  348) = (  -0.0732630  -0.7563934  -0.8608267), wk =   0.0025641
        k(  349) = (  -0.0239359  -0.7563934  -0.6886613), wk =   0.0025641
        k(  350) = (   0.0253911  -0.7563934  -0.5164960), wk =   0.0025641
        k(  351) = (   0.0747182  -0.7563934  -0.3443307), wk =   0.0025641
        k(  352) = (   0.1240453  -0.7563934  -0.1721653), wk =   0.0025641
        k(  353) = (   0.1733724  -0.5672950   0.0000000), wk =   0.0025641
        k(  354) = (   0.2226995  -0.5672950   0.1721653), wk =   0.0025641
        k(  355) = (   0.2720266  -0.5672950   0.3443307), wk =   0.0025641
        k(  356) = (   0.3213537  -0.5672950   0.5164960), wk =   0.0025641
        k(  357) = (   0.3706808  -0.5672950   0.6886613), wk =   0.0025641
        k(  358) = (   0.4200079  -0.5672950   0.8608267), wk =   0.0025641
        k(  359) = (   0.4693350  -0.5672950   1.0329920), wk =   0.0025641
        k(  360) = (  -0.1225901  -0.5672950  -1.0329920), wk =   0.0025641
        k(  361) = (  -0.0732630  -0.5672950  -0.8608267), wk =   0.0025641
        k(  362) = (  -0.0239359  -0.5672950  -0.6886613), wk =   0.0025641
        k(  363) = (   0.0253911  -0.5672950  -0.5164960), wk =   0.0025641
        k(  364) = (   0.0747182  -0.5672950  -0.3443307), wk =   0.0025641
        k(  365) = (   0.1240453  -0.5672950  -0.1721653), wk =   0.0025641
        k(  366) = (   0.1733724  -0.3781967   0.0000000), wk =   0.0025641
        k(  367) = (   0.2226995  -0.3781967   0.1721653), wk =   0.0025641
        k(  368) = (   0.2720266  -0.3781967   0.3443307), wk =   0.0025641
        k(  369) = (   0.3213537  -0.3781967   0.5164960), wk =   0.0025641
        k(  370) = (   0.3706808  -0.3781967   0.6886613), wk =   0.0025641
        k(  371) = (   0.4200079  -0.3781967   0.8608267), wk =   0.0025641
        k(  372) = (   0.4693350  -0.3781967   1.0329920), wk =   0.0025641
        k(  373) = (  -0.1225901  -0.3781967  -1.0329920), wk =   0.0025641
        k(  374) = (  -0.0732630  -0.3781967  -0.8608267), wk =   0.0025641
        k(  375) = (  -0.0239359  -0.3781967  -0.6886613), wk =   0.0025641
        k(  376) = (   0.0253911  -0.3781967  -0.5164960), wk =   0.0025641
        k(  377) = (   0.0747182  -0.3781967  -0.3443307), wk =   0.0025641
        k(  378) = (   0.1240453  -0.3781967  -0.1721653), wk =   0.0025641
        k(  379) = (   0.1733724  -0.1890983   0.0000000), wk =   0.0025641
        k(  380) = (   0.2226995  -0.1890983   0.1721653), wk =   0.0025641
        k(  381) = (   0.2720266  -0.1890983   0.3443307), wk =   0.0025641
        k(  382) = (   0.3213537  -0.1890983   0.5164960), wk =   0.0025641
        k(  383) = (   0.3706808  -0.1890983   0.6886613), wk =   0.0025641
        k(  384) = (   0.4200079  -0.1890983   0.8608267), wk =   0.0025641
        k(  385) = (   0.4693350  -0.1890983   1.0329920), wk =   0.0025641
        k(  386) = (  -0.1225901  -0.1890983  -1.0329920), wk =   0.0025641
        k(  387) = (  -0.0732630  -0.1890983  -0.8608267), wk =   0.0025641
        k(  388) = (  -0.0239359  -0.1890983  -0.6886613), wk =   0.0025641
        k(  389) = (   0.0253911  -0.1890983  -0.5164960), wk =   0.0025641
        k(  390) = (   0.0747182  -0.1890983  -0.3443307), wk =   0.0025641
        k(  391) = (   0.1240453  -0.1890983  -0.1721653), wk =   0.0025641
        k(  392) = (   0.3467449   0.0000000   0.0000000), wk =   0.0025641
        k(  393) = (   0.3960720   0.0000000   0.1721653), wk =   0.0025641
        k(  394) = (   0.4453990   0.0000000   0.3443307), wk =   0.0025641
        k(  395) = (   0.4947261   0.0000000   0.5164960), wk =   0.0025641
        k(  396) = (   0.5440532   0.0000000   0.6886613), wk =   0.0025641
        k(  397) = (   0.5933803   0.0000000   0.8608267), wk =   0.0025641
        k(  398) = (   0.6427074   0.0000000   1.0329920), wk =   0.0025641
        k(  399) = (   0.0507823   0.0000000  -1.0329920), wk =   0.0025641
        k(  400) = (   0.1001094   0.0000000  -0.8608267), wk =   0.0025641
        k(  401) = (   0.1494365   0.0000000  -0.6886613), wk =   0.0025641
        k(  402) = (   0.1987636   0.0000000  -0.5164960), wk =   0.0025641
        k(  403) = (   0.2480907   0.0000000  -0.3443307), wk =   0.0025641
        k(  404) = (   0.2974178   0.0000000  -0.1721653), wk =   0.0025641
        k(  405) = (   0.3467449   0.1890983   0.0000000), wk =   0.0025641
        k(  406) = (   0.3960720   0.1890983   0.1721653), wk =   0.0025641
        k(  407) = (   0.4453990   0.1890983   0.3443307), wk =   0.0025641
        k(  408) = (   0.4947261   0.1890983   0.5164960), wk =   0.0025641
        k(  409) = (   0.5440532   0.1890983   0.6886613), wk =   0.0025641
        k(  410) = (   0.5933803   0.1890983   0.8608267), wk =   0.0025641
        k(  411) = (   0.6427074   0.1890983   1.0329920), wk =   0.0025641
        k(  412) = (   0.0507823   0.1890983  -1.0329920), wk =   0.0025641
        k(  413) = (   0.1001094   0.1890983  -0.8608267), wk =   0.0025641
        k(  414) = (   0.1494365   0.1890983  -0.6886613), wk =   0.0025641
        k(  415) = (   0.1987636   0.1890983  -0.5164960), wk =   0.0025641
        k(  416) = (   0.2480907   0.1890983  -0.3443307), wk =   0.0025641
        k(  417) = (   0.2974178   0.1890983  -0.1721653), wk =   0.0025641
        k(  418) = (   0.3467449   0.3781967   0.0000000), wk =   0.0025641
        k(  419) = (   0.3960720   0.3781967   0.1721653), wk =   0.0025641
        k(  420) = (   0.4453990   0.3781967   0.3443307), wk =   0.0025641
        k(  421) = (   0.4947261   0.3781967   0.5164960), wk =   0.0025641
        k(  422) = (   0.5440532   0.3781967   0.6886613), wk =   0.0025641
        k(  423) = (   0.5933803   0.3781967   0.8608267), wk =   0.0025641
        k(  424) = (   0.6427074   0.3781967   1.0329920), wk =   0.0025641
        k(  425) = (   0.0507823   0.3781967  -1.0329920), wk =   0.0025641
        k(  426) = (   0.1001094   0.3781967  -0.8608267), wk =   0.0025641
        k(  427) = (   0.1494365   0.3781967  -0.6886613), wk =   0.0025641
        k(  428) = (   0.1987636   0.3781967  -0.5164960), wk =   0.0025641
        k(  429) = (   0.2480907   0.3781967  -0.3443307), wk =   0.0025641
        k(  430) = (   0.2974178   0.3781967  -0.1721653), wk =   0.0025641
        k(  431) = (   0.3467449   0.5672950   0.0000000), wk =   0.0025641
        k(  432) = (   0.3960720   0.5672950   0.1721653), wk =   0.0025641
        k(  433) = (   0.4453990   0.5672950   0.3443307), wk =   0.0025641
        k(  434) = (   0.4947261   0.5672950   0.5164960), wk =   0.0025641
        k(  435) = (   0.5440532   0.5672950   0.6886613), wk =   0.0025641
        k(  436) = (   0.5933803   0.5672950   0.8608267), wk =   0.0025641
        k(  437) = (   0.6427074   0.5672950   1.0329920), wk =   0.0025641
        k(  438) = (   0.0507823   0.5672950  -1.0329920), wk =   0.0025641
        k(  439) = (   0.1001094   0.5672950  -0.8608267), wk =   0.0025641
        k(  440) = (   0.1494365   0.5672950  -0.6886613), wk =   0.0025641
        k(  441) = (   0.1987636   0.5672950  -0.5164960), wk =   0.0025641
        k(  442) = (   0.2480907   0.5672950  -0.3443307), wk =   0.0025641
        k(  443) = (   0.2974178   0.5672950  -0.1721653), wk =   0.0025641
        k(  444) = (   0.3467449   0.7563934   0.0000000), wk =   0.0025641
        k(  445) = (   0.3960720   0.7563934   0.1721653), wk =   0.0025641
        k(  446) = (   0.4453990   0.7563934   0.3443307), wk =   0.0025641
        k(  447) = (   0.4947261   0.7563934   0.5164960), wk =   0.0025641
        k(  448) = (   0.5440532   0.7563934   0.6886613), wk =   0.0025641
        k(  449) = (   0.5933803   0.7563934   0.8608267), wk =   0.0025641
        k(  450) = (   0.6427074   0.7563934   1.0329920), wk =   0.0025641
        k(  451) = (   0.0507823   0.7563934  -1.0329920), wk =   0.0025641
        k(  452) = (   0.1001094   0.7563934  -0.8608267), wk =   0.0025641
        k(  453) = (   0.1494365   0.7563934  -0.6886613), wk =   0.0025641
        k(  454) = (   0.1987636   0.7563934  -0.5164960), wk =   0.0025641
        k(  455) = (   0.2480907   0.7563934  -0.3443307), wk =   0.0025641
        k(  456) = (   0.2974178   0.7563934  -0.1721653), wk =   0.0025641
        k(  457) = (   0.3467449   0.9454917   0.0000000), wk =   0.0025641
        k(  458) = (   0.3960720   0.9454917   0.1721653), wk =   0.0025641
        k(  459) = (   0.4453990   0.9454917   0.3443307), wk =   0.0025641
        k(  460) = (   0.4947261   0.9454917   0.5164960), wk =   0.0025641
        k(  461) = (   0.5440532   0.9454917   0.6886613), wk =   0.0025641
        k(  462) = (   0.5933803   0.9454917   0.8608267), wk =   0.0025641
        k(  463) = (   0.6427074   0.9454917   1.0329920), wk =   0.0025641
        k(  464) = (   0.0507823   0.9454917  -1.0329920), wk =   0.0025641
        k(  465) = (   0.1001094   0.9454917  -0.8608267), wk =   0.0025641
        k(  466) = (   0.1494365   0.9454917  -0.6886613), wk =   0.0025641
        k(  467) = (   0.1987636   0.9454917  -0.5164960), wk =   0.0025641
        k(  468) = (   0.2480907   0.9454917  -0.3443307), wk =   0.0025641
        k(  469) = (   0.2974178   0.9454917  -0.1721653), wk =   0.0025641
        k(  470) = (   0.3467449   1.1345900   0.0000000), wk =   0.0025641
        k(  471) = (   0.3960720   1.1345900   0.1721653), wk =   0.0025641
        k(  472) = (   0.4453990   1.1345900   0.3443307), wk =   0.0025641
        k(  473) = (   0.4947261   1.1345900   0.5164960), wk =   0.0025641
        k(  474) = (   0.5440532   1.1345900   0.6886613), wk =   0.0025641
        k(  475) = (   0.5933803   1.1345900   0.8608267), wk =   0.0025641
        k(  476) = (   0.6427074   1.1345900   1.0329920), wk =   0.0025641
        k(  477) = (   0.0507823   1.1345900  -1.0329920), wk =   0.0025641
        k(  478) = (   0.1001094   1.1345900  -0.8608267), wk =   0.0025641
        k(  479) = (   0.1494365   1.1345900  -0.6886613), wk =   0.0025641
        k(  480) = (   0.1987636   1.1345900  -0.5164960), wk =   0.0025641
        k(  481) = (   0.2480907   1.1345900  -0.3443307), wk =   0.0025641
        k(  482) = (   0.2974178   1.1345900  -0.1721653), wk =   0.0025641
        k(  483) = (   0.3467449   1.3236884   0.0000000), wk =   0.0025641
        k(  484) = (   0.3960720   1.3236884   0.1721653), wk =   0.0025641
        k(  485) = (   0.4453990   1.3236884   0.3443307), wk =   0.0025641
        k(  486) = (   0.4947261   1.3236884   0.5164960), wk =   0.0025641
        k(  487) = (   0.5440532   1.3236884   0.6886613), wk =   0.0025641
        k(  488) = (   0.5933803   1.3236884   0.8608267), wk =   0.0025641
        k(  489) = (   0.6427074   1.3236884   1.0329920), wk =   0.0025641
        k(  490) = (   0.0507823   1.3236884  -1.0329920), wk =   0.0025641
        k(  491) = (   0.1001094   1.3236884  -0.8608267), wk =   0.0025641
        k(  492) = (   0.1494365   1.3236884  -0.6886613), wk =   0.0025641
        k(  493) = (   0.1987636   1.3236884  -0.5164960), wk =   0.0025641
        k(  494) = (   0.2480907   1.3236884  -0.3443307), wk =   0.0025641
        k(  495) = (   0.2974178   1.3236884  -0.1721653), wk =   0.0025641
        k(  496) = (   0.3467449   1.5127867   0.0000000), wk =   0.0025641
        k(  497) = (   0.3960720   1.5127867   0.1721653), wk =   0.0025641
        k(  498) = (   0.4453990   1.5127867   0.3443307), wk =   0.0025641
        k(  499) = (   0.4947261   1.5127867   0.5164960), wk =   0.0025641
        k(  500) = (   0.5440532   1.5127867   0.6886613), wk =   0.0025641
        k(  501) = (   0.5933803   1.5127867   0.8608267), wk =   0.0025641
        k(  502) = (   0.6427074   1.5127867   1.0329920), wk =   0.0025641
        k(  503) = (   0.0507823   1.5127867  -1.0329920), wk =   0.0025641
        k(  504) = (   0.1001094   1.5127867  -0.8608267), wk =   0.0025641
        k(  505) = (   0.1494365   1.5127867  -0.6886613), wk =   0.0025641
        k(  506) = (   0.1987636   1.5127867  -0.5164960), wk =   0.0025641
        k(  507) = (   0.2480907   1.5127867  -0.3443307), wk =   0.0025641
        k(  508) = (   0.2974178   1.5127867  -0.1721653), wk =   0.0025641
        k(  509) = (   0.3467449   1.7018850   0.0000000), wk =   0.0025641
        k(  510) = (   0.3960720   1.7018850   0.1721653), wk =   0.0025641
        k(  511) = (   0.4453990   1.7018850   0.3443307), wk =   0.0025641
        k(  512) = (   0.4947261   1.7018850   0.5164960), wk =   0.0025641
        k(  513) = (   0.5440532   1.7018850   0.6886613), wk =   0.0025641
        k(  514) = (   0.5933803   1.7018850   0.8608267), wk =   0.0025641
        k(  515) = (   0.6427074   1.7018850   1.0329920), wk =   0.0025641
        k(  516) = (   0.0507823   1.7018850  -1.0329920), wk =   0.0025641
        k(  517) = (   0.1001094   1.7018850  -0.8608267), wk =   0.0025641
        k(  518) = (   0.1494365   1.7018850  -0.6886613), wk =   0.0025641
        k(  519) = (   0.1987636   1.7018850  -0.5164960), wk =   0.0025641
        k(  520) = (   0.2480907   1.7018850  -0.3443307), wk =   0.0025641
        k(  521) = (   0.2974178   1.7018850  -0.1721653), wk =   0.0025641
        k(  522) = (   0.3467449  -1.8909834   0.0000000), wk =   0.0025641
        k(  523) = (   0.3960720  -1.8909834   0.1721653), wk =   0.0025641
        k(  524) = (   0.4453990  -1.8909834   0.3443307), wk =   0.0025641
        k(  525) = (   0.4947261  -1.8909834   0.5164960), wk =   0.0025641
        k(  526) = (   0.5440532  -1.8909834   0.6886613), wk =   0.0025641
        k(  527) = (   0.5933803  -1.8909834   0.8608267), wk =   0.0025641
        k(  528) = (   0.6427074  -1.8909834   1.0329920), wk =   0.0025641
        k(  529) = (   0.0507823  -1.8909834  -1.0329920), wk =   0.0025641
        k(  530) = (   0.1001094  -1.8909834  -0.8608267), wk =   0.0025641
        k(  531) = (   0.1494365  -1.8909834  -0.6886613), wk =   0.0025641
        k(  532) = (   0.1987636  -1.8909834  -0.5164960), wk =   0.0025641
        k(  533) = (   0.2480907  -1.8909834  -0.3443307), wk =   0.0025641
        k(  534) = (   0.2974178  -1.8909834  -0.1721653), wk =   0.0025641
        k(  535) = (   0.3467449  -1.7018850   0.0000000), wk =   0.0025641
        k(  536) = (   0.3960720  -1.7018850   0.1721653), wk =   0.0025641
        k(  537) = (   0.4453990  -1.7018850   0.3443307), wk =   0.0025641
        k(  538) = (   0.4947261  -1.7018850   0.5164960), wk =   0.0025641
        k(  539) = (   0.5440532  -1.7018850   0.6886613), wk =   0.0025641
        k(  540) = (   0.5933803  -1.7018850   0.8608267), wk =   0.0025641
        k(  541) = (   0.6427074  -1.7018850   1.0329920), wk =   0.0025641
        k(  542) = (   0.0507823  -1.7018850  -1.0329920), wk =   0.0025641
        k(  543) = (   0.1001094  -1.7018850  -0.8608267), wk =   0.0025641
        k(  544) = (   0.1494365  -1.7018850  -0.6886613), wk =   0.0025641
        k(  545) = (   0.1987636  -1.7018850  -0.5164960), wk =   0.0025641
        k(  546) = (   0.2480907  -1.7018850  -0.3443307), wk =   0.0025641
        k(  547) = (   0.2974178  -1.7018850  -0.1721653), wk =   0.0025641
        k(  548) = (   0.3467449  -1.5127867   0.0000000), wk =   0.0025641
        k(  549) = (   0.3960720  -1.5127867   0.1721653), wk =   0.0025641
        k(  550) = (   0.4453990  -1.5127867   0.3443307), wk =   0.0025641
        k(  551) = (   0.4947261  -1.5127867   0.5164960), wk =   0.0025641
        k(  552) = (   0.5440532  -1.5127867   0.6886613), wk =   0.0025641
        k(  553) = (   0.5933803  -1.5127867   0.8608267), wk =   0.0025641
        k(  554) = (   0.6427074  -1.5127867   1.0329920), wk =   0.0025641
        k(  555) = (   0.0507823  -1.5127867  -1.0329920), wk =   0.0025641
        k(  556) = (   0.1001094  -1.5127867  -0.8608267), wk =   0.0025641
        k(  557) = (   0.1494365  -1.5127867  -0.6886613), wk =   0.0025641
        k(  558) = (   0.1987636  -1.5127867  -0.5164960), wk =   0.0025641
        k(  559) = (   0.2480907  -1.5127867  -0.3443307), wk =   0.0025641
        k(  560) = (   0.2974178  -1.5127867  -0.1721653), wk =   0.0025641
        k(  561) = (   0.3467449  -1.3236884   0.0000000), wk =   0.0025641
        k(  562) = (   0.3960720  -1.3236884   0.1721653), wk =   0.0025641
        k(  563) = (   0.4453990  -1.3236884   0.3443307), wk =   0.0025641
        k(  564) = (   0.4947261  -1.3236884   0.5164960), wk =   0.0025641
        k(  565) = (   0.5440532  -1.3236884   0.6886613), wk =   0.0025641
        k(  566) = (   0.5933803  -1.3236884   0.8608267), wk =   0.0025641
        k(  567) = (   0.6427074  -1.3236884   1.0329920), wk =   0.0025641
        k(  568) = (   0.0507823  -1.3236884  -1.0329920), wk =   0.0025641
        k(  569) = (   0.1001094  -1.3236884  -0.8608267), wk =   0.0025641
        k(  570) = (   0.1494365  -1.3236884  -0.6886613), wk =   0.0025641
        k(  571) = (   0.1987636  -1.3236884  -0.5164960), wk =   0.0025641
        k(  572) = (   0.2480907  -1.3236884  -0.3443307), wk =   0.0025641
        k(  573) = (   0.2974178  -1.3236884  -0.1721653), wk =   0.0025641
        k(  574) = (   0.3467449  -1.1345900   0.0000000), wk =   0.0025641
        k(  575) = (   0.3960720  -1.1345900   0.1721653), wk =   0.0025641
        k(  576) = (   0.4453990  -1.1345900   0.3443307), wk =   0.0025641
        k(  577) = (   0.4947261  -1.1345900   0.5164960), wk =   0.0025641
        k(  578) = (   0.5440532  -1.1345900   0.6886613), wk =   0.0025641
        k(  579) = (   0.5933803  -1.1345900   0.8608267), wk =   0.0025641
        k(  580) = (   0.6427074  -1.1345900   1.0329920), wk =   0.0025641
        k(  581) = (   0.0507823  -1.1345900  -1.0329920), wk =   0.0025641
        k(  582) = (   0.1001094  -1.1345900  -0.8608267), wk =   0.0025641
        k(  583) = (   0.1494365  -1.1345900  -0.6886613), wk =   0.0025641
        k(  584) = (   0.1987636  -1.1345900  -0.5164960), wk =   0.0025641
        k(  585) = (   0.2480907  -1.1345900  -0.3443307), wk =   0.0025641
        k(  586) = (   0.2974178  -1.1345900  -0.1721653), wk =   0.0025641
        k(  587) = (   0.3467449  -0.9454917   0.0000000), wk =   0.0025641
        k(  588) = (   0.3960720  -0.9454917   0.1721653), wk =   0.0025641
        k(  589) = (   0.4453990  -0.9454917   0.3443307), wk =   0.0025641
        k(  590) = (   0.4947261  -0.9454917   0.5164960), wk =   0.0025641
        k(  591) = (   0.5440532  -0.9454917   0.6886613), wk =   0.0025641
        k(  592) = (   0.5933803  -0.9454917   0.8608267), wk =   0.0025641
        k(  593) = (   0.6427074  -0.9454917   1.0329920), wk =   0.0025641
        k(  594) = (   0.0507823  -0.9454917  -1.0329920), wk =   0.0025641
        k(  595) = (   0.1001094  -0.9454917  -0.8608267), wk =   0.0025641
        k(  596) = (   0.1494365  -0.9454917  -0.6886613), wk =   0.0025641
        k(  597) = (   0.1987636  -0.9454917  -0.5164960), wk =   0.0025641
        k(  598) = (   0.2480907  -0.9454917  -0.3443307), wk =   0.0025641
        k(  599) = (   0.2974178  -0.9454917  -0.1721653), wk =   0.0025641
        k(  600) = (   0.3467449  -0.7563934   0.0000000), wk =   0.0025641
        k(  601) = (   0.3960720  -0.7563934   0.1721653), wk =   0.0025641
        k(  602) = (   0.4453990  -0.7563934   0.3443307), wk =   0.0025641
        k(  603) = (   0.4947261  -0.7563934   0.5164960), wk =   0.0025641
        k(  604) = (   0.5440532  -0.7563934   0.6886613), wk =   0.0025641
        k(  605) = (   0.5933803  -0.7563934   0.8608267), wk =   0.0025641
        k(  606) = (   0.6427074  -0.7563934   1.0329920), wk =   0.0025641
        k(  607) = (   0.0507823  -0.7563934  -1.0329920), wk =   0.0025641
        k(  608) = (   0.1001094  -0.7563934  -0.8608267), wk =   0.0025641
        k(  609) = (   0.1494365  -0.7563934  -0.6886613), wk =   0.0025641
        k(  610) = (   0.1987636  -0.7563934  -0.5164960), wk =   0.0025641
        k(  611) = (   0.2480907  -0.7563934  -0.3443307), wk =   0.0025641
        k(  612) = (   0.2974178  -0.7563934  -0.1721653), wk =   0.0025641
        k(  613) = (   0.3467449  -0.5672950   0.0000000), wk =   0.0025641
        k(  614) = (   0.3960720  -0.5672950   0.1721653), wk =   0.0025641
        k(  615) = (   0.4453990  -0.5672950   0.3443307), wk =   0.0025641
        k(  616) = (   0.4947261  -0.5672950   0.5164960), wk =   0.0025641
        k(  617) = (   0.5440532  -0.5672950   0.6886613), wk =   0.0025641
        k(  618) = (   0.5933803  -0.5672950   0.8608267), wk =   0.0025641
        k(  619) = (   0.6427074  -0.5672950   1.0329920), wk =   0.0025641
        k(  620) = (   0.0507823  -0.5672950  -1.0329920), wk =   0.0025641
        k(  621) = (   0.1001094  -0.5672950  -0.8608267), wk =   0.0025641
        k(  622) = (   0.1494365  -0.5672950  -0.6886613), wk =   0.0025641
        k(  623) = (   0.1987636  -0.5672950  -0.5164960), wk =   0.0025641
        k(  624) = (   0.2480907  -0.5672950  -0.3443307), wk =   0.0025641
        k(  625) = (   0.2974178  -0.5672950  -0.1721653), wk =   0.0025641
        k(  626) = (   0.3467449  -0.3781967   0.0000000), wk =   0.0025641
        k(  627) = (   0.3960720  -0.3781967   0.1721653), wk =   0.0025641
        k(  628) = (   0.4453990  -0.3781967   0.3443307), wk =   0.0025641
        k(  629) = (   0.4947261  -0.3781967   0.5164960), wk =   0.0025641
        k(  630) = (   0.5440532  -0.3781967   0.6886613), wk =   0.0025641
        k(  631) = (   0.5933803  -0.3781967   0.8608267), wk =   0.0025641
        k(  632) = (   0.6427074  -0.3781967   1.0329920), wk =   0.0025641
        k(  633) = (   0.0507823  -0.3781967  -1.0329920), wk =   0.0025641
        k(  634) = (   0.1001094  -0.3781967  -0.8608267), wk =   0.0025641
        k(  635) = (   0.1494365  -0.3781967  -0.6886613), wk =   0.0025641
        k(  636) = (   0.1987636  -0.3781967  -0.5164960), wk =   0.0025641
        k(  637) = (   0.2480907  -0.3781967  -0.3443307), wk =   0.0025641
        k(  638) = (   0.2974178  -0.3781967  -0.1721653), wk =   0.0025641
        k(  639) = (   0.3467449  -0.1890983   0.0000000), wk =   0.0025641
        k(  640) = (   0.3960720  -0.1890983   0.1721653), wk =   0.0025641
        k(  641) = (   0.4453990  -0.1890983   0.3443307), wk =   0.0025641
        k(  642) = (   0.4947261  -0.1890983   0.5164960), wk =   0.0025641
        k(  643) = (   0.5440532  -0.1890983   0.6886613), wk =   0.0025641
        k(  644) = (   0.5933803  -0.1890983   0.8608267), wk =   0.0025641
        k(  645) = (   0.6427074  -0.1890983   1.0329920), wk =   0.0025641
        k(  646) = (   0.0507823  -0.1890983  -1.0329920), wk =   0.0025641
        k(  647) = (   0.1001094  -0.1890983  -0.8608267), wk =   0.0025641
        k(  648) = (   0.1494365  -0.1890983  -0.6886613), wk =   0.0025641
        k(  649) = (   0.1987636  -0.1890983  -0.5164960), wk =   0.0025641
        k(  650) = (   0.2480907  -0.1890983  -0.3443307), wk =   0.0025641
        k(  651) = (   0.2974178  -0.1890983  -0.1721653), wk =   0.0025641
        k(  652) = (  -0.5201173   0.0000000   0.0000000), wk =   0.0012821
        k(  653) = (  -0.4707902   0.0000000   0.1721653), wk =   0.0025641
        k(  654) = (  -0.4214631   0.0000000   0.3443307), wk =   0.0025641
        k(  655) = (  -0.3721360   0.0000000   0.5164960), wk =   0.0025641
        k(  656) = (  -0.3228089   0.0000000   0.6886613), wk =   0.0025641
        k(  657) = (  -0.2734818   0.0000000   0.8608267), wk =   0.0025641
        k(  658) = (  -0.2241547   0.0000000   1.0329920), wk =   0.0025641
        k(  659) = (  -0.5201173   0.1890983   0.0000000), wk =   0.0025641
        k(  660) = (  -0.4707902   0.1890983   0.1721653), wk =   0.0025641
        k(  661) = (  -0.4214631   0.1890983   0.3443307), wk =   0.0025641
        k(  662) = (  -0.3721360   0.1890983   0.5164960), wk =   0.0025641
        k(  663) = (  -0.3228089   0.1890983   0.6886613), wk =   0.0025641
        k(  664) = (  -0.2734818   0.1890983   0.8608267), wk =   0.0025641
        k(  665) = (  -0.2241547   0.1890983   1.0329920), wk =   0.0025641
        k(  666) = (  -0.8160799   0.1890983  -1.0329920), wk =   0.0025641
        k(  667) = (  -0.7667528   0.1890983  -0.8608267), wk =   0.0025641
        k(  668) = (  -0.7174257   0.1890983  -0.6886613), wk =   0.0025641
        k(  669) = (  -0.6680986   0.1890983  -0.5164960), wk =   0.0025641
        k(  670) = (  -0.6187715   0.1890983  -0.3443307), wk =   0.0025641
        k(  671) = (  -0.5694444   0.1890983  -0.1721653), wk =   0.0025641
        k(  672) = (  -0.5201173   0.3781967   0.0000000), wk =   0.0025641
        k(  673) = (  -0.4707902   0.3781967   0.1721653), wk =   0.0025641
        k(  674) = (  -0.4214631   0.3781967   0.3443307), wk =   0.0025641
        k(  675) = (  -0.3721360   0.3781967   0.5164960), wk =   0.0025641
        k(  676) = (  -0.3228089   0.3781967   0.6886613), wk =   0.0025641
        k(  677) = (  -0.2734818   0.3781967   0.8608267), wk =   0.0025641
        k(  678) = (  -0.2241547   0.3781967   1.0329920), wk =   0.0025641
        k(  679) = (  -0.8160799   0.3781967  -1.0329920), wk =   0.0025641
        k(  680) = (  -0.7667528   0.3781967  -0.8608267), wk =   0.0025641
        k(  681) = (  -0.7174257   0.3781967  -0.6886613), wk =   0.0025641
        k(  682) = (  -0.6680986   0.3781967  -0.5164960), wk =   0.0025641
        k(  683) = (  -0.6187715   0.3781967  -0.3443307), wk =   0.0025641
        k(  684) = (  -0.5694444   0.3781967  -0.1721653), wk =   0.0025641
        k(  685) = (  -0.5201173   0.5672950   0.0000000), wk =   0.0025641
        k(  686) = (  -0.4707902   0.5672950   0.1721653), wk =   0.0025641
        k(  687) = (  -0.4214631   0.5672950   0.3443307), wk =   0.0025641
        k(  688) = (  -0.3721360   0.5672950   0.5164960), wk =   0.0025641
        k(  689) = (  -0.3228089   0.5672950   0.6886613), wk =   0.0025641
        k(  690) = (  -0.2734818   0.5672950   0.8608267), wk =   0.0025641
        k(  691) = (  -0.2241547   0.5672950   1.0329920), wk =   0.0025641
        k(  692) = (  -0.8160799   0.5672950  -1.0329920), wk =   0.0025641
        k(  693) = (  -0.7667528   0.5672950  -0.8608267), wk =   0.0025641
        k(  694) = (  -0.7174257   0.5672950  -0.6886613), wk =   0.0025641
        k(  695) = (  -0.6680986   0.5672950  -0.5164960), wk =   0.0025641
        k(  696) = (  -0.6187715   0.5672950  -0.3443307), wk =   0.0025641
        k(  697) = (  -0.5694444   0.5672950  -0.1721653), wk =   0.0025641
        k(  698) = (  -0.5201173   0.7563934   0.0000000), wk =   0.0025641
        k(  699) = (  -0.4707902   0.7563934   0.1721653), wk =   0.0025641
        k(  700) = (  -0.4214631   0.7563934   0.3443307), wk =   0.0025641
        k(  701) = (  -0.3721360   0.7563934   0.5164960), wk =   0.0025641
        k(  702) = (  -0.3228089   0.7563934   0.6886613), wk =   0.0025641
        k(  703) = (  -0.2734818   0.7563934   0.8608267), wk =   0.0025641
        k(  704) = (  -0.2241547   0.7563934   1.0329920), wk =   0.0025641
        k(  705) = (  -0.8160799   0.7563934  -1.0329920), wk =   0.0025641
        k(  706) = (  -0.7667528   0.7563934  -0.8608267), wk =   0.0025641
        k(  707) = (  -0.7174257   0.7563934  -0.6886613), wk =   0.0025641
        k(  708) = (  -0.6680986   0.7563934  -0.5164960), wk =   0.0025641
        k(  709) = (  -0.6187715   0.7563934  -0.3443307), wk =   0.0025641
        k(  710) = (  -0.5694444   0.7563934  -0.1721653), wk =   0.0025641
        k(  711) = (  -0.5201173   0.9454917   0.0000000), wk =   0.0025641
        k(  712) = (  -0.4707902   0.9454917   0.1721653), wk =   0.0025641
        k(  713) = (  -0.4214631   0.9454917   0.3443307), wk =   0.0025641
        k(  714) = (  -0.3721360   0.9454917   0.5164960), wk =   0.0025641
        k(  715) = (  -0.3228089   0.9454917   0.6886613), wk =   0.0025641
        k(  716) = (  -0.2734818   0.9454917   0.8608267), wk =   0.0025641
        k(  717) = (  -0.2241547   0.9454917   1.0329920), wk =   0.0025641
        k(  718) = (  -0.8160799   0.9454917  -1.0329920), wk =   0.0025641
        k(  719) = (  -0.7667528   0.9454917  -0.8608267), wk =   0.0025641
        k(  720) = (  -0.7174257   0.9454917  -0.6886613), wk =   0.0025641
        k(  721) = (  -0.6680986   0.9454917  -0.5164960), wk =   0.0025641
        k(  722) = (  -0.6187715   0.9454917  -0.3443307), wk =   0.0025641
        k(  723) = (  -0.5694444   0.9454917  -0.1721653), wk =   0.0025641
        k(  724) = (  -0.5201173   1.1345900   0.0000000), wk =   0.0025641
        k(  725) = (  -0.4707902   1.1345900   0.1721653), wk =   0.0025641
        k(  726) = (  -0.4214631   1.1345900   0.3443307), wk =   0.0025641
        k(  727) = (  -0.3721360   1.1345900   0.5164960), wk =   0.0025641
        k(  728) = (  -0.3228089   1.1345900   0.6886613), wk =   0.0025641
        k(  729) = (  -0.2734818   1.1345900   0.8608267), wk =   0.0025641
        k(  730) = (  -0.2241547   1.1345900   1.0329920), wk =   0.0025641
        k(  731) = (  -0.8160799   1.1345900  -1.0329920), wk =   0.0025641
        k(  732) = (  -0.7667528   1.1345900  -0.8608267), wk =   0.0025641
        k(  733) = (  -0.7174257   1.1345900  -0.6886613), wk =   0.0025641
        k(  734) = (  -0.6680986   1.1345900  -0.5164960), wk =   0.0025641
        k(  735) = (  -0.6187715   1.1345900  -0.3443307), wk =   0.0025641
        k(  736) = (  -0.5694444   1.1345900  -0.1721653), wk =   0.0025641
        k(  737) = (  -0.5201173   1.3236884   0.0000000), wk =   0.0025641
        k(  738) = (  -0.4707902   1.3236884   0.1721653), wk =   0.0025641
        k(  739) = (  -0.4214631   1.3236884   0.3443307), wk =   0.0025641
        k(  740) = (  -0.3721360   1.3236884   0.5164960), wk =   0.0025641
        k(  741) = (  -0.3228089   1.3236884   0.6886613), wk =   0.0025641
        k(  742) = (  -0.2734818   1.3236884   0.8608267), wk =   0.0025641
        k(  743) = (  -0.2241547   1.3236884   1.0329920), wk =   0.0025641
        k(  744) = (  -0.8160799   1.3236884  -1.0329920), wk =   0.0025641
        k(  745) = (  -0.7667528   1.3236884  -0.8608267), wk =   0.0025641
        k(  746) = (  -0.7174257   1.3236884  -0.6886613), wk =   0.0025641
        k(  747) = (  -0.6680986   1.3236884  -0.5164960), wk =   0.0025641
        k(  748) = (  -0.6187715   1.3236884  -0.3443307), wk =   0.0025641
        k(  749) = (  -0.5694444   1.3236884  -0.1721653), wk =   0.0025641
        k(  750) = (  -0.5201173   1.5127867   0.0000000), wk =   0.0025641
        k(  751) = (  -0.4707902   1.5127867   0.1721653), wk =   0.0025641
        k(  752) = (  -0.4214631   1.5127867   0.3443307), wk =   0.0025641
        k(  753) = (  -0.3721360   1.5127867   0.5164960), wk =   0.0025641
        k(  754) = (  -0.3228089   1.5127867   0.6886613), wk =   0.0025641
        k(  755) = (  -0.2734818   1.5127867   0.8608267), wk =   0.0025641
        k(  756) = (  -0.2241547   1.5127867   1.0329920), wk =   0.0025641
        k(  757) = (  -0.8160799   1.5127867  -1.0329920), wk =   0.0025641
        k(  758) = (  -0.7667528   1.5127867  -0.8608267), wk =   0.0025641
        k(  759) = (  -0.7174257   1.5127867  -0.6886613), wk =   0.0025641
        k(  760) = (  -0.6680986   1.5127867  -0.5164960), wk =   0.0025641
        k(  761) = (  -0.6187715   1.5127867  -0.3443307), wk =   0.0025641
        k(  762) = (  -0.5694444   1.5127867  -0.1721653), wk =   0.0025641
        k(  763) = (  -0.5201173   1.7018850   0.0000000), wk =   0.0025641
        k(  764) = (  -0.4707902   1.7018850   0.1721653), wk =   0.0025641
        k(  765) = (  -0.4214631   1.7018850   0.3443307), wk =   0.0025641
        k(  766) = (  -0.3721360   1.7018850   0.5164960), wk =   0.0025641
        k(  767) = (  -0.3228089   1.7018850   0.6886613), wk =   0.0025641
        k(  768) = (  -0.2734818   1.7018850   0.8608267), wk =   0.0025641
        k(  769) = (  -0.2241547   1.7018850   1.0329920), wk =   0.0025641
        k(  770) = (  -0.8160799   1.7018850  -1.0329920), wk =   0.0025641
        k(  771) = (  -0.7667528   1.7018850  -0.8608267), wk =   0.0025641
        k(  772) = (  -0.7174257   1.7018850  -0.6886613), wk =   0.0025641
        k(  773) = (  -0.6680986   1.7018850  -0.5164960), wk =   0.0025641
        k(  774) = (  -0.6187715   1.7018850  -0.3443307), wk =   0.0025641
        k(  775) = (  -0.5694444   1.7018850  -0.1721653), wk =   0.0025641
        k(  776) = (  -0.5201173  -1.8909834   0.0000000), wk =   0.0012821
        k(  777) = (  -0.4707902  -1.8909834   0.1721653), wk =   0.0025641
        k(  778) = (  -0.4214631  -1.8909834   0.3443307), wk =   0.0025641
        k(  779) = (  -0.3721360  -1.8909834   0.5164960), wk =   0.0025641
        k(  780) = (  -0.3228089  -1.8909834   0.6886613), wk =   0.0025641
        k(  781) = (  -0.2734818  -1.8909834   0.8608267), wk =   0.0025641
        k(  782) = (  -0.2241547  -1.8909834   1.0329920), wk =   0.0025641

                       cryst. coord.
        k(    1) = (   0.0000000   0.0000000   0.0000000), wk =   0.0012821
        k(    2) = (   0.0000000   0.0000000   0.0769231), wk =   0.0025641
        k(    3) = (   0.0000000   0.0000000   0.1538462), wk =   0.0025641
        k(    4) = (  -0.0000000   0.0000000   0.2307692), wk =   0.0025641
        k(    5) = (   0.0000000   0.0000000   0.3076923), wk =   0.0025641
        k(    6) = (   0.0000000   0.0000000   0.3846154), wk =   0.0025641
        k(    7) = (  -0.0000000   0.0000000   0.4615385), wk =   0.0025641
        k(    8) = (   0.0000000   0.0500000   0.0000000), wk =   0.0025641
        k(    9) = (   0.0000000   0.0500000   0.0769231), wk =   0.0025641
        k(   10) = (   0.0000000   0.0500000   0.1538462), wk =   0.0025641
        k(   11) = (  -0.0000000   0.0500000   0.2307692), wk =   0.0025641
        k(   12) = (   0.0000000   0.0500000   0.3076923), wk =   0.0025641
        k(   13) = (   0.0000000   0.0500000   0.3846154), wk =   0.0025641
        k(   14) = (  -0.0000000   0.0500000   0.4615385), wk =   0.0025641
        k(   15) = (   0.0000000   0.0500000  -0.4615385), wk =   0.0025641
        k(   16) = (   0.0000000   0.0500000  -0.3846154), wk =   0.0025641
        k(   17) = (  -0.0000000   0.0500000  -0.3076923), wk =   0.0025641
        k(   18) = (   0.0000000   0.0500000  -0.2307692), wk =   0.0025641
        k(   19) = (  -0.0000000   0.0500000  -0.1538462), wk =   0.0025641
        k(   20) = (  -0.0000000   0.0500000  -0.0769231), wk =   0.0025641
        k(   21) = (   0.0000000   0.1000000   0.0000000), wk =   0.0025641
        k(   22) = (   0.0000000   0.1000000   0.0769231), wk =   0.0025641
        k(   23) = (   0.0000000   0.1000000   0.1538462), wk =   0.0025641
        k(   24) = (  -0.0000000   0.1000000   0.2307692), wk =   0.0025641
        k(   25) = (   0.0000000   0.1000000   0.3076923), wk =   0.0025641
        k(   26) = (   0.0000000   0.1000000   0.3846154), wk =   0.0025641
        k(   27) = (  -0.0000000   0.1000000   0.4615385), wk =   0.0025641
        k(   28) = (   0.0000000   0.1000000  -0.4615385), wk =   0.0025641
        k(   29) = (   0.0000000   0.1000000  -0.3846154), wk =   0.0025641
        k(   30) = (  -0.0000000   0.1000000  -0.3076923), wk =   0.0025641
        k(   31) = (   0.0000000   0.1000000  -0.2307692), wk =   0.0025641
        k(   32) = (  -0.0000000   0.1000000  -0.1538462), wk =   0.0025641
        k(   33) = (  -0.0000000   0.1000000  -0.0769231), wk =   0.0025641
        k(   34) = (   0.0000000   0.1500000   0.0000000), wk =   0.0025641
        k(   35) = (   0.0000000   0.1500000   0.0769231), wk =   0.0025641
        k(   36) = (   0.0000000   0.1500000   0.1538462), wk =   0.0025641
        k(   37) = (  -0.0000000   0.1500000   0.2307692), wk =   0.0025641
        k(   38) = (   0.0000000   0.1500000   0.3076923), wk =   0.0025641
        k(   39) = (   0.0000000   0.1500000   0.3846154), wk =   0.0025641
        k(   40) = (  -0.0000000   0.1500000   0.4615385), wk =   0.0025641
        k(   41) = (   0.0000000   0.1500000  -0.4615385), wk =   0.0025641
        k(   42) = (   0.0000000   0.1500000  -0.3846154), wk =   0.0025641
        k(   43) = (  -0.0000000   0.1500000  -0.3076923), wk =   0.0025641
        k(   44) = (   0.0000000   0.1500000  -0.2307692), wk =   0.0025641
        k(   45) = (  -0.0000000   0.1500000  -0.1538462), wk =   0.0025641
        k(   46) = (  -0.0000000   0.1500000  -0.0769231), wk =   0.0025641
        k(   47) = (   0.0000000   0.2000000   0.0000000), wk =   0.0025641
        k(   48) = (   0.0000000   0.2000000   0.0769231), wk =   0.0025641
        k(   49) = (   0.0000000   0.2000000   0.1538462), wk =   0.0025641
        k(   50) = (  -0.0000000   0.2000000   0.2307692), wk =   0.0025641
        k(   51) = (   0.0000000   0.2000000   0.3076923), wk =   0.0025641
        k(   52) = (   0.0000000   0.2000000   0.3846154), wk =   0.0025641
        k(   53) = (  -0.0000000   0.2000000   0.4615385), wk =   0.0025641
        k(   54) = (   0.0000000   0.2000000  -0.4615385), wk =   0.0025641
        k(   55) = (   0.0000000   0.2000000  -0.3846154), wk =   0.0025641
        k(   56) = (  -0.0000000   0.2000000  -0.3076923), wk =   0.0025641
        k(   57) = (   0.0000000   0.2000000  -0.2307692), wk =   0.0025641
        k(   58) = (  -0.0000000   0.2000000  -0.1538462), wk =   0.0025641
        k(   59) = (  -0.0000000   0.2000000  -0.0769231), wk =   0.0025641
        k(   60) = (   0.0000000   0.2500000   0.0000000), wk =   0.0025641
        k(   61) = (   0.0000000   0.2500000   0.0769231), wk =   0.0025641
        k(   62) = (   0.0000000   0.2500000   0.1538462), wk =   0.0025641
        k(   63) = (  -0.0000000   0.2500000   0.2307692), wk =   0.0025641
        k(   64) = (   0.0000000   0.2500000   0.3076923), wk =   0.0025641
        k(   65) = (   0.0000000   0.2500000   0.3846154), wk =   0.0025641
        k(   66) = (  -0.0000000   0.2500000   0.4615385), wk =   0.0025641
        k(   67) = (   0.0000000   0.2500000  -0.4615385), wk =   0.0025641
        k(   68) = (   0.0000000   0.2500000  -0.3846154), wk =   0.0025641
        k(   69) = (  -0.0000000   0.2500000  -0.3076923), wk =   0.0025641
        k(   70) = (   0.0000000   0.2500000  -0.2307692), wk =   0.0025641
        k(   71) = (  -0.0000000   0.2500000  -0.1538462), wk =   0.0025641
        k(   72) = (  -0.0000000   0.2500000  -0.0769231), wk =   0.0025641
        k(   73) = (   0.0000000   0.3000000   0.0000000), wk =   0.0025641
        k(   74) = (   0.0000000   0.3000000   0.0769231), wk =   0.0025641
        k(   75) = (   0.0000000   0.3000000   0.1538462), wk =   0.0025641
        k(   76) = (  -0.0000000   0.3000000   0.2307692), wk =   0.0025641
        k(   77) = (   0.0000000   0.3000000   0.3076923), wk =   0.0025641
        k(   78) = (   0.0000000   0.3000000   0.3846154), wk =   0.0025641
        k(   79) = (  -0.0000000   0.3000000   0.4615385), wk =   0.0025641
        k(   80) = (   0.0000000   0.3000000  -0.4615385), wk =   0.0025641
        k(   81) = (   0.0000000   0.3000000  -0.3846154), wk =   0.0025641
        k(   82) = (  -0.0000000   0.3000000  -0.3076923), wk =   0.0025641
        k(   83) = (   0.0000000   0.3000000  -0.2307692), wk =   0.0025641
        k(   84) = (  -0.0000000   0.3000000  -0.1538462), wk =   0.0025641
        k(   85) = (  -0.0000000   0.3000000  -0.0769231), wk =   0.0025641
        k(   86) = (   0.0000000   0.3500000   0.0000000), wk =   0.0025641
        k(   87) = (   0.0000000   0.3500000   0.0769231), wk =   0.0025641
        k(   88) = (   0.0000000   0.3500000   0.1538462), wk =   0.0025641
        k(   89) = (  -0.0000000   0.3500000   0.2307692), wk =   0.0025641
        k(   90) = (   0.0000000   0.3500000   0.3076923), wk =   0.0025641
        k(   91) = (   0.0000000   0.3500000   0.3846154), wk =   0.0025641
        k(   92) = (  -0.0000000   0.3500000   0.4615385), wk =   0.0025641
        k(   93) = (   0.0000000   0.3500000  -0.4615385), wk =   0.0025641
        k(   94) = (   0.0000000   0.3500000  -0.3846154), wk =   0.0025641
        k(   95) = (  -0.0000000   0.3500000  -0.3076923), wk =   0.0025641
        k(   96) = (   0.0000000   0.3500000  -0.2307692), wk =   0.0025641
        k(   97) = (  -0.0000000   0.3500000  -0.1538462), wk =   0.0025641
        k(   98) = (  -0.0000000   0.3500000  -0.0769231), wk =   0.0025641
        k(   99) = (   0.0000000   0.4000000   0.0000000), wk =   0.0025641
        k(  100) = (   0.0000000   0.4000000   0.0769231), wk =   0.0025641
        k(  101) = (   0.0000000   0.4000000   0.1538462), wk =   0.0025641
        k(  102) = (  -0.0000000   0.4000000   0.2307692), wk =   0.0025641
        k(  103) = (   0.0000000   0.4000000   0.3076923), wk =   0.0025641
        k(  104) = (   0.0000000   0.4000000   0.3846154), wk =   0.0025641
        k(  105) = (  -0.0000000   0.4000000   0.4615385), wk =   0.0025641
        k(  106) = (   0.0000000   0.4000000  -0.4615385), wk =   0.0025641
        k(  107) = (   0.0000000   0.4000000  -0.3846154), wk =   0.0025641
        k(  108) = (  -0.0000000   0.4000000  -0.3076923), wk =   0.0025641
        k(  109) = (   0.0000000   0.4000000  -0.2307692), wk =   0.0025641
        k(  110) = (  -0.0000000   0.4000000  -0.1538462), wk =   0.0025641
        k(  111) = (  -0.0000000   0.4000000  -0.0769231), wk =   0.0025641
        k(  112) = (   0.0000000   0.4500000   0.0000000), wk =   0.0025641
        k(  113) = (   0.0000000   0.4500000   0.0769231), wk =   0.0025641
        k(  114) = (   0.0000000   0.4500000   0.1538462), wk =   0.0025641
        k(  115) = (  -0.0000000   0.4500000   0.2307692), wk =   0.0025641
        k(  116) = (   0.0000000   0.4500000   0.3076923), wk =   0.0025641
        k(  117) = (   0.0000000   0.4500000   0.3846154), wk =   0.0025641
        k(  118) = (  -0.0000000   0.4500000   0.4615385), wk =   0.0025641
        k(  119) = (   0.0000000   0.4500000  -0.4615385), wk =   0.0025641
        k(  120) = (   0.0000000   0.4500000  -0.3846154), wk =   0.0025641
        k(  121) = (  -0.0000000   0.4500000  -0.3076923), wk =   0.0025641
        k(  122) = (   0.0000000   0.4500000  -0.2307692), wk =   0.0025641
        k(  123) = (  -0.0000000   0.4500000  -0.1538462), wk =   0.0025641
        k(  124) = (  -0.0000000   0.4500000  -0.0769231), wk =   0.0025641
        k(  125) = (   0.0000000  -0.5000000   0.0000000), wk =   0.0012821
        k(  126) = (   0.0000000  -0.5000000   0.0769231), wk =   0.0025641
        k(  127) = (   0.0000000  -0.5000000   0.1538462), wk =   0.0025641
        k(  128) = (  -0.0000000  -0.5000000   0.2307692), wk =   0.0025641
        k(  129) = (   0.0000000  -0.5000000   0.3076923), wk =   0.0025641
        k(  130) = (   0.0000000  -0.5000000   0.3846154), wk =   0.0025641
        k(  131) = (  -0.0000000  -0.5000000   0.4615385), wk =   0.0025641
        k(  132) = (   0.1666667   0.0000000   0.0000000), wk =   0.0025641
        k(  133) = (   0.1666667   0.0000000   0.0769231), wk =   0.0025641
        k(  134) = (   0.1666667   0.0000000   0.1538462), wk =   0.0025641
        k(  135) = (   0.1666667   0.0000000   0.2307692), wk =   0.0025641
        k(  136) = (   0.1666667   0.0000000   0.3076923), wk =   0.0025641
        k(  137) = (   0.1666667   0.0000000   0.3846154), wk =   0.0025641
        k(  138) = (   0.1666667   0.0000000   0.4615385), wk =   0.0025641
        k(  139) = (   0.1666667   0.0000000  -0.4615385), wk =   0.0025641
        k(  140) = (   0.1666667   0.0000000  -0.3846154), wk =   0.0025641
        k(  141) = (   0.1666667   0.0000000  -0.3076923), wk =   0.0025641
        k(  142) = (   0.1666667   0.0000000  -0.2307692), wk =   0.0025641
[...]
     0.8241   0.8241   0.2063   0.2063   0.1046   0.1046

          k =-0.2242-1.8910 1.0330 ( 11822 PWs)   bands (ev):

    -3.1586  -3.1586  -2.1814  -2.1814  -1.9671  -1.9671  -1.1743  -1.1743
     0.0035   0.0035   0.7515   0.7515   0.8552   0.8552   1.9949   1.9949
     2.0854   2.0854   2.7272   2.7272   3.4830   3.4830   3.7983   3.7983
     4.2288   4.2289   4.6157   4.6157   4.8677   4.8677   5.5716   5.5716
     6.1305   6.1305   6.4710   6.4710   6.7632   6.7632

     occupation numbers 
     1.0000   1.0000   1.0000   1.0000   1.0000   1.0000   1.0000   1.0000
     1.0000   1.0000   1.0000   1.0000   1.0000   1.0000   1.0000   1.0000
     1.0000   1.0000   1.0000   1.0000   1.0000   1.0000   1.0000   1.0000
     1.0000   1.0000   1.0002   1.0002   1.0013   1.0013   1.0345   1.0345
     0.7954   0.7954   0.3421   0.3421   0.0482   0.0482

     the Fermi energy is     6.3567 ev

!    total energy              =    -585.64432975 Ry
     Harris-Foulkes estimate   =    -585.64432975 Ry
     estimated scf accuracy    <          9.3E-13 Ry

     The total energy is the sum of the following terms:

     one-electron contribution =      41.66352417 Ry
     hartree contribution      =       8.30226146 Ry
     xc contribution           =     -75.84014945 Ry
     ewald contribution        =    -108.17823852 Ry
     one-center paw contrib.   =    -451.58795950 Ry
      -> PAW hartree energy AE =       0.83934267 Ry
      -> PAW hartree energy PS =      -0.83743382 Ry
      -> PAW xc energy AE      =     -32.63440671 Ry
      -> PAW xc energy PS      =       1.33639598 Ry
      -> total E_H with PAW    =       8.30417031 Ry
      -> total E_XC with PAW   =    -107.13816018 Ry
     smearing contrib. (-TS)   =      -0.00376790 Ry

     convergence has been achieved in  17 iterations

     Forces acting on atoms (cartesian axes, Ry/au):

     atom    1 type  1   force =     0.00000167    0.00000003   -0.00000033
     atom    2 type  1   force =    -0.00083106   -0.00000009    0.00014809
     atom    3 type  1   force =    -0.00125390    0.00000003   -0.00048119
     atom    4 type  1   force =     0.00125333    0.00000007    0.00048190
     atom    5 type  1   force =     0.00083113    0.00000005   -0.00014916
     atom    6 type  2   force =    -0.00053647    0.00000009   -0.00055664
     atom    7 type  2   force =     0.00020796   -0.00000006    0.00025079
     atom    8 type  3   force =    -0.00057503    0.00000004   -0.00045246
     atom    9 type  3   force =     0.00057540   -0.00000004    0.00045312
     atom   10 type  2   force =    -0.00020922   -0.00000014   -0.00025025
     atom   11 type  2   force =     0.00053623   -0.00000005    0.00055619
     atom   12 type  1   force =     0.00000171   -0.00000004   -0.00000014
     atom   13 type  1   force =    -0.00083156    0.00000004    0.00014795
     atom   14 type  1   force =    -0.00125445   -0.00000001   -0.00048078
     atom   15 type  1   force =     0.00125350   -0.00000009    0.00048187
     atom   16 type  1   force =     0.00083114    0.00000000   -0.00014902
     atom   17 type  2   force =    -0.00053590   -0.00000013   -0.00055692
     atom   18 type  2   force =     0.00020827    0.00000014    0.00025015
     atom   19 type  3   force =    -0.00057540   -0.00000001   -0.00045254
     atom   20 type  3   force =     0.00057486    0.00000003    0.00045321
     atom   21 type  2   force =    -0.00020854    0.00000004   -0.00025009
     atom   22 type  2   force =     0.00053632    0.00000009    0.00055625
     The non-local contrib.  to forces
     atom    1 type  1   force =     0.00000289    0.00000001   -0.00000068
     atom    2 type  1   force =     0.01393056   -0.00000011   -0.00090569
     atom    3 type  1   force =     0.00753404   -0.00000015    0.01112660
     atom    4 type  1   force =    -0.00753874    0.00000002   -0.01112455
     atom    5 type  1   force =    -0.01393184   -0.00000003    0.00090037
     atom    6 type  2   force =    -0.02255007   -0.00000023   -0.05425882
     atom    7 type  2   force =     0.01639409    0.00000014    0.02124260
     atom    8 type  3   force =     0.00598848    0.00000004   -0.01108975
     atom    9 type  3   force =    -0.00598994   -0.00000003    0.01109048
     atom   10 type  2   force =    -0.01640271    0.00000001   -0.02123859
     atom   11 type  2   force =     0.02256379   -0.00000023    0.05425460
     atom   12 type  1   force =     0.00000301   -0.00000003   -0.00000047
     atom   13 type  1   force =     0.01393074    0.00000022   -0.00090520
     atom   14 type  1   force =     0.00753344    0.00000015    0.01112710
     atom   15 type  1   force =    -0.00753888   -0.00000003   -0.01112446
     atom   16 type  1   force =    -0.01393329   -0.00000007    0.00090080
     atom   17 type  2   force =    -0.02254871    0.00000018   -0.05425883
     atom   18 type  2   force =     0.01639387   -0.00000015    0.02124195
     atom   19 type  3   force =     0.00598790   -0.00000009   -0.01108895
     atom   20 type  3   force =    -0.00598983    0.00000011    0.01109096
     atom   21 type  2   force =    -0.01640306   -0.00000001   -0.02123890
     atom   22 type  2   force =     0.02256396    0.00000028    0.05425540
     The ionic contribution  to forces
     atom    1 type  1   force =     0.00001745    0.00000007    0.00000471
     atom    2 type  1   force =    -0.16006948   -0.00000025   -0.31458229
     atom    3 type  1   force =    -0.15543790   -0.00000021    0.17954402
     atom    4 type  1   force =     0.15543350    0.00000021   -0.17954058
     atom    5 type  1   force =     0.16008263    0.00000025    0.31457590
     atom    6 type  2   force =     0.14480518    0.00000024    0.85587827
     atom    7 type  2   force =    -0.62574516    0.00000037   -0.77961872
     atom    8 type  3   force =    -0.05425031    0.00000035    0.33521942
     atom    9 type  3   force =     0.05420656   -0.00000035   -0.33521114
     atom   10 type  2   force =     0.62570395   -0.00000037    0.77962267
     atom   11 type  2   force =    -0.14474642   -0.00000024   -0.85589242
     atom   12 type  1   force =     0.00001743   -0.00000007    0.00000506
     atom   13 type  1   force =    -0.16006967    0.00000025   -0.31458231
     atom   14 type  1   force =    -0.15543826    0.00000021    0.17954392
     atom   15 type  1   force =     0.15543386   -0.00000021   -0.17954070
     atom   16 type  1   force =     0.16008277   -0.00000025    0.31457599
     atom   17 type  2   force =     0.14480555   -0.00000024    0.85587793
     atom   18 type  2   force =    -0.62574599   -0.00000037   -0.77961848
     atom   19 type  3   force =    -0.05425073   -0.00000035    0.33521940
     atom   20 type  3   force =     0.05420704    0.00000035   -0.33521075
     atom   21 type  2   force =     0.62570450    0.00000037    0.77962216
     atom   22 type  2   force =    -0.14474651    0.00000024   -0.85589207
     The local contribution  to forces
     atom    1 type  1   force =    -0.00001861   -0.00000005   -0.00000441
     atom    2 type  1   force =     0.14702885    0.00000026    0.31506879
     atom    3 type  1   force =     0.14735808    0.00000037   -0.18957859
     atom    4 type  1   force =    -0.14735068   -0.00000016    0.18957399
     atom    5 type  1   force =    -0.14704139   -0.00000018   -0.31505877
     atom    6 type  2   force =    -0.12493436    0.00000006   -0.80753491
     atom    7 type  2   force =     0.61114622   -0.00000055    0.76066713
     atom    8 type  3   force =     0.04831027   -0.00000034   -0.32554654
     atom    9 type  3   force =    -0.04826557    0.00000033    0.32553830
     atom   10 type  2   force =    -0.61110556    0.00000021   -0.76067230
     atom   11 type  2   force =     0.12487544    0.00000039    0.80755134
     atom   12 type  1   force =    -0.00001862    0.00000006   -0.00000477
     atom   13 type  1   force =     0.14702844   -0.00000041    0.31506820
     atom   14 type  1   force =     0.14735848   -0.00000036   -0.18957852
     atom   15 type  1   force =    -0.14735074    0.00000015    0.18957403
     atom   16 type  1   force =    -0.14704024    0.00000031   -0.31505913
     atom   17 type  2   force =    -0.12493533   -0.00000005   -0.80753477
     atom   18 type  2   force =     0.61114764    0.00000065    0.76066678
     atom   19 type  3   force =     0.04831091    0.00000042   -0.32554733
     atom   20 type  3   force =    -0.04826663   -0.00000042    0.32553753
     atom   21 type  2   force =    -0.61110507   -0.00000033   -0.76067134
     atom   22 type  2   force =     0.12487540   -0.00000040    0.80755033
     The core correction contribution to forces
     atom    1 type  1   force =    -0.00000037   -0.00000000    0.00000004
     atom    2 type  1   force =    -0.00172137    0.00000001    0.00056716
     atom    3 type  1   force =    -0.00070843    0.00000002   -0.00157315
     atom    4 type  1   force =     0.00070894   -0.00000000    0.00157291
     atom    5 type  1   force =     0.00172148    0.00000000   -0.00056655
     atom    6 type  2   force =     0.00214239    0.00000002    0.00535893
     atom    7 type  2   force =    -0.00158775   -0.00000002   -0.00204054
     atom    8 type  3   force =    -0.00062378   -0.00000001    0.00096454
     atom    9 type  3   force =     0.00062399    0.00000000   -0.00096466
     atom   10 type  2   force =     0.00159500   -0.00000000    0.00203828
     atom   11 type  2   force =    -0.00215677    0.00000002   -0.00535750
     atom   12 type  1   force =    -0.00000038    0.00000000    0.00000002
     atom   13 type  1   force =    -0.00172139   -0.00000002    0.00056712
     atom   14 type  1   force =    -0.00070837   -0.00000002   -0.00157320
     atom   15 type  1   force =     0.00070896    0.00000000    0.00157290
     atom   16 type  1   force =     0.00172163    0.00000001   -0.00056660
     atom   17 type  2   force =     0.00214224   -0.00000002    0.00535893
     atom   18 type  2   force =    -0.00158773    0.00000002   -0.00204047
     atom   19 type  3   force =    -0.00062372    0.00000001    0.00096445
     atom   20 type  3   force =     0.00062397   -0.00000001   -0.00096471
     atom   21 type  2   force =     0.00159504    0.00000000    0.00203832
     atom   22 type  2   force =    -0.00215679   -0.00000003   -0.00535758
     The Hubbard contrib.    to forces
     atom    1 type  1   force =     0.00000000    0.00000000    0.00000000
     atom    2 type  1   force =     0.00000000    0.00000000    0.00000000
     atom    3 type  1   force =     0.00000000    0.00000000    0.00000000
     atom    4 type  1   force =     0.00000000    0.00000000    0.00000000
     atom    5 type  1   force =     0.00000000    0.00000000    0.00000000
     atom    6 type  2   force =     0.00000000    0.00000000    0.00000000
     atom    7 type  2   force =     0.00000000    0.00000000    0.00000000
     atom    8 type  3   force =     0.00000000    0.00000000    0.00000000
     atom    9 type  3   force =     0.00000000    0.00000000    0.00000000
     atom   10 type  2   force =     0.00000000    0.00000000    0.00000000
     atom   11 type  2   force =     0.00000000    0.00000000    0.00000000
     atom   12 type  1   force =     0.00000000    0.00000000    0.00000000
     atom   13 type  1   force =     0.00000000    0.00000000    0.00000000
     atom   14 type  1   force =     0.00000000    0.00000000    0.00000000
     atom   15 type  1   force =     0.00000000    0.00000000    0.00000000
     atom   16 type  1   force =     0.00000000    0.00000000    0.00000000
     atom   17 type  2   force =     0.00000000    0.00000000    0.00000000
     atom   18 type  2   force =     0.00000000    0.00000000    0.00000000
     atom   19 type  3   force =     0.00000000    0.00000000    0.00000000
     atom   20 type  3   force =     0.00000000    0.00000000    0.00000000
     atom   21 type  2   force =     0.00000000    0.00000000    0.00000000
     atom   22 type  2   force =     0.00000000    0.00000000    0.00000000
     The SCF correction term to forces
     atom    1 type  1   force =     0.00000002   -0.00000000   -0.00000001
     atom    2 type  1   force =     0.00000007    0.00000000    0.00000010
     atom    3 type  1   force =     0.00000001    0.00000000   -0.00000008
     atom    4 type  1   force =     0.00000002   -0.00000000    0.00000011
     atom    5 type  1   force =    -0.00000005   -0.00000000   -0.00000013
     atom    6 type  2   force =     0.00000009    0.00000000   -0.00000013
     atom    7 type  2   force =     0.00000027   -0.00000001    0.00000031
     atom    8 type  3   force =     0.00000001   -0.00000000   -0.00000015
     atom    9 type  3   force =     0.00000006    0.00000000    0.00000011
     atom   10 type  2   force =    -0.00000020    0.00000001   -0.00000032
     atom   11 type  2   force =    -0.00000010   -0.00000000    0.00000016
     atom   12 type  1   force =    -0.00000002   -0.00000000    0.00000001
     atom   13 type  1   force =     0.00000002    0.00000000    0.00000013
     atom   14 type  1   force =    -0.00000004   -0.00000000   -0.00000011
     atom   15 type  1   force =     0.00000000    0.00000000    0.00000008
     atom   16 type  1   force =    -0.00000004   -0.00000000   -0.00000010
     atom   17 type  2   force =     0.00000005    0.00000001   -0.00000019
     atom   18 type  2   force =     0.00000018   -0.00000001    0.00000035
     atom   19 type  3   force =    -0.00000006    0.00000000   -0.00000013
     atom   20 type  3   force =    -0.00000000    0.00000000    0.00000016
     atom   21 type  2   force =    -0.00000025    0.00000001   -0.00000035
     atom   22 type  2   force =    -0.00000004   -0.00000000    0.00000017

     Total force =     0.003876     Total SCF correction =     0.000001


     Computing stress (Cartesian axis) and pressure

          total   stress  (Ry/bohr**3)                   (kbar)     P=   -4.51
  -0.00002055   0.00000000  -0.00000602         -3.02      0.00     -0.89
   0.00000000  -0.00001783  -0.00000000          0.00     -2.62     -0.00
  -0.00000602  -0.00000000  -0.00005350         -0.89     -0.00     -7.87

     kinetic stress (kbar)   1349.56      0.00    -14.96
                                0.00   1367.71     -0.00
                              -14.96     -0.00   1349.96

     local   stress (kbar)    -97.57      0.00    -54.85
                                0.00     54.02      0.00
                              -54.85      0.00    154.33

     nonloc. stress (kbar)   1076.40     -0.00     -0.18
                               -0.00   1063.95     -0.00
                               -0.18     -0.00   1070.68

     hartree stress (kbar)    182.22     -0.00      2.27
                               -0.00    168.29     -0.00
                                2.27     -0.00     91.53

     exc-cor stress (kbar)   1444.44     -0.00      0.09
                               -0.00   1443.77     -0.00
                                0.09     -0.00   1443.99

     corecor stress (kbar)  -2139.86     -0.00      0.28
                               -0.00  -2138.17      0.00
                                0.28      0.00  -2138.94

     ewald   stress (kbar)  -1818.21      0.00     66.47
                                0.00  -1962.19     -0.00
                               66.47     -0.00  -1979.43

     hubbard stress (kbar)      0.00      0.00      0.00
                                0.00      0.00      0.00
                                0.00      0.00      0.00

     london  stress (kbar)      0.00      0.00      0.00
                                0.00      0.00      0.00
                                0.00      0.00      0.00

     DFT-D3  stress (kbar)      0.00      0.00      0.00
                                0.00      0.00      0.00
                                0.00      0.00      0.00

     XDM     stress (kbar)      0.00      0.00      0.00
                                0.00      0.00      0.00
                                0.00      0.00      0.00

     dft-nl  stress (kbar)      0.00      0.00      0.00
                                0.00      0.00      0.00
                                0.00      0.00      0.00

     TS-vdW  stress (kbar)      0.00      0.00      0.00
                                0.00      0.00      0.00
                                0.00      0.00      0.00



     Writing output data file aiida.save/
 
     init_run     :     24.00s CPU     24.44s WALL (       1 calls)
     electrons    :    777.30s CPU    789.95s WALL (       1 calls)
     forces       :      9.40s CPU      9.50s WALL (       1 calls)
     stress       :     65.78s CPU     66.87s WALL (       1 calls)

     Called by init_run:
     wfcinit      :     21.38s CPU     21.72s WALL (       1 calls)
     wfcinit:atom :      0.18s CPU      0.20s WALL (     196 calls)
     wfcinit:wfcr :     19.84s CPU     20.08s WALL (     196 calls)
     potinit      :      0.91s CPU      0.93s WALL (       1 calls)
     hinit0       :      1.53s CPU      1.55s WALL (       1 calls)

     Called by electrons:
     c_bands      :    696.07s CPU    706.05s WALL (      17 calls)
     sum_band     :     75.22s CPU     76.98s WALL (      17 calls)
     v_of_rho     :      1.58s CPU      1.74s WALL (      18 calls)
     v_h          :      0.11s CPU      0.12s WALL (      18 calls)
     v_xc         :      1.60s CPU      1.77s WALL (      20 calls)
     newd         :      1.51s CPU      2.22s WALL (      18 calls)
     PAW_pot      :      2.31s CPU      2.33s WALL (      18 calls)
     mix_rho      :      0.61s CPU      0.65s WALL (      17 calls)

     Called by c_bands:
     init_us_2    :     24.19s CPU     24.52s WALL (    7252 calls)
     cegterg      :    544.74s CPU    551.65s WALL (    3332 calls)

     Called by sum_band:
     sum_band:bec :      0.46s CPU      0.46s WALL (    3332 calls)
     addusdens    :      1.42s CPU      2.20s WALL (      17 calls)

     Called by *egterg:
     h_psi        :    374.67s CPU    380.27s WALL (   16081 calls)
     s_psi        :     55.82s CPU     55.99s WALL (   16081 calls)
     g_psi        :      2.65s CPU      2.67s WALL (   12553 calls)
     cdiaghg      :     59.88s CPU     60.85s WALL (   15885 calls)
     cegterg:over :     26.48s CPU     26.62s WALL (   12553 calls)
     cegterg:upda :     23.64s CPU     23.86s WALL (   12553 calls)
     cegterg:last :      9.39s CPU      9.43s WALL (    3817 calls)
     cdiaghg:chol :      3.75s CPU      3.79s WALL (   15885 calls)
     cdiaghg:inve :      0.80s CPU      0.82s WALL (   15885 calls)
     cdiaghg:para :      7.57s CPU      7.64s WALL (   31770 calls)

     Called by h_psi:
     h_psi:pot    :    372.61s CPU    378.19s WALL (   16081 calls)
     h_psi:calbec :     53.99s CPU     54.57s WALL (   16081 calls)
     vloc_psi     :    262.00s CPU    266.83s WALL (   16081 calls)
     add_vuspsi   :     56.46s CPU     56.67s WALL (   16081 calls)

     General routines
     calbec       :    105.13s CPU    106.88s WALL (   20393 calls)
     fft          :      1.41s CPU      1.53s WALL (     258 calls)
     ffts         :      0.20s CPU      0.21s WALL (     285 calls)
     fftw         :    276.21s CPU    281.17s WALL (  900172 calls)
     interpolate  :      0.15s CPU      0.15s WALL (      18 calls)
 
     Parallel routines
     fft_scatt_xy :     35.15s CPU     35.81s WALL (  900715 calls)
     fft_scatt_yz :    105.36s CPU    107.46s WALL (  900715 calls)

     PAW routines
     PAW_pot      :      2.31s CPU      2.33s WALL (      18 calls)
 
     PWSCF        :  15m 0.28s CPU  15m33.49s WALL

 
   This run was terminated on:  14:27:58  22Feb2020            

=------------------------------------------------------------------------------=
   JOB DONE.
=------------------------------------------------------------------------------=
