LAMMPS data file generated get_lammps_data.py

998 atoms
3 atom types

0.0 28.68732211273824 xlo xhi
0.0 24.84394971617839 ylo yhi
0.0 23.42310042102312 zlo zhi
14.343661056369118 14.343661056369118 8.281316572059461 xy xz yz

Masses

1 24.305
2 26.9815385
3 28.085

Atoms

    1     1 0.0  0.0  0.0
    2     1 1.4343661056369128  0.8281316572059467  2.3423100421023135
    3     1 2.8687322112738256  1.6562633144118935  4.684620084204627
    4     1 4.303098316910738  2.48439497161784  7.02693012630694
    5     1 5.737464422547651  3.312526628823787  9.369240168409254
    6     1 7.171830528184564  4.140658286029734  11.711550210511566
    7     1 8.606196633821476  4.96878994323568  14.05386025261388
    8     1 10.04056273945839  5.796921600441628  16.396170294716196
    9     1 11.474928845095302  6.625053257647574  18.738480336818508
   10     1 12.909294950732214  7.45318491485352  21.08079037892082
   11     1 1.4343661056369126  2.484394971617841  -4.3261090838483843e-17
   12     1 2.868732211273825  3.3125266288237873  2.342310042102313
   13     3 4.303098316910738  4.140658286029734  4.684620084204627
   14     3 5.73746442254765  4.968789943235681  7.026930126306939
   15     3 7.171830528184564  5.796921600441628  9.369240168409254
   16     3 8.606196633821476  6.625053257647575  11.711550210511568
   17     3 10.04056273945839  7.453184914853522  14.053860252613882
   18     3 11.474928845095302  8.281316572059469  16.396170294716196
   19     3 12.909294950732216  9.109448229265414  18.738480336818508
   20     3 14.343661056369127  9.937579886471362  21.08079037892082
   21     3 2.868732211273825  4.968789943235682  -8.652218167696769e-17
   22     3 4.303098316910738  5.796921600441627  2.3423100421023135
   23     3 5.73746442254765  6.625053257647575  4.684620084204626
   24     3 7.171830528184564  7.453184914853522  7.026930126306938
   25     2 10.04056273945839  9.109448229265416  11.711550210511566
   26     2 12.909294950732214  10.765711543677309  16.396170294716196
   27     2 14.343661056369127  11.593843200883256  18.738480336818508
   28     2 15.778027162006039  12.421974858089204  21.080790378920824
   29     2 4.303098316910737  7.453184914853521  1.6096217226180124e-16
   30     2 5.73746442254765  8.281316572059469  2.342310042102314
   31     2 7.171830528184563  9.109448229265416  4.684620084204626
   32     2 8.606196633821476  9.937579886471362  7.02693012630694
   33     2 10.04056273945839  10.765711543677309  9.369240168409254
   34     2 11.4749288450953  11.593843200883255  11.711550210511566
   35     2 12.909294950732214  12.421974858089202  14.053860252613879
   36     2 14.343661056369127  13.25010651529515  16.396170294716196
   37     2 15.77802716200604  14.078238172501097  18.73848033681851
   38     2 17.212393267642952  14.90636982970704  21.080790378920824
   39     2 5.73746442254765  9.937579886471363  -1.7304436335393537e-16
   40     2 7.171830528184564  10.765711543677309  2.342310042102313
   41     2 8.606196633821476  11.593843200883255  4.684620084204627
   42     2 10.04056273945839  12.421974858089204  7.026930126306941
   43     2 11.4749288450953  13.25010651529515  9.369240168409252
   44     2 12.909294950732214  14.078238172501097  11.711550210511565
   45     2 14.343661056369127  14.906369829707044  14.053860252613877
   46     2 15.77802716200604  15.734501486912992  16.396170294716196
   47     2 17.212393267642952  16.562633144118937  18.738480336818508
   48     2 18.646759373279863  17.390764801324885  21.08079037892082
   49     2 7.171830528184563  12.421974858089204  -3.6964921926522906e-16
   50     2 8.606196633821476  13.25010651529515  2.3423100421023126
   51     2 10.040562739458387  14.078238172501097  4.684620084204629
   52     2 11.4749288450953  14.906369829707044  7.026930126306941
   53     2 12.909294950732214  15.73450148691299  9.369240168409252
   54     2 14.343661056369125  16.562633144118937  11.711550210511565
   55     2 15.778027162006039  17.390764801324885  14.05386025261388
   56     2 17.212393267642952  18.21889645853083  16.396170294716196
   57     2 18.646759373279867  19.047028115736776  18.738480336818508
   58     2 20.08112547891678  19.875159772942723  21.08079037892082
   59     2 8.606196633821474  14.906369829707042  3.219243445236025e-16
   60     2 10.040562739458387  15.73450148691299  2.3423100421023144
   61     2 11.4749288450953  16.562633144118937  4.684620084204628
   62     2 12.909294950732212  17.390764801324885  7.02693012630694
   63     2 14.343661056369125  18.218896458530832  9.369240168409252
   64     2 15.778027162006039  19.04702811573678  11.711550210511568
   65     2 17.212393267642952  19.875159772942723  14.05386025261388
   66     2 18.646759373279863  20.70329143014867  16.396170294716196
   67     2 20.08112547891678  21.531423087354618  18.738480336818508
   68     2 21.515491584553686  22.359554744560562  21.08079037892082
   69     2 10.040562739458387  17.390764801324885  8.760962286079911e-16
   70     2 11.4749288450953  18.218896458530832  2.342310042102313
   71     2 12.909294950732214  19.047028115736776  4.684620084204627
   72     2 14.343661056369125  19.875159772942727  7.026930126306939
   73     2 15.778027162006039  20.703291430148674  9.369240168409254
   74     2 17.212393267642952  21.531423087354618  11.711550210511566
   75     2 18.646759373279863  22.359554744560565  14.053860252613879
   76     2 20.08112547891678  23.187686401766513  16.396170294716196
   77     2 21.51549158455369  24.015818058972457  18.738480336818508
   78     2 22.9498576901906  24.843949716178404  21.08079037892082
   79     2 11.4749288450953  19.875159772942727  -3.4608872670787075e-16
   80     2 12.909294950732214  20.70329143014867  2.3423100421023118
   81     2 14.343661056369127  21.531423087354618  4.684620084204626
   82     2 15.778027162006039  22.35955474456057  7.026930126306938
   83     2 17.212393267642952  23.18768640176651  9.369240168409254
   84     2 18.646759373279863  24.01581805897246  11.711550210511566
   85     2 20.08112547891678  24.843949716178408  14.053860252613882
   86     2 21.51549158455369  25.67208137338435  16.396170294716192
   87     2 22.9498576901906  26.5002130305903  18.738480336818505
   88     2 24.384223795827513  27.328344687796243  21.080790378920817
   89     2 12.909294950732212  22.359554744560565  4.828865167854037e-16
   90     2 14.343661056369124  23.187686401766513  2.3423100421023126
   91     2 15.778027162006037  24.01581805897246  4.684620084204629
   92     2 17.21239326764295  24.843949716178404  7.026930126306939
   93     2 18.646759373279863  25.67208137338435  9.369240168409254
   94     2 20.081125478916775  26.500213030590302  11.71155021051157
   95     2 21.515491584553686  27.328344687796246  14.053860252613879
   96     2 22.9498576901906  28.156476345002194  16.396170294716196
   97     2 24.384223795827513  28.984608002208137  18.738480336818508
   98     2 25.818589901464424  29.812739659414085  21.08079037892082
   99     2 2.8687322112738256  4.981604528015504e-17  -4.3261090838483843e-17
  100     2 4.303098316910739  0.8281316572059467  2.342310042102313
  101     2 5.737464422547651  1.6562633144118935  4.684620084204627
  102     2 7.171830528184564  2.48439497161784  7.026930126306939
  103     2 8.606196633821476  3.3125266288237873  9.369240168409254
  104     2 10.04056273945839  4.140658286029734  11.711550210511568
  105     2 11.474928845095302  4.968789943235681  14.053860252613882
  106     2 12.909294950732216  5.796921600441628  16.396170294716196
  107     2 14.343661056369127  6.625053257647575  18.738480336818508
  108     2 15.77802716200604  7.453184914853521  21.08079037892082
  109     2 4.303098316910738  2.484394971617841  -8.652218167696769e-17
  110     2 5.737464422547651  3.3125266288237873  2.3423100421023135
  111     2 7.171830528184564  4.140658286029734  4.684620084204626
  112     2 8.606196633821476  4.968789943235681  7.02693012630694
  113     2 10.04056273945839  5.796921600441628  9.369240168409252
  114     2 11.4749288450953  6.625053257647574  11.711550210511566
  115     2 12.909294950732214  7.453184914853522  14.053860252613882
  116     2 14.343661056369127  8.281316572059469  16.396170294716196
  117     2 15.778027162006039  9.109448229265414  18.738480336818508
  118     2 17.212393267642952  9.937579886471363  21.08079037892082
  119     2 5.73746442254765  4.968789943235681  1.6096217226180124e-16
  120     2 7.171830528184564  5.796921600441627  2.342310042102314
  121     2 8.606196633821476  6.625053257647574  4.684620084204626
  122     2 10.04056273945839  7.453184914853521  7.02693012630694
  123     2 11.4749288450953  8.281316572059469  9.369240168409254
  124     2 12.909294950732214  9.109448229265416  11.711550210511568
  125     2 14.343661056369127  9.937579886471362  14.053860252613882
  126     2 15.77802716200604  10.765711543677307  16.396170294716196
  127     2 17.212393267642952  11.593843200883255  18.738480336818508
  128     2 18.646759373279863  12.421974858089204  21.080790378920824
  129     2 7.171830528184564  7.453184914853521  -1.7304436335393537e-16
  130     2 8.606196633821476  8.281316572059469  2.342310042102313
  131     2 10.04056273945839  9.109448229265416  4.684620084204625
  132     2 11.474928845095302  9.937579886471362  7.026930126306941
  133     2 12.909294950732214  10.76571154367731  9.369240168409252
  134     2 14.343661056369127  11.593843200883255  11.711550210511565
  135     2 15.77802716200604  12.421974858089202  14.05386025261388
  136     2 17.212393267642952  13.25010651529515  16.396170294716192
  137     2 18.646759373279863  14.078238172501097  18.738480336818508
  138     2 20.08112547891678  14.906369829707042  21.08079037892082
  139     2 8.606196633821476  9.937579886471363  5.185292004348962e-16
  140     2 10.04056273945839  10.765711543677309  2.3423100421023126
  141     2 11.4749288450953  11.593843200883256  4.684620084204627
  142     2 12.909294950732214  12.421974858089204  7.026930126306941
  143     2 14.343661056369125  13.25010651529515  9.369240168409252
  144     2 15.778027162006039  14.078238172501097  11.711550210511565
  145     2 17.212393267642952  14.906369829707044  14.05386025261388
  146     2 18.646759373279867  15.734501486912992  16.396170294716196
  147     2 20.08112547891678  16.562633144118934  18.738480336818508
  148     2 21.51549158455369  17.390764801324885  21.08079037892082
  149     2 10.040562739458387  12.421974858089202  3.219243445236025e-16
  150     2 11.4749288450953  13.250106515295148  2.3423100421023144
  151     2 12.909294950732214  14.078238172501097  4.684620084204628
  152     2 14.343661056369125  14.906369829707042  7.02693012630694
  153     2 15.778027162006039  15.73450148691299  9.369240168409252
  154     2 17.212393267642952  16.562633144118937  11.711550210511565
  155     2 18.646759373279863  17.390764801324885  14.053860252613884
  156     2 20.08112547891678  18.21889645853083  16.396170294716196
  157     2 21.51549158455369  19.047028115736776  18.738480336818508
  158     2 22.9498576901906  19.875159772942727  21.08079037892082
  159     2 11.4749288450953  14.906369829707042  -9.002606107922594e-16
  160     2 12.909294950732214  15.73450148691299  2.342310042102315
  161     2 14.343661056369125  16.562633144118937  4.684620084204627
  162     2 15.778027162006039  17.390764801324885  7.026930126306939
  163     2 17.212393267642952  18.218896458530832  9.36924016840925
  164     2 18.646759373279863  19.04702811573678  11.711550210511566
  165     2 20.08112547891678  19.875159772942723  14.053860252613882
  166     2 21.51549158455369  20.70329143014867  16.396170294716196
  167     2 22.9498576901906  21.531423087354618  18.738480336818508
  168     2 24.384223795827513  22.359554744560562  21.08079037892082
  169     2 12.909294950732214  17.390764801324885  -3.4608872670787075e-16
  170     2 14.343661056369127  18.218896458530832  2.3423100421023135
  171     2 15.778027162006039  19.04702811573678  4.684620084204626
  172     2 17.212393267642952  19.875159772942727  7.026930126306938
  173     2 18.646759373279863  20.703291430148674  9.369240168409254
  174     2 20.08112547891678  21.531423087354618  11.711550210511566
  175     2 21.51549158455369  22.359554744560565  14.053860252613882
  176     2 22.949857690190605  23.187686401766513  16.396170294716192
  177     2 24.384223795827513  24.015818058972457  18.738480336818505
  178     2 25.818589901464428  24.843949716178404  21.080790378920817
  179     2 14.343661056369125  19.875159772942723  4.828865167854037e-16
  180     2 15.778027162006037  20.70329143014867  2.3423100421023144
  181     2 17.212393267642952  21.531423087354618  4.684620084204627
  182     2 18.646759373279863  22.359554744560565  7.026930126306943
  183     2 20.081125478916775  23.187686401766513  9.369240168409254
  184     2 21.51549158455369  24.01581805897246  11.711550210511566
  185     2 22.9498576901906  24.843949716178408  14.053860252613882
  186     2 24.384223795827513  25.67208137338435  16.396170294716196
  187     2 25.818589901464424  26.5002130305903  18.738480336818508
  188     2 27.25295600710134  27.328344687796246  21.08079037892082
  189     2 15.778027162006039  22.359554744560565  -7.392984385304581e-16
  190     2 17.212393267642952  23.187686401766513  2.342310042102313
  191     2 18.646759373279863  24.01581805897246  4.684620084204625
  192     2 20.081125478916775  24.843949716178404  7.026930126306941
  193     2 21.51549158455369  25.672081373384355  9.369240168409254
  194     2 22.9498576901906  26.500213030590302  11.71155021051157
  195     2 24.384223795827513  27.328344687796246  14.053860252613882
  196     2 25.818589901464428  28.156476345002194  16.396170294716192
  197     2 27.25295600710134  28.984608002208137  18.738480336818505
  198     2 28.68732211273825  29.81273965941409  21.080790378920817
  199     2 5.737464422547651  9.963209056031007e-17  -8.652218167696769e-17
  200     2 7.1718305281845645  0.8281316572059468  2.3423100421023135
  201     2 8.606196633821478  1.6562633144118935  4.684620084204626
  202     2 10.04056273945839  2.4843949716178404  7.026930126306938
  203     2 11.474928845095302  3.312526628823787  9.369240168409254
  204     2 12.909294950732214  4.140658286029734  11.711550210511566
  205     2 14.343661056369127  4.96878994323568  14.053860252613879
  206     2 15.778027162006039  5.796921600441628  16.396170294716196
  207     2 17.212393267642952  6.625053257647575  18.738480336818508
  208     2 18.646759373279867  7.45318491485352  21.080790378920824
  209     2 7.171830528184564  2.4843949716178404  1.6096217226180124e-16
  210     2 8.606196633821476  3.3125266288237873  2.342310042102314
  211     2 10.04056273945839  4.140658286029733  4.684620084204626
  212     2 11.4749288450953  4.968789943235681  7.02693012630694
  213     2 12.909294950732214  5.796921600441627  9.369240168409254
  214     2 14.343661056369127  6.625053257647574  11.711550210511568
  215     2 15.77802716200604  7.453184914853521  14.053860252613882
  216     2 17.212393267642952  8.281316572059469  16.396170294716196
  217     2 18.646759373279863  9.109448229265414  18.738480336818508
  218     2 20.08112547891678  9.937579886471362  21.080790378920824
  219     2 8.606196633821476  4.968789943235682  -1.7304436335393537e-16
  220     2 10.04056273945839  5.796921600441628  2.342310042102313
  221     2 11.474928845095302  6.625053257647575  4.684620084204627
  222     2 12.909294950732214  7.453184914853522  7.026930126306939
  223     2 14.343661056369127  8.281316572059469  9.369240168409252
  224     2 15.77802716200604  9.109448229265416  11.711550210511568
  225     2 17.212393267642952  9.937579886471362  14.05386025261388
  226     2 18.646759373279863  10.765711543677309  16.396170294716192
  227     2 20.08112547891678  11.593843200883256  18.738480336818505
  228     2 21.51549158455369  12.421974858089204  21.08079037892082
  229     2 10.04056273945839  7.453184914853521  5.185292004348962e-16
  230     2 11.4749288450953  8.281316572059469  2.3423100421023126
  231     2 12.909294950732214  9.109448229265416  4.684620084204627
  232     2 14.343661056369127  9.937579886471362  7.026930126306941
  233     2 15.778027162006039  10.765711543677309  9.369240168409254
  234     2 17.212393267642952  11.593843200883256  11.711550210511568
  235     2 18.646759373279867  12.421974858089202  14.05386025261388
  236     2 20.08112547891678  13.25010651529515  16.396170294716192
  237     2 21.51549158455369  14.078238172501099  18.738480336818508
  238     2 22.949857690190605  14.906369829707042  21.08079037892082
  239     2 11.4749288450953  9.937579886471362  3.219243445236025e-16
  240     2 12.909294950732214  10.765711543677309  2.3423100421023126
  241     2 14.343661056369127  11.593843200883255  4.684620084204628
  242     2 15.778027162006039  12.421974858089204  7.02693012630694
  243     2 17.212393267642952  13.250106515295148  9.369240168409252
  244     2 18.646759373279863  14.078238172501095  11.711550210511568
  245     2 20.08112547891678  14.906369829707042  14.05386025261388
  246     2 21.51549158455369  15.73450148691299  16.396170294716196
  247     2 22.9498576901906  16.562633144118937  18.738480336818508
  248     2 24.384223795827516  17.390764801324885  21.08079037892082
  249     2 12.909294950732214  12.421974858089204  -9.002606107922594e-16
  250     2 14.343661056369127  13.25010651529515  2.342310042102313
  251     2 15.77802716200604  14.078238172501097  4.684620084204627
  252     2 17.212393267642952  14.906369829707042  7.026930126306939
  253     2 18.646759373279863  15.73450148691299  9.36924016840925
  254     2 20.08112547891678  16.562633144118937  11.711550210511566
  255     2 21.51549158455369  17.390764801324885  14.053860252613882
  256     2 22.9498576901906  18.21889645853083  16.396170294716196
  257     2 24.384223795827516  19.04702811573678  18.738480336818508
  258     2 25.818589901464428  19.875159772942727  21.080790378920824
  259     2 14.343661056369127  14.906369829707042  -3.4608872670787075e-16
  260     2 15.77802716200604  15.734501486912992  2.3423100421023135
  261     2 17.212393267642952  16.562633144118937  4.684620084204626
  262     2 18.646759373279863  17.390764801324885  7.026930126306938
  263     2 20.08112547891678  18.218896458530832  9.36924016840925
  264     2 21.51549158455369  19.04702811573678  11.71155021051157
  265     2 22.949857690190605  19.875159772942723  14.053860252613882
  266     2 24.384223795827516  20.70329143014867  16.396170294716192
  267     2 25.818589901464428  21.53142308735462  18.738480336818505
  268     2 27.25295600710134  22.359554744560565  21.080790378920817
  269     2 15.778027162006039  17.390764801324885  2.259243356185654e-15
  270     2 17.212393267642952  18.218896458530832  2.3423100421023144
  271     2 18.646759373279863  19.047028115736776  4.684620084204627
  272     2 20.081125478916775  19.875159772942727  7.026930126306939
  273     2 21.51549158455369  20.703291430148674  9.369240168409254
  274     2 22.9498576901906  21.531423087354618  11.71155021051157
  275     2 24.384223795827516  22.359554744560565  14.053860252613882
  276     2 25.818589901464428  23.187686401766513  16.396170294716196
  277     2 27.25295600710134  24.015818058972457  18.738480336818508
  278     2 28.68732211273825  24.843949716178408  21.080790378920824
  279     2 17.212393267642952  19.875159772942727  1.0370584008697923e-15
  280     2 18.646759373279863  20.70329143014867  2.342310042102313
  281     2 20.08112547891678  21.531423087354618  4.684620084204625
  282     2 21.51549158455369  22.35955474456057  7.026930126306941
  283     2 22.9498576901906  23.187686401766513  9.369240168409254
  284     2 24.384223795827516  24.01581805897246  11.71155021051157
  285     2 25.818589901464428  24.843949716178408  14.053860252613882
  286     2 27.25295600710134  25.67208137338435  16.396170294716192
  287     2 28.68732211273825  26.5002130305903  18.738480336818505
  288     2 30.121688218375166  27.328344687796243  21.080790378920817
  289     2 18.646759373279863  22.359554744560565  -1.851265544460695e-16
  290     2 20.08112547891678  23.187686401766513  2.342310042102312
  291     2 21.51549158455369  24.01581805897246  4.684620084204628
  292     2 22.9498576901906  24.843949716178408  7.02693012630694
  293     2 24.384223795827516  25.672081373384355  9.369240168409252
  294     2 25.818589901464428  26.500213030590302  11.711550210511568
  295     2 27.25295600710134  27.328344687796246  14.05386025261388
  296     2 28.68732211273825  28.156476345002194  16.396170294716192
  297     2 30.121688218375166  28.98460800220814  18.738480336818505
  298     2 31.556054324012077  29.812739659414085  21.080790378920824
  299     2 8.606196633821476  -2.131491856290068e-16  1.6096217226180124e-16
  300     2 10.04056273945839  0.8281316572059465  2.342310042102314
  301     2 11.474928845095302  1.6562633144118937  4.684620084204626
  302     2 12.909294950732216  2.48439497161784  7.02693012630694
  303     2 14.343661056369129  3.3125266288237873  9.369240168409254
  304     2 15.77802716200604  4.140658286029733  11.711550210511566
  305     2 17.212393267642952  4.96878994323568  14.053860252613879
  306     2 18.646759373279863  5.796921600441628  16.396170294716196
  307     2 20.08112547891678  6.625053257647574  18.73848033681851
  308     2 21.515491584553693  7.453184914853519  21.080790378920824
  309     2 10.04056273945839  2.484394971617841  -1.7304436335393537e-16
  310     2 11.474928845095302  3.3125266288237873  2.342310042102313
  311     2 12.909294950732214  4.140658286029734  4.684620084204625
  312     2 14.343661056369129  4.968789943235681  7.026930126306941
  313     2 15.77802716200604  5.796921600441628  9.369240168409252
  314     2 17.212393267642952  6.625053257647574  11.711550210511565
  315     2 18.646759373279863  7.453184914853522  14.05386025261388
  316     2 20.08112547891678  8.281316572059469  16.396170294716192
  317     2 21.51549158455369  9.109448229265414  18.738480336818508
  318     2 22.9498576901906  9.937579886471362  21.08079037892082
  319     2 11.474928845095302  4.968789943235681  5.185292004348962e-16
  320     2 12.909294950732214  5.796921600441627  2.3423100421023126
  321     2 14.343661056369127  6.625053257647575  4.684620084204627
  322     2 15.778027162006039  7.453184914853521  7.026930126306941
  323     2 17.212393267642952  8.281316572059469  9.369240168409254
  324     2 18.646759373279867  9.109448229265416  11.711550210511568
  325     2 20.08112547891678  9.937579886471362  14.05386025261388
  326     2 21.51549158455369  10.765711543677309  16.396170294716192
  327     2 22.949857690190605  11.593843200883256  18.738480336818508
  328     2 24.384223795827516  12.421974858089204  21.08079037892082
  329     2 12.909294950732214  7.453184914853521  3.219243445236025e-16
  330     2 14.343661056369127  8.281316572059469  2.3423100421023144
  331     2 15.778027162006039  9.109448229265416  4.684620084204626
  332     2 17.212393267642952  9.937579886471362  7.02693012630694
  333     2 18.646759373279863  10.765711543677309  9.369240168409256
  334     2 20.08112547891678  11.593843200883255  11.711550210511568
  335     2 21.51549158455369  12.421974858089202  14.05386025261388
  336     2 22.9498576901906  13.25010651529515  16.396170294716192
  337     2 24.384223795827516  14.078238172501097  18.738480336818508
  338     2 25.818589901464428  14.90636982970704  21.08079037892082
  339     2 14.343661056369127  9.937579886471362  -9.002606107922594e-16
  340     2 15.77802716200604  10.765711543677309  2.342310042102313
  341     2 17.212393267642952  11.593843200883256  4.684620084204627
  342     2 18.646759373279863  12.421974858089204  7.026930126306941
  343     2 20.08112547891678  13.25010651529515  9.369240168409254
  344     2 21.51549158455369  14.078238172501095  11.711550210511566
  345     2 22.9498576901906  14.906369829707042  14.053860252613879
  346     2 24.384223795827516  15.734501486912992  16.396170294716196
  347     2 25.818589901464428  16.562633144118937  18.738480336818508
  348     2 27.25295600710134  17.390764801324885  21.08079037892082
  349     2 15.77802716200604  12.421974858089204  -2.1224455661081212e-15
  350     2 17.212393267642952  13.25010651529515  2.3423100421023135
  351     2 18.646759373279867  14.078238172501099  4.684620084204626
  352     2 20.08112547891678  14.906369829707042  7.026930126306938
  353     2 21.51549158455369  15.73450148691299  9.369240168409254
  354     2 22.949857690190605  16.562633144118937  11.711550210511566
  355     2 24.384223795827516  17.390764801324885  14.053860252613882
  356     2 25.818589901464428  18.218896458530832  16.396170294716192
  357     2 27.252956007101343  19.04702811573678  18.738480336818505
  358     2 28.687322112738254  19.875159772942727  21.08079037892082
  359     2 17.212393267642952  14.906369829707042  4.828865167854037e-16
  360     2 18.646759373279863  15.73450148691299  2.3423100421023144
  361     2 20.081125478916775  16.562633144118937  4.684620084204627
  362     2 21.51549158455369  17.390764801324885  7.026930126306939
  363     2 22.9498576901906  18.218896458530832  9.369240168409254
  364     2 24.384223795827516  19.04702811573678  11.71155021051157
  365     2 25.818589901464428  19.875159772942723  14.053860252613882
  366     2 27.25295600710134  20.70329143014867  16.396170294716196
  367     2 28.687322112738254  21.531423087354618  18.73848033681851
  368     2 30.121688218375166  22.359554744560562  21.08079037892082
  369     2 18.646759373279863  17.390764801324885  1.0370584008697923e-15
  370     2 20.08112547891678  18.218896458530832  2.342310042102313
  371     2 21.51549158455369  19.04702811573678  4.684620084204625
  372     2 22.9498576901906  19.875159772942727  7.0269301263069375
  373     2 24.384223795827516  20.703291430148674  9.369240168409258
  374     2 25.818589901464428  21.531423087354618  11.71155021051157
  375     2 27.25295600710134  22.359554744560565  14.053860252613882
  376     2 28.687322112738254  23.187686401766513  16.396170294716192
  377     2 30.121688218375166  24.015818058972457  18.738480336818505
  378     2 31.556054324012077  24.843949716178404  21.080790378920817
  379     2 20.08112547891678  19.875159772942727  -1.851265544460695e-16
  380     2 21.51549158455369  20.70329143014867  2.342310042102312
  381     2 22.9498576901906  21.53142308735462  4.684620084204624
  382     2 24.384223795827516  22.35955474456057  7.02693012630694
  383     2 25.818589901464428  23.187686401766513  9.369240168409256
  384     2 27.252956007101343  24.01581805897246  11.711550210511568
  385     2 28.687322112738254  24.843949716178408  14.05386025261388
  386     2 30.121688218375166  25.67208137338435  16.396170294716192
  387     2 31.556054324012077  26.500213030590302  18.738480336818508
  388     2 32.99042042964899  27.328344687796246  21.080790378920817
  389     2 21.515491584553686  22.359554744560565  6.43848689047205e-16
  390     2 22.9498576901906  23.187686401766513  2.3423100421023126
  391     2 24.384223795827513  24.01581805897246  4.684620084204629
  392     2 25.818589901464428  24.843949716178404  7.026930126306941
  393     2 27.25295600710134  25.67208137338435  9.369240168409256
  394     2 28.687322112738254  26.5002130305903  11.711550210511568
  395     2 30.121688218375162  27.328344687796243  14.05386025261388
  396     2 31.556054324012077  28.15647634500219  16.396170294716192
  397     2 32.99042042964899  28.984608002208134  18.738480336818505
  398     2 34.424786535285904  29.812739659414085  21.080790378920817
  399     2 11.474928845095302  1.9926418112062015e-16  -1.7304436335393537e-16
  400     2 12.909294950732216  0.8281316572059476  2.342310042102313
  401     2 14.343661056369129  1.6562633144118937  4.684620084204627
  402     2 15.778027162006042  2.4843949716178404  7.026930126306941
  403     2 17.212393267642955  3.312526628823787  9.369240168409252
  404     2 18.646759373279863  4.140658286029734  11.711550210511565
  405     2 20.08112547891678  4.968789943235681  14.053860252613877
  406     2 21.51549158455369  5.796921600441628  16.396170294716196
  407     2 22.949857690190605  6.625053257647574  18.738480336818508
  408     2 24.384223795827516  7.453184914853519  21.08079037892082
  409     2 12.909294950732216  2.4843949716178404  5.185292004348962e-16
  410     2 14.343661056369127  3.312526628823788  2.3423100421023126
  411     2 15.77802716200604  4.140658286029733  4.684620084204627
  412     2 17.212393267642955  4.968789943235681  7.026930126306941
  413     2 18.646759373279867  5.796921600441627  9.369240168409252
  414     2 20.08112547891678  6.625053257647574  11.711550210511565
  415     2 21.51549158455369  7.453184914853522  14.05386025261388
  416     2 22.949857690190605  8.281316572059469  16.396170294716196
  417     2 24.38422379582752  9.109448229265414  18.738480336818508
  418     2 25.818589901464428  9.937579886471362  21.08079037892082
  419     2 14.343661056369127  4.968789943235681  3.219243445236025e-16
  420     2 15.778027162006039  5.796921600441628  2.3423100421023126
  421     2 17.212393267642952  6.625053257647575  4.684620084204628
  422     2 18.646759373279863  7.453184914853522  7.02693012630694
  423     2 20.08112547891678  8.281316572059467  9.369240168409252
  424     2 21.51549158455369  9.109448229265416  11.711550210511568
  425     2 22.9498576901906  9.937579886471362  14.05386025261388