LAMMPS data file generated get_lammps_data.py

511 atoms
3 atom types

0.0 22.949857690190587 xlo xhi
0.0 19.875159772942713 ylo yhi
0.0 18.738480336818494 zlo zhi
11.474928845095295 11.474928845095295 6.625053257647569 xy xz yz

Masses

1 24.305
2 26.9815385
3 28.085

Atoms

    1     1 0.0  0.0  0.0
    2     1 1.4343661056369115  0.828131657205946  2.342310042102311
    3     1 2.868732211273823  1.656263314411892  4.684620084204622
    4     1 4.3030983169107335  2.4843949716178373  7.026930126306932
    5     1 5.737464422547646  3.312526628823784  9.369240168409243
    6     1 7.1718305281845565  4.140658286029729  11.711550210511554
    7     3 8.606196633821467  4.968789943235675  14.053860252613864
    8     3 10.04056273945838  5.796921600441621  16.396170294716175
    9     3 1.4343661056369115  2.484394971617838  -2.427627711739354e-17
   10     3 2.868732211273823  3.3125266288237842  2.342310042102311
   11     3 4.303098316910734  4.14065828602973  4.684620084204622
   12     3 5.737464422547645  4.968789943235676  7.026930126306932
   13     2 8.606196633821469  6.625053257647567  11.711550210511554
   14     2 10.040562739458379  7.453184914853514  14.053860252613863
   15     2 11.474928845095292  8.28131657205946  16.396170294716175
   16     2 2.868732211273823  4.968789943235676  -4.855255423478708e-17
   17     2 4.303098316910734  5.796921600441621  2.342310042102311
   18     2 5.737464422547646  6.6250532576475685  4.684620084204622
   19     2 7.171830528184556  7.453184914853513  7.026930126306932
   20     2 8.606196633821469  8.28131657205946  9.369240168409243
   21     2 10.04056273945838  9.109448229265405  11.711550210511554
   22     2 11.47492884509529  9.937579886471353  14.053860252613864
   23     2 12.909294950732203  10.765711543677298  16.39617029471617
   24     2 4.3030983169107335  7.453184914853514  2.1791661342507156e-16
   25     2 5.737464422547645  8.28131657205946  2.342310042102311
   26     2 7.1718305281845565  9.109448229265405  4.684620084204622
   27     2 8.606196633821467  9.937579886471351  7.026930126306932
   28     2 10.04056273945838  10.765711543677298  9.369240168409243
   29     2 11.47492884509529  11.593843200883246  11.711550210511554
   30     2 12.9092949507322  12.42197485808919  14.053860252613864
   31     2 14.343661056369113  13.250106515295135  16.396170294716175
   32     2 5.737464422547646  9.937579886471353  -9.710510846957415e-17
   33     2 7.171830528184557  10.765711543677298  2.3423100421023104
   34     2 8.606196633821469  11.593843200883242  4.684620084204622
   35     2 10.040562739458379  12.42197485808919  7.026930126306932
   36     2 11.474928845095292  13.250106515295137  9.369240168409243
   37     2 12.909294950732203  14.078238172501083  11.711550210511552
   38     2 14.343661056369111  14.906369829707026  14.053860252613864
   39     2 15.778027162006026  15.734501486912976  16.396170294716175
   40     2 7.1718305281845565  12.42197485808919  1.6936405919028449e-16
   41     2 8.606196633821469  13.250106515295135  2.3423100421023104
   42     2 10.04056273945838  14.07823817250108  4.684620084204621
   43     2 11.47492884509529  14.906369829707028  7.026930126306933
   44     2 12.909294950732203  15.734501486912974  9.369240168409242
   45     2 14.343661056369113  16.56263314411892  11.711550210511554
   46     2 15.778027162006024  17.390764801324867  14.053860252613866
   47     2 17.212393267642938  18.21889645853081  16.396170294716175
   48     2 8.606196633821467  14.906369829707028  4.3583322685014313e-16
   49     2 10.040562739458379  15.734501486912976  2.3423100421023118
   50     2 11.47492884509529  16.56263314411892  4.684620084204622
   51     2 12.909294950732201  17.390764801324867  7.026930126306932
   52     2 14.343661056369113  18.21889645853081  9.369240168409243
   53     2 15.778027162006024  19.04702811573676  11.711550210511556
   54     2 17.212393267642934  19.875159772942702  14.053860252613864
   55     2 18.64675937327985  20.70329143014865  16.396170294716175
   56     2 10.04056273945838  17.390764801324867  -3.232777048945652e-16
   57     2 11.474928845095292  18.218896458530814  2.3423100421023118
   58     2 12.909294950732203  19.047028115736758  4.684620084204621
   59     2 14.343661056369113  19.875159772942705  7.026930126306933
   60     2 15.778027162006026  20.703291430148653  9.369240168409243
   61     2 17.212393267642938  21.531423087354597  11.711550210511552
   62     2 18.646759373279846  22.359554744560544  14.053860252613864
   63     2 20.08112547891676  23.187686401766488  16.396170294716175
   64     2 2.8687322112738225  3.8741570609519026e-17  -2.427627711739354e-17
   65     2 4.303098316910734  0.828131657205946  2.342310042102311
   66     2 5.737464422547645  1.6562633144118923  4.684620084204622
   67     2 7.171830528184557  2.484394971617837  7.026930126306932
   68     2 8.606196633821467  3.312526628823784  9.369240168409242
   69     2 10.040562739458379  4.14065828602973  11.711550210511554
   70     2 11.474928845095292  4.968789943235675  14.053860252613863
   71     2 12.909294950732203  5.796921600441621  16.396170294716175
   72     2 4.3030983169107335  2.484394971617838  -4.855255423478708e-17
   73     2 5.737464422547645  3.3125266288237842  2.342310042102311
   74     2 7.171830528184556  4.14065828602973  4.684620084204621
   75     2 8.606196633821469  4.968789943235676  7.026930126306932
   76     2 10.040562739458379  5.796921600441621  9.369240168409243
   77     2 11.47492884509529  6.625053257647567  11.711550210511554
   78     2 12.909294950732203  7.453184914853513  14.053860252613864
   79     2 14.343661056369115  8.28131657205946  16.396170294716175
   80     2 5.737464422547645  4.968789943235676  6.620058232751342e-16
   81     2 7.1718305281845565  5.796921600441622  2.342310042102311
   82     2 8.606196633821467  6.6250532576475685  4.684620084204622
   83     2 10.040562739458379  7.453184914853514  7.026930126306932
   84     2 11.47492884509529  8.281316572059458  9.369240168409243
   85     2 12.9092949507322  9.109448229265405  11.711550210511552
   86     2 14.343661056369113  9.937579886471353  14.053860252613864
   87     2 15.778027162006024  10.765711543677298  16.396170294716175
   88     2 7.1718305281845565  7.453184914853514  -9.710510846957415e-17
   89     2 8.606196633821469  8.281316572059461  2.3423100421023113
   90     2 10.040562739458379  9.109448229265405  4.684620084204622
   91     2 11.474928845095292  9.937579886471351  7.026930126306932
   92     2 12.909294950732201  10.765711543677298  9.369240168409242
   93     2 14.343661056369111  11.593843200883244  11.711550210511552
   94     2 15.778027162006024  12.42197485808919  14.05386025261386
   95     2 17.212393267642938  13.250106515295135  16.396170294716175
   96     2 8.606196633821467  9.937579886471353  1.6936405919028449e-16
   97     2 10.040562739458379  10.765711543677298  2.3423100421023104
   98     2 11.47492884509529  11.593843200883242  4.684620084204621
   99     2 12.909294950732201  12.42197485808919  7.026930126306933
  100     2 14.343661056369113  13.250106515295137  9.369240168409243
  101     2 15.778027162006023  14.07823817250108  11.711550210511554
  102     2 17.212393267642934  14.906369829707026  14.053860252613863
  103     2 18.64675937327985  15.734501486912976  16.396170294716175
  104     2 10.040562739458379  12.42197485808919  4.3583322685014313e-16
  105     2 11.47492884509529  13.250106515295135  2.3423100421023118
  106     2 12.9092949507322  14.078238172501083  4.684620084204622
  107     2 14.343661056369113  14.90636982970703  7.026930126306934
  108     2 15.778027162006024  15.734501486912976  9.369240168409243
  109     2 17.212393267642934  16.56263314411892  11.711550210511556
  110     2 18.64675937327985  17.390764801324867  14.053860252613864
  111     2 20.08112547891676  18.21889645853081  16.396170294716175
  112     2 11.47492884509529  14.906369829707028  -3.232777048945652e-16
  113     2 12.909294950732201  15.734501486912974  2.34231004210231
  114     2 14.343661056369113  16.562633144118923  4.684620084204623
  115     2 15.778027162006026  17.390764801324867  7.026930126306931
  116     2 17.212393267642938  18.218896458530814  9.369240168409243
  117     2 18.646759373279846  19.04702811573676  11.711550210511556
  118     2 20.08112547891676  19.875159772942702  14.053860252613864
  119     2 21.515491584553672  20.703291430148653  16.396170294716175
  120     2 12.909294950732203  17.390764801324867  -1.942102169391483e-16
  121     2 14.343661056369115  18.218896458530814  2.3423100421023104
  122     2 15.778027162006024  19.047028115736758  4.684620084204621
  123     2 17.212393267642938  19.875159772942705  7.026930126306931
  124     2 18.64675937327985  20.703291430148653  9.369240168409243
  125     2 20.081125478916757  21.531423087354593  11.711550210511552
  126     2 21.515491584553672  22.359554744560544  14.053860252613864
  127     2 22.949857690190584  23.187686401766488  16.396170294716175
  128     2 5.737464422547645  7.748314121903805e-17  -4.855255423478708e-17
  129     2 7.171830528184555  0.8281316572059464  2.342310042102311
  130     2 8.606196633821469  1.656263314411892  4.684620084204622
  131     2 10.040562739458379  2.4843949716178373  7.026930126306932
  132     2 11.47492884509529  3.3125266288237847  9.369240168409243
  133     2 12.909294950732203  4.140658286029729  11.711550210511554
  134     2 14.343661056369115  4.968789943235674  14.053860252613864
  135     2 15.778027162006024  5.796921600441621  16.39617029471617
  136     2 7.171830528184556  2.484394971617838  6.620058232751342e-16
  137     2 8.606196633821467  3.3125266288237842  2.342310042102311
  138     2 10.040562739458379  4.140658286029729  4.684620084204622
  139     2 11.47492884509529  4.968789943235676  7.026930126306932
  140     2 12.9092949507322  5.796921600441622  9.369240168409243
  141     2 14.343661056369113  6.625053257647567  11.711550210511552
  142     2 15.778027162006024  7.453184914853513  14.053860252613864
  143     2 17.212393267642934  8.28131657205946  16.396170294716175
  144     2 8.606196633821467  4.968789943235676  -9.710510846957415e-17
  145     2 10.040562739458379  5.796921600441622  2.3423100421023104
  146     2 11.47492884509529  6.6250532576475685  4.684620084204622
  147     2 12.909294950732201  7.453184914853514  7.026930126306932
  148     2 14.343661056369111  8.28131657205946  9.369240168409242
  149     2 15.778027162006024  9.109448229265405  11.711550210511552
  150     2 17.212393267642938  9.937579886471353  14.053860252613864
  151     2 18.646759373279846  10.765711543677298  16.396170294716175
  152     2 10.040562739458379  7.453184914853514  1.6936405919028449e-16
  153     2 11.474928845095288  8.28131657205946  2.3423100421023104
  154     2 12.909294950732201  9.109448229265405  4.684620084204621
  155     2 14.343661056369113  9.937579886471351  7.026930126306933
  156     2 15.778027162006023  10.765711543677298  9.369240168409242
  157     2 17.212393267642934  11.593843200883244  11.711550210511554
  158     2 18.646759373279846  12.42197485808919  14.053860252613863
  159     2 20.081125478916757  13.250106515295133  16.396170294716175
  160     2 11.47492884509529  9.937579886471353  1.3240116465502684e-15
  161     2 12.9092949507322  10.765711543677298  2.3423100421023118
  162     2 14.343661056369113  11.593843200883244  4.684620084204622
  163     2 15.778027162006023  12.42197485808919  7.026930126306932
  164     2 17.212393267642934  13.250106515295137  9.369240168409243
  165     2 18.646759373279846  14.078238172501083  11.711550210511552
  166     2 20.081125478916757  14.906369829707028  14.053860252613864
  167     2 21.51549158455367  15.734501486912976  16.396170294716175
  168     2 12.909294950732201  12.421974858089191  -3.232777048945652e-16
  169     2 14.343661056369113  13.250106515295135  2.34231004210231
  170     2 15.778027162006024  14.078238172501083  4.684620084204623
  171     2 17.212393267642934  14.90636982970703  7.026930126306933
  172     2 18.646759373279846  15.734501486912974  9.369240168409243
  173     2 20.081125478916757  16.56263314411892  11.711550210511552
  174     2 21.515491584553672  17.39076480132487  14.053860252613864
  175     2 22.94985769019058  18.21889645853081  16.396170294716175
  176     2 14.343661056369113  14.906369829707028  -1.942102169391483e-16
  177     2 15.778027162006024  15.734501486912976  2.3423100421023104
  178     2 17.212393267642938  16.562633144118923  4.684620084204623
  179     2 18.64675937327985  17.390764801324867  7.026930126306931
  180     2 20.081125478916757  18.21889645853081  9.369240168409243
  181     2 21.515491584553672  19.04702811573676  11.711550210511552
  182     2 22.949857690190584  19.875159772942702  14.053860252613864
  183     2 24.38422379582749  20.70329143014865  16.39617029471617
  184     2 15.778027162006023  17.390764801324867  2.0966063042515207e-16
  185     2 17.212393267642934  18.218896458530814  2.342310042102312
  186     2 18.646759373279846  19.047028115736758  4.684620084204621
  187     2 20.081125478916757  19.875159772942705  7.026930126306933
  188     2 21.51549158455367  20.703291430148653  9.369240168409245
  189     2 22.94985769019058  21.531423087354593  11.711550210511554
  190     2 24.38422379582749  22.359554744560544  14.053860252613866
  191     2 25.818589901464403  23.187686401766488  16.396170294716175
  192     2 8.606196633821465  8.669429774663248e-17  2.1791661342507156e-16
  193     2 10.040562739458379  0.8281316572059457  2.342310042102311
  194     2 11.47492884509529  1.6562633144118917  4.684620084204622
  195     2 12.909294950732198  2.4843949716178373  7.026930126306932
  196     2 14.343661056369113  3.312526628823784  9.369240168409243
  197     2 15.778027162006024  4.140658286029729  11.711550210511554
  198     2 17.212393267642934  4.968789943235675  14.053860252613864
  199     2 18.646759373279846  5.796921600441621  16.396170294716175
  200     2 10.040562739458377  2.4843949716178386  -9.710510846957415e-17
  201     2 11.47492884509529  3.3125266288237842  2.3423100421023113
  202     2 12.909294950732201  4.14065828602973  4.684620084204622
  203     2 14.343661056369111  4.968789943235677  7.026930126306932
  204     2 15.778027162006024  5.796921600441622  9.369240168409242
  205     2 17.212393267642938  6.625053257647567  11.711550210511552
  206     2 18.646759373279846  7.453184914853514  14.05386025261386
  207     2 20.081125478916757  8.28131657205946  16.396170294716175
  208     2 11.474928845095288  4.968789943235676  1.6936405919028449e-16
  209     2 12.909294950732201  5.796921600441621  2.3423100421023104
  210     2 14.343661056369111  6.6250532576475685  4.684620084204621
  211     2 15.778027162006023  7.453184914853514  7.026930126306933
  212     2 17.212393267642934  8.281316572059458  9.369240168409242
  213     2 18.646759373279846  9.109448229265405  11.711550210511554
  214     2 20.081125478916757  9.937579886471353  14.053860252613863
  215     2 21.51549158455367  10.765711543677297  16.396170294716175
  216     2 12.9092949507322  7.453184914853514  4.3583322685014313e-16
  217     2 14.343661056369111  8.28131657205946  2.3423100421023118
  218     2 15.778027162006023  9.109448229265405  4.684620084204622
  219     2 17.212393267642934  9.937579886471351  7.026930126306932
  220     2 18.646759373279846  10.765711543677298  9.369240168409243
  221     2 20.081125478916757  11.593843200883244  11.711550210511556
  222     2 21.51549158455367  12.42197485808919  14.053860252613864
  223     2 22.94985769019058  13.250106515295135  16.396170294716175
  224     2 14.343661056369111  9.937579886471353  -3.232777048945652e-16
  225     2 15.778027162006024  10.765711543677298  2.34231004210231
  226     2 17.212393267642934  11.593843200883244  4.684620084204623
  227     2 18.646759373279846  12.421974858089191  7.026930126306931
  228     2 20.081125478916757  13.250106515295137  9.369240168409243
  229     2 21.51549158455367  14.078238172501083  11.711550210511552
  230     2 22.94985769019058  14.906369829707026  14.053860252613864
  231     2 24.38422379582749  15.734501486912976  16.396170294716175
  232     2 15.778027162006023  12.421974858089191  -1.942102169391483e-16
  233     2 17.212393267642938  13.250106515295137  2.3423100421023104
  234     2 18.646759373279846  14.078238172501083  4.684620084204621
  235     2 20.081125478916757  14.90636982970703  7.026930126306931
  236     2 21.51549158455367  15.734501486912976  9.36924016840924
  237     2 22.94985769019058  16.56263314411892  11.711550210511552
  238     2 24.38422379582749  17.390764801324867  14.053860252613864
  239     2 25.818589901464403  18.21889645853081  16.396170294716175
  240     2 17.212393267642934  14.906369829707026  2.0966063042515207e-16
  241     2 18.646759373279846  15.734501486912974  2.342310042102312
  242     2 20.081125478916757  16.562633144118923  4.684620084204623
  243     2 21.515491584553665  17.390764801324867  7.026930126306933
  244     2 22.94985769019058  18.21889645853081  9.369240168409242
  245     2 24.38422379582749  19.04702811573676  11.711550210511554
  246     2 25.818589901464403  19.875159772942702  14.053860252613866
  247     2 27.252956007101314  20.70329143014865  16.396170294716175
  248     2 18.646759373279846  17.390764801324867  3.3872811838056897e-16
  249     2 20.081125478916757  18.218896458530814  2.3423100421023126
  250     2 21.51549158455367  19.047028115736758  4.684620084204621
  251     2 22.949857690190576  19.875159772942702  7.026930126306933
  252     2 24.38422379582749  20.703291430148653  9.369240168409242
  253     2 25.818589901464403  21.531423087354593  11.711550210511554
  254     2 27.252956007101314  22.35955474456054  14.053860252613863
  255     2 28.687322112738226  23.187686401766488  16.396170294716175
  256     2 11.47492884509529  1.549662824380761e-16  -9.710510846957415e-17
  257     2 12.9092949507322  0.8281316572059462  2.3423100421023104
  258     2 14.34366105636911  1.6562633144118928  4.684620084204622
  259     2 15.778027162006023  2.4843949716178373  7.026930126306932
  260     2 17.212393267642938  3.312526628823784  9.369240168409243
  261     2 18.646759373279846  4.14065828602973  11.711550210511552
  262     2 20.081125478916757  4.968789943235675  14.053860252613864
  263     2 21.51549158455367  5.796921600441622  16.396170294716175
  264     2 12.9092949507322  2.484394971617838  1.6936405919028449e-16
  265     2 14.343661056369111  3.3125266288237842  2.3423100421023104
  266     2 15.77802716200602  4.14065828602973  4.684620084204621
  267     2 17.212393267642934  4.968789943235676  7.026930126306933
  268     2 18.646759373279846  5.796921600441621  9.369240168409243
  269     2 20.081125478916757  6.625053257647567  11.711550210511554
  270     2 21.51549158455367  7.453184914853513  14.053860252613863
  271     2 22.94985769019058  8.28131657205946  16.396170294716175
  272     2 14.343661056369111  4.968789943235676  1.3240116465502684e-15
  273     2 15.778027162006023  5.796921600441621  2.3423100421023118
  274     2 17.212393267642934  6.6250532576475685  4.684620084204622
  275     2 18.646759373279846  7.453184914853513  7.026930126306932
  276     2 20.081125478916757  8.281316572059458  9.369240168409243
  277     2 21.51549158455367  9.109448229265405  11.711550210511552
  278     2 22.94985769019058  9.937579886471353  14.053860252613864
  279     2 24.38422379582749  10.765711543677298  16.396170294716175
  280     2 15.778027162006024  7.453184914853514  -3.232777048945652e-16
  281     2 17.212393267642934  8.281316572059461  2.34231004210231
  282     2 18.646759373279846  9.109448229265407  4.684620084204623
  283     2 20.081125478916757  9.937579886471351  7.026930126306931
  284     2 21.51549158455367  10.765711543677298  9.369240168409243
  285     2 22.94985769019058  11.593843200883246  11.711550210511552
  286     2 24.38422379582749  12.42197485808919  14.053860252613864
  287     2 25.818589901464403  13.250106515295135  16.396170294716175
  288     2 17.212393267642934  9.937579886471353  -1.942102169391483e-16
  289     2 18.646759373279846  10.765711543677298  2.3423100421023104
  290     2 20.081125478916757  11.593843200883244  4.684620084204621
  291     2 21.51549158455367  12.421974858089191  7.026930126306931
  292     2 22.94985769019058  13.250106515295137  9.369240168409243
  293     2 24.38422379582749  14.078238172501083  11.711550210511552
  294     2 25.818589901464403  14.906369829707028  14.053860252613864
  295     2 27.252956007101314  15.734501486912977  16.396170294716175
  296     2 18.646759373279846  12.42197485808919  2.0966063042515207e-16
  297     2 20.081125478916757  13.250106515295135  2.342310042102312
  298     2 21.515491584553665  14.078238172501083  4.684620084204621
  299     2 22.94985769019058  14.906369829707028  7.026930126306933
  300     2 24.38422379582749  15.734501486912974  9.369240168409242
  301     2 25.8185899014644  16.56263314411892  11.711550210511554
  302     2 27.252956007101314  17.390764801324867  14.053860252613866
  303     2 28.687322112738226  18.21889645853081  16.39617029471618
  304     2 20.081125478916757  14.906369829707028  3.3872811838056897e-16
  305     2 21.51549158455367  15.734501486912974  2.342310042102311
  306     2 22.949857690190576  16.56263314411892  4.684620084204621
  307     2 24.38422379582749  17.390764801324867  7.0269301263069295
  308     2 25.818589901464403  18.21889645853081  9.369240168409242
  309     2 27.252956007101314  19.047028115736758  11.711550210511554
  310     2 28.687322112738226  19.875159772942702  14.053860252613866
  311     2 30.121688218375137  20.70329143014865  16.396170294716175
  312     2 21.51549158455367  17.390764801324867  4.677956063359859e-16
  313     2 22.94985769019058  18.218896458530814  2.342310042102311
  314     2 24.38422379582749  19.047028115736758  4.684620084204622
  315     2 25.818589901464403  19.875159772942705  7.02693012630693
  316     2 27.252956007101318  20.703291430148653  9.369240168409242
  317     2 28.687322112738226  21.531423087354593  11.711550210511554
  318     2 30.121688218375137  22.359554744560544  14.053860252613863
  319     2 31.55605432401205  23.187686401766488  16.396170294716175
  320     2 14.343661056369111  -5.786716595936077e-17  1.6936405919028449e-16
  321     2 15.77802716200602  0.8281316572059464  2.3423100421023104
  322     2 17.212393267642934  1.6562633144118921  4.684620084204621
  323     2 18.646759373279846  2.484394971617837  7.026930126306933
  324     2 20.081125478916757  3.3125266288237842  9.369240168409242
  325     2 21.51549158455367  4.140658286029729  11.711550210511554
  326     2 22.94985769019058  4.968789943235675  14.053860252613866
  327     2 24.384223795827488  5.796921600441622  16.396170294716175
  328     2 15.77802716200602  2.4843949716178377  4.3583322685014313e-16
  329     2 17.21239326764293  3.3125266288237842  2.3423100421023118
  330     2 18.646759373279846  4.140658286029729  4.684620084204622
  331     2 20.081125478916757  4.9687899432356755  7.026930126306934
  332     2 21.51549158455367  5.796921600441621  9.369240168409243
  333     2 22.94985769019058  6.625053257647566  11.711550210511556
  334     2 24.38422379582749  7.453184914853513  14.053860252613864
  335     2 25.8185899014644  8.281316572059461  16.396170294716175
  336     2 17.212393267642934  4.968789943235676  -3.232777048945652e-16
  337     2 18.646759373279842  5.796921600441622  2.34231004210231
  338     2 20.081125478916757  6.6250532576475685  4.684620084204623
  339     2 21.51549158455367  7.453184914853513  7.026930126306933
  340     2 22.94985769019058  8.28131657205946  9.369240168409243
  341     2 24.38422379582749  9.109448229265405  11.711550210511552
  342     2 25.818589901464403  9.937579886471353  14.053860252613864
  343     2 27.25295600710131  10.765711543677298  16.396170294716175
  344     2 18.646759373279846  7.453184914853514  -1.942102169391483e-16
  345     2 20.081125478916757  8.281316572059461  2.3423100421023104
  346     2 21.51549158455367  9.109448229265407  4.684620084204621
  347     2 22.94985769019058  9.937579886471351  7.026930126306931
  348     2 24.38422379582749  10.765711543677298  9.36924016840924
  349     2 25.818589901464403  11.593843200883246  11.711550210511552
  350     2 27.252956007101314  12.421974858089191  14.053860252613864
  351     2 28.687322112738222  13.250106515295137  16.396170294716175
  352     2 20.081125478916757  9.937579886471353  2.0966063042515207e-16
  353     2 21.515491584553665  10.765711543677298  2.342310042102312
  354     2 22.94985769019058  11.593843200883242  4.684620084204621
  355     2 24.38422379582749  12.42197485808919  7.026930126306933
  356     2 25.8185899014644  13.250106515295137  9.369240168409242
  357     2 27.25295600710131  14.07823817250108  11.711550210511554
  358     2 28.687322112738222  14.906369829707026  14.053860252613866
  359     2 30.121688218375134  15.734501486912976  16.39617029471618
  360     2 21.51549158455367  12.42197485808919  3.3872811838056897e-16
  361     2 22.949857690190576  13.250106515295135  2.342310042102311
  362     2 24.38422379582749  14.078238172501083  4.684620084204621
  363     2 25.818589901464403  14.906369829707028  7.026930126306933
  364     2 27.25295600710131  15.734501486912974  9.369240168409242
  365     2 28.687322112738222  16.56263314411892  11.711550210511554
  366     2 30.121688218375137  17.390764801324867  14.053860252613866
  367     2 31.556054324012045  18.21889645853081  16.396170294716175
  368     2 22.94985769019058  14.906369829707028  4.677956063359859e-16
  369     2 24.38422379582749  15.734501486912976  2.342310042102309
  370     2 25.818589901464403  16.562633144118923  4.684620084204622
  371     2 27.252956007101314  17.390764801324867  7.02693012630693
  372     2 28.687322112738226  18.21889645853081  9.369240168409242
  373     2 30.121688218375137  19.04702811573676  11.711550210511554
  374     2 31.55605432401205  19.875159772942702  14.053860252613866
  375     2 32.99042042964896  20.703291430148653  16.39617029471617
  376     2 24.384223795827488  17.390764801324867  8.716664537002863e-16
  377     2 25.8185899014644  18.218896458530814  2.3423100421023113
  378     2 27.25295600710131  19.047028115736758  4.68462008420462
  379     2 28.687322112738222  19.875159772942705  7.026930126306932
  380     2 30.121688218375134  20.703291430148653  9.369240168409243
  381     2 31.556054324012045  21.531423087354593  11.711550210511556
  382     2 32.99042042964896  22.359554744560544  14.053860252613864
  383     2 34.42478653528587  23.187686401766488  16.396170294716175
  384     2 17.21239326764293  1.7338859549326496e-16  4.3583322685014313e-16
  385     2 18.646759373279846  0.8281316572059458  2.3423100421023118
  386     2 20.081125478916757  1.6562633144118915  4.684620084204622
  387     2 21.515491584553665  2.484394971617837  7.026930126306932
  388     2 22.94985769019058  3.3125266288237833  9.369240168409243
  389     2 24.38422379582749  4.140658286029729  11.711550210511556
  390     2 25.818589901464396  4.968789943235675  14.053860252613864
  391     2 27.252956007101314  5.79692160044162  16.396170294716175
  392     2 18.646759373279842  2.484394971617839  -3.232777048945652e-16
  393     2 20.081125478916757  3.3125266288237847  2.34231004210231
  394     2 21.51549158455367  4.140658286029729  4.684620084204623
  395     2 22.94985769019058  4.968789943235676  7.026930126306931
  396     2 24.38422379582749  5.796921600441621  9.369240168409243
  397     2 25.818589901464403  6.625053257647567  11.711550210511556
  398     2 27.25295600710131  7.453184914853514  14.053860252613864
  399     2 28.687322112738226  8.28131657205946  16.396170294716175
  400     2 20.081125478916753  4.968789943235677  -1.942102169391483e-16
  401     2 21.51549158455367  5.796921600441622  2.3423100421023104
  402     2 22.94985769019058  6.6250532576475685  4.684620084204623
  403     2 24.38422379582749  7.453184914853514  7.026930126306931
  404     2 25.818589901464403  8.28131657205946  9.369240168409243
  405     2 27.252956007101314  9.109448229265407  11.711550210511552
  406     2 28.687322112738222  9.937579886471354  14.053860252613864
  407     2 30.121688218375137  10.765711543677298  16.39617029471617
  408     2 21.515491584553665  7.453184914853514  2.0966063042515207e-16
  409     2 22.94985769019058  8.28131657205946  2.342310042102312
  410     2 24.38422379582749  9.109448229265405  4.684620084204623
  411     2 25.8185899014644  9.937579886471351  7.026930126306933
  412     2 27.25295600710131  10.765711543677297  9.369240168409242
  413     2 28.687322112738222  11.593843200883244  11.711550210511554
  414     2 30.121688218375134  12.42197485808919  14.053860252613866
  415     2 31.55605432401205  13.250106515295133  16.396170294716175
  416     2 22.949857690190576  9.937579886471353  3.3872811838056897e-16
  417     2 24.38422379582749  10.765711543677298  2.342310042102311
  418     2 25.818589901464403  11.593843200883242  4.684620084204621
  419     2 27.25295600710131  12.42197485808919  7.0269301263069295
  420     2 28.687322112738222  13.250106515295137  9.369240168409242
  421     2 30.121688218375134  14.078238172501083  11.711550210511554
  422     2 31.556054324012045  14.906369829707028  14.053860252613866
  423     2 32.99042042964896  15.734501486912976  16.396170294716175
  424     2 24.38422379582749  12.421974858089191  4.677956063359859e-16