LAMMPS data file generated get_lammps_data.py

510 atoms
3 atom types

0.0 22.949857690190587 xlo xhi
0.0 19.875159772942713 ylo yhi
0.0 18.738480336818494 zlo zhi
11.474928845095295 11.474928845095295 6.625053257647569 xy xz yz

Masses

1 24.305
2 26.9815385
3 28.085

Atoms

    1     1 0.0  0.0  0.0
    2     1 1.4343661056369115  0.828131657205946  2.342310042102311
    3     1 2.868732211273823  1.656263314411892  4.684620084204622
    4     1 4.3030983169107335  2.4843949716178373  7.026930126306932
    5     1 5.737464422547646  3.312526628823784  9.369240168409243
    6     1 7.1718305281845565  4.140658286029729  11.711550210511554
    7     3 8.606196633821467  4.968789943235675  14.053860252613864
    8     3 10.04056273945838  5.796921600441621  16.396170294716175
    9     3 1.4343661056369115  2.484394971617838  -2.427627711739354e-17
   10     3 2.868732211273823  3.3125266288237842  2.342310042102311
   11     3 4.303098316910734  4.14065828602973  4.684620084204622
   12     3 5.737464422547645  4.968789943235676  7.026930126306932
   13     2 8.606196633821469  6.625053257647567  11.711550210511554
   14     2 11.474928845095292  8.28131657205946  16.396170294716175
   15     2 2.868732211273823  4.968789943235676  -4.855255423478708e-17
   16     2 4.303098316910734  5.796921600441621  2.342310042102311
   17     2 5.737464422547646  6.6250532576475685  4.684620084204622
   18     2 7.171830528184556  7.453184914853513  7.026930126306932
   19     2 8.606196633821469  8.28131657205946  9.369240168409243
   20     2 10.04056273945838  9.109448229265405  11.711550210511554
   21     2 11.47492884509529  9.937579886471353  14.053860252613864
   22     2 12.909294950732203  10.765711543677298  16.39617029471617
   23     2 4.3030983169107335  7.453184914853514  2.1791661342507156e-16
   24     2 5.737464422547645  8.28131657205946  2.342310042102311
   25     2 7.1718305281845565  9.109448229265405  4.684620084204622
   26     2 8.606196633821467  9.937579886471351  7.026930126306932
   27     2 10.04056273945838  10.765711543677298  9.369240168409243
   28     2 11.47492884509529  11.593843200883246  11.711550210511554
   29     2 12.9092949507322  12.42197485808919  14.053860252613864
   30     2 14.343661056369113  13.250106515295135  16.396170294716175
   31     2 5.737464422547646  9.937579886471353  -9.710510846957415e-17
   32     2 7.171830528184557  10.765711543677298  2.3423100421023104
   33     2 8.606196633821469  11.593843200883242  4.684620084204622
   34     2 10.040562739458379  12.42197485808919  7.026930126306932
   35     2 11.474928845095292  13.250106515295137  9.369240168409243
   36     2 12.909294950732203  14.078238172501083  11.711550210511552
   37     2 14.343661056369111  14.906369829707026  14.053860252613864
   38     2 15.778027162006026  15.734501486912976  16.396170294716175
   39     2 7.1718305281845565  12.42197485808919  1.6936405919028449e-16
   40     2 8.606196633821469  13.250106515295135  2.3423100421023104
   41     2 10.04056273945838  14.07823817250108  4.684620084204621
   42     2 11.47492884509529  14.906369829707028  7.026930126306933
   43     2 12.909294950732203  15.734501486912974  9.369240168409242
   44     2 14.343661056369113  16.56263314411892  11.711550210511554
   45     2 15.778027162006024  17.390764801324867  14.053860252613866
   46     2 17.212393267642938  18.21889645853081  16.396170294716175
   47     2 8.606196633821467  14.906369829707028  4.3583322685014313e-16
   48     2 10.040562739458379  15.734501486912976  2.3423100421023118
   49     2 11.47492884509529  16.56263314411892  4.684620084204622
   50     2 12.909294950732201  17.390764801324867  7.026930126306932
   51     2 14.343661056369113  18.21889645853081  9.369240168409243
   52     2 15.778027162006024  19.04702811573676  11.711550210511556
   53     2 17.212393267642934  19.875159772942702  14.053860252613864
   54     2 18.64675937327985  20.70329143014865  16.396170294716175
   55     2 10.04056273945838  17.390764801324867  -3.232777048945652e-16
   56     2 11.474928845095292  18.218896458530814  2.3423100421023118
   57     2 12.909294950732203  19.047028115736758  4.684620084204621
   58     2 14.343661056369113  19.875159772942705  7.026930126306933
   59     2 15.778027162006026  20.703291430148653  9.369240168409243
   60     2 17.212393267642938  21.531423087354597  11.711550210511552
   61     2 18.646759373279846  22.359554744560544  14.053860252613864
   62     2 20.08112547891676  23.187686401766488  16.396170294716175
   63     2 2.8687322112738225  3.8741570609519026e-17  -2.427627711739354e-17
   64     2 4.303098316910734  0.828131657205946  2.342310042102311
   65     2 5.737464422547645  1.6562633144118923  4.684620084204622
   66     2 7.171830528184557  2.484394971617837  7.026930126306932
   67     2 8.606196633821467  3.312526628823784  9.369240168409242
   68     2 10.040562739458379  4.14065828602973  11.711550210511554
   69     2 11.474928845095292  4.968789943235675  14.053860252613863
   70     2 12.909294950732203  5.796921600441621  16.396170294716175
   71     2 4.3030983169107335  2.484394971617838  -4.855255423478708e-17
   72     2 5.737464422547645  3.3125266288237842  2.342310042102311
   73     2 7.171830528184556  4.14065828602973  4.684620084204621
   74     2 8.606196633821469  4.968789943235676  7.026930126306932
   75     2 10.040562739458379  5.796921600441621  9.369240168409243
   76     2 11.47492884509529  6.625053257647567  11.711550210511554
   77     2 12.909294950732203  7.453184914853513  14.053860252613864
   78     2 14.343661056369115  8.28131657205946  16.396170294716175
   79     2 5.737464422547645  4.968789943235676  6.620058232751342e-16
   80     2 7.1718305281845565  5.796921600441622  2.342310042102311
   81     2 8.606196633821467  6.6250532576475685  4.684620084204622
   82     2 10.040562739458379  7.453184914853514  7.026930126306932
   83     2 11.47492884509529  8.281316572059458  9.369240168409243
   84     2 12.9092949507322  9.109448229265405  11.711550210511552
   85     2 14.343661056369113  9.937579886471353  14.053860252613864
   86     2 15.778027162006024  10.765711543677298  16.396170294716175
   87     2 7.1718305281845565  7.453184914853514  -9.710510846957415e-17
   88     2 8.606196633821469  8.281316572059461  2.3423100421023113
   89     2 10.040562739458379  9.109448229265405  4.684620084204622
   90     2 11.474928845095292  9.937579886471351  7.026930126306932
   91     2 12.909294950732201  10.765711543677298  9.369240168409242
   92     2 14.343661056369111  11.593843200883244  11.711550210511552
   93     2 15.778027162006024  12.42197485808919  14.05386025261386
   94     2 17.212393267642938  13.250106515295135  16.396170294716175
   95     2 8.606196633821467  9.937579886471353  1.6936405919028449e-16
   96     2 10.040562739458379  10.765711543677298  2.3423100421023104
   97     2 11.47492884509529  11.593843200883242  4.684620084204621
   98     2 12.909294950732201  12.42197485808919  7.026930126306933
   99     2 14.343661056369113  13.250106515295137  9.369240168409243
  100     2 15.778027162006023  14.07823817250108  11.711550210511554
  101     2 17.212393267642934  14.906369829707026  14.053860252613863
  102     2 18.64675937327985  15.734501486912976  16.396170294716175
  103     2 10.040562739458379  12.42197485808919  4.3583322685014313e-16
  104     2 11.47492884509529  13.250106515295135  2.3423100421023118
  105     2 12.9092949507322  14.078238172501083  4.684620084204622
  106     2 14.343661056369113  14.90636982970703  7.026930126306934
  107     2 15.778027162006024  15.734501486912976  9.369240168409243
  108     2 17.212393267642934  16.56263314411892  11.711550210511556
  109     2 18.64675937327985  17.390764801324867  14.053860252613864
  110     2 20.08112547891676  18.21889645853081  16.396170294716175
  111     2 11.47492884509529  14.906369829707028  -3.232777048945652e-16
  112     2 12.909294950732201  15.734501486912974  2.34231004210231
  113     2 14.343661056369113  16.562633144118923  4.684620084204623
  114     2 15.778027162006026  17.390764801324867  7.026930126306931
  115     2 17.212393267642938  18.218896458530814  9.369240168409243
  116     2 18.646759373279846  19.04702811573676  11.711550210511556
  117     2 20.08112547891676  19.875159772942702  14.053860252613864
  118     2 21.515491584553672  20.703291430148653  16.396170294716175
  119     2 12.909294950732203  17.390764801324867  -1.942102169391483e-16
  120     2 14.343661056369115  18.218896458530814  2.3423100421023104
  121     2 15.778027162006024  19.047028115736758  4.684620084204621
  122     2 17.212393267642938  19.875159772942705  7.026930126306931
  123     2 18.64675937327985  20.703291430148653  9.369240168409243
  124     2 20.081125478916757  21.531423087354593  11.711550210511552
  125     2 21.515491584553672  22.359554744560544  14.053860252613864
  126     2 22.949857690190584  23.187686401766488  16.396170294716175
  127     2 5.737464422547645  7.748314121903805e-17  -4.855255423478708e-17
  128     2 7.171830528184555  0.8281316572059464  2.342310042102311
  129     2 8.606196633821469  1.656263314411892  4.684620084204622
  130     2 10.040562739458379  2.4843949716178373  7.026930126306932
  131     2 11.47492884509529  3.3125266288237847  9.369240168409243
  132     2 12.909294950732203  4.140658286029729  11.711550210511554
  133     2 14.343661056369115  4.968789943235674  14.053860252613864
  134     2 15.778027162006024  5.796921600441621  16.39617029471617
  135     2 7.171830528184556  2.484394971617838  6.620058232751342e-16
  136     2 8.606196633821467  3.3125266288237842  2.342310042102311
  137     2 10.040562739458379  4.140658286029729  4.684620084204622
  138     2 11.47492884509529  4.968789943235676  7.026930126306932
  139     2 12.9092949507322  5.796921600441622  9.369240168409243
  140     2 14.343661056369113  6.625053257647567  11.711550210511552
  141     2 15.778027162006024  7.453184914853513  14.053860252613864
  142     2 17.212393267642934  8.28131657205946  16.396170294716175
  143     2 8.606196633821467  4.968789943235676  -9.710510846957415e-17
  144     2 10.040562739458379  5.796921600441622  2.3423100421023104
  145     2 11.47492884509529  6.6250532576475685  4.684620084204622
  146     2 12.909294950732201  7.453184914853514  7.026930126306932
  147     2 14.343661056369111  8.28131657205946  9.369240168409242
  148     2 15.778027162006024  9.109448229265405  11.711550210511552
  149     2 17.212393267642938  9.937579886471353  14.053860252613864
  150     2 18.646759373279846  10.765711543677298  16.396170294716175
  151     2 10.040562739458379  7.453184914853514  1.6936405919028449e-16
  152     2 11.474928845095288  8.28131657205946  2.3423100421023104
  153     2 12.909294950732201  9.109448229265405  4.684620084204621
  154     2 14.343661056369113  9.937579886471351  7.026930126306933
  155     2 15.778027162006023  10.765711543677298  9.369240168409242
  156     2 17.212393267642934  11.593843200883244  11.711550210511554
  157     2 18.646759373279846  12.42197485808919  14.053860252613863
  158     2 20.081125478916757  13.250106515295133  16.396170294716175
  159     2 11.47492884509529  9.937579886471353  1.3240116465502684e-15
  160     2 12.9092949507322  10.765711543677298  2.3423100421023118
  161     2 14.343661056369113  11.593843200883244  4.684620084204622
  162     2 15.778027162006023  12.42197485808919  7.026930126306932
  163     2 17.212393267642934  13.250106515295137  9.369240168409243
  164     2 18.646759373279846  14.078238172501083  11.711550210511552
  165     2 20.081125478916757  14.906369829707028  14.053860252613864
  166     2 21.51549158455367  15.734501486912976  16.396170294716175
  167     2 12.909294950732201  12.421974858089191  -3.232777048945652e-16
  168     2 14.343661056369113  13.250106515295135  2.34231004210231
  169     2 15.778027162006024  14.078238172501083  4.684620084204623
  170     2 17.212393267642934  14.90636982970703  7.026930126306933
  171     2 18.646759373279846  15.734501486912974  9.369240168409243
  172     2 20.081125478916757  16.56263314411892  11.711550210511552
  173     2 21.515491584553672  17.39076480132487  14.053860252613864
  174     2 22.94985769019058  18.21889645853081  16.396170294716175
  175     2 14.343661056369113  14.906369829707028  -1.942102169391483e-16
  176     2 15.778027162006024  15.734501486912976  2.3423100421023104
  177     2 17.212393267642938  16.562633144118923  4.684620084204623
  178     2 18.64675937327985  17.390764801324867  7.026930126306931
  179     2 20.081125478916757  18.21889645853081  9.369240168409243
  180     2 21.515491584553672  19.04702811573676  11.711550210511552
  181     2 22.949857690190584  19.875159772942702  14.053860252613864
  182     2 24.38422379582749  20.70329143014865  16.39617029471617
  183     2 15.778027162006023  17.390764801324867  2.0966063042515207e-16
  184     2 17.212393267642934  18.218896458530814  2.342310042102312
  185     2 18.646759373279846  19.047028115736758  4.684620084204621
  186     2 20.081125478916757  19.875159772942705  7.026930126306933
  187     2 21.51549158455367  20.703291430148653  9.369240168409245
  188     2 22.94985769019058  21.531423087354593  11.711550210511554
  189     2 24.38422379582749  22.359554744560544  14.053860252613866
  190     2 25.818589901464403  23.187686401766488  16.396170294716175
  191     2 8.606196633821465  8.669429774663248e-17  2.1791661342507156e-16
  192     2 10.040562739458379  0.8281316572059457  2.342310042102311
  193     2 11.47492884509529  1.6562633144118917  4.684620084204622
  194     2 12.909294950732198  2.4843949716178373  7.026930126306932
  195     2 14.343661056369113  3.312526628823784  9.369240168409243
  196     2 15.778027162006024  4.140658286029729  11.711550210511554
  197     2 17.212393267642934  4.968789943235675  14.053860252613864
  198     2 18.646759373279846  5.796921600441621  16.396170294716175
  199     2 10.040562739458377  2.4843949716178386  -9.710510846957415e-17
  200     2 11.47492884509529  3.3125266288237842  2.3423100421023113
  201     2 12.909294950732201  4.14065828602973  4.684620084204622
  202     2 14.343661056369111  4.968789943235677  7.026930126306932
  203     2 15.778027162006024  5.796921600441622  9.369240168409242
  204     2 17.212393267642938  6.625053257647567  11.711550210511552
  205     2 18.646759373279846  7.453184914853514  14.05386025261386
  206     2 20.081125478916757  8.28131657205946  16.396170294716175
  207     2 11.474928845095288  4.968789943235676  1.6936405919028449e-16
  208     2 12.909294950732201  5.796921600441621  2.3423100421023104
  209     2 14.343661056369111  6.6250532576475685  4.684620084204621
  210     2 15.778027162006023  7.453184914853514  7.026930126306933
  211     2 17.212393267642934  8.281316572059458  9.369240168409242
  212     2 18.646759373279846  9.109448229265405  11.711550210511554
  213     2 20.081125478916757  9.937579886471353  14.053860252613863
  214     2 21.51549158455367  10.765711543677297  16.396170294716175
  215     2 12.9092949507322  7.453184914853514  4.3583322685014313e-16
  216     2 14.343661056369111  8.28131657205946  2.3423100421023118
  217     2 15.778027162006023  9.109448229265405  4.684620084204622
  218     2 17.212393267642934  9.937579886471351  7.026930126306932
  219     2 18.646759373279846  10.765711543677298  9.369240168409243
  220     2 20.081125478916757  11.593843200883244  11.711550210511556
  221     2 21.51549158455367  12.42197485808919  14.053860252613864
  222     2 22.94985769019058  13.250106515295135  16.396170294716175
  223     2 14.343661056369111  9.937579886471353  -3.232777048945652e-16
  224     2 15.778027162006024  10.765711543677298  2.34231004210231
  225     2 17.212393267642934  11.593843200883244  4.684620084204623
  226     2 18.646759373279846  12.421974858089191  7.026930126306931
  227     2 20.081125478916757  13.250106515295137  9.369240168409243
  228     2 21.51549158455367  14.078238172501083  11.711550210511552
  229     2 22.94985769019058  14.906369829707026  14.053860252613864
  230     2 24.38422379582749  15.734501486912976  16.396170294716175
  231     2 15.778027162006023  12.421974858089191  -1.942102169391483e-16
  232     2 17.212393267642938  13.250106515295137  2.3423100421023104
  233     2 18.646759373279846  14.078238172501083  4.684620084204621
  234     2 20.081125478916757  14.90636982970703  7.026930126306931
  235     2 21.51549158455367  15.734501486912976  9.36924016840924
  236     2 22.94985769019058  16.56263314411892  11.711550210511552
  237     2 24.38422379582749  17.390764801324867  14.053860252613864
  238     2 25.818589901464403  18.21889645853081  16.396170294716175
  239     2 17.212393267642934  14.906369829707026  2.0966063042515207e-16
  240     2 18.646759373279846  15.734501486912974  2.342310042102312
  241     2 20.081125478916757  16.562633144118923  4.684620084204623
  242     2 21.515491584553665  17.390764801324867  7.026930126306933
  243     2 22.94985769019058  18.21889645853081  9.369240168409242
  244     2 24.38422379582749  19.04702811573676  11.711550210511554
  245     2 25.818589901464403  19.875159772942702  14.053860252613866
  246     2 27.252956007101314  20.70329143014865  16.396170294716175
  247     2 18.646759373279846  17.390764801324867  3.3872811838056897e-16
  248     2 20.081125478916757  18.218896458530814  2.3423100421023126
  249     2 21.51549158455367  19.047028115736758  4.684620084204621
  250     2 22.949857690190576  19.875159772942702  7.026930126306933
  251     2 24.38422379582749  20.703291430148653  9.369240168409242
  252     2 25.818589901464403  21.531423087354593  11.711550210511554
  253     2 27.252956007101314  22.35955474456054  14.053860252613863
  254     2 28.687322112738226  23.187686401766488  16.396170294716175
  255     2 11.47492884509529  1.549662824380761e-16  -9.710510846957415e-17
  256     2 12.9092949507322  0.8281316572059462  2.3423100421023104
  257     2 14.34366105636911  1.6562633144118928  4.684620084204622
  258     2 15.778027162006023  2.4843949716178373  7.026930126306932
  259     2 17.212393267642938  3.312526628823784  9.369240168409243
  260     2 18.646759373279846  4.14065828602973  11.711550210511552
  261     2 20.081125478916757  4.968789943235675  14.053860252613864
  262     2 21.51549158455367  5.796921600441622  16.396170294716175
  263     2 12.9092949507322  2.484394971617838  1.6936405919028449e-16
  264     2 14.343661056369111  3.3125266288237842  2.3423100421023104
  265     2 15.77802716200602  4.14065828602973  4.684620084204621
  266     2 17.212393267642934  4.968789943235676  7.026930126306933
  267     2 18.646759373279846  5.796921600441621  9.369240168409243
  268     2 20.081125478916757  6.625053257647567  11.711550210511554
  269     2 21.51549158455367  7.453184914853513  14.053860252613863
  270     2 22.94985769019058  8.28131657205946  16.396170294716175
  271     2 14.343661056369111  4.968789943235676  1.3240116465502684e-15
  272     2 15.778027162006023  5.796921600441621  2.3423100421023118
  273     2 17.212393267642934  6.6250532576475685  4.684620084204622
  274     2 18.646759373279846  7.453184914853513  7.026930126306932
  275     2 20.081125478916757  8.281316572059458  9.369240168409243
  276     2 21.51549158455367  9.109448229265405  11.711550210511552
  277     2 22.94985769019058  9.937579886471353  14.053860252613864
  278     2 24.38422379582749  10.765711543677298  16.396170294716175
  279     2 15.778027162006024  7.453184914853514  -3.232777048945652e-16
  280     2 17.212393267642934  8.281316572059461  2.34231004210231
  281     2 18.646759373279846  9.109448229265407  4.684620084204623
  282     2 20.081125478916757  9.937579886471351  7.026930126306931
  283     2 21.51549158455367  10.765711543677298  9.369240168409243
  284     2 22.94985769019058  11.593843200883246  11.711550210511552
  285     2 24.38422379582749  12.42197485808919  14.053860252613864
  286     2 25.818589901464403  13.250106515295135  16.396170294716175
  287     2 17.212393267642934  9.937579886471353  -1.942102169391483e-16
  288     2 18.646759373279846  10.765711543677298  2.3423100421023104
  289     2 20.081125478916757  11.593843200883244  4.684620084204621
  290     2 21.51549158455367  12.421974858089191  7.026930126306931
  291     2 22.94985769019058  13.250106515295137  9.369240168409243
  292     2 24.38422379582749  14.078238172501083  11.711550210511552
  293     2 25.818589901464403  14.906369829707028  14.053860252613864
  294     2 27.252956007101314  15.734501486912977  16.396170294716175
  295     2 18.646759373279846  12.42197485808919  2.0966063042515207e-16
  296     2 20.081125478916757  13.250106515295135  2.342310042102312
  297     2 21.515491584553665  14.078238172501083  4.684620084204621
  298     2 22.94985769019058  14.906369829707028  7.026930126306933
  299     2 24.38422379582749  15.734501486912974  9.369240168409242
  300     2 25.8185899014644  16.56263314411892  11.711550210511554
  301     2 27.252956007101314  17.390764801324867  14.053860252613866
  302     2 28.687322112738226  18.21889645853081  16.39617029471618
  303     2 20.081125478916757  14.906369829707028  3.3872811838056897e-16
  304     2 21.51549158455367  15.734501486912974  2.342310042102311
  305     2 22.949857690190576  16.56263314411892  4.684620084204621
  306     2 24.38422379582749  17.390764801324867  7.0269301263069295
  307     2 25.818589901464403  18.21889645853081  9.369240168409242
  308     2 27.252956007101314  19.047028115736758  11.711550210511554
  309     2 28.687322112738226  19.875159772942702  14.053860252613866
  310     2 30.121688218375137  20.70329143014865  16.396170294716175
  311     2 21.51549158455367  17.390764801324867  4.677956063359859e-16
  312     2 22.94985769019058  18.218896458530814  2.342310042102311
  313     2 24.38422379582749  19.047028115736758  4.684620084204622
  314     2 25.818589901464403  19.875159772942705  7.02693012630693
  315     2 27.252956007101318  20.703291430148653  9.369240168409242
  316     2 28.687322112738226  21.531423087354593  11.711550210511554
  317     2 30.121688218375137  22.359554744560544  14.053860252613863
  318     2 31.55605432401205  23.187686401766488  16.396170294716175
  319     2 14.343661056369111  -5.786716595936077e-17  1.6936405919028449e-16
  320     2 15.77802716200602  0.8281316572059464  2.3423100421023104
  321     2 17.212393267642934  1.6562633144118921  4.684620084204621
  322     2 18.646759373279846  2.484394971617837  7.026930126306933
  323     2 20.081125478916757  3.3125266288237842  9.369240168409242
  324     2 21.51549158455367  4.140658286029729  11.711550210511554
  325     2 22.94985769019058  4.968789943235675  14.053860252613866
  326     2 24.384223795827488  5.796921600441622  16.396170294716175
  327     2 15.77802716200602  2.4843949716178377  4.3583322685014313e-16
  328     2 17.21239326764293  3.3125266288237842  2.3423100421023118
  329     2 18.646759373279846  4.140658286029729  4.684620084204622
  330     2 20.081125478916757  4.9687899432356755  7.026930126306934
  331     2 21.51549158455367  5.796921600441621  9.369240168409243
  332     2 22.94985769019058  6.625053257647566  11.711550210511556
  333     2 24.38422379582749  7.453184914853513  14.053860252613864
  334     2 25.8185899014644  8.281316572059461  16.396170294716175
  335     2 17.212393267642934  4.968789943235676  -3.232777048945652e-16
  336     2 18.646759373279842  5.796921600441622  2.34231004210231
  337     2 20.081125478916757  6.6250532576475685  4.684620084204623
  338     2 21.51549158455367  7.453184914853513  7.026930126306933
  339     2 22.94985769019058  8.28131657205946  9.369240168409243
  340     2 24.38422379582749  9.109448229265405  11.711550210511552
  341     2 25.818589901464403  9.937579886471353  14.053860252613864
  342     2 27.25295600710131  10.765711543677298  16.396170294716175
  343     2 18.646759373279846  7.453184914853514  -1.942102169391483e-16
  344     2 20.081125478916757  8.281316572059461  2.3423100421023104
  345     2 21.51549158455367  9.109448229265407  4.684620084204621
  346     2 22.94985769019058  9.937579886471351  7.026930126306931
  347     2 24.38422379582749  10.765711543677298  9.36924016840924
  348     2 25.818589901464403  11.593843200883246  11.711550210511552
  349     2 27.252956007101314  12.421974858089191  14.053860252613864
  350     2 28.687322112738222  13.250106515295137  16.396170294716175
  351     2 20.081125478916757  9.937579886471353  2.0966063042515207e-16
  352     2 21.515491584553665  10.765711543677298  2.342310042102312
  353     2 22.94985769019058  11.593843200883242  4.684620084204621
  354     2 24.38422379582749  12.42197485808919  7.026930126306933
  355     2 25.8185899014644  13.250106515295137  9.369240168409242
  356     2 27.25295600710131  14.07823817250108  11.711550210511554
  357     2 28.687322112738222  14.906369829707026  14.053860252613866
  358     2 30.121688218375134  15.734501486912976  16.39617029471618
  359     2 21.51549158455367  12.42197485808919  3.3872811838056897e-16
  360     2 22.949857690190576  13.250106515295135  2.342310042102311
  361     2 24.38422379582749  14.078238172501083  4.684620084204621
  362     2 25.818589901464403  14.906369829707028  7.026930126306933
  363     2 27.25295600710131  15.734501486912974  9.369240168409242
  364     2 28.687322112738222  16.56263314411892  11.711550210511554
  365     2 30.121688218375137  17.390764801324867  14.053860252613866
  366     2 31.556054324012045  18.21889645853081  16.396170294716175
  367     2 22.94985769019058  14.906369829707028  4.677956063359859e-16
  368     2 24.38422379582749  15.734501486912976  2.342310042102309
  369     2 25.818589901464403  16.562633144118923  4.684620084204622
  370     2 27.252956007101314  17.390764801324867  7.02693012630693
  371     2 28.687322112738226  18.21889645853081  9.369240168409242
  372     2 30.121688218375137  19.04702811573676  11.711550210511554
  373     2 31.55605432401205  19.875159772942702  14.053860252613866
  374     2 32.99042042964896  20.703291430148653  16.39617029471617
  375     2 24.384223795827488  17.390764801324867  8.716664537002863e-16
  376     2 25.8185899014644  18.218896458530814  2.3423100421023113
  377     2 27.25295600710131  19.047028115736758  4.68462008420462
  378     2 28.687322112738222  19.875159772942705  7.026930126306932
  379     2 30.121688218375134  20.703291430148653  9.369240168409243
  380     2 31.556054324012045  21.531423087354593  11.711550210511556
  381     2 32.99042042964896  22.359554744560544  14.053860252613864
  382     2 34.42478653528587  23.187686401766488  16.396170294716175
  383     2 17.21239326764293  1.7338859549326496e-16  4.3583322685014313e-16
  384     2 18.646759373279846  0.8281316572059458  2.3423100421023118
  385     2 20.081125478916757  1.6562633144118915  4.684620084204622
  386     2 21.515491584553665  2.484394971617837  7.026930126306932
  387     2 22.94985769019058  3.3125266288237833  9.369240168409243
  388     2 24.38422379582749  4.140658286029729  11.711550210511556
  389     2 25.818589901464396  4.968789943235675  14.053860252613864
  390     2 27.252956007101314  5.79692160044162  16.396170294716175
  391     2 18.646759373279842  2.484394971617839  -3.232777048945652e-16
  392     2 20.081125478916757  3.3125266288237847  2.34231004210231
  393     2 21.51549158455367  4.140658286029729  4.684620084204623
  394     2 22.94985769019058  4.968789943235676  7.026930126306931
  395     2 24.38422379582749  5.796921600441621  9.369240168409243
  396     2 25.818589901464403  6.625053257647567  11.711550210511556
  397     2 27.25295600710131  7.453184914853514  14.053860252613864
  398     2 28.687322112738226  8.28131657205946  16.396170294716175
  399     2 20.081125478916753  4.968789943235677  -1.942102169391483e-16
  400     2 21.51549158455367  5.796921600441622  2.3423100421023104
  401     2 22.94985769019058  6.6250532576475685  4.684620084204623
  402     2 24.38422379582749  7.453184914853514  7.026930126306931
  403     2 25.818589901464403  8.28131657205946  9.369240168409243
  404     2 27.252956007101314  9.109448229265407  11.711550210511552
  405     2 28.687322112738222  9.937579886471354  14.053860252613864
  406     2 30.121688218375137  10.765711543677298  16.39617029471617
  407     2 21.515491584553665  7.453184914853514  2.0966063042515207e-16
  408     2 22.94985769019058  8.28131657205946  2.342310042102312
  409     2 24.38422379582749  9.109448229265405  4.684620084204623
  410     2 25.8185899014644  9.937579886471351  7.026930126306933
  411     2 27.25295600710131  10.765711543677297  9.369240168409242
  412     2 28.687322112738222  11.593843200883244  11.711550210511554
  413     2 30.121688218375134  12.42197485808919  14.053860252613866
  414     2 31.55605432401205  13.250106515295133  16.396170294716175
  415     2 22.949857690190576  9.937579886471353  3.3872811838056897e-16
  416     2 24.38422379582749  10.765711543677298  2.342310042102311
  417     2 25.818589901464403  11.593843200883242  4.684620084204621
  418     2 27.25295600710131  12.42197485808919  7.0269301263069295
  419     2 28.687322112738222  13.250106515295137  9.369240168409242
  420     2 30.121688218375134  14.078238172501083  11.711550210511554
  421     2 31.556054324012045  14.906369829707028  14.053860252613866
  422     2 32.99042042964896  15.734501486912976  16.396170294716175
  423     2 24.38422379582749  12.421974858089191  4.677956063359859e-16
  424     2 25.818589901464403  13.250106515295135  2.342310042102309