
     Program PWSCF v.6.3 starts on 22Feb2020 at 14:12:25 

     This program is part of the open-source Quantum ESPRESSO suite
     for quantum simulation of materials; please cite
         "P. Giannozzi et al., J. Phys.:Condens. Matter 21 395502 (2009);
         "P. Giannozzi et al., J. Phys.:Condens. Matter 29 465901 (2017);
          URL http://www.quantum-espresso.org", 
     in publications or presentations arising from this work. More details at
     http://www.quantum-espresso.org/quote

 *** WARNING: using old-style file format, will disappear from next version ***

     Parallel version (MPI & OpenMP), running on      36 processor cores
     Number of MPI processes:                36
     Threads/MPI process:                     1

     MPI processes distributed on     1 nodes
     K-points division:     npool     =       4
     R & G space division:  proc/nbgrp/npool/nimage =       9
     Reading input from aiida.in
Warning: card &IONS ignored
Warning: card   !PRESS_CONV_THR = 0.05                 ! JUST FOR VOLUME RELAXATIONS ignored
Warning: card / ignored

     Current dimensions of program PWSCF are:
     Max number of different atomic species (ntypx) = 10
     Max number of k-points (npk) =  40000
     Max angular momentum in pseudopotentials (lmaxx) =  3
               file Mg.pbe-n-kjpaw_psl.0.3.0.UPF: wavefunction(s)  3S renormalized
               file Al.pbe-n-kjpaw_psl.1.0.0.UPF: wavefunction(s)  3S 3P renormalized

     Subspace diagonalization in iterative solution of the eigenvalue problem:
     one sub-group per band group will be used
     scalapack distributed-memory algorithm (size of sub-group:  2*  2 procs)

     Found symmetry operation: I + (  0.5000  0.5000  0.0000)
     This is a supercell, fractional translations are disabled
 
     Parallelization info
     --------------------
     sticks:   dense  smooth     PW     G-vecs:    dense   smooth      PW
     Min         806     323     94                40001    10125    1592
     Max         807     324     95                40003    10126    1594
     Sum        7261    2909    849               360017    91127   14335
 


     bravais-lattice index     =            0
     lattice parameter (alat)  =      29.7156  a.u.
     unit-cell volume          =    2664.3193 (a.u.)^3
     number of atoms/cell      =           22
     number of atomic types    =            3
     number of electrons       =        64.00
     number of Kohn-Sham states=           38
     kinetic-energy cutoff     =      40.0000  Ry
     charge density cutoff     =     400.0000  Ry
     convergence threshold     =      1.0E-12
     mixing beta               =       0.4000
     number of iterations used =            8  local-TF  mixing
     Exchange-correlation      = SLA PW PBX PBC ( 1  4  3  4 0 0)

     celldm(1)=  29.715564  celldm(2)=   0.000000  celldm(3)=   0.000000
     celldm(4)=   0.000000  celldm(5)=   0.000000  celldm(6)=   0.000000

     crystal axes: (cart. coord. in units of alat)
               a(1) = (   1.000000   0.000000   0.000000 )  
               a(2) = (   0.000000   0.258002   0.000000 )  
               a(3) = (  -0.107335   0.000000   0.393560 )  

     reciprocal axes: (cart. coord. in units 2 pi/alat)
               b(1) = (  1.000000  0.000000  0.272727 )  
               b(2) = (  0.000000  3.875935  0.000000 )  
               b(3) = (  0.000000  0.000000  2.540909 )  


     PseudoPot. # 1 for Mg read from file:
     /users/aglensk/Dropbox/Albert/scripts/dotfiles/scripts/potentials/quantum_espresso/pseudo_SSSPefV1.1_alalloy/Mg.pbe-n-kjpaw_psl.0.3.0.UPF
     MD5 check sum: 24ecedc7f3e3cbe212e682f4413594e4
     Pseudo is Projector augmented-wave + core cor, Zval =  2.0
     Generated using "atomic" code by A. Dal Corso v.5.0.99 svn rev. 10869
     Shape of augmentation charge: PSQ
     Using radial grid of 1129 points,  4 beta functions with: 
                l(1) =   0
                l(2) =   0
                l(3) =   1
                l(4) =   1
     Q(r) pseudized with 0 coefficients 


     PseudoPot. # 2 for Si read from file:
     /users/aglensk/Dropbox/Albert/scripts/dotfiles/scripts/potentials/quantum_espresso/pseudo_SSSPefV1.1_alalloy/Si.pbe-n-rrkjus_psl.1.0.0.UPF
     MD5 check sum: 0b0bb1205258b0d07b9f9672cf965d36
     Pseudo is Ultrasoft + core correction, Zval =  4.0
     Generated using "atomic" code by A. Dal Corso v.5.1
     Using radial grid of 1141 points,  6 beta functions with: 
                l(1) =   0
                l(2) =   0
                l(3) =   1
                l(4) =   1
                l(5) =   2
                l(6) =   2
     Q(r) pseudized with 0 coefficients 


     PseudoPot. # 3 for Al read from file:
     /users/aglensk/Dropbox/Albert/scripts/dotfiles/scripts/potentials/quantum_espresso/pseudo_SSSPefV1.1_alalloy/Al.pbe-n-kjpaw_psl.1.0.0.UPF
     MD5 check sum: cfc449ca30b5f3223ec38ddd88ac046d
     Pseudo is Projector augmented-wave + core cor, Zval =  3.0
     Generated using "atomic" code by A. Dal Corso v.5.1
     Shape of augmentation charge: PSQ
     Using radial grid of 1135 points,  6 beta functions with: 
                l(1) =   0
                l(2) =   0
                l(3) =   1
                l(4) =   1
                l(5) =   2
                l(6) =   2
     Q(r) pseudized with 0 coefficients 


     atomic species   valence    mass     pseudopotential
        Mg             2.00    24.30500     Mg( 1.00)
        Si             4.00    28.08500     Si( 1.00)
        Al             3.00    26.98154     Al( 1.00)

     No symmetry found


                                    s                        frac. trans.

      isym =  1     identity                                     

 cryst.   s( 1) = (     1          0          0      )
                  (     0          1          0      )
                  (     0          0          1      )

 cart.    s( 1) = (  1.0000000  0.0000000 -0.0000000 )
                  (  0.0000000  1.0000000  0.0000000 )
                  (  0.0000000  0.0000000  1.0000000 )


   Cartesian axes

     site n.     atom                  positions (alat units)
         1           Mg  tau(   1) = (   0.1346660   0.0000000   0.3890542  )
         2           Mg  tau(   2) = (   0.2798692   0.1290011   0.1376185  )
         3           Mg  tau(   3) = (   0.2972234   0.1290011   0.3543269  )
         4           Mg  tau(   4) = (   0.5794479   0.0000000   0.0302240  )
         5           Mg  tau(   5) = (   0.5968011   0.0000000   0.2469307  )
         6           Si  tau(   6) = (   0.2296563   0.0000000   0.2547858  )
         7           Si  tau(   7) = (   0.4048647   0.0000000   0.0816509  )
         8           Al  tau(   8) = (   0.3914913   0.0000000   0.2419626  )
         9           Al  tau(   9) = (   0.4851801   0.1290011   0.1425876  )
        10           Si  tau(  10) = (   0.4718074   0.1290011   0.3028995  )
        11           Si  tau(  11) = (   0.6470170   0.1290011   0.1297668  )
        12           Mg  tau(  12) = (   0.6346660   0.1290011   0.3890542  )
        13           Mg  tau(  13) = (   0.7798692   0.0000000   0.1376186  )
        14           Mg  tau(  14) = (   0.7972235   0.0000000   0.3543270  )
        15           Mg  tau(  15) = (   0.0794478   0.1290011   0.0302239  )
        16           Mg  tau(  16) = (   0.0968011   0.1290011   0.2469307  )
        17           Si  tau(  17) = (   0.7296563   0.1290011   0.2547859  )
        18           Si  tau(  18) = (   0.9048646   0.1290011   0.0816509  )
        19           Al  tau(  19) = (   0.8914913   0.1290011   0.2419626  )
        20           Al  tau(  20) = (  -0.0148199   0.0000000   0.1425876  )
        21           Si  tau(  21) = (  -0.0281925   0.0000000   0.3028995  )
        22           Si  tau(  22) = (   0.1470170   0.0000000   0.1297668  )

   Crystallographic axes

     site n.     atom                  positions (cryst. coord.)
         1           Mg  tau(   1) = (  0.2407717  0.0000000  0.9885513  )
         2           Mg  tau(   2) = (  0.3174015  0.5000000  0.3496762  )
         3           Mg  tau(   3) = (  0.3938581  0.5000000  0.9003126  )
         4           Mg  tau(   4) = (  0.5876908  0.0000000  0.0767963  )
         5           Mg  tau(   5) = (  0.6641458  0.0000000  0.6274286  )
         6           Si  tau(   6) = (  0.2991434  0.0000000  0.6473876  )
         7           Si  tau(   7) = (  0.4271331  0.0000000  0.2074675  )
         8           Al  tau(   8) = (  0.4574811  0.0000000  0.6148049  )
         9           Al  tau(   9) = (  0.5240677  0.5000000  0.3623022  )
        10           Si  tau(  10) = (  0.5544164  0.5000000  0.7696401  )
        11           Si  tau(  11) = (  0.6824080  0.5000000  0.3297258  )
        12           Mg  tau(  12) = (  0.7407717  0.5000000  0.9885515  )
        13           Mg  tau(  13) = (  0.8174015  0.0000000  0.3496763  )
        14           Mg  tau(  14) = (  0.8938581  0.0000000  0.9003127  )
        15           Mg  tau(  15) = (  0.0876907  0.5000000  0.0767962  )
        16           Mg  tau(  16) = (  0.1641459  0.5000000  0.6274284  )
        17           Si  tau(  17) = (  0.7991434  0.5000000  0.6473878  )
        18           Si  tau(  18) = (  0.9271331  0.5000000  0.2074675  )
        19           Al  tau(  19) = (  0.9574811  0.5000000  0.6148049  )
        20           Al  tau(  20) = (  0.0240677  0.0000000  0.3623021  )
        21           Si  tau(  21) = (  0.0544164  0.0000000  0.7696400  )
        22           Si  tau(  22) = (  0.1824079  0.0000000  0.3297256  )

     number of k points=   782  Methfessel-Paxton smearing, width (Ry)=  0.0441
                       cart. coord. in units 2pi/alat
        k(    1) = (   0.0000000   0.0000000   0.0000000), wk =   0.0012821
        k(    2) = (   0.0000000   0.0000000   0.1954545), wk =   0.0025641
        k(    3) = (   0.0000000   0.0000000   0.3909091), wk =   0.0025641
        k(    4) = (   0.0000000   0.0000000   0.5863636), wk =   0.0025641
        k(    5) = (   0.0000000   0.0000000   0.7818182), wk =   0.0025641
        k(    6) = (   0.0000000   0.0000000   0.9772727), wk =   0.0025641
        k(    7) = (   0.0000000   0.0000000   1.1727273), wk =   0.0025641
        k(    8) = (   0.0000000   0.1937968   0.0000000), wk =   0.0025641
        k(    9) = (   0.0000000   0.1937968   0.1954545), wk =   0.0025641
        k(   10) = (   0.0000000   0.1937968   0.3909091), wk =   0.0025641
        k(   11) = (   0.0000000   0.1937968   0.5863636), wk =   0.0025641
        k(   12) = (   0.0000000   0.1937968   0.7818182), wk =   0.0025641
        k(   13) = (   0.0000000   0.1937968   0.9772727), wk =   0.0025641
        k(   14) = (   0.0000000   0.1937968   1.1727273), wk =   0.0025641
        k(   15) = (   0.0000000   0.1937968  -1.1727273), wk =   0.0025641
        k(   16) = (   0.0000000   0.1937968  -0.9772727), wk =   0.0025641
        k(   17) = (   0.0000000   0.1937968  -0.7818182), wk =   0.0025641
        k(   18) = (   0.0000000   0.1937968  -0.5863636), wk =   0.0025641
        k(   19) = (   0.0000000   0.1937968  -0.3909091), wk =   0.0025641
        k(   20) = (   0.0000000   0.1937968  -0.1954545), wk =   0.0025641
        k(   21) = (   0.0000000   0.3875935   0.0000000), wk =   0.0025641
        k(   22) = (   0.0000000   0.3875935   0.1954545), wk =   0.0025641
        k(   23) = (   0.0000000   0.3875935   0.3909091), wk =   0.0025641
        k(   24) = (   0.0000000   0.3875935   0.5863636), wk =   0.0025641
        k(   25) = (   0.0000000   0.3875935   0.7818182), wk =   0.0025641
        k(   26) = (   0.0000000   0.3875935   0.9772727), wk =   0.0025641
        k(   27) = (   0.0000000   0.3875935   1.1727273), wk =   0.0025641
        k(   28) = (   0.0000000   0.3875935  -1.1727273), wk =   0.0025641
        k(   29) = (   0.0000000   0.3875935  -0.9772727), wk =   0.0025641
        k(   30) = (   0.0000000   0.3875935  -0.7818182), wk =   0.0025641
        k(   31) = (   0.0000000   0.3875935  -0.5863636), wk =   0.0025641
        k(   32) = (   0.0000000   0.3875935  -0.3909091), wk =   0.0025641
        k(   33) = (   0.0000000   0.3875935  -0.1954545), wk =   0.0025641
        k(   34) = (   0.0000000   0.5813903   0.0000000), wk =   0.0025641
        k(   35) = (   0.0000000   0.5813903   0.1954545), wk =   0.0025641
        k(   36) = (   0.0000000   0.5813903   0.3909091), wk =   0.0025641
        k(   37) = (   0.0000000   0.5813903   0.5863636), wk =   0.0025641
        k(   38) = (   0.0000000   0.5813903   0.7818182), wk =   0.0025641
        k(   39) = (   0.0000000   0.5813903   0.9772727), wk =   0.0025641
        k(   40) = (   0.0000000   0.5813903   1.1727273), wk =   0.0025641
        k(   41) = (   0.0000000   0.5813903  -1.1727273), wk =   0.0025641
        k(   42) = (   0.0000000   0.5813903  -0.9772727), wk =   0.0025641
        k(   43) = (   0.0000000   0.5813903  -0.7818182), wk =   0.0025641
        k(   44) = (   0.0000000   0.5813903  -0.5863636), wk =   0.0025641
        k(   45) = (   0.0000000   0.5813903  -0.3909091), wk =   0.0025641
        k(   46) = (   0.0000000   0.5813903  -0.1954545), wk =   0.0025641
        k(   47) = (   0.0000000   0.7751871   0.0000000), wk =   0.0025641
        k(   48) = (   0.0000000   0.7751871   0.1954545), wk =   0.0025641
        k(   49) = (   0.0000000   0.7751871   0.3909091), wk =   0.0025641
        k(   50) = (   0.0000000   0.7751871   0.5863636), wk =   0.0025641
        k(   51) = (   0.0000000   0.7751871   0.7818182), wk =   0.0025641
        k(   52) = (   0.0000000   0.7751871   0.9772727), wk =   0.0025641
        k(   53) = (   0.0000000   0.7751871   1.1727273), wk =   0.0025641
        k(   54) = (   0.0000000   0.7751871  -1.1727273), wk =   0.0025641
        k(   55) = (   0.0000000   0.7751871  -0.9772727), wk =   0.0025641
        k(   56) = (   0.0000000   0.7751871  -0.7818182), wk =   0.0025641
        k(   57) = (   0.0000000   0.7751871  -0.5863636), wk =   0.0025641
        k(   58) = (   0.0000000   0.7751871  -0.3909091), wk =   0.0025641
        k(   59) = (   0.0000000   0.7751871  -0.1954545), wk =   0.0025641
        k(   60) = (   0.0000000   0.9689838   0.0000000), wk =   0.0025641
        k(   61) = (   0.0000000   0.9689838   0.1954545), wk =   0.0025641
        k(   62) = (   0.0000000   0.9689838   0.3909091), wk =   0.0025641
        k(   63) = (   0.0000000   0.9689838   0.5863636), wk =   0.0025641
        k(   64) = (   0.0000000   0.9689838   0.7818182), wk =   0.0025641
        k(   65) = (   0.0000000   0.9689838   0.9772727), wk =   0.0025641
        k(   66) = (   0.0000000   0.9689838   1.1727273), wk =   0.0025641
        k(   67) = (   0.0000000   0.9689838  -1.1727273), wk =   0.0025641
        k(   68) = (   0.0000000   0.9689838  -0.9772727), wk =   0.0025641
        k(   69) = (   0.0000000   0.9689838  -0.7818182), wk =   0.0025641
        k(   70) = (   0.0000000   0.9689838  -0.5863636), wk =   0.0025641
        k(   71) = (   0.0000000   0.9689838  -0.3909091), wk =   0.0025641
        k(   72) = (   0.0000000   0.9689838  -0.1954545), wk =   0.0025641
        k(   73) = (   0.0000000   1.1627806   0.0000000), wk =   0.0025641
        k(   74) = (   0.0000000   1.1627806   0.1954545), wk =   0.0025641
        k(   75) = (   0.0000000   1.1627806   0.3909091), wk =   0.0025641
        k(   76) = (   0.0000000   1.1627806   0.5863636), wk =   0.0025641
        k(   77) = (   0.0000000   1.1627806   0.7818182), wk =   0.0025641
        k(   78) = (   0.0000000   1.1627806   0.9772727), wk =   0.0025641
        k(   79) = (   0.0000000   1.1627806   1.1727273), wk =   0.0025641
        k(   80) = (   0.0000000   1.1627806  -1.1727273), wk =   0.0025641
        k(   81) = (   0.0000000   1.1627806  -0.9772727), wk =   0.0025641
        k(   82) = (   0.0000000   1.1627806  -0.7818182), wk =   0.0025641
        k(   83) = (   0.0000000   1.1627806  -0.5863636), wk =   0.0025641
        k(   84) = (   0.0000000   1.1627806  -0.3909091), wk =   0.0025641
        k(   85) = (   0.0000000   1.1627806  -0.1954545), wk =   0.0025641
        k(   86) = (   0.0000000   1.3565774   0.0000000), wk =   0.0025641
        k(   87) = (   0.0000000   1.3565774   0.1954545), wk =   0.0025641
        k(   88) = (   0.0000000   1.3565774   0.3909091), wk =   0.0025641
        k(   89) = (   0.0000000   1.3565774   0.5863636), wk =   0.0025641
        k(   90) = (   0.0000000   1.3565774   0.7818182), wk =   0.0025641
        k(   91) = (   0.0000000   1.3565774   0.9772727), wk =   0.0025641
        k(   92) = (   0.0000000   1.3565774   1.1727273), wk =   0.0025641
        k(   93) = (   0.0000000   1.3565774  -1.1727273), wk =   0.0025641
        k(   94) = (   0.0000000   1.3565774  -0.9772727), wk =   0.0025641
        k(   95) = (   0.0000000   1.3565774  -0.7818182), wk =   0.0025641
        k(   96) = (   0.0000000   1.3565774  -0.5863636), wk =   0.0025641
        k(   97) = (   0.0000000   1.3565774  -0.3909091), wk =   0.0025641
        k(   98) = (   0.0000000   1.3565774  -0.1954545), wk =   0.0025641
        k(   99) = (   0.0000000   1.5503742   0.0000000), wk =   0.0025641
        k(  100) = (   0.0000000   1.5503742   0.1954545), wk =   0.0025641
        k(  101) = (   0.0000000   1.5503742   0.3909091), wk =   0.0025641
        k(  102) = (   0.0000000   1.5503742   0.5863636), wk =   0.0025641
        k(  103) = (   0.0000000   1.5503742   0.7818182), wk =   0.0025641
        k(  104) = (   0.0000000   1.5503742   0.9772727), wk =   0.0025641
        k(  105) = (   0.0000000   1.5503742   1.1727273), wk =   0.0025641
        k(  106) = (   0.0000000   1.5503742  -1.1727273), wk =   0.0025641
        k(  107) = (   0.0000000   1.5503742  -0.9772727), wk =   0.0025641
        k(  108) = (   0.0000000   1.5503742  -0.7818182), wk =   0.0025641
        k(  109) = (   0.0000000   1.5503742  -0.5863636), wk =   0.0025641
        k(  110) = (   0.0000000   1.5503742  -0.3909091), wk =   0.0025641
        k(  111) = (   0.0000000   1.5503742  -0.1954545), wk =   0.0025641
        k(  112) = (   0.0000000   1.7441709   0.0000000), wk =   0.0025641
        k(  113) = (   0.0000000   1.7441709   0.1954545), wk =   0.0025641
        k(  114) = (   0.0000000   1.7441709   0.3909091), wk =   0.0025641
        k(  115) = (   0.0000000   1.7441709   0.5863636), wk =   0.0025641
        k(  116) = (   0.0000000   1.7441709   0.7818182), wk =   0.0025641
        k(  117) = (   0.0000000   1.7441709   0.9772727), wk =   0.0025641
        k(  118) = (   0.0000000   1.7441709   1.1727273), wk =   0.0025641
        k(  119) = (   0.0000000   1.7441709  -1.1727273), wk =   0.0025641
        k(  120) = (   0.0000000   1.7441709  -0.9772727), wk =   0.0025641
        k(  121) = (   0.0000000   1.7441709  -0.7818182), wk =   0.0025641
        k(  122) = (   0.0000000   1.7441709  -0.5863636), wk =   0.0025641
        k(  123) = (   0.0000000   1.7441709  -0.3909091), wk =   0.0025641
        k(  124) = (   0.0000000   1.7441709  -0.1954545), wk =   0.0025641
        k(  125) = (   0.0000000  -1.9379677   0.0000000), wk =   0.0012821
        k(  126) = (   0.0000000  -1.9379677   0.1954545), wk =   0.0025641
        k(  127) = (   0.0000000  -1.9379677   0.3909091), wk =   0.0025641
        k(  128) = (   0.0000000  -1.9379677   0.5863636), wk =   0.0025641
        k(  129) = (   0.0000000  -1.9379677   0.7818182), wk =   0.0025641
        k(  130) = (   0.0000000  -1.9379677   0.9772727), wk =   0.0025641
        k(  131) = (   0.0000000  -1.9379677   1.1727273), wk =   0.0025641
        k(  132) = (   0.1666667   0.0000000   0.0454545), wk =   0.0025641
        k(  133) = (   0.1666667   0.0000000   0.2409091), wk =   0.0025641
        k(  134) = (   0.1666667   0.0000000   0.4363636), wk =   0.0025641
        k(  135) = (   0.1666667   0.0000000   0.6318182), wk =   0.0025641
        k(  136) = (   0.1666667   0.0000000   0.8272727), wk =   0.0025641
        k(  137) = (   0.1666667   0.0000000   1.0227273), wk =   0.0025641
        k(  138) = (   0.1666667   0.0000000   1.2181818), wk =   0.0025641
        k(  139) = (   0.1666667   0.0000000  -1.1272728), wk =   0.0025641
        k(  140) = (   0.1666667   0.0000000  -0.9318182), wk =   0.0025641
        k(  141) = (   0.1666667   0.0000000  -0.7363637), wk =   0.0025641
        k(  142) = (   0.1666667   0.0000000  -0.5409091), wk =   0.0025641
        k(  143) = (   0.1666667   0.0000000  -0.3454546), wk =   0.0025641
        k(  144) = (   0.1666667   0.0000000  -0.1500000), wk =   0.0025641
        k(  145) = (   0.1666667   0.1937968   0.0454545), wk =   0.0025641
        k(  146) = (   0.1666667   0.1937968   0.2409091), wk =   0.0025641
        k(  147) = (   0.1666667   0.1937968   0.4363636), wk =   0.0025641
        k(  148) = (   0.1666667   0.1937968   0.6318182), wk =   0.0025641
        k(  149) = (   0.1666667   0.1937968   0.8272727), wk =   0.0025641
        k(  150) = (   0.1666667   0.1937968   1.0227273), wk =   0.0025641
        k(  151) = (   0.1666667   0.1937968   1.2181818), wk =   0.0025641
        k(  152) = (   0.1666667   0.1937968  -1.1272728), wk =   0.0025641
        k(  153) = (   0.1666667   0.1937968  -0.9318182), wk =   0.0025641
        k(  154) = (   0.1666667   0.1937968  -0.7363637), wk =   0.0025641
        k(  155) = (   0.1666667   0.1937968  -0.5409091), wk =   0.0025641
        k(  156) = (   0.1666667   0.1937968  -0.3454546), wk =   0.0025641
        k(  157) = (   0.1666667   0.1937968  -0.1500000), wk =   0.0025641
        k(  158) = (   0.1666667   0.3875935   0.0454545), wk =   0.0025641
        k(  159) = (   0.1666667   0.3875935   0.2409091), wk =   0.0025641
        k(  160) = (   0.1666667   0.3875935   0.4363636), wk =   0.0025641
        k(  161) = (   0.1666667   0.3875935   0.6318182), wk =   0.0025641
        k(  162) = (   0.1666667   0.3875935   0.8272727), wk =   0.0025641
        k(  163) = (   0.1666667   0.3875935   1.0227273), wk =   0.0025641
        k(  164) = (   0.1666667   0.3875935   1.2181818), wk =   0.0025641
        k(  165) = (   0.1666667   0.3875935  -1.1272728), wk =   0.0025641
        k(  166) = (   0.1666667   0.3875935  -0.9318182), wk =   0.0025641
        k(  167) = (   0.1666667   0.3875935  -0.7363637), wk =   0.0025641
        k(  168) = (   0.1666667   0.3875935  -0.5409091), wk =   0.0025641
        k(  169) = (   0.1666667   0.3875935  -0.3454546), wk =   0.0025641
        k(  170) = (   0.1666667   0.3875935  -0.1500000), wk =   0.0025641
        k(  171) = (   0.1666667   0.5813903   0.0454545), wk =   0.0025641
        k(  172) = (   0.1666667   0.5813903   0.2409091), wk =   0.0025641
        k(  173) = (   0.1666667   0.5813903   0.4363636), wk =   0.0025641
        k(  174) = (   0.1666667   0.5813903   0.6318182), wk =   0.0025641
        k(  175) = (   0.1666667   0.5813903   0.8272727), wk =   0.0025641
        k(  176) = (   0.1666667   0.5813903   1.0227273), wk =   0.0025641
        k(  177) = (   0.1666667   0.5813903   1.2181818), wk =   0.0025641
        k(  178) = (   0.1666667   0.5813903  -1.1272728), wk =   0.0025641
        k(  179) = (   0.1666667   0.5813903  -0.9318182), wk =   0.0025641
        k(  180) = (   0.1666667   0.5813903  -0.7363637), wk =   0.0025641
        k(  181) = (   0.1666667   0.5813903  -0.5409091), wk =   0.0025641
        k(  182) = (   0.1666667   0.5813903  -0.3454546), wk =   0.0025641
        k(  183) = (   0.1666667   0.5813903  -0.1500000), wk =   0.0025641
        k(  184) = (   0.1666667   0.7751871   0.0454545), wk =   0.0025641
        k(  185) = (   0.1666667   0.7751871   0.2409091), wk =   0.0025641
        k(  186) = (   0.1666667   0.7751871   0.4363636), wk =   0.0025641
        k(  187) = (   0.1666667   0.7751871   0.6318182), wk =   0.0025641
        k(  188) = (   0.1666667   0.7751871   0.8272727), wk =   0.0025641
        k(  189) = (   0.1666667   0.7751871   1.0227273), wk =   0.0025641
        k(  190) = (   0.1666667   0.7751871   1.2181818), wk =   0.0025641
        k(  191) = (   0.1666667   0.7751871  -1.1272728), wk =   0.0025641
        k(  192) = (   0.1666667   0.7751871  -0.9318182), wk =   0.0025641
        k(  193) = (   0.1666667   0.7751871  -0.7363637), wk =   0.0025641
        k(  194) = (   0.1666667   0.7751871  -0.5409091), wk =   0.0025641
        k(  195) = (   0.1666667   0.7751871  -0.3454546), wk =   0.0025641
        k(  196) = (   0.1666667   0.7751871  -0.1500000), wk =   0.0025641
        k(  197) = (   0.1666667   0.9689838   0.0454545), wk =   0.0025641
        k(  198) = (   0.1666667   0.9689838   0.2409091), wk =   0.0025641
        k(  199) = (   0.1666667   0.9689838   0.4363636), wk =   0.0025641
        k(  200) = (   0.1666667   0.9689838   0.6318182), wk =   0.0025641
        k(  201) = (   0.1666667   0.9689838   0.8272727), wk =   0.0025641
        k(  202) = (   0.1666667   0.9689838   1.0227273), wk =   0.0025641
        k(  203) = (   0.1666667   0.9689838   1.2181818), wk =   0.0025641
        k(  204) = (   0.1666667   0.9689838  -1.1272728), wk =   0.0025641
        k(  205) = (   0.1666667   0.9689838  -0.9318182), wk =   0.0025641
        k(  206) = (   0.1666667   0.9689838  -0.7363637), wk =   0.0025641
        k(  207) = (   0.1666667   0.9689838  -0.5409091), wk =   0.0025641
        k(  208) = (   0.1666667   0.9689838  -0.3454546), wk =   0.0025641
        k(  209) = (   0.1666667   0.9689838  -0.1500000), wk =   0.0025641
        k(  210) = (   0.1666667   1.1627806   0.0454545), wk =   0.0025641
        k(  211) = (   0.1666667   1.1627806   0.2409091), wk =   0.0025641
        k(  212) = (   0.1666667   1.1627806   0.4363636), wk =   0.0025641
        k(  213) = (   0.1666667   1.1627806   0.6318182), wk =   0.0025641
        k(  214) = (   0.1666667   1.1627806   0.8272727), wk =   0.0025641
        k(  215) = (   0.1666667   1.1627806   1.0227273), wk =   0.0025641
        k(  216) = (   0.1666667   1.1627806   1.2181818), wk =   0.0025641
        k(  217) = (   0.1666667   1.1627806  -1.1272728), wk =   0.0025641
        k(  218) = (   0.1666667   1.1627806  -0.9318182), wk =   0.0025641
        k(  219) = (   0.1666667   1.1627806  -0.7363637), wk =   0.0025641
        k(  220) = (   0.1666667   1.1627806  -0.5409091), wk =   0.0025641
        k(  221) = (   0.1666667   1.1627806  -0.3454546), wk =   0.0025641
        k(  222) = (   0.1666667   1.1627806  -0.1500000), wk =   0.0025641
        k(  223) = (   0.1666667   1.3565774   0.0454545), wk =   0.0025641
        k(  224) = (   0.1666667   1.3565774   0.2409091), wk =   0.0025641
        k(  225) = (   0.1666667   1.3565774   0.4363636), wk =   0.0025641
        k(  226) = (   0.1666667   1.3565774   0.6318182), wk =   0.0025641
        k(  227) = (   0.1666667   1.3565774   0.8272727), wk =   0.0025641
        k(  228) = (   0.1666667   1.3565774   1.0227273), wk =   0.0025641
        k(  229) = (   0.1666667   1.3565774   1.2181818), wk =   0.0025641
        k(  230) = (   0.1666667   1.3565774  -1.1272728), wk =   0.0025641
        k(  231) = (   0.1666667   1.3565774  -0.9318182), wk =   0.0025641
        k(  232) = (   0.1666667   1.3565774  -0.7363637), wk =   0.0025641
        k(  233) = (   0.1666667   1.3565774  -0.5409091), wk =   0.0025641
        k(  234) = (   0.1666667   1.3565774  -0.3454546), wk =   0.0025641
        k(  235) = (   0.1666667   1.3565774  -0.1500000), wk =   0.0025641
        k(  236) = (   0.1666667   1.5503742   0.0454545), wk =   0.0025641
        k(  237) = (   0.1666667   1.5503742   0.2409091), wk =   0.0025641
        k(  238) = (   0.1666667   1.5503742   0.4363636), wk =   0.0025641
        k(  239) = (   0.1666667   1.5503742   0.6318182), wk =   0.0025641
        k(  240) = (   0.1666667   1.5503742   0.8272727), wk =   0.0025641
        k(  241) = (   0.1666667   1.5503742   1.0227273), wk =   0.0025641
        k(  242) = (   0.1666667   1.5503742   1.2181818), wk =   0.0025641
        k(  243) = (   0.1666667   1.5503742  -1.1272728), wk =   0.0025641
        k(  244) = (   0.1666667   1.5503742  -0.9318182), wk =   0.0025641
        k(  245) = (   0.1666667   1.5503742  -0.7363637), wk =   0.0025641
        k(  246) = (   0.1666667   1.5503742  -0.5409091), wk =   0.0025641
        k(  247) = (   0.1666667   1.5503742  -0.3454546), wk =   0.0025641
        k(  248) = (   0.1666667   1.5503742  -0.1500000), wk =   0.0025641
        k(  249) = (   0.1666667   1.7441709   0.0454545), wk =   0.0025641
        k(  250) = (   0.1666667   1.7441709   0.2409091), wk =   0.0025641
        k(  251) = (   0.1666667   1.7441709   0.4363636), wk =   0.0025641
        k(  252) = (   0.1666667   1.7441709   0.6318182), wk =   0.0025641
        k(  253) = (   0.1666667   1.7441709   0.8272727), wk =   0.0025641
        k(  254) = (   0.1666667   1.7441709   1.0227273), wk =   0.0025641
        k(  255) = (   0.1666667   1.7441709   1.2181818), wk =   0.0025641
        k(  256) = (   0.1666667   1.7441709  -1.1272728), wk =   0.0025641
        k(  257) = (   0.1666667   1.7441709  -0.9318182), wk =   0.0025641
        k(  258) = (   0.1666667   1.7441709  -0.7363637), wk =   0.0025641
        k(  259) = (   0.1666667   1.7441709  -0.5409091), wk =   0.0025641
        k(  260) = (   0.1666667   1.7441709  -0.3454546), wk =   0.0025641
        k(  261) = (   0.1666667   1.7441709  -0.1500000), wk =   0.0025641
        k(  262) = (   0.1666667  -1.9379677   0.0454545), wk =   0.0025641
        k(  263) = (   0.1666667  -1.9379677   0.2409091), wk =   0.0025641
        k(  264) = (   0.1666667  -1.9379677   0.4363636), wk =   0.0025641
        k(  265) = (   0.1666667  -1.9379677   0.6318182), wk =   0.0025641
        k(  266) = (   0.1666667  -1.9379677   0.8272727), wk =   0.0025641
        k(  267) = (   0.1666667  -1.9379677   1.0227273), wk =   0.0025641
        k(  268) = (   0.1666667  -1.9379677   1.2181818), wk =   0.0025641
        k(  269) = (   0.1666667  -1.9379677  -1.1272728), wk =   0.0025641
        k(  270) = (   0.1666667  -1.9379677  -0.9318182), wk =   0.0025641
        k(  271) = (   0.1666667  -1.9379677  -0.7363637), wk =   0.0025641
        k(  272) = (   0.1666667  -1.9379677  -0.5409091), wk =   0.0025641
        k(  273) = (   0.1666667  -1.9379677  -0.3454546), wk =   0.0025641
        k(  274) = (   0.1666667  -1.9379677  -0.1500000), wk =   0.0025641
        k(  275) = (   0.1666667  -1.7441709   0.0454545), wk =   0.0025641
        k(  276) = (   0.1666667  -1.7441709   0.2409091), wk =   0.0025641
        k(  277) = (   0.1666667  -1.7441709   0.4363636), wk =   0.0025641
        k(  278) = (   0.1666667  -1.7441709   0.6318182), wk =   0.0025641
        k(  279) = (   0.1666667  -1.7441709   0.8272727), wk =   0.0025641
        k(  280) = (   0.1666667  -1.7441709   1.0227273), wk =   0.0025641
        k(  281) = (   0.1666667  -1.7441709   1.2181818), wk =   0.0025641
        k(  282) = (   0.1666667  -1.7441709  -1.1272728), wk =   0.0025641
        k(  283) = (   0.1666667  -1.7441709  -0.9318182), wk =   0.0025641
        k(  284) = (   0.1666667  -1.7441709  -0.7363637), wk =   0.0025641
        k(  285) = (   0.1666667  -1.7441709  -0.5409091), wk =   0.0025641
        k(  286) = (   0.1666667  -1.7441709  -0.3454546), wk =   0.0025641
        k(  287) = (   0.1666667  -1.7441709  -0.1500000), wk =   0.0025641
        k(  288) = (   0.1666667  -1.5503742   0.0454545), wk =   0.0025641
        k(  289) = (   0.1666667  -1.5503742   0.2409091), wk =   0.0025641
        k(  290) = (   0.1666667  -1.5503742   0.4363636), wk =   0.0025641
        k(  291) = (   0.1666667  -1.5503742   0.6318182), wk =   0.0025641
        k(  292) = (   0.1666667  -1.5503742   0.8272727), wk =   0.0025641
        k(  293) = (   0.1666667  -1.5503742   1.0227273), wk =   0.0025641
        k(  294) = (   0.1666667  -1.5503742   1.2181818), wk =   0.0025641
        k(  295) = (   0.1666667  -1.5503742  -1.1272728), wk =   0.0025641
        k(  296) = (   0.1666667  -1.5503742  -0.9318182), wk =   0.0025641
        k(  297) = (   0.1666667  -1.5503742  -0.7363637), wk =   0.0025641
        k(  298) = (   0.1666667  -1.5503742  -0.5409091), wk =   0.0025641
        k(  299) = (   0.1666667  -1.5503742  -0.3454546), wk =   0.0025641
        k(  300) = (   0.1666667  -1.5503742  -0.1500000), wk =   0.0025641
        k(  301) = (   0.1666667  -1.3565774   0.0454545), wk =   0.0025641
        k(  302) = (   0.1666667  -1.3565774   0.2409091), wk =   0.0025641
        k(  303) = (   0.1666667  -1.3565774   0.4363636), wk =   0.0025641
        k(  304) = (   0.1666667  -1.3565774   0.6318182), wk =   0.0025641
        k(  305) = (   0.1666667  -1.3565774   0.8272727), wk =   0.0025641
        k(  306) = (   0.1666667  -1.3565774   1.0227273), wk =   0.0025641
        k(  307) = (   0.1666667  -1.3565774   1.2181818), wk =   0.0025641
        k(  308) = (   0.1666667  -1.3565774  -1.1272728), wk =   0.0025641
        k(  309) = (   0.1666667  -1.3565774  -0.9318182), wk =   0.0025641
        k(  310) = (   0.1666667  -1.3565774  -0.7363637), wk =   0.0025641
        k(  311) = (   0.1666667  -1.3565774  -0.5409091), wk =   0.0025641
        k(  312) = (   0.1666667  -1.3565774  -0.3454546), wk =   0.0025641
        k(  313) = (   0.1666667  -1.3565774  -0.1500000), wk =   0.0025641
        k(  314) = (   0.1666667  -1.1627806   0.0454545), wk =   0.0025641
        k(  315) = (   0.1666667  -1.1627806   0.2409091), wk =   0.0025641
        k(  316) = (   0.1666667  -1.1627806   0.4363636), wk =   0.0025641
        k(  317) = (   0.1666667  -1.1627806   0.6318182), wk =   0.0025641
        k(  318) = (   0.1666667  -1.1627806   0.8272727), wk =   0.0025641
        k(  319) = (   0.1666667  -1.1627806   1.0227273), wk =   0.0025641
        k(  320) = (   0.1666667  -1.1627806   1.2181818), wk =   0.0025641
        k(  321) = (   0.1666667  -1.1627806  -1.1272728), wk =   0.0025641
        k(  322) = (   0.1666667  -1.1627806  -0.9318182), wk =   0.0025641
        k(  323) = (   0.1666667  -1.1627806  -0.7363637), wk =   0.0025641
        k(  324) = (   0.1666667  -1.1627806  -0.5409091), wk =   0.0025641
        k(  325) = (   0.1666667  -1.1627806  -0.3454546), wk =   0.0025641
        k(  326) = (   0.1666667  -1.1627806  -0.1500000), wk =   0.0025641
        k(  327) = (   0.1666667  -0.9689838   0.0454545), wk =   0.0025641
        k(  328) = (   0.1666667  -0.9689838   0.2409091), wk =   0.0025641
        k(  329) = (   0.1666667  -0.9689838   0.4363636), wk =   0.0025641
        k(  330) = (   0.1666667  -0.9689838   0.6318182), wk =   0.0025641
        k(  331) = (   0.1666667  -0.9689838   0.8272727), wk =   0.0025641
        k(  332) = (   0.1666667  -0.9689838   1.0227273), wk =   0.0025641
        k(  333) = (   0.1666667  -0.9689838   1.2181818), wk =   0.0025641
        k(  334) = (   0.1666667  -0.9689838  -1.1272728), wk =   0.0025641
        k(  335) = (   0.1666667  -0.9689838  -0.9318182), wk =   0.0025641
        k(  336) = (   0.1666667  -0.9689838  -0.7363637), wk =   0.0025641
        k(  337) = (   0.1666667  -0.9689838  -0.5409091), wk =   0.0025641
        k(  338) = (   0.1666667  -0.9689838  -0.3454546), wk =   0.0025641
        k(  339) = (   0.1666667  -0.9689838  -0.1500000), wk =   0.0025641
        k(  340) = (   0.1666667  -0.7751871   0.0454545), wk =   0.0025641
        k(  341) = (   0.1666667  -0.7751871   0.2409091), wk =   0.0025641
        k(  342) = (   0.1666667  -0.7751871   0.4363636), wk =   0.0025641
        k(  343) = (   0.1666667  -0.7751871   0.6318182), wk =   0.0025641
        k(  344) = (   0.1666667  -0.7751871   0.8272727), wk =   0.0025641
        k(  345) = (   0.1666667  -0.7751871   1.0227273), wk =   0.0025641
        k(  346) = (   0.1666667  -0.7751871   1.2181818), wk =   0.0025641
        k(  347) = (   0.1666667  -0.7751871  -1.1272728), wk =   0.0025641
        k(  348) = (   0.1666667  -0.7751871  -0.9318182), wk =   0.0025641
        k(  349) = (   0.1666667  -0.7751871  -0.7363637), wk =   0.0025641
        k(  350) = (   0.1666667  -0.7751871  -0.5409091), wk =   0.0025641
        k(  351) = (   0.1666667  -0.7751871  -0.3454546), wk =   0.0025641
        k(  352) = (   0.1666667  -0.7751871  -0.1500000), wk =   0.0025641
        k(  353) = (   0.1666667  -0.5813903   0.0454545), wk =   0.0025641
        k(  354) = (   0.1666667  -0.5813903   0.2409091), wk =   0.0025641
        k(  355) = (   0.1666667  -0.5813903   0.4363636), wk =   0.0025641
        k(  356) = (   0.1666667  -0.5813903   0.6318182), wk =   0.0025641
        k(  357) = (   0.1666667  -0.5813903   0.8272727), wk =   0.0025641
        k(  358) = (   0.1666667  -0.5813903   1.0227273), wk =   0.0025641
        k(  359) = (   0.1666667  -0.5813903   1.2181818), wk =   0.0025641
        k(  360) = (   0.1666667  -0.5813903  -1.1272728), wk =   0.0025641
        k(  361) = (   0.1666667  -0.5813903  -0.9318182), wk =   0.0025641
        k(  362) = (   0.1666667  -0.5813903  -0.7363637), wk =   0.0025641
        k(  363) = (   0.1666667  -0.5813903  -0.5409091), wk =   0.0025641
        k(  364) = (   0.1666667  -0.5813903  -0.3454546), wk =   0.0025641
        k(  365) = (   0.1666667  -0.5813903  -0.1500000), wk =   0.0025641
        k(  366) = (   0.1666667  -0.3875935   0.0454545), wk =   0.0025641
        k(  367) = (   0.1666667  -0.3875935   0.2409091), wk =   0.0025641
        k(  368) = (   0.1666667  -0.3875935   0.4363636), wk =   0.0025641
        k(  369) = (   0.1666667  -0.3875935   0.6318182), wk =   0.0025641
        k(  370) = (   0.1666667  -0.3875935   0.8272727), wk =   0.0025641
        k(  371) = (   0.1666667  -0.3875935   1.0227273), wk =   0.0025641
        k(  372) = (   0.1666667  -0.3875935   1.2181818), wk =   0.0025641
        k(  373) = (   0.1666667  -0.3875935  -1.1272728), wk =   0.0025641
        k(  374) = (   0.1666667  -0.3875935  -0.9318182), wk =   0.0025641
        k(  375) = (   0.1666667  -0.3875935  -0.7363637), wk =   0.0025641
        k(  376) = (   0.1666667  -0.3875935  -0.5409091), wk =   0.0025641
        k(  377) = (   0.1666667  -0.3875935  -0.3454546), wk =   0.0025641
        k(  378) = (   0.1666667  -0.3875935  -0.1500000), wk =   0.0025641
        k(  379) = (   0.1666667  -0.1937968   0.0454545), wk =   0.0025641
        k(  380) = (   0.1666667  -0.1937968   0.2409091), wk =   0.0025641
        k(  381) = (   0.1666667  -0.1937968   0.4363636), wk =   0.0025641
        k(  382) = (   0.1666667  -0.1937968   0.6318182), wk =   0.0025641
        k(  383) = (   0.1666667  -0.1937968   0.8272727), wk =   0.0025641
        k(  384) = (   0.1666667  -0.1937968   1.0227273), wk =   0.0025641
        k(  385) = (   0.1666667  -0.1937968   1.2181818), wk =   0.0025641
        k(  386) = (   0.1666667  -0.1937968  -1.1272728), wk =   0.0025641
        k(  387) = (   0.1666667  -0.1937968  -0.9318182), wk =   0.0025641
        k(  388) = (   0.1666667  -0.1937968  -0.7363637), wk =   0.0025641
        k(  389) = (   0.1666667  -0.1937968  -0.5409091), wk =   0.0025641
        k(  390) = (   0.1666667  -0.1937968  -0.3454546), wk =   0.0025641
        k(  391) = (   0.1666667  -0.1937968  -0.1500000), wk =   0.0025641
        k(  392) = (   0.3333333   0.0000000   0.0909091), wk =   0.0025641
        k(  393) = (   0.3333333   0.0000000   0.2863636), wk =   0.0025641
        k(  394) = (   0.3333333   0.0000000   0.4818182), wk =   0.0025641
        k(  395) = (   0.3333333   0.0000000   0.6772727), wk =   0.0025641
        k(  396) = (   0.3333333   0.0000000   0.8727273), wk =   0.0025641
        k(  397) = (   0.3333333   0.0000000   1.0681818), wk =   0.0025641
        k(  398) = (   0.3333333   0.0000000   1.2636364), wk =   0.0025641
        k(  399) = (   0.3333333   0.0000000  -1.0818182), wk =   0.0025641
        k(  400) = (   0.3333333   0.0000000  -0.8863637), wk =   0.0025641
        k(  401) = (   0.3333333   0.0000000  -0.6909091), wk =   0.0025641
        k(  402) = (   0.3333333   0.0000000  -0.4954546), wk =   0.0025641
        k(  403) = (   0.3333333   0.0000000  -0.3000000), wk =   0.0025641
        k(  404) = (   0.3333333   0.0000000  -0.1045455), wk =   0.0025641
        k(  405) = (   0.3333333   0.1937968   0.0909091), wk =   0.0025641
        k(  406) = (   0.3333333   0.1937968   0.2863636), wk =   0.0025641
        k(  407) = (   0.3333333   0.1937968   0.4818182), wk =   0.0025641
        k(  408) = (   0.3333333   0.1937968   0.6772727), wk =   0.0025641
        k(  409) = (   0.3333333   0.1937968   0.8727273), wk =   0.0025641
        k(  410) = (   0.3333333   0.1937968   1.0681818), wk =   0.0025641
        k(  411) = (   0.3333333   0.1937968   1.2636364), wk =   0.0025641
        k(  412) = (   0.3333333   0.1937968  -1.0818182), wk =   0.0025641
        k(  413) = (   0.3333333   0.1937968  -0.8863637), wk =   0.0025641
        k(  414) = (   0.3333333   0.1937968  -0.6909091), wk =   0.0025641
        k(  415) = (   0.3333333   0.1937968  -0.4954546), wk =   0.0025641
        k(  416) = (   0.3333333   0.1937968  -0.3000000), wk =   0.0025641
        k(  417) = (   0.3333333   0.1937968  -0.1045455), wk =   0.0025641
        k(  418) = (   0.3333333   0.3875935   0.0909091), wk =   0.0025641
        k(  419) = (   0.3333333   0.3875935   0.2863636), wk =   0.0025641
        k(  420) = (   0.3333333   0.3875935   0.4818182), wk =   0.0025641
        k(  421) = (   0.3333333   0.3875935   0.6772727), wk =   0.0025641
        k(  422) = (   0.3333333   0.3875935   0.8727273), wk =   0.0025641
        k(  423) = (   0.3333333   0.3875935   1.0681818), wk =   0.0025641
        k(  424) = (   0.3333333   0.3875935   1.2636364), wk =   0.0025641
        k(  425) = (   0.3333333   0.3875935  -1.0818182), wk =   0.0025641
        k(  426) = (   0.3333333   0.3875935  -0.8863637), wk =   0.0025641
        k(  427) = (   0.3333333   0.3875935  -0.6909091), wk =   0.0025641
        k(  428) = (   0.3333333   0.3875935  -0.4954546), wk =   0.0025641
        k(  429) = (   0.3333333   0.3875935  -0.3000000), wk =   0.0025641
        k(  430) = (   0.3333333   0.3875935  -0.1045455), wk =   0.0025641
        k(  431) = (   0.3333333   0.5813903   0.0909091), wk =   0.0025641
        k(  432) = (   0.3333333   0.5813903   0.2863636), wk =   0.0025641
        k(  433) = (   0.3333333   0.5813903   0.4818182), wk =   0.0025641
        k(  434) = (   0.3333333   0.5813903   0.6772727), wk =   0.0025641
        k(  435) = (   0.3333333   0.5813903   0.8727273), wk =   0.0025641
        k(  436) = (   0.3333333   0.5813903   1.0681818), wk =   0.0025641
        k(  437) = (   0.3333333   0.5813903   1.2636364), wk =   0.0025641
        k(  438) = (   0.3333333   0.5813903  -1.0818182), wk =   0.0025641
        k(  439) = (   0.3333333   0.5813903  -0.8863637), wk =   0.0025641
        k(  440) = (   0.3333333   0.5813903  -0.6909091), wk =   0.0025641
        k(  441) = (   0.3333333   0.5813903  -0.4954546), wk =   0.0025641
        k(  442) = (   0.3333333   0.5813903  -0.3000000), wk =   0.0025641
        k(  443) = (   0.3333333   0.5813903  -0.1045455), wk =   0.0025641
        k(  444) = (   0.3333333   0.7751871   0.0909091), wk =   0.0025641
        k(  445) = (   0.3333333   0.7751871   0.2863636), wk =   0.0025641
        k(  446) = (   0.3333333   0.7751871   0.4818182), wk =   0.0025641
        k(  447) = (   0.3333333   0.7751871   0.6772727), wk =   0.0025641
        k(  448) = (   0.3333333   0.7751871   0.8727273), wk =   0.0025641
        k(  449) = (   0.3333333   0.7751871   1.0681818), wk =   0.0025641
        k(  450) = (   0.3333333   0.7751871   1.2636364), wk =   0.0025641
        k(  451) = (   0.3333333   0.7751871  -1.0818182), wk =   0.0025641
        k(  452) = (   0.3333333   0.7751871  -0.8863637), wk =   0.0025641
        k(  453) = (   0.3333333   0.7751871  -0.6909091), wk =   0.0025641
        k(  454) = (   0.3333333   0.7751871  -0.4954546), wk =   0.0025641
        k(  455) = (   0.3333333   0.7751871  -0.3000000), wk =   0.0025641
        k(  456) = (   0.3333333   0.7751871  -0.1045455), wk =   0.0025641
        k(  457) = (   0.3333333   0.9689838   0.0909091), wk =   0.0025641
        k(  458) = (   0.3333333   0.9689838   0.2863636), wk =   0.0025641
        k(  459) = (   0.3333333   0.9689838   0.4818182), wk =   0.0025641
        k(  460) = (   0.3333333   0.9689838   0.6772727), wk =   0.0025641
        k(  461) = (   0.3333333   0.9689838   0.8727273), wk =   0.0025641
        k(  462) = (   0.3333333   0.9689838   1.0681818), wk =   0.0025641
        k(  463) = (   0.3333333   0.9689838   1.2636364), wk =   0.0025641
        k(  464) = (   0.3333333   0.9689838  -1.0818182), wk =   0.0025641
        k(  465) = (   0.3333333   0.9689838  -0.8863637), wk =   0.0025641
        k(  466) = (   0.3333333   0.9689838  -0.6909091), wk =   0.0025641
        k(  467) = (   0.3333333   0.9689838  -0.4954546), wk =   0.0025641
        k(  468) = (   0.3333333   0.9689838  -0.3000000), wk =   0.0025641
        k(  469) = (   0.3333333   0.9689838  -0.1045455), wk =   0.0025641
        k(  470) = (   0.3333333   1.1627806   0.0909091), wk =   0.0025641
        k(  471) = (   0.3333333   1.1627806   0.2863636), wk =   0.0025641
        k(  472) = (   0.3333333   1.1627806   0.4818182), wk =   0.0025641
        k(  473) = (   0.3333333   1.1627806   0.6772727), wk =   0.0025641
        k(  474) = (   0.3333333   1.1627806   0.8727273), wk =   0.0025641
        k(  475) = (   0.3333333   1.1627806   1.0681818), wk =   0.0025641
        k(  476) = (   0.3333333   1.1627806   1.2636364), wk =   0.0025641
        k(  477) = (   0.3333333   1.1627806  -1.0818182), wk =   0.0025641
        k(  478) = (   0.3333333   1.1627806  -0.8863637), wk =   0.0025641
        k(  479) = (   0.3333333   1.1627806  -0.6909091), wk =   0.0025641
        k(  480) = (   0.3333333   1.1627806  -0.4954546), wk =   0.0025641
        k(  481) = (   0.3333333   1.1627806  -0.3000000), wk =   0.0025641
        k(  482) = (   0.3333333   1.1627806  -0.1045455), wk =   0.0025641
        k(  483) = (   0.3333333   1.3565774   0.0909091), wk =   0.0025641
        k(  484) = (   0.3333333   1.3565774   0.2863636), wk =   0.0025641
        k(  485) = (   0.3333333   1.3565774   0.4818182), wk =   0.0025641
        k(  486) = (   0.3333333   1.3565774   0.6772727), wk =   0.0025641
        k(  487) = (   0.3333333   1.3565774   0.8727273), wk =   0.0025641
        k(  488) = (   0.3333333   1.3565774   1.0681818), wk =   0.0025641
        k(  489) = (   0.3333333   1.3565774   1.2636364), wk =   0.0025641
        k(  490) = (   0.3333333   1.3565774  -1.0818182), wk =   0.0025641
        k(  491) = (   0.3333333   1.3565774  -0.8863637), wk =   0.0025641
        k(  492) = (   0.3333333   1.3565774  -0.6909091), wk =   0.0025641
        k(  493) = (   0.3333333   1.3565774  -0.4954546), wk =   0.0025641
        k(  494) = (   0.3333333   1.3565774  -0.3000000), wk =   0.0025641
        k(  495) = (   0.3333333   1.3565774  -0.1045455), wk =   0.0025641
        k(  496) = (   0.3333333   1.5503742   0.0909091), wk =   0.0025641
        k(  497) = (   0.3333333   1.5503742   0.2863636), wk =   0.0025641
        k(  498) = (   0.3333333   1.5503742   0.4818182), wk =   0.0025641
        k(  499) = (   0.3333333   1.5503742   0.6772727), wk =   0.0025641
        k(  500) = (   0.3333333   1.5503742   0.8727273), wk =   0.0025641
        k(  501) = (   0.3333333   1.5503742   1.0681818), wk =   0.0025641
        k(  502) = (   0.3333333   1.5503742   1.2636364), wk =   0.0025641
        k(  503) = (   0.3333333   1.5503742  -1.0818182), wk =   0.0025641
        k(  504) = (   0.3333333   1.5503742  -0.8863637), wk =   0.0025641
        k(  505) = (   0.3333333   1.5503742  -0.6909091), wk =   0.0025641
        k(  506) = (   0.3333333   1.5503742  -0.4954546), wk =   0.0025641
        k(  507) = (   0.3333333   1.5503742  -0.3000000), wk =   0.0025641
        k(  508) = (   0.3333333   1.5503742  -0.1045455), wk =   0.0025641
        k(  509) = (   0.3333333   1.7441709   0.0909091), wk =   0.0025641
        k(  510) = (   0.3333333   1.7441709   0.2863636), wk =   0.0025641
        k(  511) = (   0.3333333   1.7441709   0.4818182), wk =   0.0025641
        k(  512) = (   0.3333333   1.7441709   0.6772727), wk =   0.0025641
        k(  513) = (   0.3333333   1.7441709   0.8727273), wk =   0.0025641
        k(  514) = (   0.3333333   1.7441709   1.0681818), wk =   0.0025641
        k(  515) = (   0.3333333   1.7441709   1.2636364), wk =   0.0025641
        k(  516) = (   0.3333333   1.7441709  -1.0818182), wk =   0.0025641
        k(  517) = (   0.3333333   1.7441709  -0.8863637), wk =   0.0025641
        k(  518) = (   0.3333333   1.7441709  -0.6909091), wk =   0.0025641
        k(  519) = (   0.3333333   1.7441709  -0.4954546), wk =   0.0025641
        k(  520) = (   0.3333333   1.7441709  -0.3000000), wk =   0.0025641
        k(  521) = (   0.3333333   1.7441709  -0.1045455), wk =   0.0025641
        k(  522) = (   0.3333333  -1.9379677   0.0909091), wk =   0.0025641
        k(  523) = (   0.3333333  -1.9379677   0.2863636), wk =   0.0025641
        k(  524) = (   0.3333333  -1.9379677   0.4818182), wk =   0.0025641
        k(  525) = (   0.3333333  -1.9379677   0.6772727), wk =   0.0025641
        k(  526) = (   0.3333333  -1.9379677   0.8727273), wk =   0.0025641
        k(  527) = (   0.3333333  -1.9379677   1.0681818), wk =   0.0025641
        k(  528) = (   0.3333333  -1.9379677   1.2636364), wk =   0.0025641
        k(  529) = (   0.3333333  -1.9379677  -1.0818182), wk =   0.0025641
        k(  530) = (   0.3333333  -1.9379677  -0.8863637), wk =   0.0025641
        k(  531) = (   0.3333333  -1.9379677  -0.6909091), wk =   0.0025641
        k(  532) = (   0.3333333  -1.9379677  -0.4954546), wk =   0.0025641
        k(  533) = (   0.3333333  -1.9379677  -0.3000000), wk =   0.0025641
        k(  534) = (   0.3333333  -1.9379677  -0.1045455), wk =   0.0025641
        k(  535) = (   0.3333333  -1.7441709   0.0909091), wk =   0.0025641
        k(  536) = (   0.3333333  -1.7441709   0.2863636), wk =   0.0025641
        k(  537) = (   0.3333333  -1.7441709   0.4818182), wk =   0.0025641
        k(  538) = (   0.3333333  -1.7441709   0.6772727), wk =   0.0025641
        k(  539) = (   0.3333333  -1.7441709   0.8727273), wk =   0.0025641
        k(  540) = (   0.3333333  -1.7441709   1.0681818), wk =   0.0025641
        k(  541) = (   0.3333333  -1.7441709   1.2636364), wk =   0.0025641
        k(  542) = (   0.3333333  -1.7441709  -1.0818182), wk =   0.0025641
        k(  543) = (   0.3333333  -1.7441709  -0.8863637), wk =   0.0025641
        k(  544) = (   0.3333333  -1.7441709  -0.6909091), wk =   0.0025641
        k(  545) = (   0.3333333  -1.7441709  -0.4954546), wk =   0.0025641
        k(  546) = (   0.3333333  -1.7441709  -0.3000000), wk =   0.0025641
        k(  547) = (   0.3333333  -1.7441709  -0.1045455), wk =   0.0025641
        k(  548) = (   0.3333333  -1.5503742   0.0909091), wk =   0.0025641
        k(  549) = (   0.3333333  -1.5503742   0.2863636), wk =   0.0025641
        k(  550) = (   0.3333333  -1.5503742   0.4818182), wk =   0.0025641
        k(  551) = (   0.3333333  -1.5503742   0.6772727), wk =   0.0025641
        k(  552) = (   0.3333333  -1.5503742   0.8727273), wk =   0.0025641
        k(  553) = (   0.3333333  -1.5503742   1.0681818), wk =   0.0025641
        k(  554) = (   0.3333333  -1.5503742   1.2636364), wk =   0.0025641
        k(  555) = (   0.3333333  -1.5503742  -1.0818182), wk =   0.0025641
        k(  556) = (   0.3333333  -1.5503742  -0.8863637), wk =   0.0025641
        k(  557) = (   0.3333333  -1.5503742  -0.6909091), wk =   0.0025641
        k(  558) = (   0.3333333  -1.5503742  -0.4954546), wk =   0.0025641
        k(  559) = (   0.3333333  -1.5503742  -0.3000000), wk =   0.0025641
        k(  560) = (   0.3333333  -1.5503742  -0.1045455), wk =   0.0025641
        k(  561) = (   0.3333333  -1.3565774   0.0909091), wk =   0.0025641
        k(  562) = (   0.3333333  -1.3565774   0.2863636), wk =   0.0025641
        k(  563) = (   0.3333333  -1.3565774   0.4818182), wk =   0.0025641
        k(  564) = (   0.3333333  -1.3565774   0.6772727), wk =   0.0025641
        k(  565) = (   0.3333333  -1.3565774   0.8727273), wk =   0.0025641
        k(  566) = (   0.3333333  -1.3565774   1.0681818), wk =   0.0025641
        k(  567) = (   0.3333333  -1.3565774   1.2636364), wk =   0.0025641
        k(  568) = (   0.3333333  -1.3565774  -1.0818182), wk =   0.0025641
        k(  569) = (   0.3333333  -1.3565774  -0.8863637), wk =   0.0025641
        k(  570) = (   0.3333333  -1.3565774  -0.6909091), wk =   0.0025641
        k(  571) = (   0.3333333  -1.3565774  -0.4954546), wk =   0.0025641
        k(  572) = (   0.3333333  -1.3565774  -0.3000000), wk =   0.0025641
        k(  573) = (   0.3333333  -1.3565774  -0.1045455), wk =   0.0025641
        k(  574) = (   0.3333333  -1.1627806   0.0909091), wk =   0.0025641
        k(  575) = (   0.3333333  -1.1627806   0.2863636), wk =   0.0025641
        k(  576) = (   0.3333333  -1.1627806   0.4818182), wk =   0.0025641
        k(  577) = (   0.3333333  -1.1627806   0.6772727), wk =   0.0025641
        k(  578) = (   0.3333333  -1.1627806   0.8727273), wk =   0.0025641
        k(  579) = (   0.3333333  -1.1627806   1.0681818), wk =   0.0025641
        k(  580) = (   0.3333333  -1.1627806   1.2636364), wk =   0.0025641
        k(  581) = (   0.3333333  -1.1627806  -1.0818182), wk =   0.0025641
        k(  582) = (   0.3333333  -1.1627806  -0.8863637), wk =   0.0025641
        k(  583) = (   0.3333333  -1.1627806  -0.6909091), wk =   0.0025641
        k(  584) = (   0.3333333  -1.1627806  -0.4954546), wk =   0.0025641
        k(  585) = (   0.3333333  -1.1627806  -0.3000000), wk =   0.0025641
        k(  586) = (   0.3333333  -1.1627806  -0.1045455), wk =   0.0025641
        k(  587) = (   0.3333333  -0.9689838   0.0909091), wk =   0.0025641
        k(  588) = (   0.3333333  -0.9689838   0.2863636), wk =   0.0025641
        k(  589) = (   0.3333333  -0.9689838   0.4818182), wk =   0.0025641
        k(  590) = (   0.3333333  -0.9689838   0.6772727), wk =   0.0025641
        k(  591) = (   0.3333333  -0.9689838   0.8727273), wk =   0.0025641
        k(  592) = (   0.3333333  -0.9689838   1.0681818), wk =   0.0025641
        k(  593) = (   0.3333333  -0.9689838   1.2636364), wk =   0.0025641
        k(  594) = (   0.3333333  -0.9689838  -1.0818182), wk =   0.0025641
        k(  595) = (   0.3333333  -0.9689838  -0.8863637), wk =   0.0025641
        k(  596) = (   0.3333333  -0.9689838  -0.6909091), wk =   0.0025641
        k(  597) = (   0.3333333  -0.9689838  -0.4954546), wk =   0.0025641
        k(  598) = (   0.3333333  -0.9689838  -0.3000000), wk =   0.0025641
        k(  599) = (   0.3333333  -0.9689838  -0.1045455), wk =   0.0025641
        k(  600) = (   0.3333333  -0.7751871   0.0909091), wk =   0.0025641
        k(  601) = (   0.3333333  -0.7751871   0.2863636), wk =   0.0025641
        k(  602) = (   0.3333333  -0.7751871   0.4818182), wk =   0.0025641
        k(  603) = (   0.3333333  -0.7751871   0.6772727), wk =   0.0025641
        k(  604) = (   0.3333333  -0.7751871   0.8727273), wk =   0.0025641
        k(  605) = (   0.3333333  -0.7751871   1.0681818), wk =   0.0025641
        k(  606) = (   0.3333333  -0.7751871   1.2636364), wk =   0.0025641
        k(  607) = (   0.3333333  -0.7751871  -1.0818182), wk =   0.0025641
        k(  608) = (   0.3333333  -0.7751871  -0.8863637), wk =   0.0025641
        k(  609) = (   0.3333333  -0.7751871  -0.6909091), wk =   0.0025641
        k(  610) = (   0.3333333  -0.7751871  -0.4954546), wk =   0.0025641
        k(  611) = (   0.3333333  -0.7751871  -0.3000000), wk =   0.0025641
        k(  612) = (   0.3333333  -0.7751871  -0.1045455), wk =   0.0025641
        k(  613) = (   0.3333333  -0.5813903   0.0909091), wk =   0.0025641
        k(  614) = (   0.3333333  -0.5813903   0.2863636), wk =   0.0025641
        k(  615) = (   0.3333333  -0.5813903   0.4818182), wk =   0.0025641
        k(  616) = (   0.3333333  -0.5813903   0.6772727), wk =   0.0025641
        k(  617) = (   0.3333333  -0.5813903   0.8727273), wk =   0.0025641
        k(  618) = (   0.3333333  -0.5813903   1.0681818), wk =   0.0025641
        k(  619) = (   0.3333333  -0.5813903   1.2636364), wk =   0.0025641
        k(  620) = (   0.3333333  -0.5813903  -1.0818182), wk =   0.0025641
        k(  621) = (   0.3333333  -0.5813903  -0.8863637), wk =   0.0025641
        k(  622) = (   0.3333333  -0.5813903  -0.6909091), wk =   0.0025641
        k(  623) = (   0.3333333  -0.5813903  -0.4954546), wk =   0.0025641
        k(  624) = (   0.3333333  -0.5813903  -0.3000000), wk =   0.0025641
        k(  625) = (   0.3333333  -0.5813903  -0.1045455), wk =   0.0025641
        k(  626) = (   0.3333333  -0.3875935   0.0909091), wk =   0.0025641
        k(  627) = (   0.3333333  -0.3875935   0.2863636), wk =   0.0025641
        k(  628) = (   0.3333333  -0.3875935   0.4818182), wk =   0.0025641
        k(  629) = (   0.3333333  -0.3875935   0.6772727), wk =   0.0025641
        k(  630) = (   0.3333333  -0.3875935   0.8727273), wk =   0.0025641
        k(  631) = (   0.3333333  -0.3875935   1.0681818), wk =   0.0025641
        k(  632) = (   0.3333333  -0.3875935   1.2636364), wk =   0.0025641
        k(  633) = (   0.3333333  -0.3875935  -1.0818182), wk =   0.0025641
        k(  634) = (   0.3333333  -0.3875935  -0.8863637), wk =   0.0025641
        k(  635) = (   0.3333333  -0.3875935  -0.6909091), wk =   0.0025641
        k(  636) = (   0.3333333  -0.3875935  -0.4954546), wk =   0.0025641
        k(  637) = (   0.3333333  -0.3875935  -0.3000000), wk =   0.0025641
        k(  638) = (   0.3333333  -0.3875935  -0.1045455), wk =   0.0025641
        k(  639) = (   0.3333333  -0.1937968   0.0909091), wk =   0.0025641
        k(  640) = (   0.3333333  -0.1937968   0.2863636), wk =   0.0025641
        k(  641) = (   0.3333333  -0.1937968   0.4818182), wk =   0.0025641
        k(  642) = (   0.3333333  -0.1937968   0.6772727), wk =   0.0025641
        k(  643) = (   0.3333333  -0.1937968   0.8727273), wk =   0.0025641
        k(  644) = (   0.3333333  -0.1937968   1.0681818), wk =   0.0025641
        k(  645) = (   0.3333333  -0.1937968   1.2636364), wk =   0.0025641
        k(  646) = (   0.3333333  -0.1937968  -1.0818182), wk =   0.0025641
        k(  647) = (   0.3333333  -0.1937968  -0.8863637), wk =   0.0025641
        k(  648) = (   0.3333333  -0.1937968  -0.6909091), wk =   0.0025641
        k(  649) = (   0.3333333  -0.1937968  -0.4954546), wk =   0.0025641
        k(  650) = (   0.3333333  -0.1937968  -0.3000000), wk =   0.0025641
        k(  651) = (   0.3333333  -0.1937968  -0.1045455), wk =   0.0025641
        k(  652) = (  -0.5000000   0.0000000  -0.1363636), wk =   0.0012821
        k(  653) = (  -0.5000000   0.0000000   0.0590909), wk =   0.0025641
        k(  654) = (  -0.5000000   0.0000000   0.2545455), wk =   0.0025641
        k(  655) = (  -0.5000000   0.0000000   0.4500000), wk =   0.0025641
        k(  656) = (  -0.5000000   0.0000000   0.6454546), wk =   0.0025641
        k(  657) = (  -0.5000000   0.0000000   0.8409091), wk =   0.0025641
        k(  658) = (  -0.5000000   0.0000000   1.0363637), wk =   0.0025641
        k(  659) = (  -0.5000000   0.1937968  -0.1363636), wk =   0.0025641
        k(  660) = (  -0.5000000   0.1937968   0.0590909), wk =   0.0025641
        k(  661) = (  -0.5000000   0.1937968   0.2545455), wk =   0.0025641
        k(  662) = (  -0.5000000   0.1937968   0.4500000), wk =   0.0025641
        k(  663) = (  -0.5000000   0.1937968   0.6454546), wk =   0.0025641
        k(  664) = (  -0.5000000   0.1937968   0.8409091), wk =   0.0025641
        k(  665) = (  -0.5000000   0.1937968   1.0363637), wk =   0.0025641
        k(  666) = (  -0.5000000   0.1937968  -1.3090909), wk =   0.0025641
        k(  667) = (  -0.5000000   0.1937968  -1.1136364), wk =   0.0025641
        k(  668) = (  -0.5000000   0.1937968  -0.9181818), wk =   0.0025641
        k(  669) = (  -0.5000000   0.1937968  -0.7227273), wk =   0.0025641
        k(  670) = (  -0.5000000   0.1937968  -0.5272727), wk =   0.0025641
        k(  671) = (  -0.5000000   0.1937968  -0.3318182), wk =   0.0025641
        k(  672) = (  -0.5000000   0.3875935  -0.1363636), wk =   0.0025641
        k(  673) = (  -0.5000000   0.3875935   0.0590909), wk =   0.0025641
        k(  674) = (  -0.5000000   0.3875935   0.2545455), wk =   0.0025641
        k(  675) = (  -0.5000000   0.3875935   0.4500000), wk =   0.0025641
        k(  676) = (  -0.5000000   0.3875935   0.6454546), wk =   0.0025641
        k(  677) = (  -0.5000000   0.3875935   0.8409091), wk =   0.0025641
        k(  678) = (  -0.5000000   0.3875935   1.0363637), wk =   0.0025641
        k(  679) = (  -0.5000000   0.3875935  -1.3090909), wk =   0.0025641
        k(  680) = (  -0.5000000   0.3875935  -1.1136364), wk =   0.0025641
        k(  681) = (  -0.5000000   0.3875935  -0.9181818), wk =   0.0025641
        k(  682) = (  -0.5000000   0.3875935  -0.7227273), wk =   0.0025641
        k(  683) = (  -0.5000000   0.3875935  -0.5272727), wk =   0.0025641
        k(  684) = (  -0.5000000   0.3875935  -0.3318182), wk =   0.0025641
        k(  685) = (  -0.5000000   0.5813903  -0.1363636), wk =   0.0025641
        k(  686) = (  -0.5000000   0.5813903   0.0590909), wk =   0.0025641
        k(  687) = (  -0.5000000   0.5813903   0.2545455), wk =   0.0025641
        k(  688) = (  -0.5000000   0.5813903   0.4500000), wk =   0.0025641
        k(  689) = (  -0.5000000   0.5813903   0.6454546), wk =   0.0025641
        k(  690) = (  -0.5000000   0.5813903   0.8409091), wk =   0.0025641
        k(  691) = (  -0.5000000   0.5813903   1.0363637), wk =   0.0025641
        k(  692) = (  -0.5000000   0.5813903  -1.3090909), wk =   0.0025641
        k(  693) = (  -0.5000000   0.5813903  -1.1136364), wk =   0.0025641
        k(  694) = (  -0.5000000   0.5813903  -0.9181818), wk =   0.0025641
        k(  695) = (  -0.5000000   0.5813903  -0.7227273), wk =   0.0025641
        k(  696) = (  -0.5000000   0.5813903  -0.5272727), wk =   0.0025641
        k(  697) = (  -0.5000000   0.5813903  -0.3318182), wk =   0.0025641
        k(  698) = (  -0.5000000   0.7751871  -0.1363636), wk =   0.0025641
        k(  699) = (  -0.5000000   0.7751871   0.0590909), wk =   0.0025641
        k(  700) = (  -0.5000000   0.7751871   0.2545455), wk =   0.0025641
        k(  701) = (  -0.5000000   0.7751871   0.4500000), wk =   0.0025641
        k(  702) = (  -0.5000000   0.7751871   0.6454546), wk =   0.0025641
        k(  703) = (  -0.5000000   0.7751871   0.8409091), wk =   0.0025641
        k(  704) = (  -0.5000000   0.7751871   1.0363637), wk =   0.0025641
        k(  705) = (  -0.5000000   0.7751871  -1.3090909), wk =   0.0025641
        k(  706) = (  -0.5000000   0.7751871  -1.1136364), wk =   0.0025641
        k(  707) = (  -0.5000000   0.7751871  -0.9181818), wk =   0.0025641
        k(  708) = (  -0.5000000   0.7751871  -0.7227273), wk =   0.0025641
        k(  709) = (  -0.5000000   0.7751871  -0.5272727), wk =   0.0025641
        k(  710) = (  -0.5000000   0.7751871  -0.3318182), wk =   0.0025641
        k(  711) = (  -0.5000000   0.9689838  -0.1363636), wk =   0.0025641
        k(  712) = (  -0.5000000   0.9689838   0.0590909), wk =   0.0025641
        k(  713) = (  -0.5000000   0.9689838   0.2545455), wk =   0.0025641
        k(  714) = (  -0.5000000   0.9689838   0.4500000), wk =   0.0025641
        k(  715) = (  -0.5000000   0.9689838   0.6454546), wk =   0.0025641
        k(  716) = (  -0.5000000   0.9689838   0.8409091), wk =   0.0025641
        k(  717) = (  -0.5000000   0.9689838   1.0363637), wk =   0.0025641
        k(  718) = (  -0.5000000   0.9689838  -1.3090909), wk =   0.0025641
        k(  719) = (  -0.5000000   0.9689838  -1.1136364), wk =   0.0025641
        k(  720) = (  -0.5000000   0.9689838  -0.9181818), wk =   0.0025641
        k(  721) = (  -0.5000000   0.9689838  -0.7227273), wk =   0.0025641
        k(  722) = (  -0.5000000   0.9689838  -0.5272727), wk =   0.0025641
        k(  723) = (  -0.5000000   0.9689838  -0.3318182), wk =   0.0025641
        k(  724) = (  -0.5000000   1.1627806  -0.1363636), wk =   0.0025641
        k(  725) = (  -0.5000000   1.1627806   0.0590909), wk =   0.0025641
        k(  726) = (  -0.5000000   1.1627806   0.2545455), wk =   0.0025641
        k(  727) = (  -0.5000000   1.1627806   0.4500000), wk =   0.0025641
        k(  728) = (  -0.5000000   1.1627806   0.6454546), wk =   0.0025641
        k(  729) = (  -0.5000000   1.1627806   0.8409091), wk =   0.0025641
        k(  730) = (  -0.5000000   1.1627806   1.0363637), wk =   0.0025641
        k(  731) = (  -0.5000000   1.1627806  -1.3090909), wk =   0.0025641
        k(  732) = (  -0.5000000   1.1627806  -1.1136364), wk =   0.0025641
        k(  733) = (  -0.5000000   1.1627806  -0.9181818), wk =   0.0025641
        k(  734) = (  -0.5000000   1.1627806  -0.7227273), wk =   0.0025641
        k(  735) = (  -0.5000000   1.1627806  -0.5272727), wk =   0.0025641
        k(  736) = (  -0.5000000   1.1627806  -0.3318182), wk =   0.0025641
        k(  737) = (  -0.5000000   1.3565774  -0.1363636), wk =   0.0025641
        k(  738) = (  -0.5000000   1.3565774   0.0590909), wk =   0.0025641
        k(  739) = (  -0.5000000   1.3565774   0.2545455), wk =   0.0025641
        k(  740) = (  -0.5000000   1.3565774   0.4500000), wk =   0.0025641
        k(  741) = (  -0.5000000   1.3565774   0.6454546), wk =   0.0025641
        k(  742) = (  -0.5000000   1.3565774   0.8409091), wk =   0.0025641
        k(  743) = (  -0.5000000   1.3565774   1.0363637), wk =   0.0025641
        k(  744) = (  -0.5000000   1.3565774  -1.3090909), wk =   0.0025641
        k(  745) = (  -0.5000000   1.3565774  -1.1136364), wk =   0.0025641
        k(  746) = (  -0.5000000   1.3565774  -0.9181818), wk =   0.0025641
        k(  747) = (  -0.5000000   1.3565774  -0.7227273), wk =   0.0025641
        k(  748) = (  -0.5000000   1.3565774  -0.5272727), wk =   0.0025641
        k(  749) = (  -0.5000000   1.3565774  -0.3318182), wk =   0.0025641
        k(  750) = (  -0.5000000   1.5503742  -0.1363636), wk =   0.0025641
        k(  751) = (  -0.5000000   1.5503742   0.0590909), wk =   0.0025641
        k(  752) = (  -0.5000000   1.5503742   0.2545455), wk =   0.0025641
        k(  753) = (  -0.5000000   1.5503742   0.4500000), wk =   0.0025641
        k(  754) = (  -0.5000000   1.5503742   0.6454546), wk =   0.0025641
        k(  755) = (  -0.5000000   1.5503742   0.8409091), wk =   0.0025641
        k(  756) = (  -0.5000000   1.5503742   1.0363637), wk =   0.0025641
        k(  757) = (  -0.5000000   1.5503742  -1.3090909), wk =   0.0025641
        k(  758) = (  -0.5000000   1.5503742  -1.1136364), wk =   0.0025641
        k(  759) = (  -0.5000000   1.5503742  -0.9181818), wk =   0.0025641
        k(  760) = (  -0.5000000   1.5503742  -0.7227273), wk =   0.0025641
        k(  761) = (  -0.5000000   1.5503742  -0.5272727), wk =   0.0025641
        k(  762) = (  -0.5000000   1.5503742  -0.3318182), wk =   0.0025641
        k(  763) = (  -0.5000000   1.7441709  -0.1363636), wk =   0.0025641
        k(  764) = (  -0.5000000   1.7441709   0.0590909), wk =   0.0025641
        k(  765) = (  -0.5000000   1.7441709   0.2545455), wk =   0.0025641
        k(  766) = (  -0.5000000   1.7441709   0.4500000), wk =   0.0025641
        k(  767) = (  -0.5000000   1.7441709   0.6454546), wk =   0.0025641
        k(  768) = (  -0.5000000   1.7441709   0.8409091), wk =   0.0025641
        k(  769) = (  -0.5000000   1.7441709   1.0363637), wk =   0.0025641
        k(  770) = (  -0.5000000   1.7441709  -1.3090909), wk =   0.0025641
        k(  771) = (  -0.5000000   1.7441709  -1.1136364), wk =   0.0025641
        k(  772) = (  -0.5000000   1.7441709  -0.9181818), wk =   0.0025641
        k(  773) = (  -0.5000000   1.7441709  -0.7227273), wk =   0.0025641
        k(  774) = (  -0.5000000   1.7441709  -0.5272727), wk =   0.0025641
        k(  775) = (  -0.5000000   1.7441709  -0.3318182), wk =   0.0025641
        k(  776) = (  -0.5000000  -1.9379677  -0.1363636), wk =   0.0012821
        k(  777) = (  -0.5000000  -1.9379677   0.0590909), wk =   0.0025641
        k(  778) = (  -0.5000000  -1.9379677   0.2545455), wk =   0.0025641
        k(  779) = (  -0.5000000  -1.9379677   0.4500000), wk =   0.0025641
        k(  780) = (  -0.5000000  -1.9379677   0.6454546), wk =   0.0025641
        k(  781) = (  -0.5000000  -1.9379677   0.8409091), wk =   0.0025641
        k(  782) = (  -0.5000000  -1.9379677   1.0363637), wk =   0.0025641

                       cryst. coord.
        k(    1) = (   0.0000000   0.0000000   0.0000000), wk =   0.0012821
        k(    2) = (   0.0000000   0.0000000   0.0769231), wk =   0.0025641
        k(    3) = (   0.0000000   0.0000000   0.1538462), wk =   0.0025641
        k(    4) = (   0.0000000   0.0000000   0.2307692), wk =   0.0025641
        k(    5) = (   0.0000000   0.0000000   0.3076923), wk =   0.0025641
        k(    6) = (   0.0000000   0.0000000   0.3846154), wk =   0.0025641
        k(    7) = (   0.0000000   0.0000000   0.4615385), wk =   0.0025641
        k(    8) = (   0.0000000   0.0500000   0.0000000), wk =   0.0025641
        k(    9) = (   0.0000000   0.0500000   0.0769231), wk =   0.0025641
        k(   10) = (   0.0000000   0.0500000   0.1538462), wk =   0.0025641
        k(   11) = (   0.0000000   0.0500000   0.2307692), wk =   0.0025641
        k(   12) = (   0.0000000   0.0500000   0.3076923), wk =   0.0025641
        k(   13) = (   0.0000000   0.0500000   0.3846154), wk =   0.0025641
        k(   14) = (   0.0000000   0.0500000   0.4615385), wk =   0.0025641
        k(   15) = (   0.0000000   0.0500000  -0.4615385), wk =   0.0025641
        k(   16) = (   0.0000000   0.0500000  -0.3846154), wk =   0.0025641
        k(   17) = (   0.0000000   0.0500000  -0.3076923), wk =   0.0025641
        k(   18) = (   0.0000000   0.0500000  -0.2307692), wk =   0.0025641
        k(   19) = (   0.0000000   0.0500000  -0.1538462), wk =   0.0025641
        k(   20) = (   0.0000000   0.0500000  -0.0769231), wk =   0.0025641
        k(   21) = (   0.0000000   0.1000000   0.0000000), wk =   0.0025641
        k(   22) = (   0.0000000   0.1000000   0.0769231), wk =   0.0025641
        k(   23) = (   0.0000000   0.1000000   0.1538462), wk =   0.0025641
        k(   24) = (   0.0000000   0.1000000   0.2307692), wk =   0.0025641
        k(   25) = (   0.0000000   0.1000000   0.3076923), wk =   0.0025641
        k(   26) = (   0.0000000   0.1000000   0.3846154), wk =   0.0025641
        k(   27) = (   0.0000000   0.1000000   0.4615385), wk =   0.0025641
        k(   28) = (   0.0000000   0.1000000  -0.4615385), wk =   0.0025641
        k(   29) = (   0.0000000   0.1000000  -0.3846154), wk =   0.0025641
        k(   30) = (   0.0000000   0.1000000  -0.3076923), wk =   0.0025641
        k(   31) = (   0.0000000   0.1000000  -0.2307692), wk =   0.0025641
        k(   32) = (   0.0000000   0.1000000  -0.1538462), wk =   0.0025641
        k(   33) = (   0.0000000   0.1000000  -0.0769231), wk =   0.0025641
        k(   34) = (   0.0000000   0.1500000   0.0000000), wk =   0.0025641
        k(   35) = (   0.0000000   0.1500000   0.0769231), wk =   0.0025641
        k(   36) = (   0.0000000   0.1500000   0.1538462), wk =   0.0025641
        k(   37) = (   0.0000000   0.1500000   0.2307692), wk =   0.0025641
        k(   38) = (   0.0000000   0.1500000   0.3076923), wk =   0.0025641
        k(   39) = (   0.0000000   0.1500000   0.3846154), wk =   0.0025641
        k(   40) = (   0.0000000   0.1500000   0.4615385), wk =   0.0025641
        k(   41) = (   0.0000000   0.1500000  -0.4615385), wk =   0.0025641
        k(   42) = (   0.0000000   0.1500000  -0.3846154), wk =   0.0025641
        k(   43) = (   0.0000000   0.1500000  -0.3076923), wk =   0.0025641
        k(   44) = (   0.0000000   0.1500000  -0.2307692), wk =   0.0025641
        k(   45) = (   0.0000000   0.1500000  -0.1538462), wk =   0.0025641
        k(   46) = (   0.0000000   0.1500000  -0.0769231), wk =   0.0025641
        k(   47) = (   0.0000000   0.2000000   0.0000000), wk =   0.0025641
        k(   48) = (   0.0000000   0.2000000   0.0769231), wk =   0.0025641
        k(   49) = (   0.0000000   0.2000000   0.1538462), wk =   0.0025641
        k(   50) = (   0.0000000   0.2000000   0.2307692), wk =   0.0025641
        k(   51) = (   0.0000000   0.2000000   0.3076923), wk =   0.0025641
        k(   52) = (   0.0000000   0.2000000   0.3846154), wk =   0.0025641
        k(   53) = (   0.0000000   0.2000000   0.4615385), wk =   0.0025641
        k(   54) = (   0.0000000   0.2000000  -0.4615385), wk =   0.0025641
        k(   55) = (   0.0000000   0.2000000  -0.3846154), wk =   0.0025641
        k(   56) = (   0.0000000   0.2000000  -0.3076923), wk =   0.0025641
        k(   57) = (   0.0000000   0.2000000  -0.2307692), wk =   0.0025641
        k(   58) = (   0.0000000   0.2000000  -0.1538462), wk =   0.0025641
        k(   59) = (   0.0000000   0.2000000  -0.0769231), wk =   0.0025641
        k(   60) = (   0.0000000   0.2500000   0.0000000), wk =   0.0025641
        k(   61) = (   0.0000000   0.2500000   0.0769231), wk =   0.0025641
        k(   62) = (   0.0000000   0.2500000   0.1538462), wk =   0.0025641
        k(   63) = (   0.0000000   0.2500000   0.2307692), wk =   0.0025641
        k(   64) = (   0.0000000   0.2500000   0.3076923), wk =   0.0025641
        k(   65) = (   0.0000000   0.2500000   0.3846154), wk =   0.0025641
        k(   66) = (   0.0000000   0.2500000   0.4615385), wk =   0.0025641
        k(   67) = (   0.0000000   0.2500000  -0.4615385), wk =   0.0025641
        k(   68) = (   0.0000000   0.2500000  -0.3846154), wk =   0.0025641
        k(   69) = (   0.0000000   0.2500000  -0.3076923), wk =   0.0025641
        k(   70) = (   0.0000000   0.2500000  -0.2307692), wk =   0.0025641
        k(   71) = (   0.0000000   0.2500000  -0.1538462), wk =   0.0025641
        k(   72) = (   0.0000000   0.2500000  -0.0769231), wk =   0.0025641
        k(   73) = (   0.0000000   0.3000000   0.0000000), wk =   0.0025641
        k(   74) = (   0.0000000   0.3000000   0.0769231), wk =   0.0025641
        k(   75) = (   0.0000000   0.3000000   0.1538462), wk =   0.0025641
        k(   76) = (   0.0000000   0.3000000   0.2307692), wk =   0.0025641
        k(   77) = (   0.0000000   0.3000000   0.3076923), wk =   0.0025641
        k(   78) = (   0.0000000   0.3000000   0.3846154), wk =   0.0025641
        k(   79) = (   0.0000000   0.3000000   0.4615385), wk =   0.0025641
        k(   80) = (   0.0000000   0.3000000  -0.4615385), wk =   0.0025641
        k(   81) = (   0.0000000   0.3000000  -0.3846154), wk =   0.0025641
        k(   82) = (   0.0000000   0.3000000  -0.3076923), wk =   0.0025641
        k(   83) = (   0.0000000   0.3000000  -0.2307692), wk =   0.0025641
        k(   84) = (   0.0000000   0.3000000  -0.1538462), wk =   0.0025641
        k(   85) = (   0.0000000   0.3000000  -0.0769231), wk =   0.0025641
        k(   86) = (   0.0000000   0.3500000   0.0000000), wk =   0.0025641
        k(   87) = (   0.0000000   0.3500000   0.0769231), wk =   0.0025641
        k(   88) = (   0.0000000   0.3500000   0.1538462), wk =   0.0025641
        k(   89) = (   0.0000000   0.3500000   0.2307692), wk =   0.0025641
        k(   90) = (   0.0000000   0.3500000   0.3076923), wk =   0.0025641
        k(   91) = (   0.0000000   0.3500000   0.3846154), wk =   0.0025641
        k(   92) = (   0.0000000   0.3500000   0.4615385), wk =   0.0025641
        k(   93) = (   0.0000000   0.3500000  -0.4615385), wk =   0.0025641
        k(   94) = (   0.0000000   0.3500000  -0.3846154), wk =   0.0025641
        k(   95) = (   0.0000000   0.3500000  -0.3076923), wk =   0.0025641
        k(   96) = (   0.0000000   0.3500000  -0.2307692), wk =   0.0025641
        k(   97) = (   0.0000000   0.3500000  -0.1538462), wk =   0.0025641
        k(   98) = (   0.0000000   0.3500000  -0.0769231), wk =   0.0025641
        k(   99) = (   0.0000000   0.4000000   0.0000000), wk =   0.0025641
        k(  100) = (   0.0000000   0.4000000   0.0769231), wk =   0.0025641
        k(  101) = (   0.0000000   0.4000000   0.1538462), wk =   0.0025641
        k(  102) = (   0.0000000   0.4000000   0.2307692), wk =   0.0025641
        k(  103) = (   0.0000000   0.4000000   0.3076923), wk =   0.0025641
        k(  104) = (   0.0000000   0.4000000   0.3846154), wk =   0.0025641
        k(  105) = (   0.0000000   0.4000000   0.4615385), wk =   0.0025641
        k(  106) = (   0.0000000   0.4000000  -0.4615385), wk =   0.0025641
        k(  107) = (   0.0000000   0.4000000  -0.3846154), wk =   0.0025641
        k(  108) = (   0.0000000   0.4000000  -0.3076923), wk =   0.0025641
        k(  109) = (   0.0000000   0.4000000  -0.2307692), wk =   0.0025641
        k(  110) = (   0.0000000   0.4000000  -0.1538462), wk =   0.0025641
        k(  111) = (   0.0000000   0.4000000  -0.0769231), wk =   0.0025641
        k(  112) = (   0.0000000   0.4500000   0.0000000), wk =   0.0025641
        k(  113) = (   0.0000000   0.4500000   0.0769231), wk =   0.0025641
        k(  114) = (   0.0000000   0.4500000   0.1538462), wk =   0.0025641
        k(  115) = (   0.0000000   0.4500000   0.2307692), wk =   0.0025641
        k(  116) = (   0.0000000   0.4500000   0.3076923), wk =   0.0025641
        k(  117) = (   0.0000000   0.4500000   0.3846154), wk =   0.0025641
        k(  118) = (   0.0000000   0.4500000   0.4615385), wk =   0.0025641
        k(  119) = (   0.0000000   0.4500000  -0.4615385), wk =   0.0025641
        k(  120) = (   0.0000000   0.4500000  -0.3846154), wk =   0.0025641
        k(  121) = (   0.0000000   0.4500000  -0.3076923), wk =   0.0025641
        k(  122) = (   0.0000000   0.4500000  -0.2307692), wk =   0.0025641
        k(  123) = (   0.0000000   0.4500000  -0.1538462), wk =   0.0025641
        k(  124) = (   0.0000000   0.4500000  -0.0769231), wk =   0.0025641
        k(  125) = (   0.0000000  -0.5000000   0.0000000), wk =   0.0012821
        k(  126) = (   0.0000000  -0.5000000   0.0769231), wk =   0.0025641
        k(  127) = (   0.0000000  -0.5000000   0.1538462), wk =   0.0025641
        k(  128) = (   0.0000000  -0.5000000   0.2307692), wk =   0.0025641
        k(  129) = (   0.0000000  -0.5000000   0.3076923), wk =   0.0025641
        k(  130) = (   0.0000000  -0.5000000   0.3846154), wk =   0.0025641
        k(  131) = (   0.0000000  -0.5000000   0.4615385), wk =   0.0025641
        k(  132) = (   0.1666667   0.0000000   0.0000000), wk =   0.0025641
        k(  133) = (   0.1666667   0.0000000   0.0769231), wk =   0.0025641
        k(  134) = (   0.1666667   0.0000000   0.1538462), wk =   0.0025641
        k(  135) = (   0.1666667   0.0000000   0.2307692), wk =   0.0025641
        k(  136) = (   0.1666667   0.0000000   0.3076923), wk =   0.0025641
        k(  137) = (   0.1666667   0.0000000   0.3846154), wk =   0.0025641
        k(  138) = (   0.1666667   0.0000000   0.4615385), wk =   0.0025641
        k(  139) = (   0.1666667   0.0000000  -0.4615385), wk =   0.0025641
        k(  140) = (   0.1666667   0.0000000  -0.3846154), wk =   0.0025641
        k(  141) = (   0.1666667   0.0000000  -0.3076923), wk =   0.0025641
        k(  142) = (   0.1666667   0.0000000  -0.2307692), wk =   0.0025641
[...]
     0.9299   0.9299  -0.0350  -0.0350  -0.0354  -0.0354

          k =-0.5000-1.9380 1.0364 ( 11410 PWs)   bands (ev):

    -2.9529  -2.9529  -1.9604  -1.9604  -1.7869  -1.7869  -1.0039  -1.0039
     0.1571   0.1571   0.9526   0.9526   1.0106   1.0106   2.1045   2.1045
     2.2248   2.2248   2.7717   2.7717   3.7114   3.7114   4.1600   4.1600
     4.9061   4.9061   5.1575   5.1575   5.3034   5.3034   5.5556   5.5556
     6.2667   6.2667   7.2124   7.2124   7.4897   7.4897

     occupation numbers 
     1.0000   1.0000   1.0000   1.0000   1.0000   1.0000   1.0000   1.0000
     1.0000   1.0000   1.0000   1.0000   1.0000   1.0000   1.0000   1.0000
     1.0000   1.0000   1.0000   1.0000   1.0000   1.0000   1.0000   1.0000
     1.0001   1.0001   1.0011   1.0011   1.0031   1.0031   1.0127   1.0127
     0.9460   0.9460  -0.0137  -0.0137  -0.0326  -0.0326

     the Fermi energy is     6.6641 ev

!    total energy              =    -585.61649043 Ry
     Harris-Foulkes estimate   =    -585.61649043 Ry
     estimated scf accuracy    <          7.8E-13 Ry

     The total energy is the sum of the following terms:

     one-electron contribution =      44.13256021 Ry
     hartree contribution      =       7.90110546 Ry
     xc contribution           =     -76.19917871 Ry
     ewald contribution        =    -109.80297135 Ry
     one-center paw contrib.   =    -451.64853577 Ry
      -> PAW hartree energy AE =       0.97908639 Ry
      -> PAW hartree energy PS =      -0.97687593 Ry
      -> PAW xc energy AE      =     -32.71289356 Ry
      -> PAW xc energy PS      =       1.40487356 Ry
      -> total E_H with PAW    =       7.90331591 Ry
      -> total E_XC with PAW   =    -107.50719871 Ry
     smearing contrib. (-TS)   =       0.00052973 Ry

     convergence has been achieved in  19 iterations

     Forces acting on atoms (cartesian axes, Ry/au):

     atom    1 type  1   force =     0.00000233   -0.00000003    0.00000063
     atom    2 type  1   force =    -0.00090873    0.00000001   -0.00014555
     atom    3 type  1   force =    -0.00095036   -0.00000003   -0.00021242
     atom    4 type  1   force =     0.00094851   -0.00000005    0.00021244
     atom    5 type  1   force =     0.00090780   -0.00000006    0.00014560
     atom    6 type  2   force =    -0.00110817    0.00000000    0.00021204
     atom    7 type  2   force =     0.00083966   -0.00000008    0.00069898
     atom    8 type  3   force =    -0.00053561    0.00000001   -0.00034595
     atom    9 type  3   force =     0.00053611   -0.00000012    0.00034622
     atom   10 type  2   force =    -0.00083961    0.00000017   -0.00069930
     atom   11 type  2   force =     0.00110835    0.00000009   -0.00021252
     atom   12 type  1   force =     0.00000244    0.00000003    0.00000049
     atom   13 type  1   force =    -0.00090882    0.00000001   -0.00014558
     atom   14 type  1   force =    -0.00095051    0.00000007   -0.00021246
     atom   15 type  1   force =     0.00094852   -0.00000002    0.00021237
     atom   16 type  1   force =     0.00090770    0.00000002    0.00014566
     atom   17 type  2   force =    -0.00110843   -0.00000006    0.00021208
     atom   18 type  2   force =     0.00083954   -0.00000026    0.00069907
     atom   19 type  3   force =    -0.00053553    0.00000014   -0.00034611
     atom   20 type  3   force =     0.00053596    0.00000000    0.00034624
     atom   21 type  2   force =    -0.00083955    0.00000009   -0.00069939
     atom   22 type  2   force =     0.00110838    0.00000005   -0.00021253
     The non-local contrib.  to forces
     atom    1 type  1   force =     0.00000956    0.00000010    0.00000183
     atom    2 type  1   force =     0.00621042   -0.00000010    0.00127332
     atom    3 type  1   force =     0.00594896   -0.00000023    0.00899234
     atom    4 type  1   force =    -0.00594530    0.00000030   -0.00898937
     atom    5 type  1   force =    -0.00620543   -0.00000009   -0.00126990
     atom    6 type  2   force =    -0.00413190    0.00000005   -0.05810583
     atom    7 type  2   force =     0.01548805    0.00000001    0.02208945
     atom    8 type  3   force =     0.00141986   -0.00000008    0.00026355
     atom    9 type  3   force =    -0.00141583   -0.00000005   -0.00026169
     atom   10 type  2   force =    -0.01548816    0.00000014   -0.02209252
     atom   11 type  2   force =     0.00413010    0.00000012    0.05810112
     atom   12 type  1   force =     0.00000965   -0.00000017    0.00000156
     atom   13 type  1   force =     0.00621050    0.00000012    0.00127313
     atom   14 type  1   force =     0.00594897   -0.00000042    0.00899202
     atom   15 type  1   force =    -0.00594535    0.00000031   -0.00898952
     atom   16 type  1   force =    -0.00620516    0.00000004   -0.00126997
     atom   17 type  2   force =    -0.00413167   -0.00000034   -0.05810588
     atom   18 type  2   force =     0.01548834   -0.00000003    0.02208981
     atom   19 type  3   force =     0.00141979    0.00000025    0.00026359
     atom   20 type  3   force =    -0.00141560   -0.00000016   -0.00026185
     atom   21 type  2   force =    -0.01548837   -0.00000015   -0.02209213
     atom   22 type  2   force =     0.00413019    0.00000013    0.05810124
     The ionic contribution  to forces
     atom    1 type  1   force =     0.00002748   -0.00000000    0.00001298
     atom    2 type  1   force =    -0.09134971    0.00000000   -0.33691609
     atom    3 type  1   force =    -0.23776378    0.00000000    0.07380029
     atom    4 type  1   force =     0.23776505   -0.00000000   -0.07379339
     atom    5 type  1   force =     0.09136697   -0.00000000    0.33690833
     atom    6 type  2   force =    -0.09139426   -0.00000000    0.72684756
     atom    7 type  2   force =    -0.45275227   -0.00000000   -0.79776172
     atom    8 type  3   force =    -0.16752340   -0.00000000    0.30462947
     atom    9 type  3   force =     0.16753457    0.00000000   -0.30464028
     atom   10 type  2   force =     0.45272061    0.00000000    0.79776006
     atom   11 type  2   force =     0.09136878    0.00000000   -0.72684698
     atom   12 type  1   force =     0.00002730    0.00000000    0.00001247
     atom   13 type  1   force =    -0.09135003   -0.00000000   -0.33691599
     atom   14 type  1   force =    -0.23776367   -0.00000000    0.07379988
     atom   15 type  1   force =     0.23776513    0.00000000   -0.07379336
     atom   16 type  1   force =     0.09136680    0.00000000    0.33690842
     atom   17 type  2   force =    -0.09139493    0.00000000    0.72684756
     atom   18 type  2   force =    -0.45275261    0.00000000   -0.79776117
     atom   19 type  3   force =    -0.16752320    0.00000000    0.30462945
     atom   20 type  3   force =     0.16753463   -0.00000000   -0.30464008
     atom   21 type  2   force =     0.45272119   -0.00000000    0.79775982
     atom   22 type  2   force =     0.09136936   -0.00000000   -0.72684723
     The local contribution  to forces
     atom    1 type  1   force =    -0.00003218   -0.00000012   -0.00001359
     atom    2 type  1   force =     0.08521936    0.00000009    0.33499787
     atom    3 type  1   force =     0.23125701    0.00000017   -0.08194704
     atom    4 type  1   force =    -0.23126064   -0.00000030    0.08193822
     atom    5 type  1   force =    -0.08523916    0.00000003   -0.33499242
     atom    6 type  2   force =     0.09425153   -0.00000000   -0.67420586
     atom    7 type  2   force =     0.43965659   -0.00000004    0.77840058
     atom    8 type  3   force =     0.16555698    0.00000012   -0.30466187
     atom    9 type  3   force =    -0.16556836   -0.00000011    0.30467201
     atom   10 type  2   force =    -0.43962649   -0.00000001   -0.77839948
     atom   11 type  2   force =    -0.09422798   -0.00000006    0.67420630
     atom   12 type  1   force =    -0.00003198    0.00000019   -0.00001298
     atom   13 type  1   force =     0.08521950   -0.00000011    0.33499790
     atom   14 type  1   force =     0.23125670    0.00000043   -0.08194640
     atom   15 type  1   force =    -0.23126070   -0.00000028    0.08193826
     atom   16 type  1   force =    -0.08523935   -0.00000001   -0.33499237
     atom   17 type  2   force =     0.09425167    0.00000029   -0.67420580
     atom   18 type  2   force =     0.43965644   -0.00000018    0.77839977
     atom   19 type  3   force =     0.16555685   -0.00000005   -0.30466207
     atom   20 type  3   force =    -0.16556886    0.00000011    0.30467195
     atom   21 type  2   force =    -0.43962692    0.00000017   -0.77839971
     atom   22 type  2   force =    -0.09422865   -0.00000010    0.67420640
     The core correction contribution to forces
     atom    1 type  1   force =    -0.00000116   -0.00000001   -0.00000024
     atom    2 type  1   force =    -0.00098757    0.00000001    0.00049971
     atom    3 type  1   force =    -0.00039126    0.00000002   -0.00105770
     atom    4 type  1   force =     0.00039086   -0.00000003    0.00105738
     atom    5 type  1   force =     0.00098693    0.00000001   -0.00050007
     atom    6 type  2   force =     0.00016770   -0.00000000    0.00567643
     atom    7 type  2   force =    -0.00155146   -0.00000000   -0.00202920
     atom    8 type  3   force =     0.00001216    0.00000001   -0.00057666
     atom    9 type  3   force =    -0.00001268    0.00000000    0.00057647
     atom   10 type  2   force =     0.00155601   -0.00000002    0.00203324
     atom   11 type  2   force =    -0.00016101   -0.00000001   -0.00567248
     atom   12 type  1   force =    -0.00000116    0.00000002   -0.00000021
     atom   13 type  1   force =    -0.00098757   -0.00000001    0.00049973
     atom   14 type  1   force =    -0.00039127    0.00000004   -0.00105766
     atom   15 type  1   force =     0.00039087   -0.00000003    0.00105739
     atom   16 type  1   force =     0.00098690   -0.00000000   -0.00050006
     atom   17 type  2   force =     0.00016767    0.00000004    0.00567643
     atom   18 type  2   force =    -0.00155150    0.00000000   -0.00202924
     atom   19 type  3   force =     0.00001217   -0.00000002   -0.00057667
     atom   20 type  3   force =    -0.00001271    0.00000002    0.00057649
     atom   21 type  2   force =     0.00155603    0.00000002    0.00203320
     atom   22 type  2   force =    -0.00016102   -0.00000002   -0.00567249
     The Hubbard contrib.    to forces
     atom    1 type  1   force =     0.00000000    0.00000000    0.00000000
     atom    2 type  1   force =     0.00000000    0.00000000    0.00000000
     atom    3 type  1   force =     0.00000000    0.00000000    0.00000000
     atom    4 type  1   force =     0.00000000    0.00000000    0.00000000
     atom    5 type  1   force =     0.00000000    0.00000000    0.00000000
     atom    6 type  2   force =     0.00000000    0.00000000    0.00000000
     atom    7 type  2   force =     0.00000000    0.00000000    0.00000000
     atom    8 type  3   force =     0.00000000    0.00000000    0.00000000
     atom    9 type  3   force =     0.00000000    0.00000000    0.00000000
     atom   10 type  2   force =     0.00000000    0.00000000    0.00000000
     atom   11 type  2   force =     0.00000000    0.00000000    0.00000000
     atom   12 type  1   force =     0.00000000    0.00000000    0.00000000
     atom   13 type  1   force =     0.00000000    0.00000000    0.00000000
     atom   14 type  1   force =     0.00000000    0.00000000    0.00000000
     atom   15 type  1   force =     0.00000000    0.00000000    0.00000000
     atom   16 type  1   force =     0.00000000    0.00000000    0.00000000
     atom   17 type  2   force =     0.00000000    0.00000000    0.00000000
     atom   18 type  2   force =     0.00000000    0.00000000    0.00000000
     atom   19 type  3   force =     0.00000000    0.00000000    0.00000000
     atom   20 type  3   force =     0.00000000    0.00000000    0.00000000
     atom   21 type  2   force =     0.00000000    0.00000000    0.00000000
     atom   22 type  2   force =     0.00000000    0.00000000    0.00000000
     The SCF correction term to forces
     atom    1 type  1   force =    -0.00000001   -0.00000000   -0.00000000
     atom    2 type  1   force =     0.00000012    0.00000001   -0.00000000
     atom    3 type  1   force =     0.00000007    0.00000002    0.00000004
     atom    4 type  1   force =    -0.00000011   -0.00000002   -0.00000005
     atom    5 type  1   force =    -0.00000015   -0.00000001   -0.00000000
     atom    6 type  2   force =     0.00000013   -0.00000004    0.00000010
     atom    7 type  2   force =     0.00000012   -0.00000005    0.00000022
     atom    8 type  3   force =     0.00000014   -0.00000004   -0.00000008
     atom    9 type  3   force =    -0.00000022    0.00000004    0.00000006
     atom   10 type  2   force =    -0.00000022    0.00000005   -0.00000024
     atom   11 type  2   force =    -0.00000017    0.00000004   -0.00000013
     atom   12 type  1   force =    -0.00000000    0.00000000    0.00000000
     atom   13 type  1   force =     0.00000015    0.00000001    0.00000000
     atom   14 type  1   force =     0.00000012    0.00000002    0.00000005
     atom   15 type  1   force =    -0.00000007   -0.00000002   -0.00000004
     atom   16 type  1   force =    -0.00000013   -0.00000001    0.00000000
     atom   17 type  2   force =     0.00000018   -0.00000004    0.00000012
     atom   18 type  2   force =     0.00000022   -0.00000005    0.00000025
     atom   19 type  3   force =     0.00000023   -0.00000004   -0.00000006
     atom   20 type  3   force =    -0.00000014    0.00000004    0.00000008
     atom   21 type  2   force =    -0.00000011    0.00000005   -0.00000022
     atom   22 type  2   force =    -0.00000014    0.00000004   -0.00000011

     Total force =     0.004321     Total SCF correction =     0.000001


     Computing stress (Cartesian axis) and pressure

          total   stress  (Ry/bohr**3)                   (kbar)     P=   22.69
  -0.00002742   0.00000000  -0.00004868         -4.03      0.00     -7.16
   0.00000000   0.00012264   0.00000000          0.00     18.04      0.00
  -0.00004868   0.00000000   0.00036753         -7.16      0.00     54.07

     kinetic stress (kbar)   1414.65      0.00    -15.22
                                0.00   1436.96      0.00
                              -15.22      0.00   1439.16

     local   stress (kbar)     76.34      0.00   -129.27
                                0.00    136.21      0.00
                             -129.27      0.00     -4.54

     nonloc. stress (kbar)   1115.65      0.00     -7.28
                                0.00   1120.58     -0.00
                               -7.28     -0.00   1143.31

     hartree stress (kbar)    145.97     -0.00     32.35
                               -0.00    142.84      0.00
                               32.35      0.00    147.43

     exc-cor stress (kbar)   1492.63      0.00      0.06
                                0.00   1492.74     -0.00
                                0.06     -0.00   1493.46

     corecor stress (kbar)  -2219.22     -0.00      1.12
                               -0.00  -2220.22      0.00
                                1.12      0.00  -2223.33

     ewald   stress (kbar)  -2030.06      0.00    111.08
                                0.00  -2091.08      0.00
                              111.08      0.00  -1941.42

     hubbard stress (kbar)      0.00      0.00      0.00
                                0.00      0.00      0.00
                                0.00      0.00      0.00

     london  stress (kbar)      0.00      0.00      0.00
                                0.00      0.00      0.00
                                0.00      0.00      0.00

     DFT-D3  stress (kbar)      0.00      0.00      0.00
                                0.00      0.00      0.00
                                0.00      0.00      0.00

     XDM     stress (kbar)      0.00      0.00      0.00
                                0.00      0.00      0.00
                                0.00      0.00      0.00

     dft-nl  stress (kbar)      0.00      0.00      0.00
                                0.00      0.00      0.00
                                0.00      0.00      0.00

     TS-vdW  stress (kbar)      0.00      0.00      0.00
                                0.00      0.00      0.00
                                0.00      0.00      0.00



     Writing output data file aiida.save/
 
     init_run     :     24.14s CPU     24.59s WALL (       1 calls)
     electrons    :    813.75s CPU    825.99s WALL (       1 calls)
     forces       :      9.13s CPU      9.20s WALL (       1 calls)
     stress       :     57.17s CPU     58.12s WALL (       1 calls)

     Called by init_run:
     wfcinit      :     21.63s CPU     21.98s WALL (       1 calls)
     wfcinit:atom :      0.16s CPU      0.18s WALL (     196 calls)
     wfcinit:wfcr :     20.12s CPU     20.39s WALL (     196 calls)
     potinit      :      0.85s CPU      0.86s WALL (       1 calls)
     hinit0       :      1.50s CPU      1.52s WALL (       1 calls)

     Called by electrons:
     c_bands      :    723.30s CPU    732.70s WALL (      19 calls)
     sum_band     :     84.24s CPU     86.14s WALL (      19 calls)
     v_of_rho     :      1.47s CPU      1.57s WALL (      20 calls)
     v_h          :      0.08s CPU      0.10s WALL (      20 calls)
     v_xc         :      1.51s CPU      1.60s WALL (      22 calls)
     newd         :      1.54s CPU      2.36s WALL (      20 calls)
     PAW_pot      :      2.57s CPU      2.58s WALL (      20 calls)
     mix_rho      :      0.61s CPU      0.64s WALL (      19 calls)

     Called by c_bands:
     init_us_2    :     23.82s CPU     24.25s WALL (    8036 calls)
     cegterg      :    572.57s CPU    579.77s WALL (    3724 calls)

     Called by sum_band:
     sum_band:bec :      0.50s CPU      0.50s WALL (    3724 calls)
     addusdens    :      1.54s CPU      2.32s WALL (      19 calls)

     Called by *egterg:
     h_psi        :    399.94s CPU    405.88s WALL (   17085 calls)
     s_psi        :     56.90s CPU     57.05s WALL (   17085 calls)
     g_psi        :      2.70s CPU      2.72s WALL (   13165 calls)
     cdiaghg      :     62.17s CPU     63.15s WALL (   16889 calls)
     cegterg:over :     27.00s CPU     27.12s WALL (   13165 calls)
     cegterg:upda :     21.98s CPU     22.17s WALL (   13165 calls)
     cegterg:last :      9.23s CPU      9.29s WALL (    4193 calls)
     cdiaghg:chol :      4.06s CPU      4.09s WALL (   16889 calls)
     cdiaghg:inve :      0.87s CPU      0.88s WALL (   16889 calls)
     cdiaghg:para :      7.91s CPU      7.98s WALL (   33778 calls)

     Called by h_psi:
     h_psi:pot    :    398.18s CPU    404.10s WALL (   17085 calls)
     h_psi:calbec :     55.28s CPU     55.93s WALL (   17085 calls)
     vloc_psi     :    284.93s CPU    290.08s WALL (   17085 calls)
     add_vuspsi   :     57.81s CPU     57.97s WALL (   17085 calls)

     General routines
     calbec       :    104.35s CPU    106.08s WALL (   21789 calls)
     fft          :      1.21s CPU      1.28s WALL (     284 calls)
     ffts         :      0.24s CPU      0.25s WALL (     321 calls)
     fftw         :    303.23s CPU    308.55s WALL (  968816 calls)
     interpolate  :      0.12s CPU      0.13s WALL (      20 calls)
 
     Parallel routines
     fft_scatt_xy :     39.07s CPU     39.77s WALL (  969421 calls)
     fft_scatt_yz :    115.80s CPU    118.01s WALL (  969421 calls)

     PAW routines
     PAW_pot      :      2.57s CPU      2.58s WALL (      20 calls)
 
     PWSCF        :  15m27.90s CPU  16m 7.33s WALL

 
   This run was terminated on:  14:28:32  22Feb2020            

=------------------------------------------------------------------------------=
   JOB DONE.
=------------------------------------------------------------------------------=
