begin
comment 4 atoms, species Al4
lattice      7.6331373306    -0.3816568665     0.0000000000
lattice     -0.3816568665     7.6331373306     0.0000000000
lattice      0.0000000000     0.0000000000     7.6522680006
atom      0.0000000000     0.0000000000     0.0000000000   Al  0.0 0.0   -2.88299188e-14  1.34948222e-13 -1.98135477e-13
atom     -0.1908284333     3.8165686653     3.8261340003   Al  0.0 0.0   -1.83153869e-13 -2.13106988e-13  1.98156491e-13
atom      3.8165686653    -0.1908284333     3.8261340003   Al  0.0 0.0    1.83117285e-13  2.13137325e-13  1.98132502e-13
atom      3.6257402320     3.6257402320     0.0000000000   Al  0.0 0.0    2.88272806e-14 -1.34952346e-13 -1.98162487e-13
energy -7.900258552825672e+01
charge 0.0000
end
begin
comment 4 atoms, species Al4
lattice      7.6331373306    -0.2968442295     0.0000000000
lattice     -0.2968442295     7.6331373306     0.0000000000
lattice      0.0000000000     0.0000000000     7.6446987577
atom      0.0000000000     0.0000000000     0.0000000000   Al  0.0 0.0   -1.79296948e-13 -1.52153004e-13 -5.30091168e-14
atom     -0.1484221148     3.8165686653     3.8223493789   Al  0.0 0.0   -1.23733098e-13  6.43858923e-14  5.30889739e-14
atom      3.8165686653    -0.1484221148     3.8223493789   Al  0.0 0.0    1.23758273e-13 -6.43774859e-14  5.30974906e-14
atom      3.6681465505     3.6681465505     0.0000000000   Al  0.0 0.0    1.79250754e-13  1.52124957e-13 -5.29533268e-14
energy -7.900378499376694e+01
charge 0.0000
end
begin
comment 4 atoms, species Al4
lattice      7.6331373306    -0.2120315925     0.0000000000
lattice     -0.2120315925     7.6331373306     0.0000000000
lattice      0.0000000000     0.0000000000     7.6390316451
atom      0.0000000000     0.0000000000     0.0000000000   Al  0.0 0.0   -1.90328474e-13 -9.43442530e-14 -2.30791242e-13
atom     -0.1060157963     3.8165686653     3.8195158226   Al  0.0 0.0   -1.69247301e-13  1.93440369e-14  2.30683951e-13
atom      3.8165686653    -0.1060157963     3.8195158226   Al  0.0 0.0    1.69282364e-13 -1.93258421e-14  2.30702630e-13
atom      3.7105528690     3.7105528690     0.0000000000   Al  0.0 0.0    1.90313206e-13  9.43777839e-14 -2.30776334e-13
energy -7.900465994484989e+01
charge 0.0000
end
begin
comment 4 atoms, species Al4
lattice      7.6331373306    -0.1272189555     0.0000000000
lattice     -0.1272189555     7.6331373306     0.0000000000
lattice      0.0000000000     0.0000000000     7.6352582357
atom      0.0000000000     0.0000000000     0.0000000000   Al  0.0 0.0   -9.06420536e-14  1.01738352e-13  2.21072857e-13
atom     -0.0636094778     3.8165686653     3.8176291178   Al  0.0 0.0   -1.15947121e-13 -1.27665477e-13 -2.20845994e-13
atom      3.8165686653    -0.0636094778     3.8176291178   Al  0.0 0.0    1.15966508e-13  1.27702116e-13 -2.20838548e-13
atom      3.7529591875     3.7529591875     0.0000000000   Al  0.0 0.0    9.06400618e-14 -1.01692871e-13  2.20872358e-13
energy -7.900523364562846e+01
charge 0.0000
end
begin
comment 4 atoms, species Al4
lattice      7.6331373306    -0.0424063185     0.0000000000
lattice     -0.0424063185     7.6331373306     0.0000000000
lattice      0.0000000000     0.0000000000     7.6333729285
atom      0.0000000000     0.0000000000     0.0000000000   Al  0.0 0.0    5.34171028e-14  1.85185217e-13  1.70352864e-13
atom     -0.0212031593     3.8165686653     3.8166864643   Al  0.0 0.0    3.55982511e-14 -1.81445096e-13 -1.70277373e-13
atom      3.8165686653    -0.0212031593     3.8166864643   Al  0.0 0.0   -3.55539298e-14  1.81504515e-13 -1.70237506e-13
atom      3.7953655060     3.7953655060     0.0000000000   Al  0.0 0.0   -5.34332429e-14 -1.85175677e-13  1.70368540e-13
energy -7.900551775623705e+01
charge 0.0000
end
begin
comment 4 atoms, species Al4
lattice      7.6331373306     0.0424063185     0.0000000000
lattice      0.0424063185     7.6331373306     0.0000000000
lattice      0.0000000000     0.0000000000     7.6333729285
atom      0.0000000000     0.0000000000     0.0000000000   Al  0.0 0.0    3.55588681e-14  1.81538628e-13  1.70316187e-13
atom      0.0212031593     3.8165686653     3.8166864643   Al  0.0 0.0    5.33913382e-14 -1.85214221e-13 -1.70227116e-13
atom      3.8165686653     0.0212031593     3.8166864643   Al  0.0 0.0   -5.33852929e-14  1.85237313e-13 -1.70152183e-13
atom      3.8377718246     3.8377718246     0.0000000000   Al  0.0 0.0   -3.55640682e-14 -1.81516509e-13  1.70213293e-13
energy -7.900551775623707e+01
charge 0.0000
end
begin
comment 4 atoms, species Al4
lattice      7.6331373306     0.1272189555     0.0000000000
lattice      0.1272189555     7.6331373306     0.0000000000
lattice      0.0000000000     0.0000000000     7.6352582357
atom      0.0000000000     0.0000000000     0.0000000000   Al  0.0 0.0   -1.16018365e-13  1.27681818e-13  2.20967647e-13
atom      0.0636094778     3.8165686653     3.8176291178   Al  0.0 0.0   -9.07086552e-14 -1.01677651e-13 -2.20845211e-13
atom      3.8165686653     0.0636094778     3.8176291178   Al  0.0 0.0    9.07289544e-14  1.01706718e-13 -2.20863358e-13
atom      3.8801781431     3.8801781431     0.0000000000   Al  0.0 0.0    1.15992148e-13 -1.27679741e-13  2.21074557e-13
energy -7.900523364562846e+01
charge 0.0000
end
begin
comment 4 atoms, species Al4
lattice      7.6331373306     0.2120315925     0.0000000000
lattice      0.2120315925     7.6331373306     0.0000000000
lattice      0.0000000000     0.0000000000     7.6390316451
atom      0.0000000000     0.0000000000     0.0000000000   Al  0.0 0.0   -1.69268437e-13 -1.92829327e-14 -2.30833150e-13
atom      0.1060157963     3.8165686653     3.8195158226   Al  0.0 0.0   -1.90365654e-13  9.44252954e-14  2.30703898e-13
atom      3.8165686653     0.1060157963     3.8195158226   Al  0.0 0.0    1.90383113e-13 -9.43959221e-14  2.30719205e-13
atom      3.9225844616     3.9225844616     0.0000000000   Al  0.0 0.0    1.69235223e-13  1.92764754e-14 -2.30737517e-13
energy -7.900465994484989e+01
charge 0.0000
end
begin
comment 4 atoms, species Al4
lattice      7.6331373306     0.2968442295     0.0000000000
lattice      0.2968442295     7.6331373306     0.0000000000
lattice      0.0000000000     0.0000000000     7.6446987577
atom      0.0000000000     0.0000000000     0.0000000000   Al  0.0 0.0   -1.23765208e-13 -6.44422381e-14 -5.31633534e-14
atom      0.1484221148     3.8165686653     3.8223493789   Al  0.0 0.0   -1.79303591e-13  1.52190558e-13  5.31261857e-14
atom      3.8165686653     0.1484221148     3.8223493789   Al  0.0 0.0    1.79351152e-13 -1.52220308e-13  5.30622026e-14
atom      3.9649907801     3.9649907801     0.0000000000   Al  0.0 0.0    1.23721571e-13  6.43758560e-14 -5.30145920e-14
energy -7.900378499376694e+01
charge 0.0000
end
begin
comment 4 atoms, species Al4
lattice      7.6331373306     0.3816568665     0.0000000000
lattice      0.3816568665     7.6331373306     0.0000000000
lattice      0.0000000000     0.0000000000     7.6522680006
atom      0.0000000000     0.0000000000     0.0000000000   Al  0.0 0.0   -1.83078505e-13  2.13058875e-13 -1.98108551e-13
atom      0.1908284333     3.8165686653     3.8261340003   Al  0.0 0.0   -2.88784400e-14 -1.34926598e-13  1.98205672e-13
atom      3.8165686653     0.1908284333     3.8261340003   Al  0.0 0.0    2.88736118e-14  1.34947164e-13  1.98166759e-13
atom      4.0073970986     4.0073970986     0.0000000000   Al  0.0 0.0    1.83093592e-13 -2.13048528e-13 -1.98230318e-13
energy -7.900258552825669e+01
charge 0.0000
end
