
     Program PWSCF v.6.3 starts on 27Feb2020 at  0:25:32 

     This program is part of the open-source Quantum ESPRESSO suite
     for quantum simulation of materials; please cite
         "P. Giannozzi et al., J. Phys.:Condens. Matter 21 395502 (2009);
         "P. Giannozzi et al., J. Phys.:Condens. Matter 29 465901 (2017);
          URL http://www.quantum-espresso.org", 
     in publications or presentations arising from this work. More details at
     http://www.quantum-espresso.org/quote

 *** WARNING: using old-style file format, will disappear from next version ***

     Parallel version (MPI & OpenMP), running on     288 processor cores
     Number of MPI processes:               288
     Threads/MPI process:                     1

     MPI processes distributed on     8 nodes
     K-points division:     npool     =      36
     R & G space division:  proc/nbgrp/npool/nimage =       8
     Reading input from aiida.in
Warning: card &IONS ignored
Warning: card   !PRESS_CONV_THR = 0.05                 ! JUST FOR VOLUME RELAXATIONS ignored
Warning: card / ignored

     Current dimensions of program PWSCF are:
     Max number of different atomic species (ntypx) = 10
     Max number of k-points (npk) =  40000
     Max angular momentum in pseudopotentials (lmaxx) =  3
               file Mg.pbe-n-kjpaw_psl.0.3.0.UPF: wavefunction(s)  3S renormalized
               file Al.pbe-n-kjpaw_psl.1.0.0.UPF: wavefunction(s)  3S 3P renormalized

     Subspace diagonalization in iterative solution of the eigenvalue problem:
     one sub-group per band group will be used
     scalapack distributed-memory algorithm (size of sub-group:  2*  2 procs)

     Found symmetry operation: I + ( -0.5000 -0.5000 -0.5000)
     This is a supercell, fractional translations are disabled
 
     Parallelization info
     --------------------
     sticks:   dense  smooth     PW     G-vecs:    dense   smooth      PW
     Min        3740    1497    390               486920   123201   16474
     Max        3741    1498    391               486925   123204   16481
     Sum       29921   11977   3125              3895379   985619  131827
 


     bravais-lattice index     =            0
     lattice parameter (alat)  =      30.6665  a.u.
     unit-cell volume          =   28839.7502 (a.u.)^3
     number of atoms/cell      =          256
     number of atomic types    =            2
     number of electrons       =       766.00
     number of Kohn-Sham states=          460
     kinetic-energy cutoff     =      40.0000  Ry
     charge density cutoff     =     400.0000  Ry
     convergence threshold     =      1.0E-12
     mixing beta               =       0.4000
     number of iterations used =            8  local-TF  mixing
     Exchange-correlation      = SLA PW PBX PBC ( 1  4  3  4 0 0)

     celldm(1)=  30.666473  celldm(2)=   0.000000  celldm(3)=   0.000000
     celldm(4)=   0.000000  celldm(5)=   0.000000  celldm(6)=   0.000000

     crystal axes: (cart. coord. in units of alat)
               a(1) = (   1.000000   0.000000   0.000000 )  
               a(2) = (   0.000000   1.000000   0.000000 )  
               a(3) = (   0.000000   0.000000   1.000000 )  

     reciprocal axes: (cart. coord. in units 2 pi/alat)
               b(1) = (  1.000000  0.000000  0.000000 )  
               b(2) = (  0.000000  1.000000  0.000000 )  
               b(3) = (  0.000000  0.000000  1.000000 )  


     PseudoPot. # 1 for Mg read from file:
     /users/aglensk/Dropbox/Albert/scripts/dotfiles/scripts/potentials/quantum_espresso/pseudo_SSSPefV1.1_alalloy/Mg.pbe-n-kjpaw_psl.0.3.0.UPF
     MD5 check sum: 24ecedc7f3e3cbe212e682f4413594e4
     Pseudo is Projector augmented-wave + core cor, Zval =  2.0
     Generated using "atomic" code by A. Dal Corso v.5.0.99 svn rev. 10869
     Shape of augmentation charge: PSQ
     Using radial grid of 1129 points,  4 beta functions with: 
                l(1) =   0
                l(2) =   0
                l(3) =   1
                l(4) =   1
     Q(r) pseudized with 0 coefficients 


     PseudoPot. # 2 for Al read from file:
     /users/aglensk/Dropbox/Albert/scripts/dotfiles/scripts/potentials/quantum_espresso/pseudo_SSSPefV1.1_alalloy/Al.pbe-n-kjpaw_psl.1.0.0.UPF
     MD5 check sum: cfc449ca30b5f3223ec38ddd88ac046d
     Pseudo is Projector augmented-wave + core cor, Zval =  3.0
     Generated using "atomic" code by A. Dal Corso v.5.1
     Shape of augmentation charge: PSQ
     Using radial grid of 1135 points,  6 beta functions with: 
                l(1) =   0
                l(2) =   0
                l(3) =   1
                l(4) =   1
                l(5) =   2
                l(6) =   2
     Q(r) pseudized with 0 coefficients 


     atomic species   valence    mass     pseudopotential
        Mg             2.00    24.30500     Mg( 1.00)
        Al             3.00    26.98154     Al( 1.00)

     No symmetry found


                                    s                        frac. trans.

      isym =  1     identity                                     

 cryst.   s( 1) = (     1          0          0      )
                  (     0          1          0      )
                  (     0          0          1      )

 cart.    s( 1) = (  1.0000000  0.0000000  0.0000000 )
                  (  0.0000000  1.0000000  0.0000000 )
                  (  0.0000000  0.0000000  1.0000000 )


   Cartesian axes

     site n.     atom                  positions (alat units)
         1           Mg  tau(   1) = (   0.0000000   0.0000000   0.0000000  )
         2           Al  tau(   2) = (   0.1264519   0.0000000   0.1264519  )
         3           Al  tau(   3) = (   0.1264519   0.1264519   0.0000000  )
         4           Al  tau(   4) = (   0.0000000   0.1264519   0.1264519  )
         5           Al  tau(   5) = (   0.0000000   0.0000000   0.2501420  )
         6           Al  tau(   6) = (   0.1250970   0.1250970   0.2503009  )
         7           Al  tau(   7) = (   0.1249973   0.0000000   0.3750783  )
         8           Al  tau(   8) = (   0.0000000   0.1249973   0.3750783  )
         9           Al  tau(   9) = (   0.0000000   0.0000000   0.5000000  )
        10           Al  tau(  10) = (   0.1249907   0.1249907   0.5000000  )
        11           Al  tau(  11) = (   0.1249973   0.0000000   0.6249218  )
        12           Al  tau(  12) = (   0.0000000   0.1249973   0.6249218  )
        13           Al  tau(  13) = (   0.0000000   0.0000000   0.7498580  )
        14           Al  tau(  14) = (   0.1250970   0.1250970   0.7496991  )
        15           Al  tau(  15) = (   0.1264519   0.0000000   0.8735481  )
        16           Al  tau(  16) = (   0.0000000   0.1264519   0.8735481  )
        17           Al  tau(  17) = (   0.0000000   0.2501420   0.0000000  )
        18           Al  tau(  18) = (   0.1249973   0.3750783   0.0000000  )
        19           Al  tau(  19) = (   0.1250970   0.2503009   0.1250970  )
        20           Al  tau(  20) = (   0.0000000   0.3750783   0.1249973  )
        21           Al  tau(  21) = (   0.0000000   0.2501185   0.2501185  )
        22           Al  tau(  22) = (   0.1249944   0.3750051   0.2499999  )
        23           Al  tau(  23) = (   0.1249944   0.2499999   0.3750051  )
        24           Al  tau(  24) = (   0.0000000   0.3750089   0.3750089  )
        25           Al  tau(  25) = (   0.0000000   0.2499998   0.5000000  )
        26           Al  tau(  26) = (   0.1249211   0.3750022   0.5000000  )
        27           Al  tau(  27) = (   0.1249944   0.2499999   0.6249949  )
        28           Al  tau(  28) = (   0.0000000   0.3750089   0.6249911  )
        29           Al  tau(  29) = (   0.0000000   0.2501185   0.7498815  )
        30           Al  tau(  30) = (   0.1249944   0.3750051   0.7500002  )
        31           Al  tau(  31) = (   0.1250970   0.2503009   0.8749031  )
        32           Al  tau(  32) = (   0.0000000   0.3750783   0.8750027  )
        33           Al  tau(  33) = (   0.0000000   0.5000000   0.0000000  )
        34           Al  tau(  34) = (   0.1249973   0.6249218   0.0000000  )
        35           Al  tau(  35) = (   0.1249907   0.5000000   0.1249907  )
        36           Al  tau(  36) = (   0.0000000   0.6249218   0.1249973  )
        37           Al  tau(  37) = (   0.0000000   0.5000000   0.2499998  )
        38           Al  tau(  38) = (   0.1249944   0.6249949   0.2499999  )
        39           Al  tau(  39) = (   0.1249211   0.5000000   0.3750022  )
        40           Al  tau(  40) = (   0.0000000   0.6249911   0.3750089  )
        41           Al  tau(  41) = (   0.0000000   0.5000000   0.5000000  )
        42           Al  tau(  42) = (   0.1249211   0.6249978   0.5000000  )
        43           Al  tau(  43) = (   0.1249211   0.5000000   0.6249978  )
        44           Al  tau(  44) = (   0.0000000   0.6249911   0.6249911  )
        45           Al  tau(  45) = (   0.0000000   0.5000000   0.7500002  )
        46           Al  tau(  46) = (   0.1249944   0.6249949   0.7500002  )
        47           Al  tau(  47) = (   0.1249907   0.5000000   0.8750093  )
        48           Al  tau(  48) = (   0.0000000   0.6249218   0.8750027  )
        49           Al  tau(  49) = (   0.0000000   0.7498580   0.0000000  )
        50           Al  tau(  50) = (   0.1264519   0.8735481   0.0000000  )
        51           Al  tau(  51) = (   0.1250970   0.7496991   0.1250970  )
        52           Al  tau(  52) = (   0.0000000   0.8735481   0.1264519  )
        53           Al  tau(  53) = (   0.0000000   0.7498815   0.2501185  )
        54           Al  tau(  54) = (   0.1250970   0.8749031   0.2503009  )
        55           Al  tau(  55) = (   0.1249944   0.7500002   0.3750051  )
        56           Al  tau(  56) = (   0.0000000   0.8750027   0.3750783  )
        57           Al  tau(  57) = (   0.0000000   0.7500002   0.5000000  )
        58           Al  tau(  58) = (   0.1249907   0.8750093   0.5000000  )
        59           Al  tau(  59) = (   0.1249944   0.7500002   0.6249949  )
        60           Al  tau(  60) = (   0.0000000   0.8750027   0.6249218  )
        61           Al  tau(  61) = (   0.0000000   0.7498815   0.7498815  )
        62           Al  tau(  62) = (   0.1250970   0.8749031   0.7496991  )
        63           Al  tau(  63) = (   0.1250970   0.7496991   0.8749031  )
        64           Al  tau(  64) = (   0.0000000   0.8735481   0.8735481  )
        65           Al  tau(  65) = (   0.2501420   0.0000000   0.0000000  )
        66           Al  tau(  66) = (   0.3750783   0.1249973   0.0000000  )
        67           Al  tau(  67) = (   0.3750783   0.0000000   0.1249973  )
        68           Al  tau(  68) = (   0.2503009   0.1250970   0.1250970  )
        69           Al  tau(  69) = (   0.2501185   0.0000000   0.2501185  )
        70           Al  tau(  70) = (   0.3750051   0.1249944   0.2499999  )
        71           Al  tau(  71) = (   0.3750089   0.0000000   0.3750089  )
        72           Al  tau(  72) = (   0.2499999   0.1249944   0.3750051  )
        73           Al  tau(  73) = (   0.2499998   0.0000000   0.5000000  )
        74           Al  tau(  74) = (   0.3750022   0.1249211   0.5000000  )
        75           Al  tau(  75) = (   0.3750089   0.0000000   0.6249911  )
        76           Al  tau(  76) = (   0.2499999   0.1249944   0.6249949  )
        77           Al  tau(  77) = (   0.2501185   0.0000000   0.7498815  )
        78           Al  tau(  78) = (   0.3750051   0.1249944   0.7500002  )
        79           Al  tau(  79) = (   0.3750783   0.0000000   0.8750027  )
        80           Al  tau(  80) = (   0.2503009   0.1250970   0.8749031  )
        81           Al  tau(  81) = (   0.2501185   0.2501185   0.0000000  )
        82           Al  tau(  82) = (   0.3750089   0.3750089   0.0000000  )
        83           Al  tau(  83) = (   0.3750051   0.2499999   0.1249944  )
        84           Al  tau(  84) = (   0.2499999   0.3750051   0.1249944  )
        85           Al  tau(  85) = (   0.2499998   0.2499998   0.2499998  )
        86           Al  tau(  86) = (   0.3749026   0.3749026   0.2496988  )
        87           Al  tau(  87) = (   0.3749026   0.2496988   0.3749026  )
        88           Al  tau(  88) = (   0.2496988   0.3749026   0.3749026  )
        89           Al  tau(  89) = (   0.2498812   0.2498812   0.5000000  )
        90           Al  tau(  90) = (   0.3735477   0.3735477   0.5000000  )
        91           Al  tau(  91) = (   0.3749026   0.2496988   0.6250974  )
        92           Al  tau(  92) = (   0.2496988   0.3749026   0.6250974  )
        93           Al  tau(  93) = (   0.2499998   0.2499998   0.7500002  )
        94           Al  tau(  94) = (   0.3749026   0.3749026   0.7503013  )
        95           Al  tau(  95) = (   0.3750051   0.2499999   0.8750056  )
        96           Al  tau(  96) = (   0.2499999   0.3750051   0.8750056  )
        97           Al  tau(  97) = (   0.2499998   0.5000000   0.0000000  )
        98           Al  tau(  98) = (   0.3750089   0.6249911   0.0000000  )
        99           Al  tau(  99) = (   0.3750022   0.5000000   0.1249211  )
       100           Al  tau( 100) = (   0.2499999   0.6249949   0.1249944  )
       101           Al  tau( 101) = (   0.2498812   0.5000000   0.2498812  )
       102           Al  tau( 102) = (   0.3749026   0.6250974   0.2496988  )
       103           Al  tau( 103) = (   0.3735477   0.5000000   0.3735477  )
       104           Al  tau( 104) = (   0.2496988   0.6250974   0.3749026  )
       105           Al  tau( 105) = (   0.2498576   0.5000000   0.5000000  )
       106           Al  tau( 106) = (   0.3735477   0.6264523   0.5000000  )
       107           Al  tau( 107) = (   0.3735477   0.5000000   0.6264523  )
       108           Al  tau( 108) = (   0.2496988   0.6250974   0.6250974  )
       109           Al  tau( 109) = (   0.2498812   0.5000000   0.7501188  )
       110           Al  tau( 110) = (   0.3749026   0.6250974   0.7503013  )
       111           Al  tau( 111) = (   0.3750022   0.5000000   0.8750789  )
       112           Al  tau( 112) = (   0.2499999   0.6249949   0.8750056  )
       113           Al  tau( 113) = (   0.2501185   0.7498815   0.0000000  )
       114           Al  tau( 114) = (   0.3750783   0.8750027   0.0000000  )
       115           Al  tau( 115) = (   0.3750051   0.7500002   0.1249944  )
       116           Al  tau( 116) = (   0.2503009   0.8749031   0.1250970  )
       117           Al  tau( 117) = (   0.2499998   0.7500002   0.2499998  )
       118           Al  tau( 118) = (   0.3750051   0.8750056   0.2499999  )
       119           Al  tau( 119) = (   0.3749026   0.7503013   0.3749026  )
       120           Al  tau( 120) = (   0.2499999   0.8750056   0.3750051  )
       121           Al  tau( 121) = (   0.2498812   0.7501188   0.5000000  )
       122           Al  tau( 122) = (   0.3750022   0.8750789   0.5000000  )
       123           Al  tau( 123) = (   0.3749026   0.7503013   0.6250974  )
       124           Al  tau( 124) = (   0.2499999   0.8750056   0.6249949  )
       125           Al  tau( 125) = (   0.2499998   0.7500002   0.7500002  )
       126           Al  tau( 126) = (   0.3750051   0.8750056   0.7500002  )
       127           Al  tau( 127) = (   0.3750051   0.7500002   0.8750056  )
       128           Al  tau( 128) = (   0.2503009   0.8749031   0.8749031  )
       129           Al  tau( 129) = (   0.5000000   0.0000000   0.0000000  )
       130           Al  tau( 130) = (   0.6249218   0.1249973   0.0000000  )
       131           Al  tau( 131) = (   0.6249218   0.0000000   0.1249973  )
       132           Al  tau( 132) = (   0.5000000   0.1249907   0.1249907  )
       133           Al  tau( 133) = (   0.5000000   0.0000000   0.2499998  )
       134           Al  tau( 134) = (   0.6249949   0.1249944   0.2499999  )
       135           Al  tau( 135) = (   0.6249911   0.0000000   0.3750089  )
       136           Al  tau( 136) = (   0.5000000   0.1249211   0.3750022  )
       137           Al  tau( 137) = (   0.5000000   0.0000000   0.5000000  )
       138           Al  tau( 138) = (   0.6249978   0.1249211   0.5000000  )
       139           Al  tau( 139) = (   0.6249911   0.0000000   0.6249911  )
       140           Al  tau( 140) = (   0.5000000   0.1249211   0.6249978  )
       141           Al  tau( 141) = (   0.5000000   0.0000000   0.7500002  )
       142           Al  tau( 142) = (   0.6249949   0.1249944   0.7500002  )
       143           Al  tau( 143) = (   0.6249218   0.0000000   0.8750027  )
       144           Al  tau( 144) = (   0.5000000   0.1249907   0.8750093  )
       145           Al  tau( 145) = (   0.5000000   0.2499998   0.0000000  )
       146           Al  tau( 146) = (   0.6249911   0.3750089   0.0000000  )
       147           Al  tau( 147) = (   0.6249949   0.2499999   0.1249944  )
       148           Al  tau( 148) = (   0.5000000   0.3750022   0.1249211  )
       149           Al  tau( 149) = (   0.5000000   0.2498812   0.2498812  )
       150           Al  tau( 150) = (   0.6250974   0.3749026   0.2496988  )
       151           Al  tau( 151) = (   0.6250974   0.2496988   0.3749026  )
       152           Al  tau( 152) = (   0.5000000   0.3735477   0.3735477  )
       153           Al  tau( 153) = (   0.5000000   0.2498576   0.5000000  )
       154           Al  tau( 154) = (   0.6264523   0.3735477   0.5000000  )
       155           Al  tau( 155) = (   0.6250974   0.2496988   0.6250974  )
       156           Al  tau( 156) = (   0.5000000   0.3735477   0.6264523  )
       157           Al  tau( 157) = (   0.5000000   0.2498812   0.7501188  )
       158           Al  tau( 158) = (   0.6250974   0.3749026   0.7503013  )
       159           Al  tau( 159) = (   0.6249949   0.2499999   0.8750056  )
       160           Al  tau( 160) = (   0.5000000   0.3750022   0.8750789  )
       161           Al  tau( 161) = (   0.5000000   0.5000000   0.0000000  )
       162           Al  tau( 162) = (   0.6249911   0.6249911   0.0000000  )
       163           Al  tau( 163) = (   0.6249978   0.5000000   0.1249211  )
       164           Al  tau( 164) = (   0.5000000   0.6249978   0.1249211  )
       165           Al  tau( 165) = (   0.5000000   0.5000000   0.2498576  )
       166           Al  tau( 166) = (   0.6250974   0.6250974   0.2496988  )
       167           Al  tau( 167) = (   0.6264523   0.5000000   0.3735477  )
       168           Al  tau( 168) = (   0.5000000   0.6264523   0.3735477  )
       169           Mg  tau( 169) = (   0.5000000   0.5000000   0.5000000  )
       170           Al  tau( 170) = (   0.6264523   0.6264523   0.5000000  )
       171           Al  tau( 171) = (   0.6264523   0.5000000   0.6264523  )
       172           Al  tau( 172) = (   0.5000000   0.6264523   0.6264523  )
       173           Al  tau( 173) = (   0.5000000   0.5000000   0.7501424  )
       174           Al  tau( 174) = (   0.6250974   0.6250974   0.7503013  )
       175           Al  tau( 175) = (   0.6249978   0.5000000   0.8750789  )
       176           Al  tau( 176) = (   0.5000000   0.6249978   0.8750789  )
       177           Al  tau( 177) = (   0.5000000   0.7500002   0.0000000  )
       178           Al  tau( 178) = (   0.6249218   0.8750027   0.0000000  )
       179           Al  tau( 179) = (   0.6249949   0.7500002   0.1249944  )
       180           Al  tau( 180) = (   0.5000000   0.8750093   0.1249907  )
       181           Al  tau( 181) = (   0.5000000   0.7501188   0.2498812  )
       182           Al  tau( 182) = (   0.6249949   0.8750056   0.2499999  )
       183           Al  tau( 183) = (   0.6250974   0.7503013   0.3749026  )
       184           Al  tau( 184) = (   0.5000000   0.8750789   0.3750022  )
       185           Al  tau( 185) = (   0.5000000   0.7501424   0.5000000  )
       186           Al  tau( 186) = (   0.6249978   0.8750789   0.5000000  )
       187           Al  tau( 187) = (   0.6250974   0.7503013   0.6250974  )
       188           Al  tau( 188) = (   0.5000000   0.8750789   0.6249978  )
       189           Al  tau( 189) = (   0.5000000   0.7501188   0.7501188  )
       190           Al  tau( 190) = (   0.6249949   0.8750056   0.7500002  )
       191           Al  tau( 191) = (   0.6249949   0.7500002   0.8750056  )
       192           Al  tau( 192) = (   0.5000000   0.8750093   0.8750093  )
       193           Al  tau( 193) = (   0.7498580   0.0000000   0.0000000  )
       194           Al  tau( 194) = (   0.8735481   0.1264519   0.0000000  )
       195           Al  tau( 195) = (   0.8735481   0.0000000   0.1264519  )
       196           Al  tau( 196) = (   0.7496991   0.1250970   0.1250970  )
       197           Al  tau( 197) = (   0.7498815   0.0000000   0.2501185  )
       198           Al  tau( 198) = (   0.8749031   0.1250970   0.2503009  )
       199           Al  tau( 199) = (   0.8750027   0.0000000   0.3750783  )
       200           Al  tau( 200) = (   0.7500002   0.1249944   0.3750051  )
       201           Al  tau( 201) = (   0.7500002   0.0000000   0.5000000  )
       202           Al  tau( 202) = (   0.8750093   0.1249907   0.5000000  )
       203           Al  tau( 203) = (   0.8750027   0.0000000   0.6249218  )
       204           Al  tau( 204) = (   0.7500002   0.1249944   0.6249949  )
       205           Al  tau( 205) = (   0.7498815   0.0000000   0.7498815  )
       206           Al  tau( 206) = (   0.8749031   0.1250970   0.7496991  )
       207           Al  tau( 207) = (   0.8735481   0.0000000   0.8735481  )
       208           Al  tau( 208) = (   0.7496991   0.1250970   0.8749031  )
       209           Al  tau( 209) = (   0.7498815   0.2501185   0.0000000  )
       210           Al  tau( 210) = (   0.8750027   0.3750783   0.0000000  )
       211           Al  tau( 211) = (   0.8749031   0.2503009   0.1250970  )
       212           Al  tau( 212) = (   0.7500002   0.3750051   0.1249944  )
       213           Al  tau( 213) = (   0.7500002   0.2499998   0.2499998  )
       214           Al  tau( 214) = (   0.8750056   0.3750051   0.2499999  )
       215           Al  tau( 215) = (   0.8750056   0.2499999   0.3750051  )
       216           Al  tau( 216) = (   0.7503013   0.3749026   0.3749026  )
       217           Al  tau( 217) = (   0.7501188   0.2498812   0.5000000  )
       218           Al  tau( 218) = (   0.8750789   0.3750022   0.5000000  )
       219           Al  tau( 219) = (   0.8750056   0.2499999   0.6249949  )
       220           Al  tau( 220) = (   0.7503013   0.3749026   0.6250974  )
       221           Al  tau( 221) = (   0.7500002   0.2499998   0.7500002  )
       222           Al  tau( 222) = (   0.8750056   0.3750051   0.7500002  )
       223           Al  tau( 223) = (   0.8749031   0.2503009   0.8749031  )
       224           Al  tau( 224) = (   0.7500002   0.3750051   0.8750056  )
       225           Al  tau( 225) = (   0.7500002   0.5000000   0.0000000  )
       226           Al  tau( 226) = (   0.8750027   0.6249218   0.0000000  )
       227           Al  tau( 227) = (   0.8750093   0.5000000   0.1249907  )
       228           Al  tau( 228) = (   0.7500002   0.6249949   0.1249944  )
       229           Al  tau( 229) = (   0.7501188   0.5000000   0.2498812  )
       230           Al  tau( 230) = (   0.8750056   0.6249949   0.2499999  )
       231           Al  tau( 231) = (   0.8750789   0.5000000   0.3750022  )
       232           Al  tau( 232) = (   0.7503013   0.6250974   0.3749026  )
       233           Al  tau( 233) = (   0.7501424   0.5000000   0.5000000  )
       234           Al  tau( 234) = (   0.8750789   0.6249978   0.5000000  )
       235           Al  tau( 235) = (   0.8750789   0.5000000   0.6249978  )
       236           Al  tau( 236) = (   0.7503013   0.6250974   0.6250974  )
       237           Al  tau( 237) = (   0.7501188   0.5000000   0.7501188  )
       238           Al  tau( 238) = (   0.8750056   0.6249949   0.7500002  )
       239           Al  tau( 239) = (   0.8750093   0.5000000   0.8750093  )
       240           Al  tau( 240) = (   0.7500002   0.6249949   0.8750056  )
       241           Al  tau( 241) = (   0.7498815   0.7498815   0.0000000  )
       242           Al  tau( 242) = (   0.8735481   0.8735481   0.0000000  )
       243           Al  tau( 243) = (   0.8749031   0.7496991   0.1250970  )
       244           Al  tau( 244) = (   0.7496991   0.8749031   0.1250970  )
       245           Al  tau( 245) = (   0.7500002   0.7500002   0.2499998  )
       246           Al  tau( 246) = (   0.8749031   0.8749031   0.2503009  )
       247           Al  tau( 247) = (   0.8750056   0.7500002   0.3750051  )
       248           Al  tau( 248) = (   0.7500002   0.8750056   0.3750051  )
       249           Al  tau( 249) = (   0.7501188   0.7501188   0.5000000  )
       250           Al  tau( 250) = (   0.8750093   0.8750093   0.5000000  )
       251           Al  tau( 251) = (   0.8750056   0.7500002   0.6249949  )
       252           Al  tau( 252) = (   0.7500002   0.8750056   0.6249949  )
       253           Al  tau( 253) = (   0.7500002   0.7500002   0.7500002  )
       254           Al  tau( 254) = (   0.8749031   0.8749031   0.7496991  )
       255           Al  tau( 255) = (   0.8749031   0.7496991   0.8749031  )
       256           Al  tau( 256) = (   0.7496991   0.8749031   0.8749031  )

   Crystallographic axes

     site n.     atom                  positions (cryst. coord.)
         1           Mg  tau(   1) = (  0.0000000  0.0000000  0.0000000  )
         2           Al  tau(   2) = (  0.1264519  0.0000000  0.1264519  )
         3           Al  tau(   3) = (  0.1264519  0.1264519  0.0000000  )
         4           Al  tau(   4) = (  0.0000000  0.1264519  0.1264519  )
         5           Al  tau(   5) = (  0.0000000  0.0000000  0.2501420  )
         6           Al  tau(   6) = (  0.1250970  0.1250970  0.2503009  )
         7           Al  tau(   7) = (  0.1249973  0.0000000  0.3750783  )
         8           Al  tau(   8) = (  0.0000000  0.1249973  0.3750783  )
         9           Al  tau(   9) = (  0.0000000  0.0000000  0.5000000  )
        10           Al  tau(  10) = (  0.1249907  0.1249907  0.5000000  )
        11           Al  tau(  11) = (  0.1249973  0.0000000  0.6249218  )
        12           Al  tau(  12) = (  0.0000000  0.1249973  0.6249218  )
        13           Al  tau(  13) = (  0.0000000  0.0000000  0.7498580  )
        14           Al  tau(  14) = (  0.1250970  0.1250970  0.7496991  )
        15           Al  tau(  15) = (  0.1264519  0.0000000  0.8735481  )
        16           Al  tau(  16) = (  0.0000000  0.1264519  0.8735481  )
        17           Al  tau(  17) = (  0.0000000  0.2501420  0.0000000  )
        18           Al  tau(  18) = (  0.1249973  0.3750783  0.0000000  )
        19           Al  tau(  19) = (  0.1250970  0.2503009  0.1250970  )
        20           Al  tau(  20) = (  0.0000000  0.3750783  0.1249973  )
        21           Al  tau(  21) = (  0.0000000  0.2501185  0.2501185  )
        22           Al  tau(  22) = (  0.1249944  0.3750051  0.2499999  )
        23           Al  tau(  23) = (  0.1249944  0.2499999  0.3750051  )
        24           Al  tau(  24) = (  0.0000000  0.3750089  0.3750089  )
        25           Al  tau(  25) = (  0.0000000  0.2499998  0.5000000  )
        26           Al  tau(  26) = (  0.1249211  0.3750022  0.5000000  )
        27           Al  tau(  27) = (  0.1249944  0.2499999  0.6249949  )
        28           Al  tau(  28) = (  0.0000000  0.3750089  0.6249911  )
        29           Al  tau(  29) = (  0.0000000  0.2501185  0.7498815  )
        30           Al  tau(  30) = (  0.1249944  0.3750051  0.7500002  )
        31           Al  tau(  31) = (  0.1250970  0.2503009  0.8749031  )
        32           Al  tau(  32) = (  0.0000000  0.3750783  0.8750027  )
        33           Al  tau(  33) = (  0.0000000  0.5000000  0.0000000  )
        34           Al  tau(  34) = (  0.1249973  0.6249218  0.0000000  )
        35           Al  tau(  35) = (  0.1249907  0.5000000  0.1249907  )
        36           Al  tau(  36) = (  0.0000000  0.6249218  0.1249973  )
        37           Al  tau(  37) = (  0.0000000  0.5000000  0.2499998  )
        38           Al  tau(  38) = (  0.1249944  0.6249949  0.2499999  )
        39           Al  tau(  39) = (  0.1249211  0.5000000  0.3750022  )
        40           Al  tau(  40) = (  0.0000000  0.6249911  0.3750089  )
        41           Al  tau(  41) = (  0.0000000  0.5000000  0.5000000  )
        42           Al  tau(  42) = (  0.1249211  0.6249978  0.5000000  )
        43           Al  tau(  43) = (  0.1249211  0.5000000  0.6249978  )
        44           Al  tau(  44) = (  0.0000000  0.6249911  0.6249911  )
        45           Al  tau(  45) = (  0.0000000  0.5000000  0.7500002  )
        46           Al  tau(  46) = (  0.1249944  0.6249949  0.7500002  )
        47           Al  tau(  47) = (  0.1249907  0.5000000  0.8750093  )
        48           Al  tau(  48) = (  0.0000000  0.6249218  0.8750027  )
        49           Al  tau(  49) = (  0.0000000  0.7498580  0.0000000  )
        50           Al  tau(  50) = (  0.1264519  0.8735481  0.0000000  )
        51           Al  tau(  51) = (  0.1250970  0.7496991  0.1250970  )
        52           Al  tau(  52) = (  0.0000000  0.8735481  0.1264519  )
        53           Al  tau(  53) = (  0.0000000  0.7498815  0.2501185  )
        54           Al  tau(  54) = (  0.1250970  0.8749031  0.2503009  )
        55           Al  tau(  55) = (  0.1249944  0.7500002  0.3750051  )
        56           Al  tau(  56) = (  0.0000000  0.8750027  0.3750783  )
        57           Al  tau(  57) = (  0.0000000  0.7500002  0.5000000  )
        58           Al  tau(  58) = (  0.1249907  0.8750093  0.5000000  )
        59           Al  tau(  59) = (  0.1249944  0.7500002  0.6249949  )
        60           Al  tau(  60) = (  0.0000000  0.8750027  0.6249218  )
        61           Al  tau(  61) = (  0.0000000  0.7498815  0.7498815  )
        62           Al  tau(  62) = (  0.1250970  0.8749031  0.7496991  )
        63           Al  tau(  63) = (  0.1250970  0.7496991  0.8749031  )
        64           Al  tau(  64) = (  0.0000000  0.8735481  0.8735481  )
        65           Al  tau(  65) = (  0.2501420  0.0000000  0.0000000  )
        66           Al  tau(  66) = (  0.3750783  0.1249973  0.0000000  )
        67           Al  tau(  67) = (  0.3750783  0.0000000  0.1249973  )
        68           Al  tau(  68) = (  0.2503009  0.1250970  0.1250970  )
        69           Al  tau(  69) = (  0.2501185  0.0000000  0.2501185  )
        70           Al  tau(  70) = (  0.3750051  0.1249944  0.2499999  )
        71           Al  tau(  71) = (  0.3750089  0.0000000  0.3750089  )
        72           Al  tau(  72) = (  0.2499999  0.1249944  0.3750051  )
        73           Al  tau(  73) = (  0.2499998  0.0000000  0.5000000  )
        74           Al  tau(  74) = (  0.3750022  0.1249211  0.5000000  )
        75           Al  tau(  75) = (  0.3750089  0.0000000  0.6249911  )
        76           Al  tau(  76) = (  0.2499999  0.1249944  0.6249949  )
        77           Al  tau(  77) = (  0.2501185  0.0000000  0.7498815  )
        78           Al  tau(  78) = (  0.3750051  0.1249944  0.7500002  )
        79           Al  tau(  79) = (  0.3750783  0.0000000  0.8750027  )
        80           Al  tau(  80) = (  0.2503009  0.1250970  0.8749031  )
        81           Al  tau(  81) = (  0.2501185  0.2501185  0.0000000  )
        82           Al  tau(  82) = (  0.3750089  0.3750089  0.0000000  )
        83           Al  tau(  83) = (  0.3750051  0.2499999  0.1249944  )
        84           Al  tau(  84) = (  0.2499999  0.3750051  0.1249944  )
        85           Al  tau(  85) = (  0.2499998  0.2499998  0.2499998  )
        86           Al  tau(  86) = (  0.3749026  0.3749026  0.2496988  )
        87           Al  tau(  87) = (  0.3749026  0.2496988  0.3749026  )
        88           Al  tau(  88) = (  0.2496988  0.3749026  0.3749026  )
        89           Al  tau(  89) = (  0.2498812  0.2498812  0.5000000  )
        90           Al  tau(  90) = (  0.3735477  0.3735477  0.5000000  )
        91           Al  tau(  91) = (  0.3749026  0.2496988  0.6250974  )
        92           Al  tau(  92) = (  0.2496988  0.3749026  0.6250974  )
        93           Al  tau(  93) = (  0.2499998  0.2499998  0.7500002  )
        94           Al  tau(  94) = (  0.3749026  0.3749026  0.7503013  )
        95           Al  tau(  95) = (  0.3750051  0.2499999  0.8750056  )
        96           Al  tau(  96) = (  0.2499999  0.3750051  0.8750056  )
        97           Al  tau(  97) = (  0.2499998  0.5000000  0.0000000  )
        98           Al  tau(  98) = (  0.3750089  0.6249911  0.0000000  )
        99           Al  tau(  99) = (  0.3750022  0.5000000  0.1249211  )
       100           Al  tau( 100) = (  0.2499999  0.6249949  0.1249944  )
       101           Al  tau( 101) = (  0.2498812  0.5000000  0.2498812  )
       102           Al  tau( 102) = (  0.3749026  0.6250974  0.2496988  )
       103           Al  tau( 103) = (  0.3735477  0.5000000  0.3735477  )
       104           Al  tau( 104) = (  0.2496988  0.6250974  0.3749026  )
       105           Al  tau( 105) = (  0.2498576  0.5000000  0.5000000  )
       106           Al  tau( 106) = (  0.3735477  0.6264523  0.5000000  )
       107           Al  tau( 107) = (  0.3735477  0.5000000  0.6264523  )
       108           Al  tau( 108) = (  0.2496988  0.6250974  0.6250974  )
       109           Al  tau( 109) = (  0.2498812  0.5000000  0.7501188  )
       110           Al  tau( 110) = (  0.3749026  0.6250974  0.7503013  )
       111           Al  tau( 111) = (  0.3750022  0.5000000  0.8750789  )
       112           Al  tau( 112) = (  0.2499999  0.6249949  0.8750056  )
       113           Al  tau( 113) = (  0.2501185  0.7498815  0.0000000  )
       114           Al  tau( 114) = (  0.3750783  0.8750027  0.0000000  )
       115           Al  tau( 115) = (  0.3750051  0.7500002  0.1249944  )
       116           Al  tau( 116) = (  0.2503009  0.8749031  0.1250970  )
       117           Al  tau( 117) = (  0.2499998  0.7500002  0.2499998  )
       118           Al  tau( 118) = (  0.3750051  0.8750056  0.2499999  )
       119           Al  tau( 119) = (  0.3749026  0.7503013  0.3749026  )
       120           Al  tau( 120) = (  0.2499999  0.8750056  0.3750051  )
       121           Al  tau( 121) = (  0.2498812  0.7501188  0.5000000  )
       122           Al  tau( 122) = (  0.3750022  0.8750789  0.5000000  )
       123           Al  tau( 123) = (  0.3749026  0.7503013  0.6250974  )
       124           Al  tau( 124) = (  0.2499999  0.8750056  0.6249949  )
       125           Al  tau( 125) = (  0.2499998  0.7500002  0.7500002  )
       126           Al  tau( 126) = (  0.3750051  0.8750056  0.7500002  )
       127           Al  tau( 127) = (  0.3750051  0.7500002  0.8750056  )
       128           Al  tau( 128) = (  0.2503009  0.8749031  0.8749031  )
       129           Al  tau( 129) = (  0.5000000  0.0000000  0.0000000  )
       130           Al  tau( 130) = (  0.6249218  0.1249973  0.0000000  )
       131           Al  tau( 131) = (  0.6249218  0.0000000  0.1249973  )
       132           Al  tau( 132) = (  0.5000000  0.1249907  0.1249907  )
       133           Al  tau( 133) = (  0.5000000  0.0000000  0.2499998  )
       134           Al  tau( 134) = (  0.6249949  0.1249944  0.2499999  )
       135           Al  tau( 135) = (  0.6249911  0.0000000  0.3750089  )
       136           Al  tau( 136) = (  0.5000000  0.1249211  0.3750022  )
       137           Al  tau( 137) = (  0.5000000  0.0000000  0.5000000  )
       138           Al  tau( 138) = (  0.6249978  0.1249211  0.5000000  )
       139           Al  tau( 139) = (  0.6249911  0.0000000  0.6249911  )
       140           Al  tau( 140) = (  0.5000000  0.1249211  0.6249978  )
       141           Al  tau( 141) = (  0.5000000  0.0000000  0.7500002  )
       142           Al  tau( 142) = (  0.6249949  0.1249944  0.7500002  )
       143           Al  tau( 143) = (  0.6249218  0.0000000  0.8750027  )
       144           Al  tau( 144) = (  0.5000000  0.1249907  0.8750093  )
       145           Al  tau( 145) = (  0.5000000  0.2499998  0.0000000  )
       146           Al  tau( 146) = (  0.6249911  0.3750089  0.0000000  )
       147           Al  tau( 147) = (  0.6249949  0.2499999  0.1249944  )
       148           Al  tau( 148) = (  0.5000000  0.3750022  0.1249211  )
       149           Al  tau( 149) = (  0.5000000  0.2498812  0.2498812  )
       150           Al  tau( 150) = (  0.6250974  0.3749026  0.2496988  )
       151           Al  tau( 151) = (  0.6250974  0.2496988  0.3749026  )
       152           Al  tau( 152) = (  0.5000000  0.3735477  0.3735477  )
       153           Al  tau( 153) = (  0.5000000  0.2498576  0.5000000  )
       154           Al  tau( 154) = (  0.6264523  0.3735477  0.5000000  )
       155           Al  tau( 155) = (  0.6250974  0.2496988  0.6250974  )
       156           Al  tau( 156) = (  0.5000000  0.3735477  0.6264523  )
       157           Al  tau( 157) = (  0.5000000  0.2498812  0.7501188  )
       158           Al  tau( 158) = (  0.6250974  0.3749026  0.7503013  )
       159           Al  tau( 159) = (  0.6249949  0.2499999  0.8750056  )
       160           Al  tau( 160) = (  0.5000000  0.3750022  0.8750789  )
       161           Al  tau( 161) = (  0.5000000  0.5000000  0.0000000  )
       162           Al  tau( 162) = (  0.6249911  0.6249911  0.0000000  )
       163           Al  tau( 163) = (  0.6249978  0.5000000  0.1249211  )
       164           Al  tau( 164) = (  0.5000000  0.6249978  0.1249211  )
       165           Al  tau( 165) = (  0.5000000  0.5000000  0.2498576  )
       166           Al  tau( 166) = (  0.6250974  0.6250974  0.2496988  )
       167           Al  tau( 167) = (  0.6264523  0.5000000  0.3735477  )
       168           Al  tau( 168) = (  0.5000000  0.6264523  0.3735477  )
       169           Mg  tau( 169) = (  0.5000000  0.5000000  0.5000000  )
       170           Al  tau( 170) = (  0.6264523  0.6264523  0.5000000  )
       171           Al  tau( 171) = (  0.6264523  0.5000000  0.6264523  )
       172           Al  tau( 172) = (  0.5000000  0.6264523  0.6264523  )
       173           Al  tau( 173) = (  0.5000000  0.5000000  0.7501424  )
       174           Al  tau( 174) = (  0.6250974  0.6250974  0.7503013  )
       175           Al  tau( 175) = (  0.6249978  0.5000000  0.8750789  )
       176           Al  tau( 176) = (  0.5000000  0.6249978  0.8750789  )
       177           Al  tau( 177) = (  0.5000000  0.7500002  0.0000000  )
       178           Al  tau( 178) = (  0.6249218  0.8750027  0.0000000  )
       179           Al  tau( 179) = (  0.6249949  0.7500002  0.1249944  )
       180           Al  tau( 180) = (  0.5000000  0.8750093  0.1249907  )
       181           Al  tau( 181) = (  0.5000000  0.7501188  0.2498812  )
       182           Al  tau( 182) = (  0.6249949  0.8750056  0.2499999  )
       183           Al  tau( 183) = (  0.6250974  0.7503013  0.3749026  )
       184           Al  tau( 184) = (  0.5000000  0.8750789  0.3750022  )
       185           Al  tau( 185) = (  0.5000000  0.7501424  0.5000000  )
       186           Al  tau( 186) = (  0.6249978  0.8750789  0.5000000  )
       187           Al  tau( 187) = (  0.6250974  0.7503013  0.6250974  )
       188           Al  tau( 188) = (  0.5000000  0.8750789  0.6249978  )
       189           Al  tau( 189) = (  0.5000000  0.7501188  0.7501188  )
       190           Al  tau( 190) = (  0.6249949  0.8750056  0.7500002  )
       191           Al  tau( 191) = (  0.6249949  0.7500002  0.8750056  )
       192           Al  tau( 192) = (  0.5000000  0.8750093  0.8750093  )
       193           Al  tau( 193) = (  0.7498580  0.0000000  0.0000000  )
       194           Al  tau( 194) = (  0.8735481  0.1264519  0.0000000  )
       195           Al  tau( 195) = (  0.8735481  0.0000000  0.1264519  )
       196           Al  tau( 196) = (  0.7496991  0.1250970  0.1250970  )
       197           Al  tau( 197) = (  0.7498815  0.0000000  0.2501185  )
       198           Al  tau( 198) = (  0.8749031  0.1250970  0.2503009  )
       199           Al  tau( 199) = (  0.8750027  0.0000000  0.3750783  )
       200           Al  tau( 200) = (  0.7500002  0.1249944  0.3750051  )
       201           Al  tau( 201) = (  0.7500002  0.0000000  0.5000000  )
       202           Al  tau( 202) = (  0.8750093  0.1249907  0.5000000  )
       203           Al  tau( 203) = (  0.8750027  0.0000000  0.6249218  )
       204           Al  tau( 204) = (  0.7500002  0.1249944  0.6249949  )
       205           Al  tau( 205) = (  0.7498815  0.0000000  0.7498815  )
       206           Al  tau( 206) = (  0.8749031  0.1250970  0.7496991  )
       207           Al  tau( 207) = (  0.8735481  0.0000000  0.8735481  )
       208           Al  tau( 208) = (  0.7496991  0.1250970  0.8749031  )
       209           Al  tau( 209) = (  0.7498815  0.2501185  0.0000000  )
       210           Al  tau( 210) = (  0.8750027  0.3750783  0.0000000  )
       211           Al  tau( 211) = (  0.8749031  0.2503009  0.1250970  )
       212           Al  tau( 212) = (  0.7500002  0.3750051  0.1249944  )
       213           Al  tau( 213) = (  0.7500002  0.2499998  0.2499998  )
       214           Al  tau( 214) = (  0.8750056  0.3750051  0.2499999  )
       215           Al  tau( 215) = (  0.8750056  0.2499999  0.3750051  )
       216           Al  tau( 216) = (  0.7503013  0.3749026  0.3749026  )
       217           Al  tau( 217) = (  0.7501188  0.2498812  0.5000000  )
       218           Al  tau( 218) = (  0.8750789  0.3750022  0.5000000  )
       219           Al  tau( 219) = (  0.8750056  0.2499999  0.6249949  )
       220           Al  tau( 220) = (  0.7503013  0.3749026  0.6250974  )
       221           Al  tau( 221) = (  0.7500002  0.2499998  0.7500002  )
       222           Al  tau( 222) = (  0.8750056  0.3750051  0.7500002  )
       223           Al  tau( 223) = (  0.8749031  0.2503009  0.8749031  )
       224           Al  tau( 224) = (  0.7500002  0.3750051  0.8750056  )
       225           Al  tau( 225) = (  0.7500002  0.5000000  0.0000000  )
       226           Al  tau( 226) = (  0.8750027  0.6249218  0.0000000  )
       227           Al  tau( 227) = (  0.8750093  0.5000000  0.1249907  )
       228           Al  tau( 228) = (  0.7500002  0.6249949  0.1249944  )
       229           Al  tau( 229) = (  0.7501188  0.5000000  0.2498812  )
       230           Al  tau( 230) = (  0.8750056  0.6249949  0.2499999  )
       231           Al  tau( 231) = (  0.8750789  0.5000000  0.3750022  )
       232           Al  tau( 232) = (  0.7503013  0.6250974  0.3749026  )
       233           Al  tau( 233) = (  0.7501424  0.5000000  0.5000000  )
       234           Al  tau( 234) = (  0.8750789  0.6249978  0.5000000  )
       235           Al  tau( 235) = (  0.8750789  0.5000000  0.6249978  )
       236           Al  tau( 236) = (  0.7503013  0.6250974  0.6250974  )
       237           Al  tau( 237) = (  0.7501188  0.5000000  0.7501188  )
       238           Al  tau( 238) = (  0.8750056  0.6249949  0.7500002  )
       239           Al  tau( 239) = (  0.8750093  0.5000000  0.8750093  )
       240           Al  tau( 240) = (  0.7500002  0.6249949  0.8750056  )
       241           Al  tau( 241) = (  0.7498815  0.7498815  0.0000000  )
       242           Al  tau( 242) = (  0.8735481  0.8735481  0.0000000  )
       243           Al  tau( 243) = (  0.8749031  0.7496991  0.1250970  )
       244           Al  tau( 244) = (  0.7496991  0.8749031  0.1250970  )
       245           Al  tau( 245) = (  0.7500002  0.7500002  0.2499998  )
       246           Al  tau( 246) = (  0.8749031  0.8749031  0.2503009  )
       247           Al  tau( 247) = (  0.8750056  0.7500002  0.3750051  )
       248           Al  tau( 248) = (  0.7500002  0.8750056  0.3750051  )
       249           Al  tau( 249) = (  0.7501188  0.7501188  0.5000000  )
       250           Al  tau( 250) = (  0.8750093  0.8750093  0.5000000  )
       251           Al  tau( 251) = (  0.8750056  0.7500002  0.6249949  )
       252           Al  tau( 252) = (  0.7500002  0.8750056  0.6249949  )
       253           Al  tau( 253) = (  0.7500002  0.7500002  0.7500002  )
       254           Al  tau( 254) = (  0.8749031  0.8749031  0.7496991  )
       255           Al  tau( 255) = (  0.8749031  0.7496991  0.8749031  )
       256           Al  tau( 256) = (  0.7496991  0.8749031  0.8749031  )

     number of k points=    63  Methfessel-Paxton smearing, width (Ry)=  0.0441
                       cart. coord. in units 2pi/alat
        k(    1) = (   0.0000000   0.0000000   0.0000000), wk =   0.0160000
        k(    2) = (   0.0000000   0.0000000   0.2000000), wk =   0.0320000
        k(    3) = (   0.0000000   0.0000000   0.4000000), wk =   0.0320000
        k(    4) = (   0.0000000   0.2000000   0.0000000), wk =   0.0320000
        k(    5) = (   0.0000000   0.2000000   0.2000000), wk =   0.0320000
        k(    6) = (   0.0000000   0.2000000   0.4000000), wk =   0.0320000
        k(    7) = (   0.0000000   0.2000000  -0.4000000), wk =   0.0320000
        k(    8) = (   0.0000000   0.2000000  -0.2000000), wk =   0.0320000
        k(    9) = (   0.0000000   0.4000000   0.0000000), wk =   0.0320000
        k(   10) = (   0.0000000   0.4000000   0.2000000), wk =   0.0320000
        k(   11) = (   0.0000000   0.4000000   0.4000000), wk =   0.0320000
        k(   12) = (   0.0000000   0.4000000  -0.4000000), wk =   0.0320000
        k(   13) = (   0.0000000   0.4000000  -0.2000000), wk =   0.0320000
        k(   14) = (   0.2000000   0.0000000   0.0000000), wk =   0.0320000
        k(   15) = (   0.2000000   0.0000000   0.2000000), wk =   0.0320000
        k(   16) = (   0.2000000   0.0000000   0.4000000), wk =   0.0320000
        k(   17) = (   0.2000000   0.0000000  -0.4000000), wk =   0.0320000
        k(   18) = (   0.2000000   0.0000000  -0.2000000), wk =   0.0320000
        k(   19) = (   0.2000000   0.2000000   0.0000000), wk =   0.0320000
        k(   20) = (   0.2000000   0.2000000   0.2000000), wk =   0.0320000
        k(   21) = (   0.2000000   0.2000000   0.4000000), wk =   0.0320000
        k(   22) = (   0.2000000   0.2000000  -0.4000000), wk =   0.0320000
        k(   23) = (   0.2000000   0.2000000  -0.2000000), wk =   0.0320000
        k(   24) = (   0.2000000   0.4000000   0.0000000), wk =   0.0320000
        k(   25) = (   0.2000000   0.4000000   0.2000000), wk =   0.0320000
        k(   26) = (   0.2000000   0.4000000   0.4000000), wk =   0.0320000
        k(   27) = (   0.2000000   0.4000000  -0.4000000), wk =   0.0320000
        k(   28) = (   0.2000000   0.4000000  -0.2000000), wk =   0.0320000
        k(   29) = (   0.2000000  -0.4000000   0.0000000), wk =   0.0320000
        k(   30) = (   0.2000000  -0.4000000   0.2000000), wk =   0.0320000
        k(   31) = (   0.2000000  -0.4000000   0.4000000), wk =   0.0320000
        k(   32) = (   0.2000000  -0.4000000  -0.4000000), wk =   0.0320000
        k(   33) = (   0.2000000  -0.4000000  -0.2000000), wk =   0.0320000
        k(   34) = (   0.2000000  -0.2000000   0.0000000), wk =   0.0320000
        k(   35) = (   0.2000000  -0.2000000   0.2000000), wk =   0.0320000
        k(   36) = (   0.2000000  -0.2000000   0.4000000), wk =   0.0320000
        k(   37) = (   0.2000000  -0.2000000  -0.4000000), wk =   0.0320000
        k(   38) = (   0.2000000  -0.2000000  -0.2000000), wk =   0.0320000
        k(   39) = (   0.4000000   0.0000000   0.0000000), wk =   0.0320000
        k(   40) = (   0.4000000   0.0000000   0.2000000), wk =   0.0320000
        k(   41) = (   0.4000000   0.0000000   0.4000000), wk =   0.0320000
        k(   42) = (   0.4000000   0.0000000  -0.4000000), wk =   0.0320000
        k(   43) = (   0.4000000   0.0000000  -0.2000000), wk =   0.0320000
        k(   44) = (   0.4000000   0.2000000   0.0000000), wk =   0.0320000
        k(   45) = (   0.4000000   0.2000000   0.2000000), wk =   0.0320000
        k(   46) = (   0.4000000   0.2000000   0.4000000), wk =   0.0320000
        k(   47) = (   0.4000000   0.2000000  -0.4000000), wk =   0.0320000
        k(   48) = (   0.4000000   0.2000000  -0.2000000), wk =   0.0320000
        k(   49) = (   0.4000000   0.4000000   0.0000000), wk =   0.0320000
        k(   50) = (   0.4000000   0.4000000   0.2000000), wk =   0.0320000
        k(   51) = (   0.4000000   0.4000000   0.4000000), wk =   0.0320000
        k(   52) = (   0.4000000   0.4000000  -0.4000000), wk =   0.0320000
        k(   53) = (   0.4000000   0.4000000  -0.2000000), wk =   0.0320000
        k(   54) = (   0.4000000  -0.4000000   0.0000000), wk =   0.0320000
        k(   55) = (   0.4000000  -0.4000000   0.2000000), wk =   0.0320000
        k(   56) = (   0.4000000  -0.4000000   0.4000000), wk =   0.0320000
        k(   57) = (   0.4000000  -0.4000000  -0.4000000), wk =   0.0320000
        k(   58) = (   0.4000000  -0.4000000  -0.2000000), wk =   0.0320000
        k(   59) = (   0.4000000  -0.2000000   0.0000000), wk =   0.0320000
        k(   60) = (   0.4000000  -0.2000000   0.2000000), wk =   0.0320000
        k(   61) = (   0.4000000  -0.2000000   0.4000000), wk =   0.0320000
        k(   62) = (   0.4000000  -0.2000000  -0.4000000), wk =   0.0320000
        k(   63) = (   0.4000000  -0.2000000  -0.2000000), wk =   0.0320000

                       cryst. coord.
        k(    1) = (   0.0000000   0.0000000   0.0000000), wk =   0.0160000
        k(    2) = (   0.0000000   0.0000000   0.2000000), wk =   0.0320000
        k(    3) = (   0.0000000   0.0000000   0.4000000), wk =   0.0320000
        k(    4) = (   0.0000000   0.2000000   0.0000000), wk =   0.0320000
        k(    5) = (   0.0000000   0.2000000   0.2000000), wk =   0.0320000
        k(    6) = (   0.0000000   0.2000000   0.4000000), wk =   0.0320000
        k(    7) = (   0.0000000   0.2000000  -0.4000000), wk =   0.0320000
        k(    8) = (   0.0000000   0.2000000  -0.2000000), wk =   0.0320000
        k(    9) = (   0.0000000   0.4000000   0.0000000), wk =   0.0320000
        k(   10) = (   0.0000000   0.4000000   0.2000000), wk =   0.0320000
        k(   11) = (   0.0000000   0.4000000   0.4000000), wk =   0.0320000
        k(   12) = (   0.0000000   0.4000000  -0.4000000), wk =   0.0320000
        k(   13) = (   0.0000000   0.4000000  -0.2000000), wk =   0.0320000
        k(   14) = (   0.2000000   0.0000000   0.0000000), wk =   0.0320000
        k(   15) = (   0.2000000   0.0000000   0.2000000), wk =   0.0320000
        k(   16) = (   0.2000000   0.0000000   0.4000000), wk =   0.0320000
        k(   17) = (   0.2000000   0.0000000  -0.4000000), wk =   0.0320000
        k(   18) = (   0.2000000   0.0000000  -0.2000000), wk =   0.0320000
        k(   19) = (   0.2000000   0.2000000   0.0000000), wk =   0.0320000
        k(   20) = (   0.2000000   0.2000000   0.2000000), wk =   0.0320000
        k(   21) = (   0.2000000   0.2000000   0.4000000), wk =   0.0320000
        k(   22) = (   0.2000000   0.2000000  -0.4000000), wk =   0.0320000
        k(   23) = (   0.2000000   0.2000000  -0.2000000), wk =   0.0320000
        k(   24) = (   0.2000000   0.4000000   0.0000000), wk =   0.0320000
        k(   25) = (   0.2000000   0.4000000   0.2000000), wk =   0.0320000
        k(   26) = (   0.2000000   0.4000000   0.4000000), wk =   0.0320000
        k(   27) = (   0.2000000   0.4000000  -0.4000000), wk =   0.0320000
        k(   28) = (   0.2000000   0.4000000  -0.2000000), wk =   0.0320000
        k(   29) = (   0.2000000  -0.4000000   0.0000000), wk =   0.0320000
        k(   30) = (   0.2000000  -0.4000000   0.2000000), wk =   0.0320000
        k(   31) = (   0.2000000  -0.4000000   0.4000000), wk =   0.0320000
        k(   32) = (   0.2000000  -0.4000000  -0.4000000), wk =   0.0320000
        k(   33) = (   0.2000000  -0.4000000  -0.2000000), wk =   0.0320000
        k(   34) = (   0.2000000  -0.2000000   0.0000000), wk =   0.0320000
        k(   35) = (   0.2000000  -0.2000000   0.2000000), wk =   0.0320000
        k(   36) = (   0.2000000  -0.2000000   0.4000000), wk =   0.0320000
        k(   37) = (   0.2000000  -0.2000000  -0.4000000), wk =   0.0320000
        k(   38) = (   0.2000000  -0.2000000  -0.2000000), wk =   0.0320000
        k(   39) = (   0.4000000   0.0000000   0.0000000), wk =   0.0320000
        k(   40) = (   0.4000000   0.0000000   0.2000000), wk =   0.0320000
        k(   41) = (   0.4000000   0.0000000   0.4000000), wk =   0.0320000
        k(   42) = (   0.4000000   0.0000000  -0.4000000), wk =   0.0320000
        k(   43) = (   0.4000000   0.0000000  -0.2000000), wk =   0.0320000
        k(   44) = (   0.4000000   0.2000000   0.0000000), wk =   0.0320000
        k(   45) = (   0.4000000   0.2000000   0.2000000), wk =   0.0320000
        k(   46) = (   0.4000000   0.2000000   0.4000000), wk =   0.0320000
        k(   47) = (   0.4000000   0.2000000  -0.4000000), wk =   0.0320000
        k(   48) = (   0.4000000   0.2000000  -0.2000000), wk =   0.0320000
        k(   49) = (   0.4000000   0.4000000   0.0000000), wk =   0.0320000
        k(   50) = (   0.4000000   0.4000000   0.2000000), wk =   0.0320000
        k(   51) = (   0.4000000   0.4000000   0.4000000), wk =   0.0320000
        k(   52) = (   0.4000000   0.4000000  -0.4000000), wk =   0.0320000
        k(   53) = (   0.4000000   0.4000000  -0.2000000), wk =   0.0320000
        k(   54) = (   0.4000000  -0.4000000   0.0000000), wk =   0.0320000
        k(   55) = (   0.4000000  -0.4000000   0.2000000), wk =   0.0320000
        k(   56) = (   0.4000000  -0.4000000   0.4000000), wk =   0.0320000
        k(   57) = (   0.4000000  -0.4000000  -0.4000000), wk =   0.0320000
        k(   58) = (   0.4000000  -0.4000000  -0.2000000), wk =   0.0320000
        k(   59) = (   0.4000000  -0.2000000   0.0000000), wk =   0.0320000
        k(   60) = (   0.4000000  -0.2000000   0.2000000), wk =   0.0320000
        k(   61) = (   0.4000000  -0.2000000   0.4000000), wk =   0.0320000
        k(   62) = (   0.4000000  -0.2000000  -0.4000000), wk =   0.0320000
        k(   63) = (   0.4000000  -0.2000000  -0.2000000), wk =   0.0320000

     Dense  grid:  3895379 G-vectors     FFT dimensions: ( 200, 200, 200)

     Smooth grid:   985619 G-vectors     FFT dimensions: ( 125, 125, 125)

     Dynamical RAM for                 wfc:     108.09 MB

     Dynamical RAM for     wfc (w. buffer):     324.28 MB

     Dynamical RAM for           str. fact:      14.86 MB

     Dynamical RAM for           local pot:       0.00 MB

     Dynamical RAM for          nlocal pot:    1078.11 MB

     Dynamical RAM for                qrad:      15.65 MB

     Dynamical RAM for          rho,v,vnew:      45.18 MB

     Dynamical RAM for               rhoin:      15.06 MB

     Dynamical RAM for            rho*nmix:     118.88 MB

     Dynamical RAM for           G-vectors:      28.80 MB

     Dynamical RAM for          h,s,v(r/c):      38.75 MB

     Dynamical RAM for          <psi|beta>:      32.20 MB

     Dynamical RAM for                 psi:     432.37 MB

     Dynamical RAM for                hpsi:     432.37 MB

     Dynamical RAM for                spsi:     432.37 MB

     Dynamical RAM for      wfcinit/wfcrot:     505.26 MB

     Dynamical RAM for           addusdens:      98.03 MB

     Dynamical RAM for          addusforce:     201.19 MB

     Dynamical RAM for         addusstress:      45.09 MB

     Estimated static dynamical RAM per process >       1.66 GB

     Estimated max dynamical RAM per process >       3.00 GB

     Estimated total dynamical RAM >     863.25 GB

     Initial potential from superposition of free atoms

     starting charge  765.41644, renormalised to  766.00000
     Starting wfcs are 1024 randomized atomic wfcs
     Checking if some PAW data can be deallocated... 
       PAW data deallocated on  285 nodes for type:  1
       PAW data deallocated on    3 nodes for type:  2

     total cpu time spent up to now is      200.6 secs

     Self-consistent Calculation

     iteration #  1     ecut=    40.00 Ry     beta= 0.40
     Davidson diagonalization with overlap
     ethr =  1.00E-02,  avg # of iterations =  3.0

     Threshold (ethr) on eigenvalues was too large:
     Diagonalizing with lowered threshold

     Davidson diagonalization with overlap
     ethr =  1.89E-04,  avg # of iterations =  8.7

     total cpu time spent up to now is      981.1 secs

     total energy              =  -10101.10728864 Ry
     Harris-Foulkes estimate   =  -10101.27625579 Ry
     estimated scf accuracy    <       1.47804609 Ry

     iteration #  2     ecut=    40.00 Ry     beta= 0.40
     Davidson diagonalization with overlap
     ethr =  1.93E-04,  avg # of iterations =  1.3

     total cpu time spent up to now is     1214.2 secs

     total energy              =  -10100.89563940 Ry
     Harris-Foulkes estimate   =  -10101.11451111 Ry
     estimated scf accuracy    <       0.77202753 Ry

     iteration #  3     ecut=    40.00 Ry     beta= 0.40
     Davidson diagonalization with overlap
     ethr =  1.01E-04,  avg # of iterations =  1.0

     total cpu time spent up to now is     1436.9 secs

     total energy              =  -10100.91361425 Ry
     Harris-Foulkes estimate   =  -10100.91576862 Ry
     estimated scf accuracy    <       0.00389171 Ry

     iteration #  4     ecut=    40.00 Ry     beta= 0.40
     Davidson diagonalization with overlap
     ethr =  5.08E-07,  avg # of iterations = 18.7

     total cpu time spent up to now is     1965.1 secs

     total energy              =  -10100.91798520 Ry
     Harris-Foulkes estimate   =  -10100.91776980 Ry
     estimated scf accuracy    <       0.00640245 Ry

     iteration #  5     ecut=    40.00 Ry     beta= 0.40
     Davidson diagonalization with overlap
     ethr =  5.08E-07,  avg # of iterations =  7.8

     total cpu time spent up to now is     2255.1 secs

     total energy              =  -10100.91437065 Ry
     Harris-Foulkes estimate   =  -10100.91800011 Ry
     estimated scf accuracy    <       0.00850990 Ry

     iteration #  6     ecut=    40.00 Ry     beta= 0.40
     Davidson diagonalization with overlap
     ethr =  5.08E-07,  avg # of iterations =  9.4

     total cpu time spent up to now is     2705.8 secs

     total energy              =  -10100.91636118 Ry
     Harris-Foulkes estimate   =  -10100.91778200 Ry
     estimated scf accuracy    <       0.01346041 Ry

     iteration #  7     ecut=    40.00 Ry     beta= 0.40
     Davidson diagonalization with overlap
     ethr =  5.08E-07,  avg # of iterations =  2.6

     total cpu time spent up to now is     2972.6 secs

     total energy              =  -10100.91666337 Ry
     Harris-Foulkes estimate   =  -10100.91670825 Ry
     estimated scf accuracy    <       0.00300075 Ry

     iteration #  8     ecut=    40.00 Ry     beta= 0.40
     Davidson diagonalization with overlap
     ethr =  3.92E-07,  avg # of iterations =  1.0

     total cpu time spent up to now is     3194.7 secs

     total energy              =  -10100.91630307 Ry
     Harris-Foulkes estimate   =  -10100.91667577 Ry
     estimated scf accuracy    <       0.00261942 Ry

     iteration #  9     ecut=    40.00 Ry     beta= 0.40
     Davidson diagonalization with overlap
     ethr =  3.42E-07,  avg # of iterations =  2.7

     total cpu time spent up to now is     3429.3 secs

     total energy              =  -10100.91645058 Ry
     Harris-Foulkes estimate   =  -10100.91646147 Ry
     estimated scf accuracy    <       0.00009703 Ry

     iteration # 10     ecut=    40.00 Ry     beta= 0.40
     Davidson diagonalization with overlap
     ethr =  1.27E-08,  avg # of iterations =  5.0

     total cpu time spent up to now is     3777.6 secs

     total energy              =  -10100.91648257 Ry
     Harris-Foulkes estimate   =  -10100.91648319 Ry
     estimated scf accuracy    <       0.00000487 Ry

     iteration # 11     ecut=    40.00 Ry     beta= 0.40
     Davidson diagonalization with overlap
     ethr =  6.36E-10,  avg # of iterations =  4.0

     total cpu time spent up to now is     4094.0 secs

     total energy              =  -10100.91648659 Ry
     Harris-Foulkes estimate   =  -10100.91648548 Ry
     estimated scf accuracy    <       0.00002252 Ry

     iteration # 12     ecut=    40.00 Ry     beta= 0.40
     Davidson diagonalization with overlap
     ethr =  6.36E-10,  avg # of iterations =  1.6

     total cpu time spent up to now is     4319.9 secs

     total energy              =  -10100.91648345 Ry
     Harris-Foulkes estimate   =  -10100.91648677 Ry
     estimated scf accuracy    <       0.00003598 Ry

     iteration # 13     ecut=    40.00 Ry     beta= 0.40
     Davidson diagonalization with overlap
     ethr =  6.36E-10,  avg # of iterations =  2.6

     total cpu time spent up to now is     4569.0 secs

     total energy              =  -10100.91648105 Ry
     Harris-Foulkes estimate   =  -10100.91648404 Ry
     estimated scf accuracy    <       0.00002124 Ry

     iteration # 14     ecut=    40.00 Ry     beta= 0.40
     Davidson diagonalization with overlap
     ethr =  6.36E-10,  avg # of iterations =  3.0

     total cpu time spent up to now is     4841.3 secs

     total energy              =  -10100.91648215 Ry
     Harris-Foulkes estimate   =  -10100.91648224 Ry
     estimated scf accuracy    <       0.00000062 Ry

     iteration # 15     ecut=    40.00 Ry     beta= 0.40
     Davidson diagonalization with overlap
     ethr =  8.12E-11,  avg # of iterations =  4.2

     total cpu time spent up to now is     5118.4 secs

     total energy              =  -10100.91648221 Ry
     Harris-Foulkes estimate   =  -10100.91648221 Ry
     estimated scf accuracy    <          7.4E-09 Ry

     iteration # 16     ecut=    40.00 Ry     beta= 0.40
     Davidson diagonalization with overlap
     ethr =  9.72E-13,  avg # of iterations =  5.2

     total cpu time spent up to now is     5609.3 secs

     total energy              =  -10100.91648206 Ry
     Harris-Foulkes estimate   =  -10100.91648207 Ry
     estimated scf accuracy    <       0.00000017 Ry

     iteration # 17     ecut=    40.00 Ry     beta= 0.40
     Davidson diagonalization with overlap
     ethr =  9.72E-13,  avg # of iterations =  3.0

     total cpu time spent up to now is     5879.1 secs

     total energy              =  -10100.91648204 Ry
     Harris-Foulkes estimate   =  -10100.91648204 Ry
     estimated scf accuracy    <       0.00000008 Ry

     iteration # 18     ecut=    40.00 Ry     beta= 0.40
     Davidson diagonalization with overlap
     ethr =  9.72E-13,  avg # of iterations =  3.2

     total cpu time spent up to now is     6170.6 secs

     total energy              =  -10100.91648202 Ry
     Harris-Foulkes estimate   =  -10100.91648202 Ry
     estimated scf accuracy    <       0.00000001 Ry

     iteration # 19     ecut=    40.00 Ry     beta= 0.40
     Davidson diagonalization with overlap
     ethr =  9.72E-13,  avg # of iterations =  2.4

     total cpu time spent up to now is     6426.9 secs

     total energy              =  -10100.91648201 Ry
     Harris-Foulkes estimate   =  -10100.91648201 Ry
     estimated scf accuracy    <          1.3E-10 Ry

     iteration # 20     ecut=    40.00 Ry     beta= 0.40
     Davidson diagonalization with overlap
     ethr =  1.00E-13,  avg # of iterations =  3.5

     total cpu time spent up to now is     6675.8 secs

     total energy              =  -10100.91648200 Ry
     Harris-Foulkes estimate   =  -10100.91648200 Ry
     estimated scf accuracy    <          1.1E-11 Ry

     iteration # 21     ecut=    40.00 Ry     beta= 0.40
     Davidson diagonalization with overlap
     ethr =  1.00E-13,  avg # of iterations =  1.0

     total cpu time spent up to now is     6898.2 secs

     total energy              =  -10100.91648199 Ry
     Harris-Foulkes estimate   =  -10100.91648199 Ry
     estimated scf accuracy    <          5.0E-12 Ry

     iteration # 22     ecut=    40.00 Ry     beta= 0.40
     Davidson diagonalization with overlap
     ethr =  1.00E-13,  avg # of iterations =  1.0

     total cpu time spent up to now is     7120.7 secs

     total energy              =  -10100.91648199 Ry
     Harris-Foulkes estimate   =  -10100.91648199 Ry
     estimated scf accuracy    <          5.3E-12 Ry

     iteration # 23     ecut=    40.00 Ry     beta= 0.40
     Davidson diagonalization with overlap
     ethr =  1.00E-13,  avg # of iterations =  1.0

     total cpu time spent up to now is     7342.9 secs

     total energy              =  -10100.91648199 Ry
     Harris-Foulkes estimate   =  -10100.91648199 Ry
     estimated scf accuracy    <          1.5E-11 Ry

     iteration # 24     ecut=    40.00 Ry     beta= 0.40
     Davidson diagonalization with overlap
     ethr =  1.00E-13,  avg # of iterations =  1.0

     total cpu time spent up to now is     7564.8 secs

     total energy              =  -10100.91648199 Ry
     Harris-Foulkes estimate   =  -10100.91648199 Ry
     estimated scf accuracy    <          3.3E-11 Ry

     iteration # 25     ecut=    40.00 Ry     beta= 0.40
     Davidson diagonalization with overlap
     ethr =  1.00E-13,  avg # of iterations =  1.0

     total cpu time spent up to now is     7787.1 secs

     total energy              =  -10100.91648198 Ry
     Harris-Foulkes estimate   =  -10100.91648198 Ry
     estimated scf accuracy    <          5.5E-12 Ry

     iteration # 26     ecut=    40.00 Ry     beta= 0.40
     Davidson diagonalization with overlap
     ethr =  1.00E-13,  avg # of iterations =  1.0

     total cpu time spent up to now is     8009.3 secs

     total energy              =  -10100.91648198 Ry
     Harris-Foulkes estimate   =  -10100.91648198 Ry
     estimated scf accuracy    <          8.8E-12 Ry

     iteration # 27     ecut=    40.00 Ry     beta= 0.40
     Davidson diagonalization with overlap
     ethr =  1.00E-13,  avg # of iterations =  1.0

     total cpu time spent up to now is     8231.7 secs

     total energy              =  -10100.91648198 Ry
     Harris-Foulkes estimate   =  -10100.91648198 Ry
     estimated scf accuracy    <          2.4E-12 Ry

     iteration # 28     ecut=    40.00 Ry     beta= 0.40
     Davidson diagonalization with overlap
     ethr =  1.00E-13,  avg # of iterations =  1.0

     total cpu time spent up to now is     8452.6 secs

     End of self-consistent calculation

          k = 0.0000 0.0000 0.0000 (123065 PWs)   bands (ev):

    -3.2784  -2.7327  -2.7327  -2.7326  -2.7326  -2.7326  -2.6348  -2.1780
    -2.1780  -2.1780  -2.1747  -2.1747  -2.1747  -2.1725  -2.1725  -2.1635
    -2.1635  -2.1635  -1.9801  -1.6226  -1.6226  -1.6226  -1.6195  -1.6020
    -1.6020  -1.6020  -1.5019  -1.0649  -1.0649  -1.0504  -1.0504  -1.0504
    -0.9759  -0.5216  -0.5216  -0.5216  -0.5148  -0.5148  -0.5118  -0.5118
    -0.5118  -0.5088  -0.5088  -0.5088  -0.5088  -0.5088  -0.5088  -0.5087
    -0.5087  -0.5087  -0.5070  -0.5023  -0.5023  -0.4454  -0.4454  -0.4454
    -0.1460   0.0326   0.0326   0.0326   0.0331   0.0331   0.0331   0.0375
     0.0375   0.0400   0.0400   0.0400   0.0407   0.0415   0.0415   0.0415
     0.0457   0.0457   0.0462   0.0462   0.0462   0.1152   0.1152   0.1152
     0.3508   1.1296   1.1296   1.1296   1.1362   1.1362   1.1439   1.1439
     1.1439   1.1755   1.1755   1.1755   1.2931   1.6638   1.6638   1.6741
     1.6741   1.6741   1.6755   1.6755   1.6755   1.6761   1.6761   1.6761
     1.6765   1.6765   1.6779   1.6779   1.6779   1.6781   1.6793   1.6793
     1.6793   1.6878   1.6915   1.6915   1.6980   1.6980   1.6980   1.7805
     1.7805   1.7805   1.9763   2.2012   2.2012   2.2012   2.2118   2.2118
     2.2119   2.2119   2.2119   2.2163   2.2166   2.2166   2.2166   2.2198
     2.2198   2.2198   2.2228   2.2228   2.2228   2.2397   2.2397   2.3076
     2.3076   2.3076   2.4814   2.7445   2.7445   2.7445   2.7473   2.7473
     2.7473   2.7500   2.7500   2.7531   2.7531   2.7531   2.7573   2.7605
     2.7605   2.7605   2.7719   2.7719   2.7719   2.7794   2.7794   2.8485
     2.8485   2.8485   3.0182   3.2220   3.2387   3.2387   3.2387   3.4073
     3.4073   3.4073   3.4801   3.8191   3.8191   3.8201   3.8201   3.8201
     3.8254   3.8255   3.8255   3.8255   3.8312   3.8312   3.8312   3.8337
     3.8337   3.8337   3.8424   3.8424   3.8566   3.8566   3.8566   3.9243
     3.9243   3.9243   4.0910   4.2484   4.2484   4.2484   4.2498   4.2498
     4.2498   4.2514   4.2514   4.2528   4.2540   4.2540   4.2540   4.2567
     4.2567   4.2567   4.2591   4.2591   4.2591   4.2707   4.2707   4.2813
     4.3662   4.3662   4.3662   4.4789   4.4789   4.4816   4.4816   4.4829
     4.4829   4.4829   4.4831   4.4831   4.4831   4.4835   4.4835   4.4835
     4.4852   4.4932   4.4932   4.4932   4.5386   4.5386   4.5386   4.5425
     4.5425   4.5425   4.8961   4.8961   4.8961   4.9684   5.3786   5.3786
     5.3786   5.3822   5.3822   5.3822   5.3838   5.3838   5.3838   5.4651
     5.4651   5.4651   5.8884   5.8884   5.9007   5.9007   5.9007   5.9017
     5.9017   5.9017   5.9033   5.9664   5.9664   5.9683   5.9683   5.9683
     5.9700   5.9700   5.9700   5.9701   5.9701   5.9701   5.9704   5.9704
     5.9704   5.9736   5.9736   5.9821   5.9821   5.9821   6.0026   6.0026
     6.0026   6.0170   6.0609   6.0609   6.0609   6.1150   6.1734   6.1734
     6.2198   6.4176   6.4176   6.4176   6.4328   6.4328   6.4422   6.4422
     6.4422   6.4535   6.4800   6.4800   6.4800   6.7004   6.7004   6.7004
     6.7016   6.7048   6.7048   6.7107   6.7107   6.7107   6.7486   6.7486
     6.8405   6.9276   6.9276   6.9276   6.9311   6.9311   6.9311   6.9525
     6.9525   6.9525   7.0062   7.0062   7.0062   7.0067   7.0067   7.0067
     7.0129   7.0129   7.0131   7.0131   7.0131   7.0166   7.0166   7.0166
     7.0207   7.0207   7.0207   7.0221   7.0221   7.0337   7.0513   7.0513
     7.0513   7.0964   7.0964   7.0964   7.2938   7.3445   7.3445   7.3445
     7.3501   7.3501   7.3501   7.3517   7.3517   7.3517   7.3764   7.3764
     7.4340   7.4340   7.4439   7.4439   7.4439   7.4445   7.4456   7.4456
     7.4456   7.4457   7.4457   7.4457   7.4466   7.4466   7.4623   7.4623
     7.4623   7.4798   7.4906   7.4906   7.4906   7.6104   7.6300   7.6300
     7.6300   7.9367   7.9743   7.9743   7.9743   7.9818   7.9818   8.5867
     8.5867   8.5867   8.5879   8.5879   8.5879   8.5914   8.5914   8.5931
     8.5931   8.5931   8.5932   8.5932   8.5943   8.5943   8.5943   8.6305
     8.6305   8.6305   8.6471   8.6477   8.6795   8.6795   8.6795   8.8129
     8.8129   8.8162   8.8162   8.8162   8.8793   8.8867   8.8867   8.8867
     8.8922   8.8922   8.8922   8.8941   8.8941   8.8941   8.8975   8.8975
     8.8977   8.8977   8.8977   8.9030   8.9030   8.9030   8.9550   8.9550
     8.9630   8.9630   8.9630   8.9988

     occupation numbers 
     1.0000   1.0000   1.0000   1.0000   1.0000   1.0000   1.0000   1.0000
     1.0000   1.0000   1.0000   1.0000   1.0000   1.0000   1.0000   1.0000
     1.0000   1.0000   1.0000   1.0000   1.0000   1.0000   1.0000   1.0000
     1.0000   1.0000   1.0000   1.0000   1.0000   1.0000   1.0000   1.0000
     1.0000   1.0000   1.0000   1.0000   1.0000   1.0000   1.0000   1.0000
     1.0000   1.0000   1.0000   1.0000   1.0000   1.0000   1.0000   1.0000
     1.0000   1.0000   1.0000   1.0000   1.0000   1.0000   1.0000   1.0000
     1.0000   1.0000   1.0000   1.0000   1.0000   1.0000   1.0000   1.0000
     1.0000   1.0000   1.0000   1.0000   1.0000   1.0000   1.0000   1.0000
     1.0000   1.0000   1.0000   1.0000   1.0000   1.0000   1.0000   1.0000
     1.0000   1.0000   1.0000   1.0000   1.0000   1.0000   1.0000   1.0000
     1.0000   1.0000   1.0000   1.0000   1.0000   1.0000   1.0000   1.0000
     1.0000   1.0000   1.0000   1.0000   1.0000   1.0000   1.0000   1.0000
     1.0000   1.0000   1.0000   1.0000   1.0000   1.0000   1.0000   1.0000
     1.0000   1.0000   1.0000   1.0000   1.0000   1.0000   1.0000   1.0000
     1.0000   1.0000   1.0000   1.0000   1.0000   1.0000   1.0000   1.0000
     1.0000   1.0000   1.0000   1.0000   1.0000   1.0000   1.0000   1.0000
     1.0000   1.0000   1.0000   1.0000   1.0000   1.0000   1.0000   1.0000
     1.0000   1.0000   1.0000   1.0000   1.0000   1.0000   1.0000   1.0000
     1.0000   1.0000   1.0000   1.0000   1.0000   1.0000   1.0000   1.0000
     1.0000   1.0000   1.0000   1.0000   1.0000   1.0000   1.0000   1.0000
     1.0000   1.0000   1.0000   1.0000   1.0000   1.0000   1.0000   1.0000
     1.0000   1.0000   1.0000   1.0000   1.0000   1.0000   1.0000   1.0000
     1.0000   1.0000   1.0000   1.0000   1.0000   1.0000   1.0000   1.0000
     1.0000   1.0000   1.0000   1.0000   1.0000   1.0000   1.0000   1.0000
     1.0000   1.0000   1.0000   1.0000   1.0000   1.0000   1.0000   1.0000
     1.0000   1.0000   1.0000   1.0000   1.0000   1.0000   1.0000   1.0000
     1.0000   1.0000   1.0000   1.0000   1.0000   1.0000   1.0000   1.0000
     1.0000   1.0000   1.0000   1.0000   1.0000   1.0000   1.0000   1.0000
     1.0000   1.0000   1.0000   1.0000   1.0000   1.0000   1.0000   1.0000
     1.0000   1.0000   1.0000   1.0000   1.0000   1.0000   1.0000   1.0000
     1.0000   1.0000   1.0000   1.0000   1.0000   1.0000   1.0000   1.0000
     1.0000   1.0000   1.0000   1.0000   1.0000   1.0000   1.0000   1.0000
     1.0000   1.0000   1.0000   1.0000   1.0000   1.0000   1.0000   1.0000
     1.0000   1.0000   1.0000   1.0001   1.0001   1.0001   1.0001   1.0001
     1.0001   1.0001   1.0001   1.0001   1.0001   1.0001   1.0001   1.0001
     1.0001   1.0001   1.0001   1.0001   1.0001   1.0001   1.0001   1.0001
     1.0001   1.0001   1.0002   1.0002   1.0002   1.0003   1.0005   1.0005
     1.0008   1.0032   1.0032   1.0032   1.0035   1.0035   1.0037   1.0037
     1.0037   1.0040   1.0047   1.0047   1.0047   1.0148   1.0148   1.0148
     1.0149   1.0151   1.0151   1.0155   1.0155   1.0155   1.0182   1.0182
     1.0251   1.0314   1.0314   1.0314   1.0316   1.0316   1.0316   1.0328
     1.0328   1.0328   1.0350   1.0350   1.0350   1.0350   1.0350   1.0350
     1.0352   1.0352   1.0352   1.0352   1.0352   1.0353   1.0353   1.0353
     1.0353   1.0353   1.0353   1.0353   1.0353   1.0354   1.0354   1.0354
     1.0354   1.0339   1.0339   1.0339   0.9901   0.9652   0.9652   0.9652
     0.9621   0.9621   0.9621   0.9612   0.9612   0.9612   0.9461   0.9461
     0.9045   0.9045   0.8964   0.8964   0.8964   0.8959   0.8949   0.8949
     0.8949   0.8948   0.8948   0.8948   0.8941   0.8941   0.8806   0.8806
     0.8806   0.8647   0.8545   0.8545   0.8545   0.7214   0.6967   0.6967
     0.6967   0.2795   0.2342   0.2342   0.2342   0.2254   0.2254  -0.0333
    -0.0333  -0.0333  -0.0332  -0.0332  -0.0332  -0.0331  -0.0331  -0.0330
    -0.0330  -0.0330  -0.0330  -0.0330  -0.0329  -0.0329  -0.0329  -0.0307
    -0.0307  -0.0307  -0.0296  -0.0296  -0.0272  -0.0272  -0.0272  -0.0172
    -0.0172  -0.0170  -0.0170  -0.0170  -0.0129  -0.0124  -0.0124  -0.0124
    -0.0121  -0.0121  -0.0121  -0.0120  -0.0120  -0.0120  -0.0118  -0.0118
    -0.0118  -0.0118  -0.0118  -0.0115  -0.0115  -0.0115  -0.0088  -0.0088
    -0.0085  -0.0085  -0.0085  -0.0070

          k = 0.0000 0.0000 0.2000 (123202 PWs)   bands (ev):

    -3.2560  -2.9221  -2.7103  -2.7102  -2.7102  -2.6480  -2.4641  -2.3747
    -2.3747  -2.3746  -2.3252  -2.1557  -2.1468  -2.1468  -2.0933  -1.9282
    -1.9281  -1.9281  -1.8336  -1.8213  -1.8127  -1.8127  -1.7554  -1.4632
    -1.3767  -1.3679  -1.3679  -1.3070  -1.0428  -1.0284  -1.0284  -0.9845
    -0.9294  -0.9294  -0.9290  -0.8715  -0.7111  -0.6978  -0.6978  -0.6565
    -0.5791  -0.4903  -0.4903  -0.4898  -0.4893  -0.4866  -0.4585  -0.4585
    -0.3835  -0.3813  -0.3733  -0.3733  -0.3260  -0.2696  -0.2524  -0.2524
    -0.1922  -0.1598  -0.1598  -0.1592  -0.1589  -0.1561  -0.1291  -0.1291
    -0.0469  -0.0463  -0.0463  -0.0345   0.0956   0.2799   0.2799   0.2804
     0.2808   0.2835   0.3125   0.3125   0.3733   0.4975   0.5077   0.5077
     0.6132   0.7182   0.7335   0.7335   0.8020   1.0585   1.1657   1.1744
     1.1744   1.2114   1.2641   1.2641   1.2645   1.2649   1.2675   1.2927
     1.2927   1.3597   1.4925   1.5000   1.5000   1.5362   1.5890   1.5898
     1.5898   1.5906   1.6051   1.6051   1.6514   1.6929   1.6957   1.7164
     1.7164   1.7364   1.9270   1.9352   1.9352   1.9540   2.0208   2.0391
     2.0391   2.0588   2.1272   2.1327   2.1327   2.1331   2.1336   2.1367
     2.1370   2.1370   2.1675   2.1675   2.2055   2.2323   2.2323   2.2336
     2.2439   2.2444   2.2612   2.2818   2.2818   2.3223   2.3820   2.4546
     2.4813   2.4813   2.5213   2.5564   2.5564   2.5576   2.5674   2.5687
     2.6067   2.6067   2.6644   2.8782   2.8783   2.8783   2.8951   2.9064
     2.9064   2.9291   2.9868   2.9868   2.9882   2.9898   2.9989   2.9993
     3.0402   3.0402   3.0885   3.2078   3.2227   3.2227   3.2788   3.4100
     3.4193   3.4193   3.4229   3.4471   3.4471   3.4750   3.5292   3.7356
     3.7356   3.7358   3.7365   3.7379   3.7634   3.7634   3.7764   3.7815
     3.7815   3.8106   3.8297   3.8467   3.8482   3.8482   3.8508   3.8778
     3.8992   3.8992   3.9421   3.9431   3.9431   3.9442   3.9546   3.9557
     3.9912   3.9912   4.0294   4.1578   4.1595   4.1595   4.1622   4.1883
     4.2171   4.2171   4.2562   4.2765   4.2986   4.2986   4.3235   4.4784
     4.4854   4.4965   4.4965   4.5823   4.6173   4.6184   4.6184   4.6210
     4.6478   4.6558   4.6558   4.6862   4.8282   4.8282   4.8293   4.8391
     4.8417   4.8626   4.8626   4.9207   4.9274   4.9274   4.9821   4.9821
     4.9829   5.0362   5.0362   5.0363   5.0367   5.0417   5.0635   5.0753
     5.0753   5.2122   5.2122   5.3006   5.3658   5.3722   5.3722   5.3992
     5.4054   5.4066   5.4397   5.4397   5.4955   5.5041   5.5041   5.5655
     5.5663   5.5663   5.5693   5.5815   5.5982   5.6033   5.6033   5.6548
     5.6548   5.6576   5.7087   5.7145   5.7498   5.7498   5.8478   5.8748
     5.8748   5.8982   6.1218   6.1271   6.1725   6.1725   6.1967   6.2280
     6.4030   6.4030   6.4044   6.4124   6.4124   6.4139   6.4139   6.4144
     6.4158   6.4381   6.4381   6.4428   6.4565   6.4663   6.4663   6.4745
     6.5006   6.5006   6.5024   6.5038   6.5225   6.5385   6.5452   6.5452
     6.5625   6.5783   6.5783   6.6201   6.6267   6.6330   6.6330   6.6363
     6.6627   6.7257   6.7257   6.7440   6.7771   6.8429   6.8453   6.8453
     6.8688   6.8756   6.8756   6.8765   6.9105   6.9495   6.9518   6.9736
     6.9952   6.9952   6.9955   7.0518   7.0522   7.0756   7.0756   7.0769
     7.0771   7.0834   7.0834   7.0849   7.1188   7.1188   7.1412   7.1444
     7.1444   7.2285   7.2460   7.2533   7.2533   7.2585   7.2619   7.2952
     7.3274   7.3274   7.3276   7.3543   7.3543   7.3577   7.3986   7.3986
     7.4055   7.5533   7.5533   7.5707   7.6380   7.6488   7.6488   7.6499
     7.6596   7.6609   7.6731   7.6731   7.6765   7.7016   7.7336   7.7336
     7.7414   7.7495   7.7495   7.7934   7.8075   7.8134   7.8770   7.8801
     7.8865   7.9585   7.9585   7.9870   7.9881   7.9881   7.9914   8.0153
     8.0265   8.0265   8.0674   8.1749   8.1812   8.1812   8.1903   8.2171
     8.2351   8.2351   8.2734   8.4974   8.4974   8.5152   8.5631   8.6081
     8.6237   8.6342   8.6342   8.6583   8.6685   8.6685   8.6990   8.7047
     8.7112   8.7112   8.7791   8.9410   8.9410   9.0134   9.0167   9.0349
     9.0395   9.0447   9.0447   9.0490   9.0490   9.0494   9.1365   9.1470
     9.1470   9.1585   9.1701   9.1834   9.1940   9.1940   9.2245   9.2957
     9.2970   9.2972   9.2982   9.3028

     occupation numbers 
     1.0000   1.0000   1.0000   1.0000   1.0000   1.0000   1.0000   1.0000
     1.0000   1.0000   1.0000   1.0000   1.0000   1.0000   1.0000   1.0000
[...]
     atom   75 type  2   force =    -0.00000001   -0.00000000   -0.00000001
     atom   76 type  2   force =     0.00000001   -0.00000001    0.00000001
     atom   77 type  2   force =    -0.00000002   -0.00000001    0.00000004
     atom   78 type  2   force =    -0.00000001   -0.00000001    0.00000003
     atom   79 type  2   force =    -0.00000003    0.00000001    0.00000003
     atom   80 type  2   force =    -0.00000002   -0.00000002    0.00000004
     atom   81 type  2   force =    -0.00000002   -0.00000002    0.00000000
     atom   82 type  2   force =    -0.00000001   -0.00000000    0.00000001
     atom   83 type  2   force =    -0.00000002   -0.00000001   -0.00000003
     atom   84 type  2   force =    -0.00000001   -0.00000001   -0.00000002
     atom   85 type  2   force =    -0.00000001   -0.00000000   -0.00000003
     atom   86 type  2   force =     0.00000000    0.00000002   -0.00000000
     atom   87 type  2   force =     0.00000001    0.00000001    0.00000000
     atom   88 type  2   force =     0.00000001    0.00000001    0.00000000
     atom   89 type  2   force =     0.00000002    0.00000002    0.00000000
     atom   90 type  2   force =    -0.00000002   -0.00000001   -0.00000000
     atom   91 type  2   force =    -0.00000000    0.00000002   -0.00000001
     atom   92 type  2   force =     0.00000001    0.00000001   -0.00000001
     atom   93 type  2   force =    -0.00000002   -0.00000000    0.00000002
     atom   94 type  2   force =     0.00000000    0.00000001   -0.00000000
     atom   95 type  2   force =    -0.00000001   -0.00000001    0.00000003
     atom   96 type  2   force =    -0.00000001   -0.00000001    0.00000003
     atom   97 type  2   force =     0.00000000   -0.00000004    0.00000000
     atom   98 type  2   force =     0.00000000   -0.00000002    0.00000001
     atom   99 type  2   force =     0.00000001   -0.00000002   -0.00000000
     atom  100 type  2   force =     0.00000000   -0.00000002   -0.00000001
     atom  101 type  2   force =     0.00000002   -0.00000002    0.00000000
     atom  102 type  2   force =     0.00000001   -0.00000003    0.00000001
     atom  103 type  2   force =    -0.00000002    0.00000000   -0.00000002
     atom  104 type  2   force =     0.00000001   -0.00000001    0.00000002
     atom  105 type  2   force =     0.00000000    0.00000000   -0.00000000
     atom  106 type  2   force =    -0.00000002    0.00000002   -0.00000000
     atom  107 type  2   force =    -0.00000002    0.00000000    0.00000001
     atom  108 type  2   force =     0.00000002   -0.00000001   -0.00000001
     atom  109 type  2   force =     0.00000000   -0.00000000   -0.00000000
     atom  110 type  2   force =     0.00000001   -0.00000002   -0.00000002
     atom  111 type  2   force =    -0.00000000   -0.00000002    0.00000001
     atom  112 type  2   force =    -0.00000002   -0.00000001    0.00000000
     atom  113 type  2   force =    -0.00000003    0.00000004   -0.00000000
     atom  114 type  2   force =    -0.00000003    0.00000004   -0.00000001
     atom  115 type  2   force =    -0.00000001    0.00000000   -0.00000001
     atom  116 type  2   force =    -0.00000003    0.00000004   -0.00000003
     atom  117 type  2   force =    -0.00000001    0.00000001   -0.00000000
     atom  118 type  2   force =    -0.00000000    0.00000002   -0.00000000
     atom  119 type  2   force =     0.00000002   -0.00000002    0.00000003
     atom  120 type  2   force =    -0.00000001   -0.00000000    0.00000000
     atom  121 type  2   force =     0.00000001   -0.00000002   -0.00000001
     atom  122 type  2   force =     0.00000002   -0.00000001   -0.00000000
     atom  123 type  2   force =     0.00000002   -0.00000001   -0.00000002
     atom  124 type  2   force =     0.00000001    0.00000000    0.00000002
     atom  125 type  2   force =    -0.00000001    0.00000002    0.00000001
     atom  126 type  2   force =    -0.00000002    0.00000002    0.00000001
     atom  127 type  2   force =    -0.00000001    0.00000002    0.00000001
     atom  128 type  2   force =    -0.00000002    0.00000003    0.00000002
     atom  129 type  2   force =    -0.00000004    0.00000001    0.00000000
     atom  130 type  2   force =    -0.00000000   -0.00000000   -0.00000000
     atom  131 type  2   force =    -0.00000000   -0.00000000   -0.00000002
     atom  132 type  2   force =    -0.00000004   -0.00000001   -0.00000002
     atom  133 type  2   force =    -0.00000002    0.00000001   -0.00000001
     atom  134 type  2   force =    -0.00000001   -0.00000000   -0.00000002
     atom  135 type  2   force =    -0.00000002   -0.00000003    0.00000000
     atom  136 type  2   force =    -0.00000003   -0.00000000   -0.00000000
     atom  137 type  2   force =    -0.00000003   -0.00000002   -0.00000001
     atom  138 type  2   force =    -0.00000002    0.00000001   -0.00000001
     atom  139 type  2   force =    -0.00000002   -0.00000002   -0.00000001
     atom  140 type  2   force =    -0.00000003    0.00000001   -0.00000001
     atom  141 type  2   force =    -0.00000004   -0.00000000    0.00000002
     atom  142 type  2   force =    -0.00000001    0.00000001    0.00000003
     atom  143 type  2   force =    -0.00000000    0.00000001    0.00000003
     atom  144 type  2   force =    -0.00000003   -0.00000000    0.00000003
     atom  145 type  2   force =    -0.00000003   -0.00000000   -0.00000000
     atom  146 type  2   force =    -0.00000000   -0.00000000    0.00000000
     atom  147 type  2   force =    -0.00000001    0.00000001   -0.00000002
     atom  148 type  2   force =    -0.00000002    0.00000002   -0.00000001
     atom  149 type  2   force =    -0.00000002    0.00000002    0.00000000
     atom  150 type  2   force =    -0.00000002    0.00000002    0.00000001
     atom  151 type  2   force =    -0.00000001    0.00000003    0.00000000
     atom  152 type  2   force =    -0.00000001   -0.00000001   -0.00000003
     atom  153 type  2   force =    -0.00000002    0.00000001   -0.00000000
     atom  154 type  2   force =     0.00000001   -0.00000001   -0.00000000
     atom  155 type  2   force =    -0.00000001    0.00000004    0.00000000
     atom  156 type  2   force =    -0.00000001   -0.00000001    0.00000002
     atom  157 type  2   force =    -0.00000001    0.00000002    0.00000001
     atom  158 type  2   force =    -0.00000001    0.00000001   -0.00000000
     atom  159 type  2   force =    -0.00000001    0.00000001    0.00000002
     atom  160 type  2   force =    -0.00000001    0.00000000    0.00000001
     atom  161 type  2   force =    -0.00000002   -0.00000002    0.00000001
     atom  162 type  2   force =    -0.00000003   -0.00000001    0.00000002
     atom  163 type  2   force =    -0.00000002   -0.00000001    0.00000000
     atom  164 type  2   force =    -0.00000000   -0.00000003    0.00000000
     atom  165 type  2   force =    -0.00000001   -0.00000000   -0.00000001
     atom  166 type  2   force =    -0.00000002   -0.00000002    0.00000001
     atom  167 type  2   force =     0.00000002   -0.00000000   -0.00000002
     atom  168 type  2   force =    -0.00000001    0.00000002   -0.00000002
     atom  169 type  1   force =    -0.00000000    0.00000000   -0.00000000
     atom  170 type  2   force =     0.00000001    0.00000002    0.00000000
     atom  171 type  2   force =     0.00000002    0.00000001    0.00000002
     atom  172 type  2   force =    -0.00000000    0.00000002    0.00000001
     atom  173 type  2   force =    -0.00000001   -0.00000001   -0.00000000
     atom  174 type  2   force =    -0.00000002   -0.00000002   -0.00000003
     atom  175 type  2   force =    -0.00000002   -0.00000002   -0.00000000
     atom  176 type  2   force =    -0.00000001   -0.00000002    0.00000000
     atom  177 type  2   force =    -0.00000000    0.00000001    0.00000000
     atom  178 type  2   force =     0.00000000    0.00000002    0.00000001
     atom  179 type  2   force =    -0.00000001   -0.00000000   -0.00000001
     atom  180 type  2   force =    -0.00000001    0.00000002   -0.00000002
     atom  181 type  2   force =    -0.00000000   -0.00000002    0.00000003
     atom  182 type  2   force =    -0.00000001    0.00000001    0.00000000
     atom  183 type  2   force =    -0.00000002   -0.00000001    0.00000002
     atom  184 type  2   force =    -0.00000000   -0.00000001    0.00000003
     atom  185 type  2   force =    -0.00000001    0.00000001   -0.00000000
     atom  186 type  2   force =    -0.00000003   -0.00000002   -0.00000002
     atom  187 type  2   force =    -0.00000003   -0.00000002   -0.00000003
     atom  188 type  2   force =    -0.00000002   -0.00000002   -0.00000003
     atom  189 type  2   force =    -0.00000001   -0.00000002   -0.00000003
     atom  190 type  2   force =    -0.00000001   -0.00000001   -0.00000000
     atom  191 type  2   force =    -0.00000001    0.00000000    0.00000001
     atom  192 type  2   force =    -0.00000003    0.00000002    0.00000002
     atom  193 type  2   force =     0.00000002    0.00000000    0.00000001
     atom  194 type  2   force =     0.00000000    0.00000002    0.00000001
     atom  195 type  2   force =     0.00000000    0.00000000    0.00000001
     atom  196 type  2   force =     0.00000004   -0.00000001   -0.00000002
     atom  197 type  2   force =     0.00000004   -0.00000000   -0.00000003
     atom  198 type  2   force =     0.00000003   -0.00000001   -0.00000003
     atom  199 type  2   force =     0.00000002   -0.00000000   -0.00000003
     atom  200 type  2   force =     0.00000003    0.00000000   -0.00000002
     atom  201 type  2   force =     0.00000001   -0.00000002   -0.00000002
     atom  202 type  2   force =     0.00000002   -0.00000000   -0.00000001
     atom  203 type  2   force =     0.00000003    0.00000000    0.00000002
     atom  204 type  2   force =     0.00000002    0.00000002    0.00000001
     atom  205 type  2   force =     0.00000004    0.00000000    0.00000004
     atom  206 type  2   force =     0.00000004    0.00000001    0.00000003
     atom  207 type  2   force =     0.00000000    0.00000001    0.00000000
     atom  208 type  2   force =     0.00000004   -0.00000000    0.00000003
     atom  209 type  2   force =     0.00000003   -0.00000000   -0.00000000
     atom  210 type  2   force =     0.00000001   -0.00000004   -0.00000000
     atom  211 type  2   force =     0.00000003   -0.00000003   -0.00000002
     atom  212 type  2   force =    -0.00000001   -0.00000000   -0.00000002
     atom  213 type  2   force =     0.00000002    0.00000000   -0.00000001
     atom  214 type  2   force =     0.00000002   -0.00000000    0.00000000
     atom  215 type  2   force =     0.00000002   -0.00000000   -0.00000002
     atom  216 type  2   force =    -0.00000001    0.00000002    0.00000000
     atom  217 type  2   force =    -0.00000000    0.00000003   -0.00000000
     atom  218 type  2   force =     0.00000001    0.00000002    0.00000001
     atom  219 type  2   force =     0.00000003    0.00000002    0.00000002
     atom  220 type  2   force =    -0.00000000    0.00000002   -0.00000000
     atom  221 type  2   force =     0.00000002    0.00000001    0.00000001
     atom  222 type  2   force =     0.00000002   -0.00000002   -0.00000001
     atom  223 type  2   force =     0.00000003   -0.00000002    0.00000002
     atom  224 type  2   force =    -0.00000000   -0.00000001    0.00000002
     atom  225 type  2   force =    -0.00000001   -0.00000003    0.00000001
     atom  226 type  2   force =     0.00000002    0.00000002    0.00000002
     atom  227 type  2   force =     0.00000001    0.00000000    0.00000001
     atom  228 type  2   force =     0.00000000   -0.00000001    0.00000000
     atom  229 type  2   force =    -0.00000001   -0.00000000    0.00000002
     atom  230 type  2   force =     0.00000002   -0.00000001    0.00000000
     atom  231 type  2   force =     0.00000001   -0.00000000    0.00000000
     atom  232 type  2   force =    -0.00000001   -0.00000001    0.00000001
     atom  233 type  2   force =     0.00000000    0.00000000   -0.00000000
     atom  234 type  2   force =     0.00000000   -0.00000001   -0.00000001
     atom  235 type  2   force =     0.00000001   -0.00000001   -0.00000001
     atom  236 type  2   force =    -0.00000002   -0.00000002   -0.00000002
     atom  237 type  2   force =    -0.00000002   -0.00000002   -0.00000002
     atom  238 type  2   force =     0.00000003   -0.00000001   -0.00000001
     atom  239 type  2   force =     0.00000001   -0.00000002   -0.00000000
     atom  240 type  2   force =    -0.00000000   -0.00000001    0.00000001
     atom  241 type  2   force =     0.00000002    0.00000003    0.00000001
     atom  242 type  2   force =     0.00000000   -0.00000000    0.00000001
     atom  243 type  2   force =     0.00000004    0.00000003   -0.00000001
     atom  244 type  2   force =     0.00000003    0.00000002   -0.00000002
     atom  245 type  2   force =     0.00000002   -0.00000000    0.00000001
     atom  246 type  2   force =     0.00000003    0.00000002   -0.00000002
     atom  247 type  2   force =     0.00000001   -0.00000000   -0.00000000
     atom  248 type  2   force =     0.00000001   -0.00000000    0.00000000
     atom  249 type  2   force =    -0.00000002   -0.00000002   -0.00000001
     atom  250 type  2   force =     0.00000001   -0.00000001   -0.00000002
     atom  251 type  2   force =     0.00000002   -0.00000000   -0.00000001
     atom  252 type  2   force =     0.00000000   -0.00000001   -0.00000001
     atom  253 type  2   force =     0.00000000    0.00000000   -0.00000001
     atom  254 type  2   force =     0.00000004    0.00000001    0.00000003
     atom  255 type  2   force =     0.00000004    0.00000004    0.00000002
     atom  256 type  2   force =     0.00000003    0.00000002    0.00000003

     Total force =     0.008190     Total SCF correction =     0.000000


     Computing stress (Cartesian axis) and pressure

          total   stress  (Ry/bohr**3)                   (kbar)     P=   -8.12
  -0.00005520   0.00000000   0.00000000         -8.12      0.00      0.00
   0.00000000  -0.00005520   0.00000000          0.00     -8.12      0.00
   0.00000000   0.00000000  -0.00005520          0.00      0.00     -8.12

     kinetic stress (kbar)   1429.91      0.00      0.00
                                0.00   1429.91      0.00
                                0.00      0.00   1429.91

     local   stress (kbar)    619.43      0.00      0.00
                                0.00    619.43     -0.00
                                0.00     -0.00    619.43

     nonloc. stress (kbar)   1036.59     -0.00     -0.00
                               -0.00   1036.59     -0.00
                               -0.00     -0.00   1036.59

     hartree stress (kbar)      4.31     -0.00     -0.00
                               -0.00      4.31     -0.00
                               -0.00     -0.00      4.31

     exc-cor stress (kbar)    501.00     -0.00     -0.00
                               -0.00    501.00      0.00
                               -0.00      0.00    501.00

     corecor stress (kbar)  -1269.13      0.00      0.00
                                0.00  -1269.13     -0.00
                                0.00     -0.00  -1269.13

     ewald   stress (kbar)  -2330.23      0.00     -0.00
                                0.00  -2330.23     -0.00
                               -0.00     -0.00  -2330.23

     hubbard stress (kbar)      0.00      0.00      0.00
                                0.00      0.00      0.00
                                0.00      0.00      0.00

     london  stress (kbar)      0.00      0.00      0.00
                                0.00      0.00      0.00
                                0.00      0.00      0.00

     DFT-D3  stress (kbar)      0.00      0.00      0.00
                                0.00      0.00      0.00
                                0.00      0.00      0.00

     XDM     stress (kbar)      0.00      0.00      0.00
                                0.00      0.00      0.00
                                0.00      0.00      0.00

     dft-nl  stress (kbar)      0.00      0.00      0.00
                                0.00      0.00      0.00
                                0.00      0.00      0.00

     TS-vdW  stress (kbar)      0.00      0.00      0.00
                                0.00      0.00      0.00
                                0.00      0.00      0.00



     Writing output data file aiida.save/
 
     init_run     :    196.66s CPU    198.76s WALL (       1 calls)
     electrons    :   8187.02s CPU   8252.47s WALL (       1 calls)
     forces       :     93.20s CPU     94.15s WALL (       1 calls)
     stress       :   1259.37s CPU   1260.93s WALL (       1 calls)

     Called by init_run:
     wfcinit      :    186.39s CPU    188.16s WALL (       1 calls)
     wfcinit:atom :      0.36s CPU      0.62s WALL (       2 calls)
     wfcinit:wfcr :    183.71s CPU    184.46s WALL (       2 calls)
     potinit      :      2.44s CPU      2.57s WALL (       1 calls)
     hinit0       :      2.79s CPU      2.87s WALL (       1 calls)

     Called by electrons:
     c_bands      :   7078.28s CPU   7132.09s WALL (      29 calls)
     sum_band     :   1014.54s CPU   1019.12s WALL (      29 calls)
     v_of_rho     :     45.28s CPU     47.79s WALL (      29 calls)
     v_h          :      4.53s CPU      4.53s WALL (      29 calls)
     v_xc         :     43.12s CPU     45.72s WALL (      31 calls)
     newd         :      8.95s CPU     10.71s WALL (      29 calls)
     PAW_pot      :      6.29s CPU      6.51s WALL (      29 calls)
     mix_rho      :     26.96s CPU     29.17s WALL (      29 calls)

     Called by c_bands:
     init_us_2    :     98.66s CPU     99.24s WALL (     122 calls)
     cegterg      :   6253.95s CPU   6305.28s WALL (      58 calls)

     Called by sum_band:
     sum_band:bec :      1.73s CPU      1.76s WALL (      58 calls)
     addusdens    :      7.06s CPU      9.30s WALL (      29 calls)

     Called by *egterg:
     h_psi        :   4112.60s CPU   4130.55s WALL (     230 calls)
     s_psi        :   1213.84s CPU   1216.50s WALL (     230 calls)
     g_psi        :      5.32s CPU      5.32s WALL (     170 calls)
     cdiaghg      :    297.11s CPU    302.69s WALL (     226 calls)
     cegterg:over :    335.84s CPU    337.68s WALL (     170 calls)
     cegterg:upda :    209.37s CPU    218.19s WALL (     170 calls)
     cegterg:last :    136.99s CPU    137.05s WALL (      62 calls)
     cdiaghg:chol :     12.63s CPU     12.73s WALL (     226 calls)
     cdiaghg:inve :      5.85s CPU      5.85s WALL (     226 calls)
     cdiaghg:para :     64.45s CPU     65.62s WALL (     452 calls)

     Called by h_psi:
     h_psi:pot    :   4107.01s CPU   4116.86s WALL (     230 calls)
     h_psi:calbec :   1218.81s CPU   1219.17s WALL (     230 calls)
     vloc_psi     :   1668.76s CPU   1675.39s WALL (     230 calls)
     add_vuspsi   :   1219.44s CPU   1222.29s WALL (     230 calls)

     General routines
     calbec       :   1789.88s CPU   1790.46s WALL (     298 calls)
     fft          :     50.28s CPU     53.37s WALL (     402 calls)
     ffts         :     12.29s CPU     12.35s WALL (     407 calls)
     fftw         :   1728.25s CPU   1734.79s WALL (  158490 calls)
     interpolate  :      4.75s CPU      5.12s WALL (      29 calls)
 
     Parallel routines
     fft_scatt_xy :    588.25s CPU    590.07s WALL (  159299 calls)
     fft_scatt_yz :    363.62s CPU    367.05s WALL (  159299 calls)

     PAW routines
     PAW_pot      :      6.29s CPU      6.51s WALL (      29 calls)
 
     PWSCF        :      2h45m CPU      2h47m WALL

 
   This run was terminated on:   3:13: 0  27Feb2020            

=------------------------------------------------------------------------------=
   JOB DONE.
=------------------------------------------------------------------------------=
