begin
comment 256 atoms, species Al254Mg2
lattice     30.6664728719     0.0000000000     0.0000000000
lattice      0.0000000000    30.6664728719     0.0000000000
lattice      0.0000000000     0.0000000000    30.6664728719
atom      0.0000000000     0.0000000000     0.0000000000   Mg  0.0 0.0   -9.99999925e-09  4.99999962e-09 -0.00000000e+00
atom      3.8778337610     0.0000000000     3.8778337610   Al  0.0 0.0   -1.85369986e-04  3.99999970e-08 -1.85289986e-04
atom      3.8778337610     3.8778337610     0.0000000000   Al  0.0 0.0   -1.85264986e-04 -1.85274986e-04 -2.49999981e-08
atom      0.0000000000     3.8778337610     3.8778337610   Al  0.0 0.0   -5.49999959e-08 -1.85314986e-04 -1.85249986e-04
atom      0.0000000000     0.0000000000     7.6709728571   Al  0.0 0.0   -1.49999989e-08  1.99999985e-08 -1.39499990e-06
atom      3.8362837569     3.8362837569     7.6758457597   Al  0.0 0.0    1.77444987e-04  1.77499987e-04  3.35699975e-04
atom      3.8332263095     0.0000000000    11.5023285118   Al  0.0 0.0   -3.61999973e-06  2.49999981e-08  9.07599932e-05
atom      0.0000000000     3.8332263095    11.5023285118   Al  0.0 0.0   -2.99999977e-08 -3.58499973e-06  9.07699932e-05
atom      0.0000000000     0.0000000000    15.3332364360   Al  0.0 0.0    3.49999974e-08  1.99999985e-08 -4.99999962e-09
atom      3.8330239108     3.8330239108    15.3332364360   Al  0.0 0.0   -2.49499981e-05 -2.49649981e-05 -5.49999959e-08
atom      3.8332263095     0.0000000000    19.1641474268   Al  0.0 0.0   -3.56999973e-06 -3.99999970e-08 -9.06999932e-05
atom      0.0000000000     3.8332263095    19.1641474268   Al  0.0 0.0    4.99999962e-09 -3.57999973e-06 -9.07449932e-05
atom      0.0000000000     0.0000000000    22.9955000148   Al  0.0 0.0    6.99999947e-08  2.99999977e-08  1.42999989e-06
atom      3.8362837569     3.8362837569    22.9906271122   Al  0.0 0.0    1.77469987e-04  1.77409987e-04 -3.35664975e-04
atom      3.8778337610     0.0000000000    26.7886391110   Al  0.0 0.0   -1.85319986e-04 -3.99999970e-08  1.85224986e-04
atom      0.0000000000     3.8778337610    26.7886391110   Al  0.0 0.0    8.99999932e-08 -1.85319986e-04  1.85229986e-04
atom      0.0000000000     7.6709728571     0.0000000000   Al  0.0 0.0    9.99999925e-09 -1.42999989e-06  4.99999962e-09
atom      3.8332263095    11.5023285118     0.0000000000   Al  0.0 0.0   -3.45499974e-06  9.06849932e-05 -4.99999962e-08
atom      3.8362837569     7.6758457597     3.8362837569   Al  0.0 0.0    1.77544987e-04  3.35629975e-04  1.77474987e-04
atom      0.0000000000    11.5023285118     3.8332263095   Al  0.0 0.0   -5.49999959e-08  9.07899932e-05 -3.47999974e-06
atom      0.0000000000     7.6702521950     7.6702521950   Al  0.0 0.0   -5.99999955e-08  3.49249974e-04  3.49274974e-04
atom      3.8331373767    11.5000837260     7.6666151513   Al  0.0 0.0   -6.49599951e-05  6.54399951e-05 -9.49999929e-08
atom      3.8331373767     7.6666151513    11.5000837260   Al  0.0 0.0   -6.48949951e-05 -1.79999986e-07  6.54099951e-05
atom      0.0000000000    11.5002002586    11.5002002586   Al  0.0 0.0   -3.99999970e-08  2.53199981e-05  2.52549981e-05
atom      0.0000000000     7.6666120847    15.3332364360   Al  0.0 0.0   -4.99999962e-09 -1.69999987e-07 -9.99999925e-09
atom      3.8308895243    11.4999947932    15.3332364360   Al  0.0 0.0   -9.00649932e-05  3.85499971e-06 -4.99999962e-09
atom      3.8331373767     7.6666151513    19.1663891459   Al  0.0 0.0   -6.48999951e-05 -1.19999991e-07 -6.54299951e-05
atom      0.0000000000    11.5002002586    19.1662726133   Al  0.0 0.0    1.99999985e-08  2.52749981e-05 -2.52249981e-05
atom      0.0000000000     7.6702521950    22.9962206769   Al  0.0 0.0    6.49999951e-08  3.49249974e-04 -3.49324974e-04
atom      3.8331373767    11.5000837260    22.9998607872   Al  0.0 0.0   -6.49149951e-05  6.54399951e-05  1.19999991e-07
atom      3.8362837569     7.6758457597    26.8301921817   Al  0.0 0.0    1.77569987e-04  3.35669975e-04 -1.77469987e-04
atom      0.0000000000    11.5023285118    26.8332465624   Al  0.0 0.0    1.04999992e-07  9.07749932e-05  3.46499974e-06
atom      0.0000000000    15.3332364360     0.0000000000   Al  0.0 0.0    4.99999962e-09 -0.00000000e+00  2.99999977e-08
atom      3.8332263095    19.1641474268     0.0000000000   Al  0.0 0.0   -3.45999974e-06 -9.06899932e-05 -7.99999940e-08
atom      3.8330239108    15.3332364360     3.8330239108   Al  0.0 0.0   -2.49549981e-05 -4.99999962e-08 -2.48649981e-05
atom      0.0000000000    19.1641474268     3.8332263095   Al  0.0 0.0   -4.99999962e-08 -9.08049932e-05 -3.51999974e-06
atom      0.0000000000    15.3332364360     7.6666120847   Al  0.0 0.0   -4.99999962e-09 -4.99999962e-08 -1.34999990e-07
atom      3.8331373767    19.1663891459     7.6666151513   Al  0.0 0.0   -6.49799951e-05 -6.54549951e-05 -6.99999947e-08
atom      3.8308895243    15.3332364360    11.4999947932   Al  0.0 0.0   -9.00949932e-05 -5.99999955e-08  3.86499971e-06
atom      0.0000000000    19.1662726133    11.5002002586   Al  0.0 0.0    4.99999962e-09 -2.52549981e-05  2.52449981e-05
atom      0.0000000000    15.3332364360    15.3332364360   Al  0.0 0.0    3.49999974e-08 -1.99999985e-08 -3.49999974e-08
atom      3.8308895243    19.1664780787    15.3332364360   Al  0.0 0.0   -9.00449932e-05 -3.75999972e-06  6.99999947e-08
atom      3.8308895243    15.3332364360    19.1664780787   Al  0.0 0.0   -9.00399932e-05  2.49999981e-08 -3.82499971e-06
atom      0.0000000000    19.1662726133    19.1662726133   Al  0.0 0.0    6.49999951e-08 -2.52649981e-05 -2.52299981e-05
atom      0.0000000000    15.3332364360    22.9998607872   Al  0.0 0.0   -4.99999962e-09 -3.99999970e-08  1.44999989e-07
atom      3.8331373767    19.1663891459    22.9998607872   Al  0.0 0.0   -6.49449951e-05 -6.53349951e-05  9.49999929e-08
atom      3.8330239108    15.3332364360    26.8334489611   Al  0.0 0.0   -2.49499981e-05 -1.49999989e-08  2.49349981e-05
atom      0.0000000000    19.1641474268    26.8332465624   Al  0.0 0.0    8.99999932e-08 -9.07749932e-05  3.47499974e-06
atom      0.0000000000    22.9955000148     0.0000000000   Al  0.0 0.0    4.99999962e-09  1.44499989e-06  9.99999925e-09
atom      3.8778337610    26.7886391110     0.0000000000   Al  0.0 0.0   -1.85259986e-04  1.85289986e-04 -8.99999932e-08
atom      3.8362837569    22.9906271122     3.8362837569   Al  0.0 0.0    1.77519987e-04 -3.35629975e-04  1.77414987e-04
atom      0.0000000000    26.7886391110     3.8778337610   Al  0.0 0.0   -7.49999944e-08  1.85319986e-04 -1.85249986e-04
atom      0.0000000000    22.9962206769     7.6702521950   Al  0.0 0.0   -3.49999974e-08 -3.49264974e-04  3.49334974e-04
atom      3.8362837569    26.8301921817     7.6758457597   Al  0.0 0.0    1.77444987e-04 -1.77444987e-04  3.35754975e-04
atom      3.8331373767    22.9998607872    11.5000837260   Al  0.0 0.0   -6.49599951e-05  1.44999989e-07  6.55099951e-05
atom      0.0000000000    26.8332465624    11.5023285118   Al  0.0 0.0   -1.49999989e-08  3.54499973e-06  9.07549932e-05
atom      0.0000000000    22.9998607872    15.3332364360   Al  0.0 0.0    1.49999989e-08  1.89999986e-07 -2.49999981e-08
atom      3.8330239108    26.8334489611    15.3332364360   Al  0.0 0.0   -2.49649981e-05  2.49499981e-05  4.49999966e-08
atom      3.8331373767    22.9998607872    19.1663891459   Al  0.0 0.0   -6.49199951e-05  9.49999929e-08 -6.53899951e-05
atom      0.0000000000    26.8332465624    19.1641474268   Al  0.0 0.0    2.49999981e-08  3.57499973e-06 -9.07849932e-05
atom      0.0000000000    22.9962206769    22.9962206769   Al  0.0 0.0    8.49999936e-08 -3.49274974e-04 -3.49289974e-04
atom      3.8362837569    26.8301921817    22.9906271122   Al  0.0 0.0    1.77504987e-04 -1.77499987e-04 -3.35664975e-04
atom      3.8362837569    22.9906271122    26.8301921817   Al  0.0 0.0    1.77549987e-04 -3.35649975e-04 -1.77579987e-04
atom      0.0000000000    26.7886391110    26.7886391110   Al  0.0 0.0    7.99999940e-08  1.85349986e-04  1.85259986e-04
atom      7.6709728571     0.0000000000     0.0000000000   Al  0.0 0.0   -1.58499988e-06  2.99999977e-08 -4.99999962e-09
atom     11.5023285118     3.8332263095     0.0000000000   Al  0.0 0.0    9.07299932e-05 -3.41999974e-06  1.49999989e-08
atom     11.5023285118     0.0000000000     3.8332263095   Al  0.0 0.0    9.07899932e-05  5.99999955e-08 -3.43999974e-06
atom      7.6758457597     3.8362837569     3.8362837569   Al  0.0 0.0    3.35609975e-04  1.77559987e-04  1.77479987e-04
atom      7.6702521950     0.0000000000     7.6702521950   Al  0.0 0.0    3.49279974e-04  9.99999925e-09  3.49349974e-04
atom     11.5000837260     3.8331373767     7.6666151513   Al  0.0 0.0    6.54499951e-05 -6.49699951e-05 -9.49999929e-08
atom     11.5002002586     0.0000000000    11.5002002586   Al  0.0 0.0    2.53199981e-05  3.99999970e-08  2.52349981e-05
atom      7.6666151513     3.8331373767    11.5000837260   Al  0.0 0.0   -1.64999988e-07 -6.49099951e-05  6.55149951e-05
atom      7.6666120847     0.0000000000    15.3332364360   Al  0.0 0.0   -1.09999992e-07  1.99999985e-08  1.49999989e-08
atom     11.4999947932     3.8308895243    15.3332364360   Al  0.0 0.0    3.90499971e-06 -9.00349932e-05  1.99999985e-08
atom     11.5002002586     0.0000000000    19.1662726133   Al  0.0 0.0    2.53349981e-05 -1.49999989e-08 -2.52649981e-05
atom      7.6666151513     3.8331373767    19.1663891459   Al  0.0 0.0   -8.99999932e-08 -6.48949951e-05 -6.54049951e-05
atom      7.6702521950     0.0000000000    22.9962206769   Al  0.0 0.0    3.49179974e-04 -9.99999925e-09 -3.49319974e-04
atom     11.5000837260     3.8331373767    22.9998607872   Al  0.0 0.0    6.54099951e-05 -6.49649951e-05  3.49999974e-08
atom     11.5023285118     0.0000000000    26.8332465624   Al  0.0 0.0    9.07799932e-05 -1.99999985e-08  3.38999975e-06
atom      7.6758457597     3.8362837569    26.8301921817   Al  0.0 0.0    3.35599975e-04  1.77579987e-04 -1.77549987e-04
atom      7.6702521950     7.6702521950     0.0000000000   Al  0.0 0.0    3.49249974e-04  3.49364974e-04 -4.49999966e-08
atom     11.5002002586    11.5002002586     0.0000000000   Al  0.0 0.0    2.52999981e-05  2.52949981e-05  2.99999977e-08
atom     11.5000837260     7.6666151513     3.8331373767   Al  0.0 0.0    6.53999951e-05 -1.49999989e-08 -6.49699951e-05
atom      7.6666151513    11.5000837260     3.8331373767   Al  0.0 0.0   -1.49999989e-08  6.54249951e-05 -6.50099951e-05
atom      7.6666120847     7.6666120847     7.6666120847   Al  0.0 0.0   -5.99999955e-08 -1.99999985e-08 -1.49999989e-08
atom     11.4969404125    11.4969404125     7.6573814763   Al  0.0 0.0   -1.76999987e-04 -1.77044987e-04 -3.35864975e-04
atom     11.4969404125     7.6573814763    11.4969404125   Al  0.0 0.0   -1.77094987e-04 -3.35784975e-04 -1.77024987e-04
atom      7.6573814763    11.4969404125    11.4969404125   Al  0.0 0.0   -3.35769975e-04 -1.77089987e-04 -1.77069987e-04
atom      7.6629750410     7.6629750410    15.3332364360   Al  0.0 0.0   -3.49429974e-04 -3.49524974e-04  2.49999981e-08
atom     11.4553904084    11.4553904084    15.3332364360   Al  0.0 0.0    1.85609986e-04  1.85604986e-04  4.99999962e-09
atom     11.4969404125     7.6573814763    19.1695324594   Al  0.0 0.0   -1.77099987e-04 -3.35829975e-04  1.77059987e-04
atom      7.6573814763    11.4969404125    19.1695324594   Al  0.0 0.0   -3.35804975e-04 -1.77109987e-04  1.77124987e-04
atom      7.6666120847     7.6666120847    22.9998607872   Al  0.0 0.0   -4.99999962e-08 -3.49999974e-08  3.99999970e-08
atom     11.4969404125    11.4969404125    23.0090944622   Al  0.0 0.0   -1.77024987e-04 -1.76939987e-04  3.35849975e-04
atom     11.5000837260     7.6666151513    26.8333354952   Al  0.0 0.0    6.53799951e-05 -5.49999959e-08  6.49949951e-05
atom      7.6666151513    11.5000837260    26.8333354952   Al  0.0 0.0   -9.49999929e-08  6.53849951e-05  6.49699951e-05
atom      7.6666120847    15.3332364360     0.0000000000   Al  0.0 0.0   -4.49999966e-08 -2.49999981e-08 -1.49999989e-08
atom     11.5002002586    19.1662726133     0.0000000000   Al  0.0 0.0    2.53249981e-05 -2.52349981e-05 -5.99999955e-08
atom     11.4999947932    15.3332364360     3.8308895243   Al  0.0 0.0    4.04999970e-06 -9.99999925e-08 -9.00699932e-05
atom      7.6666151513    19.1663891459     3.8331373767   Al  0.0 0.0   -3.49999974e-08 -6.53949951e-05 -6.50399951e-05
atom      7.6629750410    15.3332364360     7.6629750410   Al  0.0 0.0   -3.49454974e-04 -4.49999966e-08 -3.49514974e-04
atom     11.4969404125    19.1695324594     7.6573814763   Al  0.0 0.0   -1.76944987e-04  1.77034987e-04 -3.35879975e-04
atom     11.4553904084    15.3332364360    11.4553904084   Al  0.0 0.0    1.85659986e-04 -4.99999962e-08  1.85619986e-04
atom      7.6573814763    19.1695324594    11.4969404125   Al  0.0 0.0   -3.35774975e-04  1.77139987e-04 -1.77044987e-04
atom      7.6622513122    15.3332364360    15.3332364360   Al  0.0 0.0    1.43999989e-06 -2.99999977e-08 -2.49999981e-08
atom     11.4553904084    19.2110824635    15.3332364360   Al  0.0 0.0    1.85599986e-04 -1.85514986e-04  6.99999947e-08
atom     11.4553904084    15.3332364360    19.2110824635   Al  0.0 0.0    1.85639986e-04  1.49999989e-08 -1.85499986e-04
atom      7.6573814763    19.1695324594    19.1695324594   Al  0.0 0.0   -3.35779975e-04  1.77144987e-04  1.77094987e-04
atom      7.6629750410    15.3332364360    23.0034978309   Al  0.0 0.0   -3.49334974e-04 -4.49999966e-08  3.49429974e-04
atom     11.4969404125    19.1695324594    23.0090944622   Al  0.0 0.0   -1.77034987e-04  1.77054987e-04  3.35834975e-04
atom     11.4999947932    15.3332364360    26.8355833476   Al  0.0 0.0    4.03999970e-06 -9.99999925e-09  8.99499932e-05
atom      7.6666151513    19.1663891459    26.8333354952   Al  0.0 0.0   -7.49999944e-08 -6.53549951e-05  6.49849951e-05
atom      7.6702521950    22.9962206769     0.0000000000   Al  0.0 0.0    3.49284974e-04 -3.49349974e-04 -3.99999970e-08
atom     11.5023285118    26.8332465624     0.0000000000   Al  0.0 0.0    9.07349932e-05  3.37499975e-06 -5.49999959e-08
atom     11.5000837260    22.9998607872     3.8331373767   Al  0.0 0.0    6.54099951e-05 -3.99999970e-08 -6.50349951e-05
atom      7.6758457597    26.8301921817     3.8362837569   Al  0.0 0.0    3.35619975e-04 -1.77594987e-04  1.77464987e-04
atom      7.6666120847    22.9998607872     7.6666120847   Al  0.0 0.0   -2.49999981e-08  5.49999959e-08 -1.99999985e-08
atom     11.5000837260    26.8333354952     7.6666151513   Al  0.0 0.0    6.54399951e-05  6.50449951e-05 -6.99999947e-08
atom     11.4969404125    23.0090944622    11.4969404125   Al  0.0 0.0   -1.77084987e-04  3.35769975e-04 -1.76919987e-04
atom      7.6666151513    26.8333354952    11.5000837260   Al  0.0 0.0   -1.74999987e-07  6.49299951e-05  6.54849951e-05
atom      7.6629750410    23.0034978309    15.3332364360   Al  0.0 0.0   -3.49414974e-04  3.49459974e-04  4.99999962e-09
atom     11.4999947932    26.8355833476    15.3332364360   Al  0.0 0.0    3.88999971e-06  8.99799932e-05  6.99999947e-08
atom     11.4969404125    23.0090944622    19.1695324594   Al  0.0 0.0   -1.77059987e-04  3.35784975e-04  1.77109987e-04
atom      7.6666151513    26.8333354952    19.1663891459   Al  0.0 0.0   -1.44999989e-07  6.49599951e-05 -6.53599951e-05
atom      7.6666120847    22.9998607872    22.9998607872   Al  0.0 0.0   -3.99999970e-08  6.99999947e-08  5.99999955e-08
atom     11.5000837260    26.8333354952    22.9998607872   Al  0.0 0.0    6.53799951e-05  6.49149951e-05  2.99999977e-08
atom     11.5000837260    22.9998607872    26.8333354952   Al  0.0 0.0    6.53949951e-05  4.99999962e-09  6.49499951e-05
atom      7.6758457597    26.8301921817    26.8301921817   Al  0.0 0.0    3.35574975e-04 -1.77599987e-04 -1.77544987e-04
atom     15.3332364360     0.0000000000     0.0000000000   Al  0.0 0.0   -1.99999985e-08  0.00000000e+00 -1.99999985e-08
atom     19.1641474268     3.8332263095     0.0000000000   Al  0.0 0.0   -9.07649932e-05 -3.36999975e-06  1.04999992e-07
atom     19.1641474268     0.0000000000     3.8332263095   Al  0.0 0.0   -9.07749932e-05  5.49999959e-08 -3.41999974e-06
atom     15.3332364360     3.8330239108     3.8330239108   Al  0.0 0.0    2.99999977e-08 -2.49499981e-05 -2.49149981e-05
atom     15.3332364360     0.0000000000     7.6666120847   Al  0.0 0.0   -2.99999977e-08 -4.99999962e-09 -3.99999970e-08
atom     19.1663891459     3.8331373767     7.6666151513   Al  0.0 0.0   -6.53899951e-05 -6.48949951e-05 -2.99999977e-08
atom     19.1662726133     0.0000000000    11.5002002586   Al  0.0 0.0   -2.52549981e-05  3.49999974e-08  2.52799981e-05
atom     15.3332364360     3.8308895243    11.4999947932   Al  0.0 0.0    4.99999962e-08 -9.00599932e-05  3.93999970e-06
atom     15.3332364360     0.0000000000    15.3332364360   Al  0.0 0.0   -2.49999981e-08  2.49999981e-08 -1.49999989e-08
atom     19.1664780787     3.8308895243    15.3332364360   Al  0.0 0.0   -3.85499971e-06 -8.99899932e-05 -1.44999989e-07
atom     19.1662726133     0.0000000000    19.1662726133   Al  0.0 0.0   -2.52599981e-05 -2.99999977e-08 -2.51849981e-05
atom     15.3332364360     3.8308895243    19.1664780787   Al  0.0 0.0   -1.09999992e-07 -9.00749932e-05 -3.92999970e-06
atom     15.3332364360     0.0000000000    22.9998607872   Al  0.0 0.0   -2.49999981e-08 -4.99999962e-09  4.99999962e-08
atom     19.1663891459     3.8331373767    22.9998607872   Al  0.0 0.0   -6.53899951e-05 -6.50249951e-05  5.49999959e-08
atom     19.1641474268     0.0000000000    26.8332465624   Al  0.0 0.0   -9.08299932e-05 -9.99999925e-09  3.38499975e-06
atom     15.3332364360     3.8330239108    26.8334489611   Al  0.0 0.0   -5.49999959e-08 -2.49349981e-05  2.49149981e-05
atom     15.3332364360     7.6666120847     0.0000000000   Al  0.0 0.0    1.49999989e-08 -4.99999962e-09 -1.49999989e-08
atom     19.1662726133    11.5002002586     0.0000000000   Al  0.0 0.0   -2.52549981e-05  2.52899981e-05  7.99999940e-08
atom     19.1663891459     7.6666151513     3.8331373767   Al  0.0 0.0   -6.53399951e-05 -3.99999970e-08 -6.49599951e-05
atom     15.3332364360    11.4999947932     3.8308895243   Al  0.0 0.0   -9.99999925e-09  4.05999969e-06 -9.00649932e-05
atom     15.3332364360     7.6629750410     7.6629750410   Al  0.0 0.0    5.99999955e-08 -3.49404974e-04 -3.49424974e-04
atom     19.1695324594    11.4969404125     7.6573814763   Al  0.0 0.0    1.77099987e-04 -1.77009987e-04 -3.35869975e-04
atom     19.1695324594     7.6573814763    11.4969404125   Al  0.0 0.0    1.77109987e-04 -3.35824975e-04 -1.77074987e-04
atom     15.3332364360    11.4553904084    11.4553904084   Al  0.0 0.0    2.99999977e-08  1.85639986e-04  1.85569986e-04
atom     15.3332364360     7.6622513122    15.3332364360   Al  0.0 0.0   -1.99999985e-08  1.26999990e-06 -1.99999985e-08
atom     19.2110824635    11.4553904084    15.3332364360   Al  0.0 0.0   -1.85519986e-04  1.85604986e-04 -1.34999990e-07
atom     19.1695324594     7.6573814763    19.1695324594   Al  0.0 0.0    1.77094987e-04 -3.35799975e-04  1.76999987e-04
atom     15.3332364360    11.4553904084    19.2110824635   Al  0.0 0.0   -6.99999947e-08  1.85614986e-04 -1.85509986e-04
atom     15.3332364360     7.6629750410    23.0034978309   Al  0.0 0.0   -7.99999940e-08 -3.49394974e-04  3.49424974e-04
atom     19.1695324594    11.4969404125    23.0090944622   Al  0.0 0.0    1.77034987e-04 -1.76949987e-04  3.35834975e-04
atom     19.1663891459     7.6666151513    26.8333354952   Al  0.0 0.0   -6.53949951e-05  0.00000000e+00  6.50499951e-05
atom     15.3332364360    11.4999947932    26.8355833476   Al  0.0 0.0   -5.99999955e-08  4.03499970e-06  9.00399932e-05
atom     15.3332364360    15.3332364360     0.0000000000   Al  0.0 0.0   -4.99999962e-09 -1.49999989e-08  1.49999989e-08
atom     19.1662726133    19.1662726133     0.0000000000   Al  0.0 0.0   -2.52599981e-05 -2.52799981e-05  9.99999925e-09
atom     19.1664780787    15.3332364360     3.8308895243   Al  0.0 0.0   -3.96999970e-06 -6.49999951e-08 -9.00099932e-05
atom     15.3332364360    19.1664780787     3.8308895243   Al  0.0 0.0   -1.99999985e-08 -3.98499970e-06 -9.00299932e-05
atom     15.3332364360    15.3332364360     7.6622513122   Al  0.0 0.0    9.99999925e-09 -1.49999989e-08  1.23999991e-06
atom     19.1695324594    19.1695324594     7.6573814763   Al  0.0 0.0    1.77064987e-04  1.76994987e-04 -3.35839975e-04
atom     19.2110824635    15.3332364360    11.4553904084   Al  0.0 0.0   -1.85589986e-04 -3.99999970e-08  1.85539986e-04
atom     15.3332364360    19.2110824635    11.4553904084   Al  0.0 0.0    4.49999966e-08 -1.85599986e-04  1.85534986e-04
atom     15.3332364360    15.3332364360    15.3332364360   Mg  0.0 0.0   -1.99999985e-08 -2.49999981e-08 -3.49999974e-08
atom     19.2110824635    19.2110824635    15.3332364360   Al  0.0 0.0   -1.85559986e-04 -1.85534986e-04 -5.99999955e-08
atom     19.2110824635    15.3332364360    19.2110824635   Al  0.0 0.0   -1.85629986e-04 -1.99999985e-08 -1.85564986e-04
atom     15.3332364360    19.2110824635    19.2110824635   Al  0.0 0.0   -7.99999940e-08 -1.85589986e-04 -1.85534986e-04
atom     15.3332364360    15.3332364360    23.0042215597   Al  0.0 0.0   -5.99999955e-08 -3.49999974e-08 -1.24999991e-06
atom     19.1695324594    19.1695324594    23.0090944622   Al  0.0 0.0    1.77044987e-04  1.77074987e-04  3.35819975e-04
atom     19.1664780787    15.3332364360    26.8355833476   Al  0.0 0.0   -4.03999970e-06 -9.99999925e-09  9.00349932e-05
atom     15.3332364360    19.1664780787    26.8355833476   Al  0.0 0.0   -9.49999929e-08 -4.00499970e-06  9.00999932e-05
atom     15.3332364360    22.9998607872     0.0000000000   Al  0.0 0.0   -1.99999985e-08  4.99999962e-09 -1.49999989e-08
atom     19.1641474268    26.8332465624     0.0000000000   Al  0.0 0.0   -9.07749932e-05  3.35499975e-06  2.49999981e-08
atom     19.1663891459    22.9998607872     3.8331373767   Al  0.0 0.0   -6.53199951e-05  1.99999985e-08 -6.50049951e-05
atom     15.3332364360    26.8334489611     3.8330239108   Al  0.0 0.0    1.49999989e-08  2.49399981e-05 -2.49199981e-05
atom     15.3332364360    23.0034978309     7.6629750410   Al  0.0 0.0    2.49999981e-08  3.49344974e-04 -3.49444974e-04
atom     19.1663891459    26.8333354952     7.6666151513   Al  0.0 0.0   -6.53449951e-05  6.49899951e-05 -2.49999981e-08
atom     19.1695324594    23.0090944622    11.4969404125   Al  0.0 0.0    1.77154987e-04  3.35799975e-04 -1.76949987e-04
atom     15.3332364360    26.8355833476    11.4999947932   Al  0.0 0.0    5.49999959e-08  9.00549932e-05  3.91999971e-06
atom     15.3332364360    23.0042215597    15.3332364360   Al  0.0 0.0   -2.49999981e-08 -1.31999990e-06 -2.49999981e-08
atom     19.1664780787    26.8355833476    15.3332364360   Al  0.0 0.0   -3.85999971e-06  8.99599932e-05 -6.99999947e-08
atom     19.1695324594    23.0090944622    19.1695324594   Al  0.0 0.0    1.77129987e-04  3.35734975e-04  1.77059987e-04
atom     15.3332364360    26.8355833476    19.1664780787   Al  0.0 0.0   -8.49999936e-08  9.00899932e-05 -3.90499971e-06
atom     15.3332364360    23.0034978309    23.0034978309   Al  0.0 0.0   -9.49999929e-08  3.49364974e-04  3.49379974e-04
atom     19.1663891459    26.8333354952    22.9998607872   Al  0.0 0.0   -6.54049951e-05  6.49849951e-05  6.99999947e-08
atom     19.1663891459    22.9998607872    26.8333354952   Al  0.0 0.0   -6.53199951e-05 -1.99999985e-08  6.49799951e-05
atom     15.3332364360    26.8334489611    26.8334489611   Al  0.0 0.0   -6.49999951e-08  2.49899981e-05  2.49299981e-05
atom     22.9955000148     0.0000000000     0.0000000000   Al  0.0 0.0    1.61499988e-06  4.99999962e-09  3.99999970e-08
atom     26.7886391110     3.8778337610     0.0000000000   Al  0.0 0.0    1.85284986e-04 -1.85254986e-04  1.34999990e-07
atom     26.7886391110     0.0000000000     3.8778337610   Al  0.0 0.0    1.85299986e-04  9.99999925e-09 -1.85234986e-04
atom     22.9906271122     3.8362837569     3.8362837569   Al  0.0 0.0   -3.35594975e-04  1.77584987e-04  1.77524987e-04
atom     22.9962206769     0.0000000000     7.6702521950   Al  0.0 0.0   -3.49169974e-04 -0.00000000e+00  3.49349974e-04
atom     26.8301921817     3.8362837569     7.6758457597   Al  0.0 0.0   -1.77509987e-04  1.77459987e-04  3.35724975e-04
atom     26.8332465624     0.0000000000    11.5023285118   Al  0.0 0.0    3.55499973e-06  2.49999981e-08  9.06499932e-05
atom     22.9998607872     3.8331373767    11.5000837260   Al  0.0 0.0    7.49999944e-08 -6.49199951e-05  6.54299951e-05
atom     22.9998607872     0.0000000000    15.3332364360   Al  0.0 0.0    1.44999989e-07 -4.99999962e-09 -1.49999989e-08
atom     26.8334489611     3.8330239108    15.3332364360   Al  0.0 0.0    2.49699981e-05 -2.49199981e-05 -6.49999951e-08
atom     26.8332465624     0.0000000000    19.1641474268   Al  0.0 0.0    3.57999973e-06 -2.99999977e-08 -9.07999932e-05
atom     22.9998607872     3.8331373767    19.1663891459   Al  0.0 0.0    1.09999992e-07 -6.49649951e-05 -6.54649951e-05
atom     22.9962206769     0.0000000000    22.9962206769   Al  0.0 0.0   -3.49329974e-04  1.49999989e-08 -3.49374974e-04
atom     26.8301921817     3.8362837569    22.9906271122   Al  0.0 0.0   -1.77444987e-04  1.77454987e-04 -3.35704975e-04
atom     26.7886391110     0.0000000000    26.7886391110   Al  0.0 0.0    1.85364986e-04 -3.49999974e-08  1.85324986e-04
atom     22.9906271122     3.8362837569    26.8301921817   Al  0.0 0.0   -3.35614975e-04  1.77554987e-04 -1.77534987e-04
atom     22.9962206769     7.6702521950     0.0000000000   Al  0.0 0.0   -3.49269974e-04  3.49354974e-04  3.99999970e-08
atom     26.8332465624    11.5023285118     0.0000000000   Al  0.0 0.0    3.43999974e-06  9.06699932e-05  1.04999992e-07
atom     26.8301921817     7.6758457597     3.8362837569   Al  0.0 0.0   -1.77554987e-04  3.35649975e-04  1.77509987e-04
atom     22.9998607872    11.5000837260     3.8331373767   Al  0.0 0.0    9.99999925e-09  6.54099951e-05 -6.49499951e-05
atom     22.9998607872     7.6666120847     7.6666120847   Al  0.0 0.0    5.49999959e-08 -1.99999985e-08 -4.99999962e-08
atom     26.8333354952    11.5000837260     7.6666151513   Al  0.0 0.0    6.49599951e-05  6.53499951e-05 -1.34999990e-07
atom     26.8333354952     7.6666151513    11.5000837260   Al  0.0 0.0    6.49299951e-05 -1.59999988e-07  6.54049951e-05
atom     23.0090944622    11.4969404125    11.4969404125   Al  0.0 0.0    3.35694975e-04 -1.77109987e-04 -1.77064987e-04
atom     23.0034978309     7.6629750410    15.3332364360   Al  0.0 0.0    3.49394974e-04 -3.49494974e-04 -6.49999951e-08
atom     26.8355833476    11.4999947932    15.3332364360   Al  0.0 0.0    9.00299932e-05  3.82499971e-06 -9.99999925e-08
atom     26.8333354952     7.6666151513    19.1663891459   Al  0.0 0.0    6.49549951e-05 -1.94999985e-07 -6.54599951e-05
atom     23.0090944622    11.4969404125    19.1695324594   Al  0.0 0.0    3.35729975e-04 -1.77099987e-04  1.77059987e-04
atom     22.9998607872     7.6666120847    22.9998607872   Al  0.0 0.0    4.99999962e-08 -3.49999974e-08  5.49999959e-08
atom     26.8333354952    11.5000837260    22.9998607872   Al  0.0 0.0    6.50149951e-05  6.54899951e-05  5.99999955e-08
atom     26.8301921817     7.6758457597    26.8301921817   Al  0.0 0.0   -1.77574987e-04  3.35649975e-04 -1.77409987e-04
atom     22.9998607872    11.5000837260    26.8333354952   Al  0.0 0.0   -0.00000000e+00  6.53849951e-05  6.50299951e-05
atom     22.9998607872    15.3332364360     0.0000000000   Al  0.0 0.0    2.99999977e-08 -1.49999989e-08  5.49999959e-08
atom     26.8332465624    19.1641474268     0.0000000000   Al  0.0 0.0    3.45499974e-06 -9.07299932e-05  5.49999959e-08
atom     26.8334489611    15.3332364360     3.8330239108   Al  0.0 0.0    2.49699981e-05 -3.99999970e-08 -2.49299981e-05
atom     22.9998607872    19.1663891459     3.8331373767   Al  0.0 0.0    2.99999977e-08 -6.53549951e-05 -6.49549951e-05
atom     23.0034978309    15.3332364360     7.6629750410   Al  0.0 0.0    3.49264974e-04 -1.49999989e-08 -3.49479974e-04
atom     26.8333354952    19.1663891459     7.6666151513   Al  0.0 0.0    6.49449951e-05 -6.54049951e-05 -1.09999992e-07
atom     26.8355833476    15.3332364360    11.4999947932   Al  0.0 0.0    9.00799932e-05 -5.99999955e-08  3.86999971e-06
atom     23.0090944622    19.1695324594    11.4969404125   Al  0.0 0.0    3.35734975e-04  1.77164987e-04 -1.77079987e-04
atom     23.0042215597    15.3332364360    15.3332364360   Al  0.0 0.0   -1.46499989e-06 -4.99999962e-08 -4.99999962e-08
atom     26.8355833476    19.1664780787    15.3332364360   Al  0.0 0.0    9.00499932e-05 -3.79499971e-06 -2.99999977e-08
atom     26.8355833476    15.3332364360    19.1664780787   Al  0.0 0.0    9.00849932e-05  2.49999981e-08 -3.77999972e-06
atom     23.0090944622    19.1695324594    19.1695324594   Al  0.0 0.0    3.35739975e-04  1.77159987e-04  1.77079987e-04
atom     23.0034978309    15.3332364360    23.0034978309   Al  0.0 0.0    3.49384974e-04 -2.99999977e-08  3.49459974e-04
atom     26.8333354952    19.1663891459    22.9998607872   Al  0.0 0.0    6.50099951e-05 -6.54049951e-05  3.99999970e-08
atom     26.8334489611    15.3332364360    26.8334489611   Al  0.0 0.0    2.49899981e-05  4.99999962e-09  2.49099981e-05
atom     22.9998607872    19.1663891459    26.8333354952   Al  0.0 0.0   -3.49999974e-08 -6.53249951e-05  6.50649951e-05
atom     22.9962206769    22.9962206769     0.0000000000   Al  0.0 0.0   -3.49319974e-04 -3.49394974e-04  4.99999962e-08
atom     26.7886391110    26.7886391110     0.0000000000   Al  0.0 0.0    1.85319986e-04  1.85319986e-04  3.99999970e-08
atom     26.8301921817    22.9906271122     3.8362837569   Al  0.0 0.0   -1.77609987e-04 -3.35614975e-04  1.77454987e-04
atom     22.9906271122    26.8301921817     3.8362837569   Al  0.0 0.0   -3.35574975e-04 -1.77619987e-04  1.77544987e-04
atom     22.9998607872    22.9998607872     7.6666120847   Al  0.0 0.0    3.99999970e-08  4.99999962e-08 -5.99999955e-08
atom     26.8301921817    26.8301921817     7.6758457597   Al  0.0 0.0   -1.77494987e-04 -1.77424987e-04  3.35684975e-04