
     Program PWSCF v.6.3 starts on 22Feb2020 at 11:25:15 

     This program is part of the open-source Quantum ESPRESSO suite
     for quantum simulation of materials; please cite
         "P. Giannozzi et al., J. Phys.:Condens. Matter 21 395502 (2009);
         "P. Giannozzi et al., J. Phys.:Condens. Matter 29 465901 (2017);
          URL http://www.quantum-espresso.org", 
     in publications or presentations arising from this work. More details at
     http://www.quantum-espresso.org/quote

 *** WARNING: using old-style file format, will disappear from next version ***

     Parallel version (MPI & OpenMP), running on      36 processor cores
     Number of MPI processes:                36
     Threads/MPI process:                     1

     MPI processes distributed on     1 nodes
     K-points division:     npool     =       4
     R & G space division:  proc/nbgrp/npool/nimage =       9
     Reading input from aiida.in
Warning: card &IONS ignored
Warning: card   !PRESS_CONV_THR = 0.05                 ! JUST FOR VOLUME RELAXATIONS ignored
Warning: card / ignored

     Current dimensions of program PWSCF are:
     Max number of different atomic species (ntypx) = 10
     Max number of k-points (npk) =  40000
     Max angular momentum in pseudopotentials (lmaxx) =  3
               file Mg.pbe-n-kjpaw_psl.0.3.0.UPF: wavefunction(s)  3S renormalized

     Subspace diagonalization in iterative solution of the eigenvalue problem:
     one sub-group per band group will be used
     scalapack distributed-memory algorithm (size of sub-group:  2*  2 procs)

     Found symmetry operation: I + ( -0.5000  0.5000  0.0000)
     This is a supercell, fractional translations are disabled
 
     Parallelization info
     --------------------
     sticks:   dense  smooth     PW     G-vecs:    dense   smooth      PW
     Min         781     312     90                40814    10335    1614
     Max         782     313     91                40815    10338    1616
     Sum        7031    2813    815               367329    93023   14533
 


     bravais-lattice index     =            0
     lattice parameter (alat)  =      28.6012  a.u.
     unit-cell volume          =    2717.6459 (a.u.)^3
     number of atoms/cell      =           22
     number of atomic types    =            2
     number of electrons       =        68.00
     number of Kohn-Sham states=           41
     kinetic-energy cutoff     =      40.0000  Ry
     charge density cutoff     =     400.0000  Ry
     convergence threshold     =      1.0E-12
     mixing beta               =       0.4000
     number of iterations used =            8  local-TF  mixing
     Exchange-correlation      = PBE ( 1  4  3  4 0 0)

     celldm(1)=  28.601187  celldm(2)=   0.000000  celldm(3)=   0.000000
     celldm(4)=   0.000000  celldm(5)=   0.000000  celldm(6)=   0.000000

     crystal axes: (cart. coord. in units of alat)
               a(1) = (   0.940296   0.000000  -0.340358 )  
               a(2) = (   0.000000   0.269614   0.000000 )  
               a(3) = (   0.000000   0.000000   0.458178 )  

     reciprocal axes: (cart. coord. in units 2 pi/alat)
               b(1) = (  1.063495  0.000000  0.000000 )  
               b(2) = (  0.000000  3.709010  0.000000 )  
               b(3) = (  0.790018  0.000000  2.182559 )  


     PseudoPot. # 1 for Mg read from file:
     /users/aglensk/Dropbox/Albert/scripts/dotfiles/scripts/potentials/quantum_espresso/pseudo_SSSPefV1.1_alalloy/Mg.pbe-n-kjpaw_psl.0.3.0.UPF
     MD5 check sum: 24ecedc7f3e3cbe212e682f4413594e4
     Pseudo is Projector augmented-wave + core cor, Zval =  2.0
     Generated using "atomic" code by A. Dal Corso v.5.0.99 svn rev. 10869
     Shape of augmentation charge: PSQ
     Using radial grid of 1129 points,  4 beta functions with: 
                l(1) =   0
                l(2) =   0
                l(3) =   1
                l(4) =   1
     Q(r) pseudized with 0 coefficients 


     PseudoPot. # 2 for Si read from file:
     /users/aglensk/Dropbox/Albert/scripts/dotfiles/scripts/potentials/quantum_espresso/pseudo_SSSPefV1.1_alalloy/Si.pbe-n-rrkjus_psl.1.0.0.UPF
     MD5 check sum: 0b0bb1205258b0d07b9f9672cf965d36
     Pseudo is Ultrasoft + core correction, Zval =  4.0
     Generated using "atomic" code by A. Dal Corso v.5.1
     Using radial grid of 1141 points,  6 beta functions with: 
                l(1) =   0
                l(2) =   0
                l(3) =   1
                l(4) =   1
                l(5) =   2
                l(6) =   2
     Q(r) pseudized with 0 coefficients 


     atomic species   valence    mass     pseudopotential
        Mg             2.00    24.30500     Mg( 1.00)
        Si             4.00    28.08500     Si( 1.00)

     No symmetry found


                                    s                        frac. trans.

      isym =  1     identity                                     

 cryst.   s( 1) = (     1          0          0      )
                  (     0          1          0      )
                  (     0          0          1      )

 cart.    s( 1) = (  1.0000000  0.0000000  0.0000000 )
                  (  0.0000000  1.0000000  0.0000000 )
                  ( -0.0000000  0.0000000  1.0000000 )


   Cartesian axes

     site n.     atom                  positions (alat units)
         1           Mg  tau(   1) = (   0.0013286   0.0000000   0.4524591  )
         2           Mg  tau(   2) = (   0.0746390   0.1348069   0.1386953  )
         3           Mg  tau(   3) = (   0.1485143   0.1348069   0.3686839  )
         4           Mg  tau(   4) = (   0.3242904   0.0000000  -0.0921259  )
         5           Mg  tau(   5) = (   0.3981625   0.0000000   0.1378681  )
         6           Si  tau(   6) = (   0.0555806   0.0000000   0.2813022  )
         7           Si  tau(   7) = (   0.1823688   0.0000000   0.0469662  )
         8           Si  tau(   8) = (   0.1980228   0.0000000   0.2126121  )
         9           Si  tau(   9) = (   0.2747753   0.1348069   0.0639490  )
        10           Si  tau(  10) = (   0.2904303   0.1348069   0.2295943  )
        11           Si  tau(  11) = (   0.4172165   0.1348069  -0.0047418  )
        12           Mg  tau(  12) = (   0.4714767   0.1348069   0.2822804  )
        13           Mg  tau(  13) = (   0.5447871   0.0000000  -0.0314835  )
        14           Mg  tau(  14) = (   0.6186624   0.0000000   0.1985051  )
        15           Mg  tau(  15) = (   0.7944384   0.1348069  -0.2623046  )
        16           Mg  tau(  16) = (   0.8683105   0.1348069  -0.0323107  )
        17           Si  tau(  17) = (   0.5257286   0.1348069   0.1111234  )
        18           Si  tau(  18) = (   0.6525168   0.1348069  -0.1232125  )
        19           Si  tau(  19) = (   0.6681708   0.1348069   0.0424334  )
        20           Si  tau(  20) = (   0.7449234   0.0000000  -0.1062298  )
        21           Si  tau(  21) = (   0.7605783   0.0000000   0.0594155  )
        22           Si  tau(  22) = (   0.8873646   0.0000000  -0.1749205  )

   Crystallographic axes

     site n.     atom                  positions (cryst. coord.)
         1           Mg  tau(   1) = (  0.0014129  0.0000000  0.9885682  )
         2           Mg  tau(   2) = (  0.0793782  0.4999999  0.3616767  )
         3           Mg  tau(   3) = (  0.1579441  0.4999999  0.9220031  )
         4           Mg  tau(   4) = (  0.3448812  0.0000000  0.0551250  )
         5           Mg  tau(   5) = (  0.4234438  0.0000000  0.6154605  )
         6           Si  tau(   6) = (  0.0591097  0.0000000  0.6578682  )
         7           Si  tau(   7) = (  0.1939482  0.0000000  0.2465811  )
         8           Si  tau(   8) = (  0.2105962  0.0000000  0.6204799  )
         9           Si  tau(   9) = (  0.2922221  0.4999999  0.3566498  )
        10           Si  tau(  10) = (  0.3088711  0.4999999  0.7305481  )
        11           Si  tau(  11) = (  0.4437076  0.4999999  0.3192592  )
        12           Mg  tau(  12) = (  0.5014131  0.4999999  0.9885683  )
        13           Mg  tau(  13) = (  0.5793783  0.0000000  0.3616767  )
        14           Mg  tau(  14) = (  0.6579442  0.0000000  0.9220031  )
        15           Mg  tau(  15) = (  0.8448811  0.4999999  0.0551250  )
        16           Mg  tau(  16) = (  0.9234437  0.4999999  0.6154604  )
        17           Si  tau(  17) = (  0.5591097  0.4999999  0.6578682  )
        18           Si  tau(  18) = (  0.6939482  0.4999999  0.2465811  )
        19           Si  tau(  19) = (  0.7105962  0.4999999  0.6204800  )
        20           Si  tau(  20) = (  0.7922221  0.0000000  0.3566498  )
        21           Si  tau(  21) = (  0.8088711  0.0000000  0.7305481  )
        22           Si  tau(  22) = (  0.9437076  0.0000000  0.3192592  )

     number of k points=   782  Methfessel-Paxton smearing, width (Ry)=  0.0441
                       cart. coord. in units 2pi/alat
        k(    1) = (   0.0000000   0.0000000   0.0000000), wk =   0.0012821
        k(    2) = (   0.0607706   0.0000000   0.1678891), wk =   0.0025641
        k(    3) = (   0.1215412   0.0000000   0.3357783), wk =   0.0025641
        k(    4) = (   0.1823117   0.0000000   0.5036674), wk =   0.0025641
        k(    5) = (   0.2430823   0.0000000   0.6715566), wk =   0.0025641
        k(    6) = (   0.3038529   0.0000000   0.8394457), wk =   0.0025641
        k(    7) = (   0.3646235   0.0000000   1.0073348), wk =   0.0025641
        k(    8) = (   0.0000000   0.1854505   0.0000000), wk =   0.0025641
        k(    9) = (   0.0607706   0.1854505   0.1678891), wk =   0.0025641
        k(   10) = (   0.1215412   0.1854505   0.3357783), wk =   0.0025641
        k(   11) = (   0.1823117   0.1854505   0.5036674), wk =   0.0025641
        k(   12) = (   0.2430823   0.1854505   0.6715566), wk =   0.0025641
        k(   13) = (   0.3038529   0.1854505   0.8394457), wk =   0.0025641
        k(   14) = (   0.3646235   0.1854505   1.0073348), wk =   0.0025641
        k(   15) = (  -0.3646235   0.1854505  -1.0073348), wk =   0.0025641
        k(   16) = (  -0.3038529   0.1854505  -0.8394457), wk =   0.0025641
        k(   17) = (  -0.2430823   0.1854505  -0.6715566), wk =   0.0025641
        k(   18) = (  -0.1823117   0.1854505  -0.5036674), wk =   0.0025641
        k(   19) = (  -0.1215412   0.1854505  -0.3357783), wk =   0.0025641
        k(   20) = (  -0.0607706   0.1854505  -0.1678891), wk =   0.0025641
        k(   21) = (   0.0000000   0.3709010   0.0000000), wk =   0.0025641
        k(   22) = (   0.0607706   0.3709010   0.1678891), wk =   0.0025641
        k(   23) = (   0.1215412   0.3709010   0.3357783), wk =   0.0025641
        k(   24) = (   0.1823117   0.3709010   0.5036674), wk =   0.0025641
        k(   25) = (   0.2430823   0.3709010   0.6715566), wk =   0.0025641
        k(   26) = (   0.3038529   0.3709010   0.8394457), wk =   0.0025641
        k(   27) = (   0.3646235   0.3709010   1.0073348), wk =   0.0025641
        k(   28) = (  -0.3646235   0.3709010  -1.0073348), wk =   0.0025641
        k(   29) = (  -0.3038529   0.3709010  -0.8394457), wk =   0.0025641
        k(   30) = (  -0.2430823   0.3709010  -0.6715566), wk =   0.0025641
        k(   31) = (  -0.1823117   0.3709010  -0.5036674), wk =   0.0025641
        k(   32) = (  -0.1215412   0.3709010  -0.3357783), wk =   0.0025641
        k(   33) = (  -0.0607706   0.3709010  -0.1678891), wk =   0.0025641
        k(   34) = (   0.0000000   0.5563515   0.0000000), wk =   0.0025641
        k(   35) = (   0.0607706   0.5563515   0.1678891), wk =   0.0025641
        k(   36) = (   0.1215412   0.5563515   0.3357783), wk =   0.0025641
        k(   37) = (   0.1823117   0.5563515   0.5036674), wk =   0.0025641
        k(   38) = (   0.2430823   0.5563515   0.6715566), wk =   0.0025641
        k(   39) = (   0.3038529   0.5563515   0.8394457), wk =   0.0025641
        k(   40) = (   0.3646235   0.5563515   1.0073348), wk =   0.0025641
        k(   41) = (  -0.3646235   0.5563515  -1.0073348), wk =   0.0025641
        k(   42) = (  -0.3038529   0.5563515  -0.8394457), wk =   0.0025641
        k(   43) = (  -0.2430823   0.5563515  -0.6715566), wk =   0.0025641
        k(   44) = (  -0.1823117   0.5563515  -0.5036674), wk =   0.0025641
        k(   45) = (  -0.1215412   0.5563515  -0.3357783), wk =   0.0025641
        k(   46) = (  -0.0607706   0.5563515  -0.1678891), wk =   0.0025641
        k(   47) = (   0.0000000   0.7418019   0.0000000), wk =   0.0025641
        k(   48) = (   0.0607706   0.7418019   0.1678891), wk =   0.0025641
        k(   49) = (   0.1215412   0.7418019   0.3357783), wk =   0.0025641
        k(   50) = (   0.1823117   0.7418019   0.5036674), wk =   0.0025641
        k(   51) = (   0.2430823   0.7418019   0.6715566), wk =   0.0025641
        k(   52) = (   0.3038529   0.7418019   0.8394457), wk =   0.0025641
        k(   53) = (   0.3646235   0.7418019   1.0073348), wk =   0.0025641
        k(   54) = (  -0.3646235   0.7418019  -1.0073348), wk =   0.0025641
        k(   55) = (  -0.3038529   0.7418019  -0.8394457), wk =   0.0025641
        k(   56) = (  -0.2430823   0.7418019  -0.6715566), wk =   0.0025641
        k(   57) = (  -0.1823117   0.7418019  -0.5036674), wk =   0.0025641
        k(   58) = (  -0.1215412   0.7418019  -0.3357783), wk =   0.0025641
        k(   59) = (  -0.0607706   0.7418019  -0.1678891), wk =   0.0025641
        k(   60) = (   0.0000000   0.9272524   0.0000000), wk =   0.0025641
        k(   61) = (   0.0607706   0.9272524   0.1678891), wk =   0.0025641
        k(   62) = (   0.1215412   0.9272524   0.3357783), wk =   0.0025641
        k(   63) = (   0.1823117   0.9272524   0.5036674), wk =   0.0025641
        k(   64) = (   0.2430823   0.9272524   0.6715566), wk =   0.0025641
        k(   65) = (   0.3038529   0.9272524   0.8394457), wk =   0.0025641
        k(   66) = (   0.3646235   0.9272524   1.0073348), wk =   0.0025641
        k(   67) = (  -0.3646235   0.9272524  -1.0073348), wk =   0.0025641
        k(   68) = (  -0.3038529   0.9272524  -0.8394457), wk =   0.0025641
        k(   69) = (  -0.2430823   0.9272524  -0.6715566), wk =   0.0025641
        k(   70) = (  -0.1823117   0.9272524  -0.5036674), wk =   0.0025641
        k(   71) = (  -0.1215412   0.9272524  -0.3357783), wk =   0.0025641
        k(   72) = (  -0.0607706   0.9272524  -0.1678891), wk =   0.0025641
        k(   73) = (   0.0000000   1.1127029   0.0000000), wk =   0.0025641
        k(   74) = (   0.0607706   1.1127029   0.1678891), wk =   0.0025641
        k(   75) = (   0.1215412   1.1127029   0.3357783), wk =   0.0025641
        k(   76) = (   0.1823117   1.1127029   0.5036674), wk =   0.0025641
        k(   77) = (   0.2430823   1.1127029   0.6715566), wk =   0.0025641
        k(   78) = (   0.3038529   1.1127029   0.8394457), wk =   0.0025641
        k(   79) = (   0.3646235   1.1127029   1.0073348), wk =   0.0025641
        k(   80) = (  -0.3646235   1.1127029  -1.0073348), wk =   0.0025641
        k(   81) = (  -0.3038529   1.1127029  -0.8394457), wk =   0.0025641
        k(   82) = (  -0.2430823   1.1127029  -0.6715566), wk =   0.0025641
        k(   83) = (  -0.1823117   1.1127029  -0.5036674), wk =   0.0025641
        k(   84) = (  -0.1215412   1.1127029  -0.3357783), wk =   0.0025641
        k(   85) = (  -0.0607706   1.1127029  -0.1678891), wk =   0.0025641
        k(   86) = (   0.0000000   1.2981534   0.0000000), wk =   0.0025641
        k(   87) = (   0.0607706   1.2981534   0.1678891), wk =   0.0025641
        k(   88) = (   0.1215412   1.2981534   0.3357783), wk =   0.0025641
        k(   89) = (   0.1823117   1.2981534   0.5036674), wk =   0.0025641
        k(   90) = (   0.2430823   1.2981534   0.6715566), wk =   0.0025641
        k(   91) = (   0.3038529   1.2981534   0.8394457), wk =   0.0025641
        k(   92) = (   0.3646235   1.2981534   1.0073348), wk =   0.0025641
        k(   93) = (  -0.3646235   1.2981534  -1.0073348), wk =   0.0025641
        k(   94) = (  -0.3038529   1.2981534  -0.8394457), wk =   0.0025641
        k(   95) = (  -0.2430823   1.2981534  -0.6715566), wk =   0.0025641
        k(   96) = (  -0.1823117   1.2981534  -0.5036674), wk =   0.0025641
        k(   97) = (  -0.1215412   1.2981534  -0.3357783), wk =   0.0025641
        k(   98) = (  -0.0607706   1.2981534  -0.1678891), wk =   0.0025641
        k(   99) = (   0.0000000   1.4836039   0.0000000), wk =   0.0025641
        k(  100) = (   0.0607706   1.4836039   0.1678891), wk =   0.0025641
        k(  101) = (   0.1215412   1.4836039   0.3357783), wk =   0.0025641
        k(  102) = (   0.1823117   1.4836039   0.5036674), wk =   0.0025641
        k(  103) = (   0.2430823   1.4836039   0.6715566), wk =   0.0025641
        k(  104) = (   0.3038529   1.4836039   0.8394457), wk =   0.0025641
        k(  105) = (   0.3646235   1.4836039   1.0073348), wk =   0.0025641
        k(  106) = (  -0.3646235   1.4836039  -1.0073348), wk =   0.0025641
        k(  107) = (  -0.3038529   1.4836039  -0.8394457), wk =   0.0025641
        k(  108) = (  -0.2430823   1.4836039  -0.6715566), wk =   0.0025641
        k(  109) = (  -0.1823117   1.4836039  -0.5036674), wk =   0.0025641
        k(  110) = (  -0.1215412   1.4836039  -0.3357783), wk =   0.0025641
        k(  111) = (  -0.0607706   1.4836039  -0.1678891), wk =   0.0025641
        k(  112) = (   0.0000000   1.6690544   0.0000000), wk =   0.0025641
        k(  113) = (   0.0607706   1.6690544   0.1678891), wk =   0.0025641
        k(  114) = (   0.1215412   1.6690544   0.3357783), wk =   0.0025641
        k(  115) = (   0.1823117   1.6690544   0.5036674), wk =   0.0025641
        k(  116) = (   0.2430823   1.6690544   0.6715566), wk =   0.0025641
        k(  117) = (   0.3038529   1.6690544   0.8394457), wk =   0.0025641
        k(  118) = (   0.3646235   1.6690544   1.0073348), wk =   0.0025641
        k(  119) = (  -0.3646235   1.6690544  -1.0073348), wk =   0.0025641
        k(  120) = (  -0.3038529   1.6690544  -0.8394457), wk =   0.0025641
        k(  121) = (  -0.2430823   1.6690544  -0.6715566), wk =   0.0025641
        k(  122) = (  -0.1823117   1.6690544  -0.5036674), wk =   0.0025641
        k(  123) = (  -0.1215412   1.6690544  -0.3357783), wk =   0.0025641
        k(  124) = (  -0.0607706   1.6690544  -0.1678891), wk =   0.0025641
        k(  125) = (   0.0000000  -1.8545049   0.0000000), wk =   0.0012821
        k(  126) = (   0.0607706  -1.8545049   0.1678891), wk =   0.0025641
        k(  127) = (   0.1215412  -1.8545049   0.3357783), wk =   0.0025641
        k(  128) = (   0.1823117  -1.8545049   0.5036674), wk =   0.0025641
        k(  129) = (   0.2430823  -1.8545049   0.6715566), wk =   0.0025641
        k(  130) = (   0.3038529  -1.8545049   0.8394457), wk =   0.0025641
        k(  131) = (   0.3646235  -1.8545049   1.0073348), wk =   0.0025641
        k(  132) = (   0.1772491   0.0000000   0.0000000), wk =   0.0025641
        k(  133) = (   0.2380197   0.0000000   0.1678891), wk =   0.0025641
        k(  134) = (   0.2987903   0.0000000   0.3357783), wk =   0.0025641
        k(  135) = (   0.3595609   0.0000000   0.5036674), wk =   0.0025641
        k(  136) = (   0.4203314   0.0000000   0.6715566), wk =   0.0025641
        k(  137) = (   0.4811020   0.0000000   0.8394457), wk =   0.0025641
        k(  138) = (   0.5418726   0.0000000   1.0073348), wk =   0.0025641
        k(  139) = (  -0.1873743   0.0000000  -1.0073348), wk =   0.0025641
        k(  140) = (  -0.1266038   0.0000000  -0.8394457), wk =   0.0025641
        k(  141) = (  -0.0658332   0.0000000  -0.6715566), wk =   0.0025641
        k(  142) = (  -0.0050626   0.0000000  -0.5036674), wk =   0.0025641
        k(  143) = (   0.0557080   0.0000000  -0.3357783), wk =   0.0025641
        k(  144) = (   0.1164786   0.0000000  -0.1678891), wk =   0.0025641
        k(  145) = (   0.1772491   0.1854505   0.0000000), wk =   0.0025641
        k(  146) = (   0.2380197   0.1854505   0.1678891), wk =   0.0025641
        k(  147) = (   0.2987903   0.1854505   0.3357783), wk =   0.0025641
        k(  148) = (   0.3595609   0.1854505   0.5036674), wk =   0.0025641
        k(  149) = (   0.4203314   0.1854505   0.6715566), wk =   0.0025641
        k(  150) = (   0.4811020   0.1854505   0.8394457), wk =   0.0025641
        k(  151) = (   0.5418726   0.1854505   1.0073348), wk =   0.0025641
        k(  152) = (  -0.1873743   0.1854505  -1.0073348), wk =   0.0025641
        k(  153) = (  -0.1266038   0.1854505  -0.8394457), wk =   0.0025641
        k(  154) = (  -0.0658332   0.1854505  -0.6715566), wk =   0.0025641
        k(  155) = (  -0.0050626   0.1854505  -0.5036674), wk =   0.0025641
        k(  156) = (   0.0557080   0.1854505  -0.3357783), wk =   0.0025641
        k(  157) = (   0.1164786   0.1854505  -0.1678891), wk =   0.0025641
        k(  158) = (   0.1772491   0.3709010   0.0000000), wk =   0.0025641
        k(  159) = (   0.2380197   0.3709010   0.1678891), wk =   0.0025641
        k(  160) = (   0.2987903   0.3709010   0.3357783), wk =   0.0025641
        k(  161) = (   0.3595609   0.3709010   0.5036674), wk =   0.0025641
        k(  162) = (   0.4203314   0.3709010   0.6715566), wk =   0.0025641
        k(  163) = (   0.4811020   0.3709010   0.8394457), wk =   0.0025641
        k(  164) = (   0.5418726   0.3709010   1.0073348), wk =   0.0025641
        k(  165) = (  -0.1873743   0.3709010  -1.0073348), wk =   0.0025641
        k(  166) = (  -0.1266038   0.3709010  -0.8394457), wk =   0.0025641
        k(  167) = (  -0.0658332   0.3709010  -0.6715566), wk =   0.0025641
        k(  168) = (  -0.0050626   0.3709010  -0.5036674), wk =   0.0025641
        k(  169) = (   0.0557080   0.3709010  -0.3357783), wk =   0.0025641
        k(  170) = (   0.1164786   0.3709010  -0.1678891), wk =   0.0025641
        k(  171) = (   0.1772491   0.5563515   0.0000000), wk =   0.0025641
        k(  172) = (   0.2380197   0.5563515   0.1678891), wk =   0.0025641
        k(  173) = (   0.2987903   0.5563515   0.3357783), wk =   0.0025641
        k(  174) = (   0.3595609   0.5563515   0.5036674), wk =   0.0025641
        k(  175) = (   0.4203314   0.5563515   0.6715566), wk =   0.0025641
        k(  176) = (   0.4811020   0.5563515   0.8394457), wk =   0.0025641
        k(  177) = (   0.5418726   0.5563515   1.0073348), wk =   0.0025641
        k(  178) = (  -0.1873743   0.5563515  -1.0073348), wk =   0.0025641
        k(  179) = (  -0.1266038   0.5563515  -0.8394457), wk =   0.0025641
        k(  180) = (  -0.0658332   0.5563515  -0.6715566), wk =   0.0025641
        k(  181) = (  -0.0050626   0.5563515  -0.5036674), wk =   0.0025641
        k(  182) = (   0.0557080   0.5563515  -0.3357783), wk =   0.0025641
        k(  183) = (   0.1164786   0.5563515  -0.1678891), wk =   0.0025641
        k(  184) = (   0.1772491   0.7418019   0.0000000), wk =   0.0025641
        k(  185) = (   0.2380197   0.7418019   0.1678891), wk =   0.0025641
        k(  186) = (   0.2987903   0.7418019   0.3357783), wk =   0.0025641
        k(  187) = (   0.3595609   0.7418019   0.5036674), wk =   0.0025641
        k(  188) = (   0.4203314   0.7418019   0.6715566), wk =   0.0025641
        k(  189) = (   0.4811020   0.7418019   0.8394457), wk =   0.0025641
        k(  190) = (   0.5418726   0.7418019   1.0073348), wk =   0.0025641
        k(  191) = (  -0.1873743   0.7418019  -1.0073348), wk =   0.0025641
        k(  192) = (  -0.1266038   0.7418019  -0.8394457), wk =   0.0025641
        k(  193) = (  -0.0658332   0.7418019  -0.6715566), wk =   0.0025641
        k(  194) = (  -0.0050626   0.7418019  -0.5036674), wk =   0.0025641
        k(  195) = (   0.0557080   0.7418019  -0.3357783), wk =   0.0025641
        k(  196) = (   0.1164786   0.7418019  -0.1678891), wk =   0.0025641
        k(  197) = (   0.1772491   0.9272524   0.0000000), wk =   0.0025641
        k(  198) = (   0.2380197   0.9272524   0.1678891), wk =   0.0025641
        k(  199) = (   0.2987903   0.9272524   0.3357783), wk =   0.0025641
        k(  200) = (   0.3595609   0.9272524   0.5036674), wk =   0.0025641
        k(  201) = (   0.4203314   0.9272524   0.6715566), wk =   0.0025641
        k(  202) = (   0.4811020   0.9272524   0.8394457), wk =   0.0025641
        k(  203) = (   0.5418726   0.9272524   1.0073348), wk =   0.0025641
        k(  204) = (  -0.1873743   0.9272524  -1.0073348), wk =   0.0025641
        k(  205) = (  -0.1266038   0.9272524  -0.8394457), wk =   0.0025641
        k(  206) = (  -0.0658332   0.9272524  -0.6715566), wk =   0.0025641
        k(  207) = (  -0.0050626   0.9272524  -0.5036674), wk =   0.0025641
        k(  208) = (   0.0557080   0.9272524  -0.3357783), wk =   0.0025641
        k(  209) = (   0.1164786   0.9272524  -0.1678891), wk =   0.0025641
        k(  210) = (   0.1772491   1.1127029   0.0000000), wk =   0.0025641
        k(  211) = (   0.2380197   1.1127029   0.1678891), wk =   0.0025641
        k(  212) = (   0.2987903   1.1127029   0.3357783), wk =   0.0025641
        k(  213) = (   0.3595609   1.1127029   0.5036674), wk =   0.0025641
        k(  214) = (   0.4203314   1.1127029   0.6715566), wk =   0.0025641
        k(  215) = (   0.4811020   1.1127029   0.8394457), wk =   0.0025641
        k(  216) = (   0.5418726   1.1127029   1.0073348), wk =   0.0025641
        k(  217) = (  -0.1873743   1.1127029  -1.0073348), wk =   0.0025641
        k(  218) = (  -0.1266038   1.1127029  -0.8394457), wk =   0.0025641
        k(  219) = (  -0.0658332   1.1127029  -0.6715566), wk =   0.0025641
        k(  220) = (  -0.0050626   1.1127029  -0.5036674), wk =   0.0025641
        k(  221) = (   0.0557080   1.1127029  -0.3357783), wk =   0.0025641
        k(  222) = (   0.1164786   1.1127029  -0.1678891), wk =   0.0025641
        k(  223) = (   0.1772491   1.2981534   0.0000000), wk =   0.0025641
        k(  224) = (   0.2380197   1.2981534   0.1678891), wk =   0.0025641
        k(  225) = (   0.2987903   1.2981534   0.3357783), wk =   0.0025641
        k(  226) = (   0.3595609   1.2981534   0.5036674), wk =   0.0025641
        k(  227) = (   0.4203314   1.2981534   0.6715566), wk =   0.0025641
        k(  228) = (   0.4811020   1.2981534   0.8394457), wk =   0.0025641
        k(  229) = (   0.5418726   1.2981534   1.0073348), wk =   0.0025641
        k(  230) = (  -0.1873743   1.2981534  -1.0073348), wk =   0.0025641
        k(  231) = (  -0.1266038   1.2981534  -0.8394457), wk =   0.0025641
        k(  232) = (  -0.0658332   1.2981534  -0.6715566), wk =   0.0025641
        k(  233) = (  -0.0050626   1.2981534  -0.5036674), wk =   0.0025641
        k(  234) = (   0.0557080   1.2981534  -0.3357783), wk =   0.0025641
        k(  235) = (   0.1164786   1.2981534  -0.1678891), wk =   0.0025641
        k(  236) = (   0.1772491   1.4836039   0.0000000), wk =   0.0025641
        k(  237) = (   0.2380197   1.4836039   0.1678891), wk =   0.0025641
        k(  238) = (   0.2987903   1.4836039   0.3357783), wk =   0.0025641
        k(  239) = (   0.3595609   1.4836039   0.5036674), wk =   0.0025641
        k(  240) = (   0.4203314   1.4836039   0.6715566), wk =   0.0025641
        k(  241) = (   0.4811020   1.4836039   0.8394457), wk =   0.0025641
        k(  242) = (   0.5418726   1.4836039   1.0073348), wk =   0.0025641
        k(  243) = (  -0.1873743   1.4836039  -1.0073348), wk =   0.0025641
        k(  244) = (  -0.1266038   1.4836039  -0.8394457), wk =   0.0025641
        k(  245) = (  -0.0658332   1.4836039  -0.6715566), wk =   0.0025641
        k(  246) = (  -0.0050626   1.4836039  -0.5036674), wk =   0.0025641
        k(  247) = (   0.0557080   1.4836039  -0.3357783), wk =   0.0025641
        k(  248) = (   0.1164786   1.4836039  -0.1678891), wk =   0.0025641
        k(  249) = (   0.1772491   1.6690544   0.0000000), wk =   0.0025641
        k(  250) = (   0.2380197   1.6690544   0.1678891), wk =   0.0025641
        k(  251) = (   0.2987903   1.6690544   0.3357783), wk =   0.0025641
        k(  252) = (   0.3595609   1.6690544   0.5036674), wk =   0.0025641
        k(  253) = (   0.4203314   1.6690544   0.6715566), wk =   0.0025641
        k(  254) = (   0.4811020   1.6690544   0.8394457), wk =   0.0025641
        k(  255) = (   0.5418726   1.6690544   1.0073348), wk =   0.0025641
        k(  256) = (  -0.1873743   1.6690544  -1.0073348), wk =   0.0025641
        k(  257) = (  -0.1266038   1.6690544  -0.8394457), wk =   0.0025641
        k(  258) = (  -0.0658332   1.6690544  -0.6715566), wk =   0.0025641
        k(  259) = (  -0.0050626   1.6690544  -0.5036674), wk =   0.0025641
        k(  260) = (   0.0557080   1.6690544  -0.3357783), wk =   0.0025641
        k(  261) = (   0.1164786   1.6690544  -0.1678891), wk =   0.0025641
        k(  262) = (   0.1772491  -1.8545049   0.0000000), wk =   0.0025641
        k(  263) = (   0.2380197  -1.8545049   0.1678891), wk =   0.0025641
        k(  264) = (   0.2987903  -1.8545049   0.3357783), wk =   0.0025641
        k(  265) = (   0.3595609  -1.8545049   0.5036674), wk =   0.0025641
        k(  266) = (   0.4203314  -1.8545049   0.6715566), wk =   0.0025641
        k(  267) = (   0.4811020  -1.8545049   0.8394457), wk =   0.0025641
        k(  268) = (   0.5418726  -1.8545049   1.0073348), wk =   0.0025641
        k(  269) = (  -0.1873743  -1.8545049  -1.0073348), wk =   0.0025641
        k(  270) = (  -0.1266038  -1.8545049  -0.8394457), wk =   0.0025641
        k(  271) = (  -0.0658332  -1.8545049  -0.6715566), wk =   0.0025641
        k(  272) = (  -0.0050626  -1.8545049  -0.5036674), wk =   0.0025641
        k(  273) = (   0.0557080  -1.8545049  -0.3357783), wk =   0.0025641
        k(  274) = (   0.1164786  -1.8545049  -0.1678891), wk =   0.0025641
        k(  275) = (   0.1772491  -1.6690544   0.0000000), wk =   0.0025641
        k(  276) = (   0.2380197  -1.6690544   0.1678891), wk =   0.0025641
        k(  277) = (   0.2987903  -1.6690544   0.3357783), wk =   0.0025641
        k(  278) = (   0.3595609  -1.6690544   0.5036674), wk =   0.0025641
        k(  279) = (   0.4203314  -1.6690544   0.6715566), wk =   0.0025641
        k(  280) = (   0.4811020  -1.6690544   0.8394457), wk =   0.0025641
        k(  281) = (   0.5418726  -1.6690544   1.0073348), wk =   0.0025641
        k(  282) = (  -0.1873743  -1.6690544  -1.0073348), wk =   0.0025641
        k(  283) = (  -0.1266038  -1.6690544  -0.8394457), wk =   0.0025641
        k(  284) = (  -0.0658332  -1.6690544  -0.6715566), wk =   0.0025641
        k(  285) = (  -0.0050626  -1.6690544  -0.5036674), wk =   0.0025641
        k(  286) = (   0.0557080  -1.6690544  -0.3357783), wk =   0.0025641
        k(  287) = (   0.1164786  -1.6690544  -0.1678891), wk =   0.0025641
        k(  288) = (   0.1772491  -1.4836039   0.0000000), wk =   0.0025641
        k(  289) = (   0.2380197  -1.4836039   0.1678891), wk =   0.0025641
        k(  290) = (   0.2987903  -1.4836039   0.3357783), wk =   0.0025641
        k(  291) = (   0.3595609  -1.4836039   0.5036674), wk =   0.0025641
        k(  292) = (   0.4203314  -1.4836039   0.6715566), wk =   0.0025641
        k(  293) = (   0.4811020  -1.4836039   0.8394457), wk =   0.0025641
        k(  294) = (   0.5418726  -1.4836039   1.0073348), wk =   0.0025641
        k(  295) = (  -0.1873743  -1.4836039  -1.0073348), wk =   0.0025641
        k(  296) = (  -0.1266038  -1.4836039  -0.8394457), wk =   0.0025641
        k(  297) = (  -0.0658332  -1.4836039  -0.6715566), wk =   0.0025641
        k(  298) = (  -0.0050626  -1.4836039  -0.5036674), wk =   0.0025641
        k(  299) = (   0.0557080  -1.4836039  -0.3357783), wk =   0.0025641
        k(  300) = (   0.1164786  -1.4836039  -0.1678891), wk =   0.0025641
        k(  301) = (   0.1772491  -1.2981534   0.0000000), wk =   0.0025641
        k(  302) = (   0.2380197  -1.2981534   0.1678891), wk =   0.0025641
        k(  303) = (   0.2987903  -1.2981534   0.3357783), wk =   0.0025641
        k(  304) = (   0.3595609  -1.2981534   0.5036674), wk =   0.0025641
        k(  305) = (   0.4203314  -1.2981534   0.6715566), wk =   0.0025641
        k(  306) = (   0.4811020  -1.2981534   0.8394457), wk =   0.0025641
        k(  307) = (   0.5418726  -1.2981534   1.0073348), wk =   0.0025641
        k(  308) = (  -0.1873743  -1.2981534  -1.0073348), wk =   0.0025641
        k(  309) = (  -0.1266038  -1.2981534  -0.8394457), wk =   0.0025641
        k(  310) = (  -0.0658332  -1.2981534  -0.6715566), wk =   0.0025641
        k(  311) = (  -0.0050626  -1.2981534  -0.5036674), wk =   0.0025641
        k(  312) = (   0.0557080  -1.2981534  -0.3357783), wk =   0.0025641
        k(  313) = (   0.1164786  -1.2981534  -0.1678891), wk =   0.0025641
        k(  314) = (   0.1772491  -1.1127029   0.0000000), wk =   0.0025641
        k(  315) = (   0.2380197  -1.1127029   0.1678891), wk =   0.0025641
        k(  316) = (   0.2987903  -1.1127029   0.3357783), wk =   0.0025641
        k(  317) = (   0.3595609  -1.1127029   0.5036674), wk =   0.0025641
        k(  318) = (   0.4203314  -1.1127029   0.6715566), wk =   0.0025641
        k(  319) = (   0.4811020  -1.1127029   0.8394457), wk =   0.0025641
        k(  320) = (   0.5418726  -1.1127029   1.0073348), wk =   0.0025641
        k(  321) = (  -0.1873743  -1.1127029  -1.0073348), wk =   0.0025641
        k(  322) = (  -0.1266038  -1.1127029  -0.8394457), wk =   0.0025641
        k(  323) = (  -0.0658332  -1.1127029  -0.6715566), wk =   0.0025641
        k(  324) = (  -0.0050626  -1.1127029  -0.5036674), wk =   0.0025641
        k(  325) = (   0.0557080  -1.1127029  -0.3357783), wk =   0.0025641
        k(  326) = (   0.1164786  -1.1127029  -0.1678891), wk =   0.0025641
        k(  327) = (   0.1772491  -0.9272524   0.0000000), wk =   0.0025641
        k(  328) = (   0.2380197  -0.9272524   0.1678891), wk =   0.0025641
        k(  329) = (   0.2987903  -0.9272524   0.3357783), wk =   0.0025641
        k(  330) = (   0.3595609  -0.9272524   0.5036674), wk =   0.0025641
        k(  331) = (   0.4203314  -0.9272524   0.6715566), wk =   0.0025641
        k(  332) = (   0.4811020  -0.9272524   0.8394457), wk =   0.0025641
        k(  333) = (   0.5418726  -0.9272524   1.0073348), wk =   0.0025641
        k(  334) = (  -0.1873743  -0.9272524  -1.0073348), wk =   0.0025641
        k(  335) = (  -0.1266038  -0.9272524  -0.8394457), wk =   0.0025641
        k(  336) = (  -0.0658332  -0.9272524  -0.6715566), wk =   0.0025641
        k(  337) = (  -0.0050626  -0.9272524  -0.5036674), wk =   0.0025641
        k(  338) = (   0.0557080  -0.9272524  -0.3357783), wk =   0.0025641
        k(  339) = (   0.1164786  -0.9272524  -0.1678891), wk =   0.0025641
        k(  340) = (   0.1772491  -0.7418019   0.0000000), wk =   0.0025641
        k(  341) = (   0.2380197  -0.7418019   0.1678891), wk =   0.0025641
        k(  342) = (   0.2987903  -0.7418019   0.3357783), wk =   0.0025641
        k(  343) = (   0.3595609  -0.7418019   0.5036674), wk =   0.0025641
        k(  344) = (   0.4203314  -0.7418019   0.6715566), wk =   0.0025641
        k(  345) = (   0.4811020  -0.7418019   0.8394457), wk =   0.0025641
        k(  346) = (   0.5418726  -0.7418019   1.0073348), wk =   0.0025641
        k(  347) = (  -0.1873743  -0.7418019  -1.0073348), wk =   0.0025641
        k(  348) = (  -0.1266038  -0.7418019  -0.8394457), wk =   0.0025641
        k(  349) = (  -0.0658332  -0.7418019  -0.6715566), wk =   0.0025641
        k(  350) = (  -0.0050626  -0.7418019  -0.5036674), wk =   0.0025641
        k(  351) = (   0.0557080  -0.7418019  -0.3357783), wk =   0.0025641
        k(  352) = (   0.1164786  -0.7418019  -0.1678891), wk =   0.0025641
        k(  353) = (   0.1772491  -0.5563515   0.0000000), wk =   0.0025641
        k(  354) = (   0.2380197  -0.5563515   0.1678891), wk =   0.0025641
        k(  355) = (   0.2987903  -0.5563515   0.3357783), wk =   0.0025641
        k(  356) = (   0.3595609  -0.5563515   0.5036674), wk =   0.0025641
        k(  357) = (   0.4203314  -0.5563515   0.6715566), wk =   0.0025641
        k(  358) = (   0.4811020  -0.5563515   0.8394457), wk =   0.0025641
        k(  359) = (   0.5418726  -0.5563515   1.0073348), wk =   0.0025641
        k(  360) = (  -0.1873743  -0.5563515  -1.0073348), wk =   0.0025641
        k(  361) = (  -0.1266038  -0.5563515  -0.8394457), wk =   0.0025641
        k(  362) = (  -0.0658332  -0.5563515  -0.6715566), wk =   0.0025641
        k(  363) = (  -0.0050626  -0.5563515  -0.5036674), wk =   0.0025641
        k(  364) = (   0.0557080  -0.5563515  -0.3357783), wk =   0.0025641
        k(  365) = (   0.1164786  -0.5563515  -0.1678891), wk =   0.0025641
        k(  366) = (   0.1772491  -0.3709010   0.0000000), wk =   0.0025641
        k(  367) = (   0.2380197  -0.3709010   0.1678891), wk =   0.0025641
        k(  368) = (   0.2987903  -0.3709010   0.3357783), wk =   0.0025641
        k(  369) = (   0.3595609  -0.3709010   0.5036674), wk =   0.0025641
        k(  370) = (   0.4203314  -0.3709010   0.6715566), wk =   0.0025641
        k(  371) = (   0.4811020  -0.3709010   0.8394457), wk =   0.0025641
        k(  372) = (   0.5418726  -0.3709010   1.0073348), wk =   0.0025641
        k(  373) = (  -0.1873743  -0.3709010  -1.0073348), wk =   0.0025641
        k(  374) = (  -0.1266038  -0.3709010  -0.8394457), wk =   0.0025641
        k(  375) = (  -0.0658332  -0.3709010  -0.6715566), wk =   0.0025641
        k(  376) = (  -0.0050626  -0.3709010  -0.5036674), wk =   0.0025641
        k(  377) = (   0.0557080  -0.3709010  -0.3357783), wk =   0.0025641
        k(  378) = (   0.1164786  -0.3709010  -0.1678891), wk =   0.0025641
        k(  379) = (   0.1772491  -0.1854505   0.0000000), wk =   0.0025641
        k(  380) = (   0.2380197  -0.1854505   0.1678891), wk =   0.0025641
        k(  381) = (   0.2987903  -0.1854505   0.3357783), wk =   0.0025641
        k(  382) = (   0.3595609  -0.1854505   0.5036674), wk =   0.0025641
        k(  383) = (   0.4203314  -0.1854505   0.6715566), wk =   0.0025641
        k(  384) = (   0.4811020  -0.1854505   0.8394457), wk =   0.0025641
        k(  385) = (   0.5418726  -0.1854505   1.0073348), wk =   0.0025641
        k(  386) = (  -0.1873743  -0.1854505  -1.0073348), wk =   0.0025641
        k(  387) = (  -0.1266038  -0.1854505  -0.8394457), wk =   0.0025641
        k(  388) = (  -0.0658332  -0.1854505  -0.6715566), wk =   0.0025641
        k(  389) = (  -0.0050626  -0.1854505  -0.5036674), wk =   0.0025641
        k(  390) = (   0.0557080  -0.1854505  -0.3357783), wk =   0.0025641
        k(  391) = (   0.1164786  -0.1854505  -0.1678891), wk =   0.0025641
        k(  392) = (   0.3544983   0.0000000   0.0000000), wk =   0.0025641
        k(  393) = (   0.4152688   0.0000000   0.1678891), wk =   0.0025641
        k(  394) = (   0.4760394   0.0000000   0.3357783), wk =   0.0025641
        k(  395) = (   0.5368100   0.0000000   0.5036674), wk =   0.0025641
        k(  396) = (   0.5975806   0.0000000   0.6715566), wk =   0.0025641
        k(  397) = (   0.6583512   0.0000000   0.8394457), wk =   0.0025641
        k(  398) = (   0.7191217   0.0000000   1.0073348), wk =   0.0025641
        k(  399) = (  -0.0101252   0.0000000  -1.0073348), wk =   0.0025641
        k(  400) = (   0.0506454   0.0000000  -0.8394457), wk =   0.0025641
        k(  401) = (   0.1114160   0.0000000  -0.6715566), wk =   0.0025641
        k(  402) = (   0.1721865   0.0000000  -0.5036674), wk =   0.0025641
        k(  403) = (   0.2329571   0.0000000  -0.3357783), wk =   0.0025641
        k(  404) = (   0.2937277   0.0000000  -0.1678891), wk =   0.0025641
        k(  405) = (   0.3544983   0.1854505   0.0000000), wk =   0.0025641
        k(  406) = (   0.4152688   0.1854505   0.1678891), wk =   0.0025641
        k(  407) = (   0.4760394   0.1854505   0.3357783), wk =   0.0025641
        k(  408) = (   0.5368100   0.1854505   0.5036674), wk =   0.0025641
        k(  409) = (   0.5975806   0.1854505   0.6715566), wk =   0.0025641
        k(  410) = (   0.6583512   0.1854505   0.8394457), wk =   0.0025641
        k(  411) = (   0.7191217   0.1854505   1.0073348), wk =   0.0025641
        k(  412) = (  -0.0101252   0.1854505  -1.0073348), wk =   0.0025641
        k(  413) = (   0.0506454   0.1854505  -0.8394457), wk =   0.0025641
        k(  414) = (   0.1114160   0.1854505  -0.6715566), wk =   0.0025641
        k(  415) = (   0.1721865   0.1854505  -0.5036674), wk =   0.0025641
        k(  416) = (   0.2329571   0.1854505  -0.3357783), wk =   0.0025641
        k(  417) = (   0.2937277   0.1854505  -0.1678891), wk =   0.0025641
        k(  418) = (   0.3544983   0.3709010   0.0000000), wk =   0.0025641
        k(  419) = (   0.4152688   0.3709010   0.1678891), wk =   0.0025641
        k(  420) = (   0.4760394   0.3709010   0.3357783), wk =   0.0025641
        k(  421) = (   0.5368100   0.3709010   0.5036674), wk =   0.0025641
        k(  422) = (   0.5975806   0.3709010   0.6715566), wk =   0.0025641
        k(  423) = (   0.6583512   0.3709010   0.8394457), wk =   0.0025641
        k(  424) = (   0.7191217   0.3709010   1.0073348), wk =   0.0025641
        k(  425) = (  -0.0101252   0.3709010  -1.0073348), wk =   0.0025641
        k(  426) = (   0.0506454   0.3709010  -0.8394457), wk =   0.0025641
        k(  427) = (   0.1114160   0.3709010  -0.6715566), wk =   0.0025641
        k(  428) = (   0.1721865   0.3709010  -0.5036674), wk =   0.0025641
        k(  429) = (   0.2329571   0.3709010  -0.3357783), wk =   0.0025641
        k(  430) = (   0.2937277   0.3709010  -0.1678891), wk =   0.0025641
        k(  431) = (   0.3544983   0.5563515   0.0000000), wk =   0.0025641
        k(  432) = (   0.4152688   0.5563515   0.1678891), wk =   0.0025641
        k(  433) = (   0.4760394   0.5563515   0.3357783), wk =   0.0025641
        k(  434) = (   0.5368100   0.5563515   0.5036674), wk =   0.0025641
        k(  435) = (   0.5975806   0.5563515   0.6715566), wk =   0.0025641
        k(  436) = (   0.6583512   0.5563515   0.8394457), wk =   0.0025641
        k(  437) = (   0.7191217   0.5563515   1.0073348), wk =   0.0025641
        k(  438) = (  -0.0101252   0.5563515  -1.0073348), wk =   0.0025641
        k(  439) = (   0.0506454   0.5563515  -0.8394457), wk =   0.0025641
        k(  440) = (   0.1114160   0.5563515  -0.6715566), wk =   0.0025641
        k(  441) = (   0.1721865   0.5563515  -0.5036674), wk =   0.0025641
        k(  442) = (   0.2329571   0.5563515  -0.3357783), wk =   0.0025641
        k(  443) = (   0.2937277   0.5563515  -0.1678891), wk =   0.0025641
        k(  444) = (   0.3544983   0.7418019   0.0000000), wk =   0.0025641
        k(  445) = (   0.4152688   0.7418019   0.1678891), wk =   0.0025641
        k(  446) = (   0.4760394   0.7418019   0.3357783), wk =   0.0025641
        k(  447) = (   0.5368100   0.7418019   0.5036674), wk =   0.0025641
        k(  448) = (   0.5975806   0.7418019   0.6715566), wk =   0.0025641
        k(  449) = (   0.6583512   0.7418019   0.8394457), wk =   0.0025641
        k(  450) = (   0.7191217   0.7418019   1.0073348), wk =   0.0025641
        k(  451) = (  -0.0101252   0.7418019  -1.0073348), wk =   0.0025641
        k(  452) = (   0.0506454   0.7418019  -0.8394457), wk =   0.0025641
        k(  453) = (   0.1114160   0.7418019  -0.6715566), wk =   0.0025641
        k(  454) = (   0.1721865   0.7418019  -0.5036674), wk =   0.0025641
        k(  455) = (   0.2329571   0.7418019  -0.3357783), wk =   0.0025641
        k(  456) = (   0.2937277   0.7418019  -0.1678891), wk =   0.0025641
        k(  457) = (   0.3544983   0.9272524   0.0000000), wk =   0.0025641
        k(  458) = (   0.4152688   0.9272524   0.1678891), wk =   0.0025641
        k(  459) = (   0.4760394   0.9272524   0.3357783), wk =   0.0025641
        k(  460) = (   0.5368100   0.9272524   0.5036674), wk =   0.0025641
        k(  461) = (   0.5975806   0.9272524   0.6715566), wk =   0.0025641
        k(  462) = (   0.6583512   0.9272524   0.8394457), wk =   0.0025641
        k(  463) = (   0.7191217   0.9272524   1.0073348), wk =   0.0025641
        k(  464) = (  -0.0101252   0.9272524  -1.0073348), wk =   0.0025641
        k(  465) = (   0.0506454   0.9272524  -0.8394457), wk =   0.0025641
        k(  466) = (   0.1114160   0.9272524  -0.6715566), wk =   0.0025641
        k(  467) = (   0.1721865   0.9272524  -0.5036674), wk =   0.0025641
        k(  468) = (   0.2329571   0.9272524  -0.3357783), wk =   0.0025641
        k(  469) = (   0.2937277   0.9272524  -0.1678891), wk =   0.0025641
        k(  470) = (   0.3544983   1.1127029   0.0000000), wk =   0.0025641
        k(  471) = (   0.4152688   1.1127029   0.1678891), wk =   0.0025641
        k(  472) = (   0.4760394   1.1127029   0.3357783), wk =   0.0025641
        k(  473) = (   0.5368100   1.1127029   0.5036674), wk =   0.0025641
        k(  474) = (   0.5975806   1.1127029   0.6715566), wk =   0.0025641
        k(  475) = (   0.6583512   1.1127029   0.8394457), wk =   0.0025641
        k(  476) = (   0.7191217   1.1127029   1.0073348), wk =   0.0025641
        k(  477) = (  -0.0101252   1.1127029  -1.0073348), wk =   0.0025641
        k(  478) = (   0.0506454   1.1127029  -0.8394457), wk =   0.0025641
        k(  479) = (   0.1114160   1.1127029  -0.6715566), wk =   0.0025641
        k(  480) = (   0.1721865   1.1127029  -0.5036674), wk =   0.0025641
        k(  481) = (   0.2329571   1.1127029  -0.3357783), wk =   0.0025641
        k(  482) = (   0.2937277   1.1127029  -0.1678891), wk =   0.0025641
        k(  483) = (   0.3544983   1.2981534   0.0000000), wk =   0.0025641
        k(  484) = (   0.4152688   1.2981534   0.1678891), wk =   0.0025641
        k(  485) = (   0.4760394   1.2981534   0.3357783), wk =   0.0025641
        k(  486) = (   0.5368100   1.2981534   0.5036674), wk =   0.0025641
        k(  487) = (   0.5975806   1.2981534   0.6715566), wk =   0.0025641
        k(  488) = (   0.6583512   1.2981534   0.8394457), wk =   0.0025641
        k(  489) = (   0.7191217   1.2981534   1.0073348), wk =   0.0025641
        k(  490) = (  -0.0101252   1.2981534  -1.0073348), wk =   0.0025641
        k(  491) = (   0.0506454   1.2981534  -0.8394457), wk =   0.0025641
        k(  492) = (   0.1114160   1.2981534  -0.6715566), wk =   0.0025641
        k(  493) = (   0.1721865   1.2981534  -0.5036674), wk =   0.0025641
        k(  494) = (   0.2329571   1.2981534  -0.3357783), wk =   0.0025641
        k(  495) = (   0.2937277   1.2981534  -0.1678891), wk =   0.0025641
        k(  496) = (   0.3544983   1.4836039   0.0000000), wk =   0.0025641
        k(  497) = (   0.4152688   1.4836039   0.1678891), wk =   0.0025641
        k(  498) = (   0.4760394   1.4836039   0.3357783), wk =   0.0025641
        k(  499) = (   0.5368100   1.4836039   0.5036674), wk =   0.0025641
        k(  500) = (   0.5975806   1.4836039   0.6715566), wk =   0.0025641
        k(  501) = (   0.6583512   1.4836039   0.8394457), wk =   0.0025641
        k(  502) = (   0.7191217   1.4836039   1.0073348), wk =   0.0025641
        k(  503) = (  -0.0101252   1.4836039  -1.0073348), wk =   0.0025641
        k(  504) = (   0.0506454   1.4836039  -0.8394457), wk =   0.0025641
        k(  505) = (   0.1114160   1.4836039  -0.6715566), wk =   0.0025641
        k(  506) = (   0.1721865   1.4836039  -0.5036674), wk =   0.0025641
        k(  507) = (   0.2329571   1.4836039  -0.3357783), wk =   0.0025641
        k(  508) = (   0.2937277   1.4836039  -0.1678891), wk =   0.0025641
        k(  509) = (   0.3544983   1.6690544   0.0000000), wk =   0.0025641
        k(  510) = (   0.4152688   1.6690544   0.1678891), wk =   0.0025641
        k(  511) = (   0.4760394   1.6690544   0.3357783), wk =   0.0025641
        k(  512) = (   0.5368100   1.6690544   0.5036674), wk =   0.0025641
        k(  513) = (   0.5975806   1.6690544   0.6715566), wk =   0.0025641
        k(  514) = (   0.6583512   1.6690544   0.8394457), wk =   0.0025641
        k(  515) = (   0.7191217   1.6690544   1.0073348), wk =   0.0025641
        k(  516) = (  -0.0101252   1.6690544  -1.0073348), wk =   0.0025641
        k(  517) = (   0.0506454   1.6690544  -0.8394457), wk =   0.0025641
        k(  518) = (   0.1114160   1.6690544  -0.6715566), wk =   0.0025641
        k(  519) = (   0.1721865   1.6690544  -0.5036674), wk =   0.0025641
        k(  520) = (   0.2329571   1.6690544  -0.3357783), wk =   0.0025641
        k(  521) = (   0.2937277   1.6690544  -0.1678891), wk =   0.0025641
        k(  522) = (   0.3544983  -1.8545049   0.0000000), wk =   0.0025641
        k(  523) = (   0.4152688  -1.8545049   0.1678891), wk =   0.0025641
        k(  524) = (   0.4760394  -1.8545049   0.3357783), wk =   0.0025641
        k(  525) = (   0.5368100  -1.8545049   0.5036674), wk =   0.0025641
        k(  526) = (   0.5975806  -1.8545049   0.6715566), wk =   0.0025641
        k(  527) = (   0.6583512  -1.8545049   0.8394457), wk =   0.0025641
        k(  528) = (   0.7191217  -1.8545049   1.0073348), wk =   0.0025641
        k(  529) = (  -0.0101252  -1.8545049  -1.0073348), wk =   0.0025641
        k(  530) = (   0.0506454  -1.8545049  -0.8394457), wk =   0.0025641
        k(  531) = (   0.1114160  -1.8545049  -0.6715566), wk =   0.0025641
        k(  532) = (   0.1721865  -1.8545049  -0.5036674), wk =   0.0025641
        k(  533) = (   0.2329571  -1.8545049  -0.3357783), wk =   0.0025641
        k(  534) = (   0.2937277  -1.8545049  -0.1678891), wk =   0.0025641
        k(  535) = (   0.3544983  -1.6690544   0.0000000), wk =   0.0025641
        k(  536) = (   0.4152688  -1.6690544   0.1678891), wk =   0.0025641
        k(  537) = (   0.4760394  -1.6690544   0.3357783), wk =   0.0025641
        k(  538) = (   0.5368100  -1.6690544   0.5036674), wk =   0.0025641
        k(  539) = (   0.5975806  -1.6690544   0.6715566), wk =   0.0025641
        k(  540) = (   0.6583512  -1.6690544   0.8394457), wk =   0.0025641
        k(  541) = (   0.7191217  -1.6690544   1.0073348), wk =   0.0025641
        k(  542) = (  -0.0101252  -1.6690544  -1.0073348), wk =   0.0025641
        k(  543) = (   0.0506454  -1.6690544  -0.8394457), wk =   0.0025641
        k(  544) = (   0.1114160  -1.6690544  -0.6715566), wk =   0.0025641
        k(  545) = (   0.1721865  -1.6690544  -0.5036674), wk =   0.0025641
        k(  546) = (   0.2329571  -1.6690544  -0.3357783), wk =   0.0025641
        k(  547) = (   0.2937277  -1.6690544  -0.1678891), wk =   0.0025641
        k(  548) = (   0.3544983  -1.4836039   0.0000000), wk =   0.0025641
        k(  549) = (   0.4152688  -1.4836039   0.1678891), wk =   0.0025641
        k(  550) = (   0.4760394  -1.4836039   0.3357783), wk =   0.0025641
        k(  551) = (   0.5368100  -1.4836039   0.5036674), wk =   0.0025641
        k(  552) = (   0.5975806  -1.4836039   0.6715566), wk =   0.0025641
        k(  553) = (   0.6583512  -1.4836039   0.8394457), wk =   0.0025641
        k(  554) = (   0.7191217  -1.4836039   1.0073348), wk =   0.0025641
        k(  555) = (  -0.0101252  -1.4836039  -1.0073348), wk =   0.0025641
        k(  556) = (   0.0506454  -1.4836039  -0.8394457), wk =   0.0025641
        k(  557) = (   0.1114160  -1.4836039  -0.6715566), wk =   0.0025641
        k(  558) = (   0.1721865  -1.4836039  -0.5036674), wk =   0.0025641
        k(  559) = (   0.2329571  -1.4836039  -0.3357783), wk =   0.0025641
        k(  560) = (   0.2937277  -1.4836039  -0.1678891), wk =   0.0025641
        k(  561) = (   0.3544983  -1.2981534   0.0000000), wk =   0.0025641
        k(  562) = (   0.4152688  -1.2981534   0.1678891), wk =   0.0025641
        k(  563) = (   0.4760394  -1.2981534   0.3357783), wk =   0.0025641
        k(  564) = (   0.5368100  -1.2981534   0.5036674), wk =   0.0025641
        k(  565) = (   0.5975806  -1.2981534   0.6715566), wk =   0.0025641
        k(  566) = (   0.6583512  -1.2981534   0.8394457), wk =   0.0025641
        k(  567) = (   0.7191217  -1.2981534   1.0073348), wk =   0.0025641
        k(  568) = (  -0.0101252  -1.2981534  -1.0073348), wk =   0.0025641
        k(  569) = (   0.0506454  -1.2981534  -0.8394457), wk =   0.0025641
        k(  570) = (   0.1114160  -1.2981534  -0.6715566), wk =   0.0025641
        k(  571) = (   0.1721865  -1.2981534  -0.5036674), wk =   0.0025641
        k(  572) = (   0.2329571  -1.2981534  -0.3357783), wk =   0.0025641
        k(  573) = (   0.2937277  -1.2981534  -0.1678891), wk =   0.0025641
        k(  574) = (   0.3544983  -1.1127029   0.0000000), wk =   0.0025641
        k(  575) = (   0.4152688  -1.1127029   0.1678891), wk =   0.0025641
        k(  576) = (   0.4760394  -1.1127029   0.3357783), wk =   0.0025641
        k(  577) = (   0.5368100  -1.1127029   0.5036674), wk =   0.0025641
        k(  578) = (   0.5975806  -1.1127029   0.6715566), wk =   0.0025641
        k(  579) = (   0.6583512  -1.1127029   0.8394457), wk =   0.0025641
        k(  580) = (   0.7191217  -1.1127029   1.0073348), wk =   0.0025641
        k(  581) = (  -0.0101252  -1.1127029  -1.0073348), wk =   0.0025641
        k(  582) = (   0.0506454  -1.1127029  -0.8394457), wk =   0.0025641
        k(  583) = (   0.1114160  -1.1127029  -0.6715566), wk =   0.0025641
        k(  584) = (   0.1721865  -1.1127029  -0.5036674), wk =   0.0025641
        k(  585) = (   0.2329571  -1.1127029  -0.3357783), wk =   0.0025641
        k(  586) = (   0.2937277  -1.1127029  -0.1678891), wk =   0.0025641
        k(  587) = (   0.3544983  -0.9272524   0.0000000), wk =   0.0025641
        k(  588) = (   0.4152688  -0.9272524   0.1678891), wk =   0.0025641
        k(  589) = (   0.4760394  -0.9272524   0.3357783), wk =   0.0025641
        k(  590) = (   0.5368100  -0.9272524   0.5036674), wk =   0.0025641
        k(  591) = (   0.5975806  -0.9272524   0.6715566), wk =   0.0025641
        k(  592) = (   0.6583512  -0.9272524   0.8394457), wk =   0.0025641
        k(  593) = (   0.7191217  -0.9272524   1.0073348), wk =   0.0025641
        k(  594) = (  -0.0101252  -0.9272524  -1.0073348), wk =   0.0025641
        k(  595) = (   0.0506454  -0.9272524  -0.8394457), wk =   0.0025641
        k(  596) = (   0.1114160  -0.9272524  -0.6715566), wk =   0.0025641
        k(  597) = (   0.1721865  -0.9272524  -0.5036674), wk =   0.0025641
        k(  598) = (   0.2329571  -0.9272524  -0.3357783), wk =   0.0025641
        k(  599) = (   0.2937277  -0.9272524  -0.1678891), wk =   0.0025641
        k(  600) = (   0.3544983  -0.7418019   0.0000000), wk =   0.0025641
        k(  601) = (   0.4152688  -0.7418019   0.1678891), wk =   0.0025641
        k(  602) = (   0.4760394  -0.7418019   0.3357783), wk =   0.0025641
        k(  603) = (   0.5368100  -0.7418019   0.5036674), wk =   0.0025641
        k(  604) = (   0.5975806  -0.7418019   0.6715566), wk =   0.0025641
        k(  605) = (   0.6583512  -0.7418019   0.8394457), wk =   0.0025641
        k(  606) = (   0.7191217  -0.7418019   1.0073348), wk =   0.0025641
        k(  607) = (  -0.0101252  -0.7418019  -1.0073348), wk =   0.0025641
        k(  608) = (   0.0506454  -0.7418019  -0.8394457), wk =   0.0025641
        k(  609) = (   0.1114160  -0.7418019  -0.6715566), wk =   0.0025641
        k(  610) = (   0.1721865  -0.7418019  -0.5036674), wk =   0.0025641
        k(  611) = (   0.2329571  -0.7418019  -0.3357783), wk =   0.0025641
        k(  612) = (   0.2937277  -0.7418019  -0.1678891), wk =   0.0025641
        k(  613) = (   0.3544983  -0.5563515   0.0000000), wk =   0.0025641
        k(  614) = (   0.4152688  -0.5563515   0.1678891), wk =   0.0025641
        k(  615) = (   0.4760394  -0.5563515   0.3357783), wk =   0.0025641
        k(  616) = (   0.5368100  -0.5563515   0.5036674), wk =   0.0025641
        k(  617) = (   0.5975806  -0.5563515   0.6715566), wk =   0.0025641
        k(  618) = (   0.6583512  -0.5563515   0.8394457), wk =   0.0025641
        k(  619) = (   0.7191217  -0.5563515   1.0073348), wk =   0.0025641
        k(  620) = (  -0.0101252  -0.5563515  -1.0073348), wk =   0.0025641
        k(  621) = (   0.0506454  -0.5563515  -0.8394457), wk =   0.0025641
        k(  622) = (   0.1114160  -0.5563515  -0.6715566), wk =   0.0025641
        k(  623) = (   0.1721865  -0.5563515  -0.5036674), wk =   0.0025641
        k(  624) = (   0.2329571  -0.5563515  -0.3357783), wk =   0.0025641
        k(  625) = (   0.2937277  -0.5563515  -0.1678891), wk =   0.0025641
        k(  626) = (   0.3544983  -0.3709010   0.0000000), wk =   0.0025641
        k(  627) = (   0.4152688  -0.3709010   0.1678891), wk =   0.0025641
        k(  628) = (   0.4760394  -0.3709010   0.3357783), wk =   0.0025641
        k(  629) = (   0.5368100  -0.3709010   0.5036674), wk =   0.0025641
        k(  630) = (   0.5975806  -0.3709010   0.6715566), wk =   0.0025641
        k(  631) = (   0.6583512  -0.3709010   0.8394457), wk =   0.0025641
        k(  632) = (   0.7191217  -0.3709010   1.0073348), wk =   0.0025641
        k(  633) = (  -0.0101252  -0.3709010  -1.0073348), wk =   0.0025641
        k(  634) = (   0.0506454  -0.3709010  -0.8394457), wk =   0.0025641
        k(  635) = (   0.1114160  -0.3709010  -0.6715566), wk =   0.0025641
        k(  636) = (   0.1721865  -0.3709010  -0.5036674), wk =   0.0025641
        k(  637) = (   0.2329571  -0.3709010  -0.3357783), wk =   0.0025641
        k(  638) = (   0.2937277  -0.3709010  -0.1678891), wk =   0.0025641
        k(  639) = (   0.3544983  -0.1854505   0.0000000), wk =   0.0025641
        k(  640) = (   0.4152688  -0.1854505   0.1678891), wk =   0.0025641
        k(  641) = (   0.4760394  -0.1854505   0.3357783), wk =   0.0025641
        k(  642) = (   0.5368100  -0.1854505   0.5036674), wk =   0.0025641
        k(  643) = (   0.5975806  -0.1854505   0.6715566), wk =   0.0025641
        k(  644) = (   0.6583512  -0.1854505   0.8394457), wk =   0.0025641
        k(  645) = (   0.7191217  -0.1854505   1.0073348), wk =   0.0025641
        k(  646) = (  -0.0101252  -0.1854505  -1.0073348), wk =   0.0025641
        k(  647) = (   0.0506454  -0.1854505  -0.8394457), wk =   0.0025641
        k(  648) = (   0.1114160  -0.1854505  -0.6715566), wk =   0.0025641
        k(  649) = (   0.1721865  -0.1854505  -0.5036674), wk =   0.0025641
        k(  650) = (   0.2329571  -0.1854505  -0.3357783), wk =   0.0025641
        k(  651) = (   0.2937277  -0.1854505  -0.1678891), wk =   0.0025641
        k(  652) = (  -0.5317474   0.0000000   0.0000000), wk =   0.0012821
        k(  653) = (  -0.4709768   0.0000000   0.1678891), wk =   0.0025641
        k(  654) = (  -0.4102062   0.0000000   0.3357783), wk =   0.0025641
        k(  655) = (  -0.3494357   0.0000000   0.5036674), wk =   0.0025641
        k(  656) = (  -0.2886651   0.0000000   0.6715566), wk =   0.0025641
        k(  657) = (  -0.2278945   0.0000000   0.8394457), wk =   0.0025641
        k(  658) = (  -0.1671239   0.0000000   1.0073348), wk =   0.0025641
        k(  659) = (  -0.5317474   0.1854505   0.0000000), wk =   0.0025641
        k(  660) = (  -0.4709768   0.1854505   0.1678891), wk =   0.0025641
        k(  661) = (  -0.4102062   0.1854505   0.3357783), wk =   0.0025641
        k(  662) = (  -0.3494357   0.1854505   0.5036674), wk =   0.0025641
        k(  663) = (  -0.2886651   0.1854505   0.6715566), wk =   0.0025641
        k(  664) = (  -0.2278945   0.1854505   0.8394457), wk =   0.0025641
        k(  665) = (  -0.1671239   0.1854505   1.0073348), wk =   0.0025641
        k(  666) = (  -0.8963709   0.1854505  -1.0073348), wk =   0.0025641
        k(  667) = (  -0.8356003   0.1854505  -0.8394457), wk =   0.0025641
        k(  668) = (  -0.7748297   0.1854505  -0.6715566), wk =   0.0025641
        k(  669) = (  -0.7140591   0.1854505  -0.5036674), wk =   0.0025641
        k(  670) = (  -0.6532886   0.1854505  -0.3357783), wk =   0.0025641
        k(  671) = (  -0.5925180   0.1854505  -0.1678891), wk =   0.0025641
        k(  672) = (  -0.5317474   0.3709010   0.0000000), wk =   0.0025641
        k(  673) = (  -0.4709768   0.3709010   0.1678891), wk =   0.0025641
        k(  674) = (  -0.4102062   0.3709010   0.3357783), wk =   0.0025641
        k(  675) = (  -0.3494357   0.3709010   0.5036674), wk =   0.0025641
        k(  676) = (  -0.2886651   0.3709010   0.6715566), wk =   0.0025641
        k(  677) = (  -0.2278945   0.3709010   0.8394457), wk =   0.0025641
        k(  678) = (  -0.1671239   0.3709010   1.0073348), wk =   0.0025641
        k(  679) = (  -0.8963709   0.3709010  -1.0073348), wk =   0.0025641
        k(  680) = (  -0.8356003   0.3709010  -0.8394457), wk =   0.0025641
        k(  681) = (  -0.7748297   0.3709010  -0.6715566), wk =   0.0025641
        k(  682) = (  -0.7140591   0.3709010  -0.5036674), wk =   0.0025641
        k(  683) = (  -0.6532886   0.3709010  -0.3357783), wk =   0.0025641
        k(  684) = (  -0.5925180   0.3709010  -0.1678891), wk =   0.0025641
        k(  685) = (  -0.5317474   0.5563515   0.0000000), wk =   0.0025641
        k(  686) = (  -0.4709768   0.5563515   0.1678891), wk =   0.0025641
        k(  687) = (  -0.4102062   0.5563515   0.3357783), wk =   0.0025641
        k(  688) = (  -0.3494357   0.5563515   0.5036674), wk =   0.0025641
        k(  689) = (  -0.2886651   0.5563515   0.6715566), wk =   0.0025641
        k(  690) = (  -0.2278945   0.5563515   0.8394457), wk =   0.0025641
        k(  691) = (  -0.1671239   0.5563515   1.0073348), wk =   0.0025641
        k(  692) = (  -0.8963709   0.5563515  -1.0073348), wk =   0.0025641
        k(  693) = (  -0.8356003   0.5563515  -0.8394457), wk =   0.0025641
        k(  694) = (  -0.7748297   0.5563515  -0.6715566), wk =   0.0025641
        k(  695) = (  -0.7140591   0.5563515  -0.5036674), wk =   0.0025641
        k(  696) = (  -0.6532886   0.5563515  -0.3357783), wk =   0.0025641
        k(  697) = (  -0.5925180   0.5563515  -0.1678891), wk =   0.0025641
        k(  698) = (  -0.5317474   0.7418019   0.0000000), wk =   0.0025641
        k(  699) = (  -0.4709768   0.7418019   0.1678891), wk =   0.0025641
        k(  700) = (  -0.4102062   0.7418019   0.3357783), wk =   0.0025641
        k(  701) = (  -0.3494357   0.7418019   0.5036674), wk =   0.0025641
        k(  702) = (  -0.2886651   0.7418019   0.6715566), wk =   0.0025641
        k(  703) = (  -0.2278945   0.7418019   0.8394457), wk =   0.0025641
        k(  704) = (  -0.1671239   0.7418019   1.0073348), wk =   0.0025641
        k(  705) = (  -0.8963709   0.7418019  -1.0073348), wk =   0.0025641
        k(  706) = (  -0.8356003   0.7418019  -0.8394457), wk =   0.0025641
        k(  707) = (  -0.7748297   0.7418019  -0.6715566), wk =   0.0025641
        k(  708) = (  -0.7140591   0.7418019  -0.5036674), wk =   0.0025641
        k(  709) = (  -0.6532886   0.7418019  -0.3357783), wk =   0.0025641
        k(  710) = (  -0.5925180   0.7418019  -0.1678891), wk =   0.0025641
        k(  711) = (  -0.5317474   0.9272524   0.0000000), wk =   0.0025641
        k(  712) = (  -0.4709768   0.9272524   0.1678891), wk =   0.0025641
        k(  713) = (  -0.4102062   0.9272524   0.3357783), wk =   0.0025641
        k(  714) = (  -0.3494357   0.9272524   0.5036674), wk =   0.0025641
        k(  715) = (  -0.2886651   0.9272524   0.6715566), wk =   0.0025641
        k(  716) = (  -0.2278945   0.9272524   0.8394457), wk =   0.0025641
        k(  717) = (  -0.1671239   0.9272524   1.0073348), wk =   0.0025641
        k(  718) = (  -0.8963709   0.9272524  -1.0073348), wk =   0.0025641
        k(  719) = (  -0.8356003   0.9272524  -0.8394457), wk =   0.0025641
        k(  720) = (  -0.7748297   0.9272524  -0.6715566), wk =   0.0025641
        k(  721) = (  -0.7140591   0.9272524  -0.5036674), wk =   0.0025641
        k(  722) = (  -0.6532886   0.9272524  -0.3357783), wk =   0.0025641
        k(  723) = (  -0.5925180   0.9272524  -0.1678891), wk =   0.0025641
        k(  724) = (  -0.5317474   1.1127029   0.0000000), wk =   0.0025641
        k(  725) = (  -0.4709768   1.1127029   0.1678891), wk =   0.0025641
        k(  726) = (  -0.4102062   1.1127029   0.3357783), wk =   0.0025641
        k(  727) = (  -0.3494357   1.1127029   0.5036674), wk =   0.0025641
        k(  728) = (  -0.2886651   1.1127029   0.6715566), wk =   0.0025641
        k(  729) = (  -0.2278945   1.1127029   0.8394457), wk =   0.0025641
        k(  730) = (  -0.1671239   1.1127029   1.0073348), wk =   0.0025641
        k(  731) = (  -0.8963709   1.1127029  -1.0073348), wk =   0.0025641
        k(  732) = (  -0.8356003   1.1127029  -0.8394457), wk =   0.0025641
        k(  733) = (  -0.7748297   1.1127029  -0.6715566), wk =   0.0025641
        k(  734) = (  -0.7140591   1.1127029  -0.5036674), wk =   0.0025641
        k(  735) = (  -0.6532886   1.1127029  -0.3357783), wk =   0.0025641
        k(  736) = (  -0.5925180   1.1127029  -0.1678891), wk =   0.0025641
        k(  737) = (  -0.5317474   1.2981534   0.0000000), wk =   0.0025641
        k(  738) = (  -0.4709768   1.2981534   0.1678891), wk =   0.0025641
        k(  739) = (  -0.4102062   1.2981534   0.3357783), wk =   0.0025641
        k(  740) = (  -0.3494357   1.2981534   0.5036674), wk =   0.0025641
        k(  741) = (  -0.2886651   1.2981534   0.6715566), wk =   0.0025641
        k(  742) = (  -0.2278945   1.2981534   0.8394457), wk =   0.0025641
        k(  743) = (  -0.1671239   1.2981534   1.0073348), wk =   0.0025641
        k(  744) = (  -0.8963709   1.2981534  -1.0073348), wk =   0.0025641
        k(  745) = (  -0.8356003   1.2981534  -0.8394457), wk =   0.0025641
        k(  746) = (  -0.7748297   1.2981534  -0.6715566), wk =   0.0025641
        k(  747) = (  -0.7140591   1.2981534  -0.5036674), wk =   0.0025641
        k(  748) = (  -0.6532886   1.2981534  -0.3357783), wk =   0.0025641
        k(  749) = (  -0.5925180   1.2981534  -0.1678891), wk =   0.0025641
        k(  750) = (  -0.5317474   1.4836039   0.0000000), wk =   0.0025641
        k(  751) = (  -0.4709768   1.4836039   0.1678891), wk =   0.0025641
        k(  752) = (  -0.4102062   1.4836039   0.3357783), wk =   0.0025641
        k(  753) = (  -0.3494357   1.4836039   0.5036674), wk =   0.0025641
        k(  754) = (  -0.2886651   1.4836039   0.6715566), wk =   0.0025641
        k(  755) = (  -0.2278945   1.4836039   0.8394457), wk =   0.0025641
        k(  756) = (  -0.1671239   1.4836039   1.0073348), wk =   0.0025641
        k(  757) = (  -0.8963709   1.4836039  -1.0073348), wk =   0.0025641
        k(  758) = (  -0.8356003   1.4836039  -0.8394457), wk =   0.0025641
        k(  759) = (  -0.7748297   1.4836039  -0.6715566), wk =   0.0025641
        k(  760) = (  -0.7140591   1.4836039  -0.5036674), wk =   0.0025641
        k(  761) = (  -0.6532886   1.4836039  -0.3357783), wk =   0.0025641
        k(  762) = (  -0.5925180   1.4836039  -0.1678891), wk =   0.0025641
        k(  763) = (  -0.5317474   1.6690544   0.0000000), wk =   0.0025641
        k(  764) = (  -0.4709768   1.6690544   0.1678891), wk =   0.0025641
        k(  765) = (  -0.4102062   1.6690544   0.3357783), wk =   0.0025641
        k(  766) = (  -0.3494357   1.6690544   0.5036674), wk =   0.0025641
        k(  767) = (  -0.2886651   1.6690544   0.6715566), wk =   0.0025641
        k(  768) = (  -0.2278945   1.6690544   0.8394457), wk =   0.0025641
        k(  769) = (  -0.1671239   1.6690544   1.0073348), wk =   0.0025641
        k(  770) = (  -0.8963709   1.6690544  -1.0073348), wk =   0.0025641
        k(  771) = (  -0.8356003   1.6690544  -0.8394457), wk =   0.0025641
        k(  772) = (  -0.7748297   1.6690544  -0.6715566), wk =   0.0025641
        k(  773) = (  -0.7140591   1.6690544  -0.5036674), wk =   0.0025641
        k(  774) = (  -0.6532886   1.6690544  -0.3357783), wk =   0.0025641
        k(  775) = (  -0.5925180   1.6690544  -0.1678891), wk =   0.0025641
        k(  776) = (  -0.5317474  -1.8545049   0.0000000), wk =   0.0012821
        k(  777) = (  -0.4709768  -1.8545049   0.1678891), wk =   0.0025641
        k(  778) = (  -0.4102062  -1.8545049   0.3357783), wk =   0.0025641
        k(  779) = (  -0.3494357  -1.8545049   0.5036674), wk =   0.0025641
        k(  780) = (  -0.2886651  -1.8545049   0.6715566), wk =   0.0025641
        k(  781) = (  -0.2278945  -1.8545049   0.8394457), wk =   0.0025641
        k(  782) = (  -0.1671239  -1.8545049   1.0073348), wk =   0.0025641

                       cryst. coord.
        k(    1) = (   0.0000000   0.0000000   0.0000000), wk =   0.0012821
        k(    2) = (  -0.0000000   0.0000000   0.0769231), wk =   0.0025641
        k(    3) = (  -0.0000000   0.0000000   0.1538462), wk =   0.0025641
        k(    4) = (   0.0000000   0.0000000   0.2307692), wk =   0.0025641
        k(    5) = (  -0.0000000   0.0000000   0.3076923), wk =   0.0025641
        k(    6) = (   0.0000000   0.0000000   0.3846154), wk =   0.0025641
        k(    7) = (   0.0000000   0.0000000   0.4615385), wk =   0.0025641
        k(    8) = (   0.0000000   0.0500000   0.0000000), wk =   0.0025641
        k(    9) = (  -0.0000000   0.0500000   0.0769231), wk =   0.0025641
        k(   10) = (  -0.0000000   0.0500000   0.1538462), wk =   0.0025641
        k(   11) = (   0.0000000   0.0500000   0.2307692), wk =   0.0025641
        k(   12) = (  -0.0000000   0.0500000   0.3076923), wk =   0.0025641
        k(   13) = (   0.0000000   0.0500000   0.3846154), wk =   0.0025641
        k(   14) = (   0.0000000   0.0500000   0.4615385), wk =   0.0025641
        k(   15) = (  -0.0000000   0.0500000  -0.4615385), wk =   0.0025641
        k(   16) = (  -0.0000000   0.0500000  -0.3846154), wk =   0.0025641
        k(   17) = (   0.0000000   0.0500000  -0.3076923), wk =   0.0025641
        k(   18) = (  -0.0000000   0.0500000  -0.2307692), wk =   0.0025641
        k(   19) = (   0.0000000   0.0500000  -0.1538462), wk =   0.0025641
        k(   20) = (  -0.0000000   0.0500000  -0.0769231), wk =   0.0025641
        k(   21) = (   0.0000000   0.1000000   0.0000000), wk =   0.0025641
        k(   22) = (  -0.0000000   0.1000000   0.0769231), wk =   0.0025641
        k(   23) = (  -0.0000000   0.1000000   0.1538462), wk =   0.0025641
        k(   24) = (   0.0000000   0.1000000   0.2307692), wk =   0.0025641
        k(   25) = (  -0.0000000   0.1000000   0.3076923), wk =   0.0025641
        k(   26) = (   0.0000000   0.1000000   0.3846154), wk =   0.0025641
        k(   27) = (   0.0000000   0.1000000   0.4615385), wk =   0.0025641
        k(   28) = (  -0.0000000   0.1000000  -0.4615385), wk =   0.0025641
        k(   29) = (  -0.0000000   0.1000000  -0.3846154), wk =   0.0025641
        k(   30) = (   0.0000000   0.1000000  -0.3076923), wk =   0.0025641
        k(   31) = (  -0.0000000   0.1000000  -0.2307692), wk =   0.0025641
        k(   32) = (   0.0000000   0.1000000  -0.1538462), wk =   0.0025641
        k(   33) = (  -0.0000000   0.1000000  -0.0769231), wk =   0.0025641
        k(   34) = (   0.0000000   0.1500000   0.0000000), wk =   0.0025641
        k(   35) = (  -0.0000000   0.1500000   0.0769231), wk =   0.0025641
        k(   36) = (  -0.0000000   0.1500000   0.1538462), wk =   0.0025641
        k(   37) = (   0.0000000   0.1500000   0.2307692), wk =   0.0025641
        k(   38) = (  -0.0000000   0.1500000   0.3076923), wk =   0.0025641
        k(   39) = (   0.0000000   0.1500000   0.3846154), wk =   0.0025641
        k(   40) = (   0.0000000   0.1500000   0.4615385), wk =   0.0025641
        k(   41) = (  -0.0000000   0.1500000  -0.4615385), wk =   0.0025641
        k(   42) = (  -0.0000000   0.1500000  -0.3846154), wk =   0.0025641
        k(   43) = (   0.0000000   0.1500000  -0.3076923), wk =   0.0025641
        k(   44) = (  -0.0000000   0.1500000  -0.2307692), wk =   0.0025641
        k(   45) = (   0.0000000   0.1500000  -0.1538462), wk =   0.0025641
        k(   46) = (  -0.0000000   0.1500000  -0.0769231), wk =   0.0025641
        k(   47) = (   0.0000000   0.2000000   0.0000000), wk =   0.0025641
        k(   48) = (  -0.0000000   0.2000000   0.0769231), wk =   0.0025641
        k(   49) = (  -0.0000000   0.2000000   0.1538462), wk =   0.0025641
        k(   50) = (   0.0000000   0.2000000   0.2307692), wk =   0.0025641
        k(   51) = (  -0.0000000   0.2000000   0.3076923), wk =   0.0025641
        k(   52) = (   0.0000000   0.2000000   0.3846154), wk =   0.0025641
        k(   53) = (   0.0000000   0.2000000   0.4615385), wk =   0.0025641
        k(   54) = (  -0.0000000   0.2000000  -0.4615385), wk =   0.0025641
        k(   55) = (  -0.0000000   0.2000000  -0.3846154), wk =   0.0025641
        k(   56) = (   0.0000000   0.2000000  -0.3076923), wk =   0.0025641
        k(   57) = (  -0.0000000   0.2000000  -0.2307692), wk =   0.0025641
        k(   58) = (   0.0000000   0.2000000  -0.1538462), wk =   0.0025641
        k(   59) = (  -0.0000000   0.2000000  -0.0769231), wk =   0.0025641
        k(   60) = (   0.0000000   0.2500000   0.0000000), wk =   0.0025641
        k(   61) = (  -0.0000000   0.2500000   0.0769231), wk =   0.0025641
        k(   62) = (  -0.0000000   0.2500000   0.1538462), wk =   0.0025641
        k(   63) = (   0.0000000   0.2500000   0.2307692), wk =   0.0025641
        k(   64) = (  -0.0000000   0.2500000   0.3076923), wk =   0.0025641
        k(   65) = (   0.0000000   0.2500000   0.3846154), wk =   0.0025641
        k(   66) = (   0.0000000   0.2500000   0.4615385), wk =   0.0025641
        k(   67) = (  -0.0000000   0.2500000  -0.4615385), wk =   0.0025641
        k(   68) = (  -0.0000000   0.2500000  -0.3846154), wk =   0.0025641
        k(   69) = (   0.0000000   0.2500000  -0.3076923), wk =   0.0025641
        k(   70) = (  -0.0000000   0.2500000  -0.2307692), wk =   0.0025641
        k(   71) = (   0.0000000   0.2500000  -0.1538462), wk =   0.0025641
        k(   72) = (  -0.0000000   0.2500000  -0.0769231), wk =   0.0025641
        k(   73) = (   0.0000000   0.3000000   0.0000000), wk =   0.0025641
        k(   74) = (  -0.0000000   0.3000000   0.0769231), wk =   0.0025641
        k(   75) = (  -0.0000000   0.3000000   0.1538462), wk =   0.0025641
        k(   76) = (   0.0000000   0.3000000   0.2307692), wk =   0.0025641
        k(   77) = (  -0.0000000   0.3000000   0.3076923), wk =   0.0025641
        k(   78) = (   0.0000000   0.3000000   0.3846154), wk =   0.0025641
        k(   79) = (   0.0000000   0.3000000   0.4615385), wk =   0.0025641
        k(   80) = (  -0.0000000   0.3000000  -0.4615385), wk =   0.0025641
        k(   81) = (  -0.0000000   0.3000000  -0.3846154), wk =   0.0025641
        k(   82) = (   0.0000000   0.3000000  -0.3076923), wk =   0.0025641
        k(   83) = (  -0.0000000   0.3000000  -0.2307692), wk =   0.0025641
        k(   84) = (   0.0000000   0.3000000  -0.1538462), wk =   0.0025641
        k(   85) = (  -0.0000000   0.3000000  -0.0769231), wk =   0.0025641
        k(   86) = (   0.0000000   0.3500000   0.0000000), wk =   0.0025641
        k(   87) = (  -0.0000000   0.3500000   0.0769231), wk =   0.0025641
        k(   88) = (  -0.0000000   0.3500000   0.1538462), wk =   0.0025641
        k(   89) = (   0.0000000   0.3500000   0.2307692), wk =   0.0025641
        k(   90) = (  -0.0000000   0.3500000   0.3076923), wk =   0.0025641
        k(   91) = (   0.0000000   0.3500000   0.3846154), wk =   0.0025641
        k(   92) = (   0.0000000   0.3500000   0.4615385), wk =   0.0025641
        k(   93) = (  -0.0000000   0.3500000  -0.4615385), wk =   0.0025641
        k(   94) = (  -0.0000000   0.3500000  -0.3846154), wk =   0.0025641
        k(   95) = (   0.0000000   0.3500000  -0.3076923), wk =   0.0025641
        k(   96) = (  -0.0000000   0.3500000  -0.2307692), wk =   0.0025641
        k(   97) = (   0.0000000   0.3500000  -0.1538462), wk =   0.0025641
        k(   98) = (  -0.0000000   0.3500000  -0.0769231), wk =   0.0025641
        k(   99) = (   0.0000000   0.4000000   0.0000000), wk =   0.0025641
        k(  100) = (  -0.0000000   0.4000000   0.0769231), wk =   0.0025641
        k(  101) = (  -0.0000000   0.4000000   0.1538462), wk =   0.0025641
        k(  102) = (   0.0000000   0.4000000   0.2307692), wk =   0.0025641
        k(  103) = (  -0.0000000   0.4000000   0.3076923), wk =   0.0025641
        k(  104) = (   0.0000000   0.4000000   0.3846154), wk =   0.0025641
        k(  105) = (   0.0000000   0.4000000   0.4615385), wk =   0.0025641
        k(  106) = (  -0.0000000   0.4000000  -0.4615385), wk =   0.0025641
        k(  107) = (  -0.0000000   0.4000000  -0.3846154), wk =   0.0025641
        k(  108) = (   0.0000000   0.4000000  -0.3076923), wk =   0.0025641
        k(  109) = (  -0.0000000   0.4000000  -0.2307692), wk =   0.0025641
        k(  110) = (   0.0000000   0.4000000  -0.1538462), wk =   0.0025641
        k(  111) = (  -0.0000000   0.4000000  -0.0769231), wk =   0.0025641
        k(  112) = (   0.0000000   0.4500000   0.0000000), wk =   0.0025641
        k(  113) = (  -0.0000000   0.4500000   0.0769231), wk =   0.0025641
        k(  114) = (  -0.0000000   0.4500000   0.1538462), wk =   0.0025641
        k(  115) = (   0.0000000   0.4500000   0.2307692), wk =   0.0025641
        k(  116) = (  -0.0000000   0.4500000   0.3076923), wk =   0.0025641
        k(  117) = (   0.0000000   0.4500000   0.3846154), wk =   0.0025641
        k(  118) = (   0.0000000   0.4500000   0.4615385), wk =   0.0025641
        k(  119) = (  -0.0000000   0.4500000  -0.4615385), wk =   0.0025641
        k(  120) = (  -0.0000000   0.4500000  -0.3846154), wk =   0.0025641
        k(  121) = (   0.0000000   0.4500000  -0.3076923), wk =   0.0025641
        k(  122) = (  -0.0000000   0.4500000  -0.2307692), wk =   0.0025641
        k(  123) = (   0.0000000   0.4500000  -0.1538462), wk =   0.0025641
        k(  124) = (  -0.0000000   0.4500000  -0.0769231), wk =   0.0025641
        k(  125) = (   0.0000000  -0.5000000   0.0000000), wk =   0.0012821
        k(  126) = (  -0.0000000  -0.5000000   0.0769231), wk =   0.0025641
        k(  127) = (  -0.0000000  -0.5000000   0.1538462), wk =   0.0025641
        k(  128) = (   0.0000000  -0.5000000   0.2307692), wk =   0.0025641
        k(  129) = (  -0.0000000  -0.5000000   0.3076923), wk =   0.0025641
        k(  130) = (   0.0000000  -0.5000000   0.3846154), wk =   0.0025641
        k(  131) = (   0.0000000  -0.5000000   0.4615385), wk =   0.0025641
        k(  132) = (   0.1666667   0.0000000   0.0000000), wk =   0.0025641
        k(  133) = (   0.1666667   0.0000000   0.0769231), wk =   0.0025641
        k(  134) = (   0.1666667   0.0000000   0.1538462), wk =   0.0025641
        k(  135) = (   0.1666667   0.0000000   0.2307692), wk =   0.0025641
        k(  136) = (   0.1666667   0.0000000   0.3076923), wk =   0.0025641
        k(  137) = (   0.1666667   0.0000000   0.3846154), wk =   0.0025641
        k(  138) = (   0.1666667   0.0000000   0.4615385), wk =   0.0025641
        k(  139) = (   0.1666667   0.0000000  -0.4615385), wk =   0.0025641
        k(  140) = (   0.1666667   0.0000000  -0.3846154), wk =   0.0025641
        k(  141) = (   0.1666667   0.0000000  -0.3076923), wk =   0.0025641
        k(  142) = (   0.1666667   0.0000000  -0.2307692), wk =   0.0025641
        k(  143) = (   0.1666667   0.0000000  -0.1538462), wk =   0.0025641
        k(  144) = (   0.1666667   0.0000000  -0.0769231), wk =   0.0025641
        k(  145) = (   0.1666667   0.0500000   0.0000000), wk =   0.0025641
        k(  146) = (   0.1666667   0.0500000   0.0769231), wk =   0.0025641
        k(  147) = (   0.1666667   0.0500000   0.1538462), wk =   0.0025641
        k(  148) = (   0.1666667   0.0500000   0.2307692), wk =   0.0025641
        k(  149) = (   0.1666667   0.0500000   0.3076923), wk =   0.0025641
        k(  150) = (   0.1666667   0.0500000   0.3846154), wk =   0.0025641
        k(  151) = (   0.1666667   0.0500000   0.4615385), wk =   0.0025641
        k(  152) = (   0.1666667   0.0500000  -0.4615385), wk =   0.0025641
[...]
    -0.0110

          k =-0.1671-1.8545 1.0073 ( 11604 PWs)   bands (ev):

    -3.6567  -3.6567  -3.1032  -3.1032  -2.2140  -2.2140  -1.7087  -1.7087
    -0.7867  -0.7867   0.5539   0.5539   0.8484   0.8484   1.8685   1.8685
     2.2596   2.2596   2.3541   2.3541   3.4911   3.4911   3.7951   3.7951
     3.9377   3.9377   4.4514   4.4514   4.6388   4.6388   5.6392   5.6392
     5.7220   5.7220   6.0587   6.0587   6.8034   6.8034   7.4971   7.4971
     7.7458

     occupation numbers 
     1.0000   1.0000   1.0000   1.0000   1.0000   1.0000   1.0000   1.0000
     1.0000   1.0000   1.0000   1.0000   1.0000   1.0000   1.0000   1.0000
     1.0000   1.0000   1.0000   1.0000   1.0000   1.0000   1.0000   1.0000
     1.0000   1.0000   1.0000   1.0000   1.0000   1.0000   1.0163   1.0163
     1.0224   1.0224   1.0298   1.0298   0.3443   0.3443  -0.0336  -0.0336
    -0.0161

     the Fermi energy is     6.6908 ev

!    total energy              =    -473.15916467 Ry
     Harris-Foulkes estimate   =    -473.15916467 Ry
     estimated scf accuracy    <          2.0E-13 Ry

     The total energy is the sum of the following terms:

     one-electron contribution =      36.38362259 Ry
     hartree contribution      =      13.21732362 Ry
     xc contribution           =     -90.16190230 Ry
     ewald contribution        =    -119.72662186 Ry
     one-center paw contrib.   =    -312.87021218 Ry
      -> PAW hartree energy AE =       0.81393515 Ry
      -> PAW hartree energy PS =      -0.81208411 Ry
      -> PAW xc energy AE      =     -32.61953781 Ry
      -> PAW xc energy PS      =       1.32357611 Ry
      -> total E_H with PAW    =      13.21917466 Ry
      -> total E_XC with PAW   =    -121.45786400 Ry
     smearing contrib. (-TS)   =      -0.00137456 Ry

     convergence has been achieved in  19 iterations

     Forces acting on atoms (cartesian axes, Ry/au):

     atom    1 type  1   force =    -0.00000196    0.00000025   -0.00000012
     atom    2 type  1   force =    -0.00044333   -0.00000013    0.00002082
     atom    3 type  1   force =    -0.00063024   -0.00000010   -0.00012253
     atom    4 type  1   force =     0.00063080    0.00000006    0.00012260
     atom    5 type  1   force =     0.00044320    0.00000016   -0.00002151
     atom    6 type  2   force =     0.00005370   -0.00000008    0.00040584
     atom    7 type  2   force =    -0.00011984    0.00000003    0.00105249
     atom    8 type  2   force =    -0.00058201   -0.00000027   -0.00060770
     atom    9 type  2   force =     0.00058474    0.00000020    0.00060762
     atom   10 type  2   force =     0.00012002    0.00000004   -0.00105219
     atom   11 type  2   force =    -0.00005360    0.00000011   -0.00040552
     atom   12 type  1   force =    -0.00000225   -0.00000026   -0.00000003
     atom   13 type  1   force =    -0.00044315   -0.00000002    0.00002132
     atom   14 type  1   force =    -0.00063086    0.00000021   -0.00012279
     atom   15 type  1   force =     0.00063027   -0.00000016    0.00012242
     atom   16 type  1   force =     0.00044363   -0.00000000   -0.00002105
     atom   17 type  2   force =     0.00005442    0.00000009    0.00040528
     atom   18 type  2   force =    -0.00011910    0.00000016    0.00105244
     atom   19 type  2   force =    -0.00058407    0.00000028   -0.00060728
     atom   20 type  2   force =     0.00058236   -0.00000022    0.00060815
     atom   21 type  2   force =     0.00012027   -0.00000022   -0.00105222
     atom   22 type  2   force =    -0.00005298   -0.00000010   -0.00040603
     The non-local contrib.  to forces
     atom    1 type  1   force =    -0.00001280   -0.00000172   -0.00000085
     atom    2 type  1   force =     0.00748025   -0.00000034    0.01090735
     atom    3 type  1   force =     0.01696528   -0.00000010    0.00317379
     atom    4 type  1   force =    -0.01698070    0.00000029   -0.00317522
     atom    5 type  1   force =    -0.00749330    0.00000021   -0.01091137
     atom    6 type  2   force =     0.00004073   -0.00000077   -0.06317126
     atom    7 type  2   force =     0.04404740    0.00000034    0.01438953
     atom    8 type  2   force =    -0.01365968    0.00000003    0.02673842
     atom    9 type  2   force =     0.01365921    0.00000001   -0.02673703
     atom   10 type  2   force =    -0.04404993   -0.00000016   -0.01438773
     atom   11 type  2   force =    -0.00004027    0.00000077    0.06317066
     atom   12 type  1   force =    -0.00001317    0.00000179   -0.00000062
     atom   13 type  1   force =     0.00748213    0.00000032    0.01090629
     atom   14 type  1   force =     0.01696433    0.00000000    0.00317494
     atom   15 type  1   force =    -0.01698127   -0.00000015   -0.00317391
     atom   16 type  1   force =    -0.00749085   -0.00000022   -0.01091272
     atom   17 type  2   force =     0.00004309    0.00000095   -0.06317048
     atom   18 type  2   force =     0.04404945   -0.00000025    0.01438837
     atom   19 type  2   force =    -0.01366003    0.00000040    0.02674011
     atom   20 type  2   force =     0.01365841   -0.00000049   -0.02673556
     atom   21 type  2   force =    -0.04404836    0.00000007   -0.01438888
     atom   22 type  2   force =    -0.00003796   -0.00000094    0.06317188
     The ionic contribution  to forces
     atom    1 type  1   force =    -0.00003235   -0.00000007   -0.00000752
     atom    2 type  1   force =    -0.41751690    0.00000028   -0.39026971
     atom    3 type  1   force =    -0.25312798    0.00000022    0.19961052
     atom    4 type  1   force =     0.25312605   -0.00000022   -0.19959633
     atom    5 type  1   force =     0.41748660   -0.00000028    0.39027572
     atom    6 type  2   force =    -0.24324988   -0.00000024    1.18328260
     atom    7 type  2   force =    -1.16248668   -0.00000053   -1.24904438
     atom    8 type  2   force =    -0.10059887   -0.00000053    0.73739106
     atom    9 type  2   force =     0.10061242    0.00000053   -0.73738773
     atom   10 type  2   force =     1.16252730    0.00000053    1.24902906
     atom   11 type  2   force =     0.24326288    0.00000024   -1.18328328
     atom   12 type  1   force =    -0.00003479    0.00000007   -0.00000740
     atom   13 type  1   force =    -0.41751853   -0.00000028   -0.39026956
     atom   14 type  1   force =    -0.25312891   -0.00000022    0.19961044
     atom   15 type  1   force =     0.25312654    0.00000022   -0.19959603
     atom   16 type  1   force =     0.41748872    0.00000028    0.39027538
     atom   17 type  2   force =    -0.24325211    0.00000024    1.18328220
     atom   18 type  2   force =    -1.16248734    0.00000053   -1.24904340
     atom   19 type  2   force =    -0.10059983    0.00000053    0.73739031
     atom   20 type  2   force =     0.10061159   -0.00000053   -0.73738731
     atom   21 type  2   force =     1.16252704   -0.00000053    1.24902853
     atom   22 type  2   force =     0.24326503   -0.00000024   -1.18328318
     The local contribution  to forces
     atom    1 type  1   force =     0.00003972    0.00000187    0.00000791
     atom    2 type  1   force =     0.41059874   -0.00000010    0.37988754
     atom    3 type  1   force =     0.23743567   -0.00000023   -0.20234295
     atom    4 type  1   force =    -0.23742347    0.00000001    0.20232967
     atom    5 type  1   force =    -0.41056102    0.00000024   -0.37989122
     atom    6 type  2   force =     0.24311408    0.00000086   -1.12582459
     atom    7 type  2   force =     1.12257175    0.00000024    1.23678777
     atom    8 type  2   force =     0.11227108    0.00000022   -0.76177702
     atom    9 type  2   force =    -0.11228108   -0.00000033    0.76177350
     atom   10 type  2   force =    -1.12260998   -0.00000034   -1.23677368
     atom   11 type  2   force =    -0.24312570   -0.00000082    1.12582680
     atom   12 type  1   force =     0.00004219   -0.00000194    0.00000767
     atom   13 type  1   force =     0.41059881   -0.00000002    0.37988885
     atom   14 type  1   force =     0.23743682    0.00000042   -0.20234417
     atom   15 type  1   force =    -0.23742397   -0.00000025    0.20232802
     atom   16 type  1   force =    -0.41056490   -0.00000009   -0.37988921
     atom   17 type  2   force =     0.24311490   -0.00000100   -1.12582546
     atom   18 type  2   force =     1.12257131   -0.00000016    1.23678779
     atom   19 type  2   force =     0.11227028   -0.00000063   -0.76177735
     atom   20 type  2   force =    -0.11228193    0.00000076    0.76177230
     atom   21 type  2   force =    -1.12261088    0.00000025   -1.23677216
     atom   22 type  2   force =    -0.24312928    0.00000098    1.12582511
     The core correction contribution to forces
     atom    1 type  1   force =     0.00000147    0.00000018    0.00000008
     atom    2 type  1   force =    -0.00100735    0.00000003   -0.00050464
     atom    3 type  1   force =    -0.00190517    0.00000001   -0.00056414
     atom    4 type  1   force =     0.00190689   -0.00000003    0.00056420
     atom    5 type  1   force =     0.00100886   -0.00000002    0.00050510
     atom    6 type  2   force =     0.00014686    0.00000008    0.00611884
     atom    7 type  2   force =    -0.00425423   -0.00000004   -0.00108065
     atom    8 type  2   force =     0.00140352   -0.00000001   -0.00296047
     atom    9 type  2   force =    -0.00140786    0.00000000    0.00295866
     atom   10 type  2   force =     0.00425057    0.00000002    0.00107984
     atom   11 type  2   force =    -0.00015259   -0.00000008   -0.00611997
     atom   12 type  1   force =     0.00000151   -0.00000018    0.00000005
     atom   13 type  1   force =    -0.00100752   -0.00000003   -0.00050454
     atom   14 type  1   force =    -0.00190507    0.00000001   -0.00056426
     atom   15 type  1   force =     0.00190694    0.00000001    0.00056407
     atom   16 type  1   force =     0.00100862    0.00000002    0.00050524
     atom   17 type  2   force =     0.00014661   -0.00000010    0.00611875
     atom   18 type  2   force =    -0.00425445    0.00000003   -0.00108052
     atom   19 type  2   force =     0.00140356   -0.00000004   -0.00296066
     atom   20 type  2   force =    -0.00140777    0.00000005    0.00295850
     atom   21 type  2   force =     0.00425040   -0.00000001    0.00107997
     atom   22 type  2   force =    -0.00015284    0.00000010   -0.00612011
     The Hubbard contrib.    to forces
     atom    1 type  1   force =     0.00000000    0.00000000    0.00000000
     atom    2 type  1   force =     0.00000000    0.00000000    0.00000000
     atom    3 type  1   force =     0.00000000    0.00000000    0.00000000
     atom    4 type  1   force =     0.00000000    0.00000000    0.00000000
     atom    5 type  1   force =     0.00000000    0.00000000    0.00000000
     atom    6 type  2   force =     0.00000000    0.00000000    0.00000000
     atom    7 type  2   force =     0.00000000    0.00000000    0.00000000
     atom    8 type  2   force =     0.00000000    0.00000000    0.00000000
     atom    9 type  2   force =     0.00000000    0.00000000    0.00000000
     atom   10 type  2   force =     0.00000000    0.00000000    0.00000000
     atom   11 type  2   force =     0.00000000    0.00000000    0.00000000
     atom   12 type  1   force =     0.00000000    0.00000000    0.00000000
     atom   13 type  1   force =     0.00000000    0.00000000    0.00000000
     atom   14 type  1   force =     0.00000000    0.00000000    0.00000000
     atom   15 type  1   force =     0.00000000    0.00000000    0.00000000
     atom   16 type  1   force =     0.00000000    0.00000000    0.00000000
     atom   17 type  2   force =     0.00000000    0.00000000    0.00000000
     atom   18 type  2   force =     0.00000000    0.00000000    0.00000000
     atom   19 type  2   force =     0.00000000    0.00000000    0.00000000
     atom   20 type  2   force =     0.00000000    0.00000000    0.00000000
     atom   21 type  2   force =     0.00000000    0.00000000    0.00000000
     atom   22 type  2   force =     0.00000000    0.00000000    0.00000000
     The SCF correction term to forces
     atom    1 type  1   force =    -0.00000001   -0.00000000    0.00000000
     atom    2 type  1   force =    -0.00000006   -0.00000000    0.00000001
     atom    3 type  1   force =    -0.00000004   -0.00000000   -0.00000001
     atom    4 type  1   force =     0.00000004    0.00000000    0.00000001
     atom    5 type  1   force =     0.00000006    0.00000000   -0.00000001
     atom    6 type  2   force =    -0.00000009    0.00000000   -0.00000001
     atom    7 type  2   force =    -0.00000007    0.00000001   -0.00000005
     atom    8 type  2   force =    -0.00000006    0.00000001    0.00000004
     atom    9 type  2   force =     0.00000005   -0.00000001   -0.00000004
     atom   10 type  2   force =     0.00000006   -0.00000001    0.00000005
     atom   11 type  2   force =     0.00000009   -0.00000000    0.00000000
     atom   12 type  1   force =     0.00000001   -0.00000000   -0.00000000
     atom   13 type  1   force =    -0.00000005   -0.00000000    0.00000001
     atom   14 type  1   force =    -0.00000003   -0.00000000   -0.00000001
     atom   15 type  1   force =     0.00000003    0.00000000    0.00000001
     atom   16 type  1   force =     0.00000005    0.00000000   -0.00000001
     atom   17 type  2   force =    -0.00000006    0.00000000   -0.00000000
     atom   18 type  2   force =    -0.00000006    0.00000001   -0.00000006
     atom   19 type  2   force =    -0.00000004    0.00000001    0.00000004
     atom   20 type  2   force =     0.00000006   -0.00000001   -0.00000004
     atom   21 type  2   force =     0.00000006   -0.00000001    0.00000005
     atom   22 type  2   force =     0.00000007   -0.00000000    0.00000001

     Total force =     0.003230     Total SCF correction =     0.000000


     Computing stress (Cartesian axis) and pressure

          total   stress  (Ry/bohr**3)                   (kbar)     P=   -4.09
  -0.00002842  -0.00000000  -0.00000955         -4.18     -0.00     -1.40
  -0.00000000  -0.00002604  -0.00000000         -0.00     -3.83     -0.00
  -0.00000955  -0.00000000  -0.00002894         -1.40     -0.00     -4.26

     kinetic stress (kbar)   1567.13     -0.00     -0.02
                               -0.00   1590.01     -0.00
                               -0.02     -0.00   1587.67

     local   stress (kbar)   -148.72      0.00    281.20
                                0.00   -384.00     -0.00
                              281.20     -0.00    186.71

     nonloc. stress (kbar)   1239.53      0.00      2.56
                                0.00   1224.17      0.00
                                2.56      0.00   1224.10

     hartree stress (kbar)    216.62     -0.00   -126.22
                               -0.00    387.19     -0.00
                             -126.22     -0.00    111.64

     exc-cor stress (kbar)   1970.08     -0.00      0.09
                               -0.00   1969.41      0.00
                                0.09      0.00   1969.44

     corecor stress (kbar)  -2748.73      0.00     -0.39
                                0.00  -2746.88     -0.00
                               -0.39     -0.00  -2746.90

     ewald   stress (kbar)  -2100.10      0.00   -158.62
                                0.00  -2043.73      0.00
                             -158.62      0.00  -2336.93

     hubbard stress (kbar)      0.00      0.00      0.00
                                0.00      0.00      0.00
                                0.00      0.00      0.00

     london  stress (kbar)      0.00      0.00      0.00
                                0.00      0.00      0.00
                                0.00      0.00      0.00

     DFT-D3  stress (kbar)      0.00      0.00      0.00
                                0.00      0.00      0.00
                                0.00      0.00      0.00

     XDM     stress (kbar)      0.00      0.00      0.00
                                0.00      0.00      0.00
                                0.00      0.00      0.00

     dft-nl  stress (kbar)      0.00      0.00      0.00
                                0.00      0.00      0.00
                                0.00      0.00      0.00

     TS-vdW  stress (kbar)      0.00      0.00      0.00
                                0.00      0.00      0.00
                                0.00      0.00      0.00



     Writing output data file aiida.save/
 
     init_run     :     22.63s CPU     23.04s WALL (       1 calls)
     electrons    :    886.71s CPU    898.50s WALL (       1 calls)
     forces       :      8.96s CPU      9.02s WALL (       1 calls)
     stress       :     68.14s CPU     69.00s WALL (       1 calls)

     Called by init_run:
     wfcinit      :     20.68s CPU     21.02s WALL (       1 calls)
     wfcinit:atom :      0.17s CPU      0.19s WALL (     196 calls)
     wfcinit:wfcr :     19.21s CPU     19.45s WALL (     196 calls)
     potinit      :      0.57s CPU      0.59s WALL (       1 calls)
     hinit0       :      1.00s CPU      1.02s WALL (       1 calls)

     Called by electrons:
     c_bands      :    791.14s CPU    800.35s WALL (      20 calls)
     sum_band     :     91.27s CPU     93.06s WALL (      20 calls)
     v_of_rho     :      1.81s CPU      1.92s WALL (      20 calls)
     v_h          :      0.14s CPU      0.14s WALL (      20 calls)
     v_xc         :      1.81s CPU      1.92s WALL (      22 calls)
     newd         :      1.00s CPU      1.58s WALL (      20 calls)
     PAW_pot      :      0.65s CPU      0.68s WALL (      20 calls)
     mix_rho      :      0.64s CPU      0.71s WALL (      20 calls)

     Called by c_bands:
     init_us_2    :     26.70s CPU     27.12s WALL (    8428 calls)
     cegterg      :    614.54s CPU    622.16s WALL (    3920 calls)

     Called by sum_band:
     sum_band:bec :      0.55s CPU      0.55s WALL (    3920 calls)
     addusdens    :      0.97s CPU      1.56s WALL (      20 calls)

     Called by *egterg:
     h_psi        :    422.36s CPU    428.65s WALL (   17709 calls)
     s_psi        :     62.00s CPU     62.15s WALL (   17709 calls)
     g_psi        :      2.90s CPU      2.93s WALL (   13593 calls)
     cdiaghg      :     68.10s CPU     69.14s WALL (   17317 calls)
     cegterg:over :     29.03s CPU     29.17s WALL (   13593 calls)
     cegterg:upda :     25.15s CPU     25.35s WALL (   13593 calls)
     cegterg:last :     10.35s CPU     10.42s WALL (    4315 calls)
     cdiaghg:chol :      4.33s CPU      4.37s WALL (   17317 calls)
     cdiaghg:inve :      0.89s CPU      0.90s WALL (   17317 calls)
     cdiaghg:para :      8.73s CPU      8.79s WALL (   34634 calls)

     Called by h_psi:
     h_psi:pot    :    420.26s CPU    426.54s WALL (   17709 calls)
     h_psi:calbec :     59.96s CPU     60.64s WALL (   17709 calls)
     vloc_psi     :    297.49s CPU    302.93s WALL (   17709 calls)
     add_vuspsi   :     62.64s CPU     62.83s WALL (   17709 calls)

     General routines
     calbec       :    107.02s CPU    108.63s WALL (   22609 calls)
     fft          :      1.54s CPU      1.63s WALL (     285 calls)
     ffts         :      0.21s CPU      0.23s WALL (     318 calls)
     fftw         :    317.93s CPU    323.57s WALL ( 1055314 calls)
     interpolate  :      0.15s CPU      0.16s WALL (      20 calls)
 
     Parallel routines
     fft_scatt_xy :     40.89s CPU     41.66s WALL ( 1055917 calls)
     fft_scatt_yz :    121.82s CPU    124.19s WALL ( 1055917 calls)

     PAW routines
     PAW_pot      :      0.65s CPU      0.68s WALL (      20 calls)
 
     PWSCF        :  16m50.57s CPU  17m22.68s WALL

 
   This run was terminated on:  11:42:37  22Feb2020            

=------------------------------------------------------------------------------=
   JOB DONE.
=------------------------------------------------------------------------------=
