begin
comment uuid: d211866b-737d-4d8b-bb76-5bfdc6d8e3de
lattice     27.1086740000     0.0000000000     0.0000000000
lattice     13.5543360000    23.4768000000     0.0000000000
lattice     13.5543360000     7.8256000000    22.1341400000
atom     32.5092940000     3.2108780000     8.9572440000   Mg  0.0 0.0   -1.19150000e-05  1.30168500e-03 -1.03890500e-03
atom     21.7276700000    27.3724980000    14.1049520000   Mg  0.0 0.0   -1.73301500e-03  2.51160000e-03 -1.17503000e-03
atom     19.4061050000    20.6763340000    17.4623190000   Mg  0.0 0.0    2.21989000e-03 -2.65450000e-04 -2.14929500e-03
atom     27.1797910000    27.7426620000    12.7396210000   Mg  0.0 0.0   -7.56155000e-04 -1.46055000e-04 -2.50960000e-04
atom     21.8061410000    21.9518560000     9.4701550000   Mg  0.0 0.0   -2.76955000e-04 -4.48255000e-04  6.79070000e-04
atom     26.1891040000    24.6731820000    17.2690350000   Mg  0.0 0.0    2.83781000e-03  6.18080000e-04  2.32096000e-03
atom     32.5799960000    28.1259990000    13.2210270000   Mg  0.0 0.0    2.37615000e-04  2.96885000e-04 -6.43115000e-04
atom     26.6262470000    19.2329860000    13.4771700000   Mg  0.0 0.0   -5.13730000e-04 -1.37668000e-03  8.20015000e-04
atom     27.2238470000    22.5957590000     9.1013900000   Mg  0.0 0.0    3.03175000e-04  1.92640000e-04 -1.33917000e-03
atom     32.5831530000    22.1056970000     8.8199020000   Mg  0.0 0.0   -5.22925000e-04  2.71135000e-04 -2.10900000e-05
atom     37.9564440000    25.0749830000    17.7314850000   Mg  0.0 0.0   -5.68010000e-04 -2.03255000e-04  1.80315000e-04
atom     37.9009360000    24.9961900000     4.3645360000   Mg  0.0 0.0   -7.34870000e-04  7.44865000e-04  1.51875000e-04
atom     11.1466840000     6.3739590000    17.7141540000   Si  0.0 0.0   -6.53715000e-04 -1.67171000e-03  1.10605000e-04
atom     45.4837210000    23.5314680000    13.2178140000   Si  0.0 0.0   -1.97551500e-03  1.30420500e-03  3.14990000e-04
atom     10.5766400000     3.4299220000     8.5480150000   Si  0.0 0.0   -2.31918000e-03  1.87425000e-04  1.59210000e-04
atom     21.4468630000    18.0516410000    13.1007890000   Si  0.0 0.0   -1.41500000e-04  1.70639000e-03  2.85250000e-04
atom     24.5405080000    19.9473840000    18.3114130000   Si  0.0 0.0    6.85445000e-04 -1.15614500e-03  1.32244000e-03
atom     16.7221240000     3.5837440000     8.1501630000   Si  0.0 0.0    1.03275000e-04 -2.44614500e-03 -1.32975000e-04
atom     16.2105360000     6.4320930000     4.2735160000   Si  0.0 0.0    6.63625000e-04 -1.18029500e-03  2.82061000e-03
atom     21.8163470000     9.5117150000    13.2565200000   Si  0.0 0.0   -1.91509500e-03  3.58725000e-04 -7.18065000e-04
atom     30.1009040000    23.2360710000    13.7178920000   Si  0.0 0.0   -2.72475000e-04  7.21000000e-06 -6.05250000e-05
atom     19.0674270000     1.4817230000     4.0983190000   Si  0.0 0.0    7.93680000e-04 -2.07415000e-03 -2.00775000e-04
atom     27.0592330000    12.4981620000     8.8976160000   Si  0.0 0.0    4.79495000e-04  1.40717000e-03 -2.91505000e-04
atom     32.3325460000     6.3928960000    17.8239780000   Si  0.0 0.0   -1.55580000e-04 -7.32750000e-04  1.28460000e-04
atom     13.5975900000     7.8648990000    22.0966570000   Al  0.0 0.0    4.99545000e-04 -6.52175000e-04 -4.83165000e-04
atom      2.7683290000     1.5674950000     4.3791070000   Al  0.0 0.0   -1.64520000e-04 -5.14455000e-04  7.54220000e-04
atom     16.2804060000    12.5409650000    22.0988050000   Al  0.0 0.0   -4.97375000e-04  4.91010000e-04  9.22650000e-05
atom     32.5228260000     6.3243480000     4.3581290000   Al  0.0 0.0   -2.47555000e-04  3.16115000e-04 -1.64850000e-05
atom     35.2253100000     7.9330280000     8.9094090000   Al  0.0 0.0    3.83305000e-04 -1.17972500e-03  9.46125000e-04
atom     10.8443690000     9.2607500000    13.3366340000   Al  0.0 0.0   -5.15375000e-04 -8.84250000e-05 -1.08055500e-03
atom     40.6841780000    11.0083030000    17.7019640000   Al  0.0 0.0    6.91770000e-04  6.66550000e-05 -2.51955000e-04
atom     46.1050580000    17.2733020000    22.1126270000   Al  0.0 0.0   -1.85520000e-04 -1.20445000e-04 -3.77150000e-05
atom     35.2350810000    10.9652870000     4.4524750000   Al  0.0 0.0   -1.02425000e-04 -6.55250000e-05  3.13155000e-04
atom     37.9415140000    12.5213330000     8.8594020000   Al  0.0 0.0    1.45625000e-04 -6.94735000e-04 -6.14560000e-04
atom     40.6320910000    14.0446250000    13.2835080000   Al  0.0 0.0   -1.17600000e-04 -5.60035000e-04  4.90685000e-04
atom     16.3073380000    15.6799720000    17.7180850000   Al  0.0 0.0    6.07865000e-04  1.75810000e-04 -1.04543500e-03
atom      8.2099990000    14.1469470000     0.0823020000   Al  0.0 0.0   -1.33420000e-04  9.72920000e-04 -1.52880000e-04
atom     10.8611140000    15.5981760000     4.4478820000   Al  0.0 0.0   -3.94400000e-05  3.92200000e-05  1.66955000e-04
atom     13.5707410000    17.1701340000     8.8862390000   Al  0.0 0.0   -5.33585000e-04  1.15233500e-03  1.58500000e-04
atom     16.2572360000    18.7145940000    13.2735480000   Al  0.0 0.0    4.52405000e-04 -9.71580000e-04 -4.71000000e-06
atom     51.4872700000    26.6704680000    22.0770760000   Al  0.0 0.0   -4.96775000e-04 -7.81255000e-04  4.78700000e-05
atom     13.5576060000    20.2722650000     4.3770660000   Al  0.0 0.0    9.92905000e-04 -2.18025000e-04  2.40970000e-04
atom     16.2208930000    21.8673750000     8.8064450000   Al  0.0 0.0   -1.30820500e-03 -1.30273500e-03 -8.99800000e-04
atom     18.9667680000     7.8289720000    22.1105990000   Al  0.0 0.0   -8.84005000e-04 -8.44175000e-04  8.10000000e-05
atom     21.7132880000    25.0195190000     4.3984980000   Al  0.0 0.0   -1.21450000e-05 -5.29125000e-04  4.59880000e-04
atom     29.7372970000    29.7059520000    17.6508600000   Al  0.0 0.0    6.06555000e-04 -2.29195000e-04  9.72635000e-04
atom     21.6813480000    12.5156210000    22.1263550000   Al  0.0 0.0    6.14470000e-04 -7.25945000e-04  5.89100000e-05
atom     10.8295900000     6.2729980000     4.3995560000   Al  0.0 0.0   -2.93125000e-04 -1.90215000e-04  8.86790000e-04
atom     13.5611590000     7.8808850000     8.7287690000   Al  0.0 0.0    2.49350000e-04 -3.38510000e-04  1.15515000e-03
atom     16.2139560000     9.3668890000    13.2502830000   Al  0.0 0.0   -3.91540000e-04 -1.61682500e-03 -5.01235000e-04
atom     18.9855930000    10.9413230000    17.6830830000   Al  0.0 0.0   -1.25615500e-03 -8.49440000e-04 -5.00380000e-04
atom     10.8556140000     9.2863770000     0.1623950000   Al  0.0 0.0    8.47675000e-04  9.27310000e-04 -4.14695000e-04
atom     13.5644290000    10.9448760000     4.4263180000   Al  0.0 0.0   -3.19285000e-04  2.12510000e-04  2.34100000e-05
atom     16.2595990000    12.5438040000     8.8389710000   Al  0.0 0.0    4.24305000e-04 -7.82375000e-04  5.33490000e-04
atom     18.8991660000    13.8789530000    13.2750790000   Al  0.0 0.0   -5.13705000e-04 -1.19260000e-03  2.04590000e-04
atom     21.7001150000    15.6133140000    17.7162330000   Al  0.0 0.0   -8.79040000e-04  1.24905000e-04 -5.39085000e-04
atom     13.6175930000    14.0794760000     0.0630400000   Al  0.0 0.0   -5.53945000e-04  3.25125000e-04 -4.48520000e-04
atom     16.2833170000    15.6199290000     4.4384320000   Al  0.0 0.0    7.71500000e-06  1.07707000e-03 -1.20705000e-03
atom     18.9648040000    17.1494580000     8.8137220000   Al  0.0 0.0    2.10120000e-04  3.65995000e-04  5.22350000e-05
atom     29.7285470000    26.5751960000    22.0902770000   Al  0.0 0.0    1.06288500e-03  3.93455000e-04 -1.46990000e-04
atom     19.0203680000    20.3586350000     4.4887800000   Al  0.0 0.0   -7.28890000e-04  1.57355000e-04  1.76250000e-04
atom     10.8683520000     0.0298320000     0.0244480000   Al  0.0 0.0    2.29050000e-04  9.53925000e-04  3.64370000e-04
atom     13.6760300000     1.7321200000     4.3706970000   Al  0.0 0.0    2.21290000e-04 -1.06683000e-03  8.14295000e-04
atom     21.6823500000     6.3522620000    17.7489860000   Al  0.0 0.0    6.10450000e-04 -1.11805000e-04 -8.10245000e-04
atom     13.5636920000     4.7017960000     0.0014620000   Al  0.0 0.0   -4.47185000e-04 -4.86450000e-04 -8.04895000e-04
atom     19.0262270000     8.0011600000     8.8067290000   Al  0.0 0.0    9.80645000e-04  8.31400000e-05  1.20575500e-03
atom     24.3908250000    11.0021410000    17.7123590000   Al  0.0 0.0    5.24680000e-04 -3.30780000e-04  1.21459500e-03
atom     16.3080380000     9.3320190000     0.0613470000   Al  0.0 0.0   -4.14735000e-04  1.51690500e-03 -1.60506000e-03
atom     18.9625360000    10.9472570000     4.4259020000   Al  0.0 0.0    6.87465000e-04  4.87400000e-04  3.22455000e-04
atom     21.7343230000    12.5301590000     8.8289170000   Al  0.0 0.0    2.31090000e-04  1.34080000e-04 -1.22845000e-04
atom     24.4195520000    14.0470630000    13.2647790000   Al  0.0 0.0    6.19215000e-04 -9.42550000e-04  9.34000000e-05
atom     27.1594000000    15.5970800000    17.7496660000   Al  0.0 0.0    5.22550000e-04 -1.15825000e-04 -1.40591000e-03
atom     19.0129970000    14.0839170000     0.0456330000   Al  0.0 0.0   -6.43275000e-04  8.93680000e-04 -1.14712000e-03
atom     21.7059740000    15.6271110000     4.4492810000   Al  0.0 0.0    1.15225000e-04  9.63600000e-04  4.25765000e-04
atom     24.4722810000    17.1504600000     8.8018910000   Al  0.0 0.0   -1.15285000e-04  1.00276000e-03  2.77215000e-04
atom     29.9085080000    20.2643270000    17.8760270000   Al  0.0 0.0    3.26150000e-05  4.05465000e-04 -6.68245000e-04
atom     21.6729000000    18.8150260000     0.0947110000   Al  0.0 0.0    2.33705000e-04 -6.15650000e-05  9.62410000e-04
atom     24.4416640000    20.3930320000     4.5248970000   Al  0.0 0.0   -4.75510000e-04  9.31245000e-04 -7.83115000e-04
atom     32.4058760000    25.0528710000    17.8399670000   Al  0.0 0.0    7.59450000e-05 -4.17610000e-04  5.06305000e-04
atom     16.2667610000     0.0251140000     0.0263810000   Al  0.0 0.0    1.43650000e-05 -5.27040000e-04  1.07480000e-04
atom     21.7900770000     3.2906330000     8.8015880000   Al  0.0 0.0    1.67220000e-04  3.27165000e-04 -3.76615000e-04
atom     24.4305130000     4.8042300000    13.2724900000   Al  0.0 0.0    5.61915000e-04 -1.83975000e-04 -7.52250000e-04
atom     27.1112060000     6.3538500000    17.7373060000   Al  0.0 0.0    2.35220000e-04 -8.39490000e-04 -3.90410000e-04
atom     18.9682060000     4.6735980000     0.0527180000   Al  0.0 0.0    5.66550000e-05 -5.90290000e-04 -5.73595000e-04
atom     21.6165800000     6.3183380000     4.3742690000   Al  0.0 0.0    2.23395000e-04 -1.15296000e-03  5.33050000e-05
atom     24.4051880000     7.9244290000     8.8363630000   Al  0.0 0.0   -1.51810000e-04  3.18000000e-05  1.80850000e-04
atom     27.0883380000     9.4788110000    13.2679350000   Al  0.0 0.0    1.36828000e-03 -6.23915000e-04  2.86700000e-05
atom     29.8425490000    10.9468230000    17.7192000000   Al  0.0 0.0   -6.38300000e-05  1.17342500e-03 -9.67025000e-04
atom     21.6723330000     9.3769240000     0.0098230000   Al  0.0 0.0    2.21170000e-04 -1.59950000e-05  3.67580000e-04
atom     24.4006520000    10.9628870000     4.4334050000   Al  0.0 0.0    5.33420000e-04  1.62235000e-04  1.53995000e-04
atom     29.7658170000    14.1231900000    13.2730380000   Al  0.0 0.0    1.29465000e-04 -1.05605000e-04  7.17825000e-04
atom     32.5561270000    15.5967020000    17.7187470000   Al  0.0 0.0   -5.93570000e-04  9.40850000e-05 -1.13797000e-03
atom     24.4131260000    14.0529980000     0.0473530000   Al  0.0 0.0    6.79185000e-04  2.37200000e-05  2.34270000e-04
atom     27.1265150000    15.6011620000     4.4281700000   Al  0.0 0.0    3.75285000e-04  5.69780000e-04  2.77580000e-04
atom     29.7386020000    17.2493040000     8.8813250000   Al  0.0 0.0    4.71670000e-04 -8.98500000e-06  5.03660000e-04
atom     32.4937580000    18.6859050000    13.3136720000   Al  0.0 0.0    3.90405000e-04 -5.27415000e-04  1.44715000e-04
atom     35.2952180000    20.2599800000    17.7562240000   Al  0.0 0.0   -4.54720000e-04  3.50315000e-04 -1.78155000e-04
atom     27.1450360000    18.8041960000     0.0491960000   Al  0.0 0.0    3.23150000e-04  4.67245000e-04  1.36554500e-03
atom     29.8170350000    20.3442720000     4.3794470000   Al  0.0 0.0    4.08585000e-04  1.01397500e-03  2.89820000e-04
atom     35.2933280000    23.3889670000    13.3263530000   Al  0.0 0.0   -8.25085000e-04 -5.76400000e-04  5.87640000e-04
atom     35.2499160000     7.7628190000    21.9128660000   Al  0.0 0.0    3.45025000e-04  5.32150000e-05 -8.17945000e-04
atom     27.0728400000     3.1884440000     8.8345870000   Al  0.0 0.0    7.58255000e-04  5.57020000e-04  4.59785000e-04
atom     29.6875740000     4.8230540000    13.2842070000   Al  0.0 0.0   -1.47385000e-04 -4.10255000e-04  7.08645000e-04
atom     37.9408140000    12.5427230000    22.0658860000   Al  0.0 0.0    4.91210000e-04 -2.90355000e-04 -1.82910000e-04
atom     27.1089380000     6.3089640000     4.3992350000   Al  0.0 0.0   -3.72855000e-04  4.77170000e-04  1.97525000e-04
atom     29.7794250000     7.9646090000     8.8210170000   Al  0.0 0.0    2.64465000e-04 -6.72515000e-04  7.21360000e-04
atom     32.5557490000     9.2782500000    13.3022190000   Al  0.0 0.0   -4.23360000e-04 -2.47720000e-04 -6.02550000e-05
atom     35.2421110000    10.8817140000    17.6841420000   Al  0.0 0.0   -3.81800000e-05 -7.63000000e-06  4.37820000e-04
atom     27.1078040000     9.3846920000     0.0110690000   Al  0.0 0.0    1.17201000e-03  6.92705000e-04 -1.18480000e-03
atom     29.7987020000    10.9867760000     4.4147140000   Al  0.0 0.0   -2.84420000e-04  1.19235000e-04  4.21050000e-05
atom     32.4761820000    12.5583760000     8.8726500000   Al  0.0 0.0   -9.21620000e-04  3.32790000e-04  3.90565000e-04
atom     35.2407880000    14.0120990000    13.2798980000   Al  0.0 0.0   -8.68600000e-05 -7.09450000e-05  4.75125000e-04
atom     37.9532320000    15.6110650000    17.7087490000   Al  0.0 0.0    2.48260000e-04  2.59755000e-04 -2.10470000e-04
atom     43.4322270000    21.9346910000    22.0661610000   Al  0.0 0.0    6.95035000e-04  8.41305000e-04 -6.05140000e-04
atom     32.4943250000    15.6201180000     4.4481280000   Al  0.0 0.0   -4.45740000e-04  1.51518000e-03 -3.42485000e-04
atom     35.2326610000    17.1915660000     8.8536940000   Al  0.0 0.0    4.18480000e-04  4.18385000e-04  7.35690000e-04
atom     37.9407580000    18.7146510000    13.3079260000   Al  0.0 0.0   -8.22250000e-05  3.10810000e-04 -1.10512000e-03
atom     40.7520450000    20.3043940000    17.7264760000   Al  0.0 0.0   -2.14495000e-04  3.88025000e-04 -3.38545000e-04
atom     46.1647040000    26.5724930000    21.9829840000   Al  0.0 0.0   -6.51500000e-05 -4.54910000e-04 -4.39565000e-04
atom     35.2145180000    20.2329540000     4.3386810000   Al  0.0 0.0   -2.33520000e-04  7.07040000e-04  4.26595000e-04
atom     38.0019920000    21.8290090000     8.8670180000   Al  0.0 0.0    1.23744500e-03 -6.64050000e-05  3.18495000e-04
atom     40.6061420000    23.4547370000    13.2690120000   Al  0.0 0.0   -1.63528000e-03  5.41670000e-04 -9.68605000e-04
atom     43.5081470000    25.2275020000    17.6631630000   Al  0.0 0.0   -1.13364500e-03  5.48590000e-04  1.12383000e-03
energy -2.225420646500001e+03
charge 0.0000
end
begin
comment uuid: a50387e4-0677-4da6-aafc-9f8af82abcfe
lattice     27.1086740000     0.0000000000     0.0000000000
lattice     13.5543360000    23.4768000000     0.0000000000
lattice     13.5543360000     7.8256000000    22.1341400000
atom     19.4571510000    26.4767410000     9.0621540000   Mg  0.0 0.0    1.44543500e-03 -8.50270000e-04  1.80156500e-03
atom     16.3237240000    18.7822920000    13.2824310000   Mg  0.0 0.0   -7.50910000e-04 -5.45370000e-04  5.87675000e-04
atom     22.0257520000    24.9596970000    17.2621930000   Mg  0.0 0.0   -1.03721500e-03 -1.68825000e-04  8.60345000e-04
atom     26.4689650000    27.1065080000    13.1239400000   Mg  0.0 0.0    1.99670000e-03  2.26881000e-03  1.39989500e-03
atom     13.5225480000     7.5821600000     8.9159860000   Mg  0.0 0.0   -8.02570000e-04 -1.22120000e-04 -1.24635000e-04
atom     21.9478870000    19.4641260000    13.1559940000   Mg  0.0 0.0   -2.25660000e-04  1.17887000e-03  1.31425000e-04
atom     32.2752240000    28.0233940000    13.1644800000   Mg  0.0 0.0    2.48905000e-04  3.82400000e-05 -2.49500000e-05
atom     26.5667140000    22.5447300000     9.4002270000   Mg  0.0 0.0    2.57496500e-03 -2.79810000e-03 -2.30822000e-03
atom     19.0279280000     1.6085460000     4.3849090000   Mg  0.0 0.0    6.53885000e-04  4.80610000e-04 -1.00246500e-03
atom     37.9424590000    25.0589190000    17.6929870000   Mg  0.0 0.0   -2.01140000e-04 -5.12000000e-06  4.45565000e-04
atom     27.0847470000     6.2132190000     4.4435350000   Mg  0.0 0.0   -9.96350000e-05 -4.73805000e-04 -1.09715000e-04
atom     35.2640340000    20.3232930000     4.4081930000   Mg  0.0 0.0    4.38720000e-04  7.99245000e-04 -9.21050000e-04
atom     35.0869090000     5.1574420000    13.3986620000   Si  0.0 0.0    2.52660000e-04  3.04245500e-03  6.58530000e-04
atom     21.6621460000    21.7978780000    22.1019200000   Si  0.0 0.0    5.19765000e-04  1.02485000e-03  4.55000000e-04
atom     24.4862090000    26.7773630000    22.1039630000   Si  0.0 0.0   -1.66033000e-03 -1.33201000e-03 -1.18244000e-03
atom     45.6607900000    23.5488560000    13.5097530000   Si  0.0 0.0   -2.30861500e-03 -2.19790000e-04 -5.73600000e-04
atom     21.5402260000    21.6683640000     8.3464720000   Si  0.0 0.0   -1.15122000e-03 -9.97545000e-04 -3.24993000e-03
atom     27.2395330000    24.8725710000    17.9196090000   Si  0.0 0.0    2.81585000e-04 -6.75150000e-04  4.75635000e-04
atom     16.3845240000     3.2624160000     8.5265070000   Si  0.0 0.0   -1.65998000e-03 -1.77017000e-03  2.80640000e-04
atom     21.6131780000    12.5304230000     8.8245130000   Si  0.0 0.0   -9.36000000e-05  3.97000000e-05  3.66855000e-04
atom     29.9476300000    23.0652200000    13.5969550000   Si  0.0 0.0   -9.39500000e-05  8.87245000e-04  5.26875000e-04
atom     27.2128850000    12.5554650000     8.9042310000   Si  0.0 0.0    3.57390000e-04  1.02530000e-04 -2.39650000e-04
atom     32.5294780000    15.6594480000    17.7044960000   Si  0.0 0.0    4.43570000e-04  4.40630000e-04 -1.18968000e-03
atom     38.0141440000    24.9640380000     4.3894070000   Si  0.0 0.0    4.73230000e-04  9.69865000e-04  1.02894500e-03
atom     27.1190280000     0.0359230000     0.0628770000   Al  0.0 0.0   -4.12380000e-04 -3.81205000e-04 -2.87190000e-04
atom     16.3508440000    24.9980780000     4.4412670000   Al  0.0 0.0    8.69800000e-05 -4.90940000e-04 -1.83075000e-04
atom     38.0137290000     6.3436630000    17.7564700000   Al  0.0 0.0   -5.13175000e-04  9.59150000e-05  6.28560000e-04
atom     16.3046160000    12.5084960000    22.1081780000   Al  0.0 0.0   -3.28985000e-04 -1.23920000e-04 -8.55250000e-05
atom      5.4738550000     6.2379970000     4.4423630000   Al  0.0 0.0    7.38165000e-04  2.81900000e-05  6.89470000e-04
atom     35.2053520000     7.9677460000     8.8533350000   Al  0.0 0.0    8.82350000e-05 -1.07200000e-05 -4.80840000e-04
atom     10.8566910000     9.3559650000    13.3355760000   Al  0.0 0.0   -4.96195000e-04  5.97770000e-04  4.77630000e-04
atom     40.6725930000    10.9952620000    17.7304640000   Al  0.0 0.0   -3.76410000e-04 -6.29290000e-04 -2.51350000e-05
atom     32.5343550000     9.3667000000     0.0521290000   Al  0.0 0.0    2.12290000e-04  6.88270000e-04 -3.64260000e-04
atom     35.2343250000    10.9876270000     4.3802220000   Al  0.0 0.0   -3.69555000e-04 -2.01945000e-04 -8.11900000e-05
atom     37.9324620000    12.5267190000     8.8357580000   Al  0.0 0.0   -2.45425000e-04  8.71980000e-04 -2.01425000e-04
atom     13.5417690000    14.0515610000    13.2764020000   Al  0.0 0.0    6.71585000e-04 -4.42150000e-05 -2.83250000e-04
atom     16.3009500000    15.6460290000    17.7492690000   Al  0.0 0.0   -1.84890000e-04 -1.08620000e-04 -2.57950000e-05
atom     10.8270760000    15.6135600000     4.3364890000   Al  0.0 0.0    8.48055000e-04  5.01495000e-04 -5.04320000e-04
atom     13.5406720000    17.2109190000     8.7875270000   Al  0.0 0.0    2.33025000e-04  6.43000000e-05 -2.48395000e-04
atom     19.0489060000    20.3236710000    17.8724740000   Al  0.0 0.0   -3.83745000e-04  4.26960000e-04 -6.26200000e-05
atom     13.6143800000    20.3527760000     4.4287370000   Al  0.0 0.0    1.46330000e-04 -3.39530000e-04 -6.39865000e-04
atom     16.3202090000    21.9017720000     8.8289920000   Al  0.0 0.0    2.49830000e-04 -1.82900000e-05 -3.62305000e-04
atom     18.9646330000     7.8256820000    22.1123050000   Al  0.0 0.0   -1.48445000e-04 -5.57015000e-04 -8.32550000e-05
atom      8.2273490000     1.5462530000     4.3503420000   Al  0.0 0.0    3.53165000e-04  2.42585000e-04 -2.70190000e-04
atom     29.7163570000    29.7052520000    17.7066130000   Al  0.0 0.0    2.78885000e-04  1.70875000e-04 -5.53890000e-04
atom     21.6973740000    12.5418540000    22.0756660000   Al  0.0 0.0   -5.29200000e-05  3.74090000e-04  5.11545000e-04
atom     10.7746110000     6.2363140000     4.4010680000   Al  0.0 0.0   -3.37745000e-04 -8.67920000e-04  8.02145000e-04
atom     16.2463500000     9.4271400000    13.3327980000   Al  0.0 0.0   -3.86150000e-05  3.78490000e-04  1.46550000e-04
atom     18.9803010000    10.9641530000    17.7059330000   Al  0.0 0.0   -3.13785000e-04 -1.87590000e-04 -2.38730000e-04
atom     10.8412700000     9.3651500000     0.0228840000   Al  0.0 0.0    3.33620000e-04  2.51565000e-04 -6.84085000e-04
atom     13.5382160000    10.9564430000     4.4066250000   Al  0.0 0.0   -1.32695000e-04 -1.20145000e-04 -2.33970000e-04
atom     16.2674980000    12.5119400000     8.8437530000   Al  0.0 0.0    3.80100000e-05  3.75000000e-04  6.22750000e-05
atom     19.0634590000    14.0974870000    13.2588070000   Al  0.0 0.0   -1.03730000e-04 -5.03190000e-04 -6.73780000e-04
atom     21.7154240000    15.6706740000    17.6431300000   Al  0.0 0.0    2.21160000e-04 -2.88750000e-05  2.39600000e-04
atom     13.4803830000    14.1406340000     0.0410180000   Al  0.0 0.0   -6.45450000e-04 -5.96135000e-04  2.62650000e-04
atom     16.2670640000    15.6386390000     4.4108010000   Al  0.0 0.0   -4.81500000e-04  5.83295000e-04  4.71535000e-04
atom     19.0375660000    17.1522560000     8.7955030000   Al  0.0 0.0   -1.03900000e-05 -4.22585000e-04 -1.67000000e-04
atom     24.5675340000    20.2458060000    17.8589990000   Al  0.0 0.0   -2.97500000e-06  4.68000000e-05 -9.82750000e-04
atom     29.7314580000    26.6008050000    22.1105510000   Al  0.0 0.0    4.66330000e-04  2.81550000e-05  2.10650000e-05
atom     18.9489280000    20.2856840000     4.3028670000   Al  0.0 0.0    1.12580000e-04  1.37000000e-04  1.58220000e-04
atom     24.3792200000     7.8179070000    22.0998530000   Al  0.0 0.0    2.21900000e-05  4.33800000e-05 -5.30110000e-04
atom     13.5145530000     1.6448650000     4.4668380000   Al  0.0 0.0   -9.52925000e-04  3.39205000e-04 -1.08173000e-03
atom     21.6326450000     6.3167130000    17.7024930000   Al  0.0 0.0    3.62440000e-04 -2.21935000e-04  6.41250000e-05
atom     27.1111110000    12.5211020000    22.1113640000   Al  0.0 0.0    5.32615000e-04 -1.64100000e-04  2.63865000e-04
atom     16.2654010000     6.3384850000     4.3241850000   Al  0.0 0.0   -2.27280000e-04 -5.54975000e-04  6.84050000e-04
atom     19.0245260000     7.9071360000     8.8139490000   Al  0.0 0.0    9.85635000e-04  2.88020000e-04 -5.39950000e-04
atom     21.6797040000     9.4278200000    13.2618310000   Al  0.0 0.0   -1.53380000e-04  2.57785000e-04 -3.13260000e-04
atom     24.4051880000    10.9782900000    17.6938560000   Al  0.0 0.0    3.47635000e-04  2.36880000e-04 -3.37625000e-04
atom     29.8081700000    17.2590330000    22.1018220000   Al  0.0 0.0   -1.79165000e-04 -2.20490000e-04  8.14400000e-04
atom     18.9513850000    10.9979830000     4.4177370000   Al  0.0 0.0    9.04700000e-05 -4.29740000e-04  2.62530000e-04
atom     24.3896910000    14.1072770000    13.2031290000   Al  0.0 0.0   -4.09885000e-04 -7.76065000e-04 -3.99430000e-04
atom     27.1764090000    15.6030710000    17.7115650000   Al  0.0 0.0   -7.37060000e-04 -2.61805000e-04  7.93100000e-05
atom     18.9589450000    14.0954840000     0.0005500000   Al  0.0 0.0   -2.45650000e-05  4.06250000e-05  1.35300000e-04
atom     21.6933120000    15.6063030000     4.4231430000   Al  0.0 0.0    1.39600000e-05  2.74510000e-04  3.22590000e-04
atom     24.4622640000    17.1233770000     8.8309390000   Al  0.0 0.0    6.72335000e-04 -5.28015000e-04 -1.77400000e-04
atom     27.2656140000    18.6977930000    13.3588030000   Al  0.0 0.0   -6.68220000e-04  4.22145000e-04  3.05850000e-04
atom     29.8811040000    20.2669730000    17.8048140000   Al  0.0 0.0    5.79760000e-04  3.21605000e-04 -5.79920000e-04
atom     21.6730890000    18.7927620000     0.0523800000   Al  0.0 0.0   -4.15810000e-04 -2.24700000e-04  4.62255000e-04
atom     24.4356160000    20.3310420000     4.4485250000   Al  0.0 0.0    7.40300000e-05  2.27085000e-04 -1.21755000e-04
atom     32.4586060000    25.0063790000    17.7741410000   Al  0.0 0.0   -5.50050000e-05 -3.85195000e-04 -3.85315000e-04
atom     43.3340250000    31.2870620000    22.1300920000   Al  0.0 0.0    4.89810000e-04 -5.43615000e-04 -1.17160000e-04
atom     21.8102990000     3.1558800000     8.7986780000   Al  0.0 0.0    9.99775000e-04  9.31430000e-04 -6.60000000e-07
atom     24.3819420000     4.7612150000    13.2347670000   Al  0.0 0.0   -1.46485000e-04 -2.35870000e-04 -4.26160000e-04
atom     27.1440910000     6.3184140000    17.6789070000   Al  0.0 0.0    4.51865000e-04  3.91680000e-04 -5.87505000e-04
atom     32.5091230000    12.5979280000    22.0424540000   Al  0.0 0.0    2.39610000e-04 -1.79685000e-04  1.02990000e-04
atom     21.6643960000     6.3766430000     4.4044130000   Al  0.0 0.0   -1.57960000e-04  2.49045000e-04 -1.04550000e-05
atom     24.3972510000     7.9719800000     8.8964070000   Al  0.0 0.0   -5.29600000e-05  1.55145000e-04  3.31900000e-05
atom     27.0940080000     9.4677360000    13.2599780000   Al  0.0 0.0    3.19750000e-04 -2.35350000e-05  1.19225000e-04
atom     29.8429270000    10.9648530000    17.7022660000   Al  0.0 0.0   -2.05045000e-04 -2.89665000e-04 -8.60650000e-05
atom     35.2270470000    17.2386790000    22.1242700000   Al  0.0 0.0    1.26910000e-04 -2.55895000e-04  7.35375000e-04
atom     24.3821310000    11.0366330000     4.5126310000   Al  0.0 0.0    2.98720000e-04 -2.19120000e-04  2.71715000e-04
atom     29.8368790000    14.1010020000    13.2979850000   Al  0.0 0.0   -2.69025000e-04 -9.19250000e-05 -3.60600000e-05
atom     24.3800520000    14.0648100000     0.0494700000   Al  0.0 0.0    1.07790000e-04 -5.48520000e-04  4.11445000e-04
atom     27.1119620000    15.6280750000     4.4662710000   Al  0.0 0.0    2.28005000e-04  3.94155000e-04  7.93995000e-04
atom     29.8034270000    17.2817730000     8.8526920000   Al  0.0 0.0    1.97175000e-04  8.74280000e-04 -1.06380000e-04
atom     32.6150930000    18.6563460000    13.3205700000   Al  0.0 0.0    4.47400000e-05  2.05645000e-04  1.19705000e-04
atom     35.2207550000    20.2618700000    17.7435430000   Al  0.0 0.0   -1.78420000e-04 -8.77550000e-05 -3.30645000e-04
atom     27.1422010000    18.7812900000     0.0437560000   Al  0.0 0.0    7.40355000e-04  4.92360000e-04  5.57200000e-04
atom     29.7215930000    20.3533430000     4.4839040000   Al  0.0 0.0   -5.03955000e-04 -2.02795000e-04  1.63335000e-04
atom     32.3688330000    22.0153580000     8.9928500000   Al  0.0 0.0   -8.16065000e-04 -6.59975000e-04  2.85240000e-04
atom     35.2033670000    23.3902900000    13.2712610000   Al  0.0 0.0   -1.32410000e-04 -1.09210000e-04  3.23380000e-04
atom     35.2536950000     7.8586860000    21.9996450000   Al  0.0 0.0    4.29525000e-04 -8.56495000e-04  1.83895000e-04
atom     40.7479430000    26.5737900000     8.8759390000   Al  0.0 0.0   -1.43225000e-04  7.77350000e-05  5.69055000e-04
atom     29.7930330000     4.7462660000    13.3078880000   Al  0.0 0.0    1.04020000e-04 -4.06975000e-04 -4.50785000e-04
atom     32.5464880000     6.2720150000    17.6983350000   Al  0.0 0.0   -4.46730000e-04 -2.96275000e-04  8.80915000e-04
atom     37.9041490000    12.5103480000    22.0938980000   Al  0.0 0.0    6.27800000e-05  1.11940000e-04  7.41150000e-04
atom     29.8427380000     7.8602460000     8.8824780000   Al  0.0 0.0    5.25195000e-04 -7.93335000e-04  4.61690000e-04
atom     32.4839310000     9.4834220000    13.2949420000   Al  0.0 0.0    2.58665000e-04  7.91555000e-04 -2.35750000e-04
atom     35.2298260000    11.0284870000    17.6955950000   Al  0.0 0.0   -1.44950000e-04  1.02065000e-04 -2.78970000e-04
atom     40.6517450000    17.2296070000    22.1326740000   Al  0.0 0.0   -2.62100000e-05 -1.57250000e-05  5.64355000e-04
atom     29.8310200000    10.9813330000     4.4516620000   Al  0.0 0.0   -4.39545000e-04  4.02570000e-04  2.13570000e-04
atom     32.4731580000    12.5813570000     8.8464930000   Al  0.0 0.0   -1.04775000e-04  2.20600000e-05  3.10185000e-04
atom     35.2640340000    14.0342870000    13.2856820000   Al  0.0 0.0   -7.62820000e-04  1.82360000e-04  4.49200000e-04
atom     37.9263940000    15.6397170000    17.7120940000   Al  0.0 0.0   -3.33115000e-04 -7.10100000e-05 -1.03285000e-04
atom     29.8104200000    14.0675500000     0.0188610000   Al  0.0 0.0    4.57160000e-04  2.96065000e-04 -3.49715000e-04
atom     32.5215410000    15.6081930000     4.3693740000   Al  0.0 0.0   -5.95730000e-04 -2.07340000e-04  1.28050000e-05
atom     35.2273690000    17.1828730000     8.8687950000   Al  0.0 0.0    1.95385000e-04 -4.19710000e-04  1.16002500e-03
atom     37.9396240000    18.7558520000    13.3025590000   Al  0.0 0.0    1.04350000e-05  3.63120000e-04 -4.56445000e-04
atom     40.6590600000    20.2960780000    17.7768810000   Al  0.0 0.0   -1.24390000e-04  3.38105000e-04 -1.79400000e-04
atom     46.1847370000    26.5037750000    22.0385860000   Al  0.0 0.0    1.19569500e-03  1.55550000e-04 -5.75350000e-05