begin
comment 22 atoms, species Al4Mg10Si8
lattice     15.3332314502     0.0000000000    22.9998471752
lattice      0.0000000000     8.0454822660     0.0000000000
lattice    -11.4999235876     0.0000000000     3.8333078625
atom    -11.3466355009     0.0000000000     3.8218805002   Mg  0.0 0.0   -2.99999977e-08  1.49999989e-08 -1.80499986e-06
atom     -2.8303508828     4.0227383688     3.0484520716   Mg  0.0 0.0   -3.12774976e-04 -9.99999925e-09 -3.73789972e-04
atom     -8.0215854234     4.0227383688     6.9336170501   Mg  0.0 0.0    4.13604969e-04 -2.49999981e-08 -4.44294967e-04
atom      4.4946906442     0.0000000000     8.3765882926   Mg  0.0 0.0   -4.12349969e-04  1.99999985e-08  4.50864966e-04
atom     -0.6963835706     0.0000000000    12.2620490446   Mg  0.0 0.0    3.12169977e-04  9.99999925e-09  3.71599972e-04
atom     -6.5272435710     0.0000000000     3.8966393328   Si  0.0 0.0    2.32494983e-04  4.99999962e-08 -6.21149953e-05
atom      0.5070083492     0.0000000000     5.1042190741   Si  0.0 0.0   -3.81339971e-04  4.99999962e-08  4.00904970e-04
atom     -3.6245193935     0.0000000000     7.4845104511   Al  0.0 0.0   -2.02709985e-04  9.99999925e-09 -9.39424929e-04
atom      0.0977213626     4.0227383688     7.8259768439   Al  0.0 0.0    2.02079985e-04 -1.49999989e-08  9.35214930e-04
atom     -4.0339169496     4.0227383688    10.2060774885   Si  0.0 0.0    3.83874971e-04 -4.99999962e-08 -4.00924970e-04
atom      3.0005699308     4.0227383688    11.4136986933   Si  0.0 0.0   -2.34909982e-04 -4.99999962e-08  6.39499952e-05
atom     -3.6800170116     4.0227383688    15.3218068521   Mg  0.0 0.0   -4.99999962e-08 -1.49999989e-08 -1.81999986e-06
atom      4.8362676065     0.0000000000    14.5483784235   Mg  0.0 0.0   -3.12804976e-04  2.49999981e-08 -3.73874972e-04
atom     -0.3549669341     0.0000000000    18.4335461662   Mg  0.0 0.0    4.13609969e-04  2.49999981e-08 -4.44389967e-04
atom     12.1613091335     4.0227383688    19.8765174087   Mg  0.0 0.0   -4.12384969e-04 -1.99999985e-08  4.50794966e-04
atom      6.9702349187     4.0227383688    23.7619781607   Mg  0.0 0.0    3.12169977e-04 -2.49999981e-08  3.71554972e-04
atom      1.1393749183     4.0227383688    15.3965684489   Si  0.0 0.0    2.32544983e-04  4.99999962e-09 -6.21049953e-05
atom      8.1736268385     4.0227383688    16.6041481902   Si  0.0 0.0   -3.81354971e-04 -1.49999989e-08  4.00854970e-04
atom      4.0420990958     4.0227383688    18.9844395672   Al  0.0 0.0   -2.02794985e-04 -3.49999974e-08 -9.39449929e-04
atom      7.7643398519     0.0000000000    19.3259059600   Al  0.0 0.0    2.02139985e-04  3.99999970e-08  9.35289930e-04
atom      3.6327043039     0.0000000000    21.7060038403   Si  0.0 0.0    3.83794971e-04  9.99999925e-09 -4.00929970e-04
atom     10.6671911844     0.0000000000    22.9136278094   Si  0.0 0.0   -2.34974982e-04 -4.99999962e-09  6.38949952e-05
energy -2.927917303365035e+02
charge 0.0000
end
