
     Program PWSCF v.6.3 starts on 28Feb2020 at  6: 4:44 

     This program is part of the open-source Quantum ESPRESSO suite
     for quantum simulation of materials; please cite
         "P. Giannozzi et al., J. Phys.:Condens. Matter 21 395502 (2009);
         "P. Giannozzi et al., J. Phys.:Condens. Matter 29 465901 (2017);
          URL http://www.quantum-espresso.org", 
     in publications or presentations arising from this work. More details at
     http://www.quantum-espresso.org/quote

 *** WARNING: using old-style file format, will disappear from next version ***

     Parallel version (MPI & OpenMP), running on     396 processor cores
     Number of MPI processes:               396
     Threads/MPI process:                     1

     MPI processes distributed on    11 nodes
     K-points division:     npool     =      36
     R & G space division:  proc/nbgrp/npool/nimage =      11
     Reading input from aiida.in
Warning: card &IONS ignored
Warning: card   !PRESS_CONV_THR = 0.05                 ! JUST FOR VOLUME RELAXATIONS ignored
Warning: card / ignored

     Current dimensions of program PWSCF are:
     Max number of different atomic species (ntypx) = 10
     Max number of k-points (npk) =  40000
     Max angular momentum in pseudopotentials (lmaxx) =  3
               file Al.pbe-n-kjpaw_psl.1.0.0.UPF: wavefunction(s)  3S 3P renormalized
               file Mg.pbe-n-kjpaw_psl.0.3.0.UPF: wavefunction(s)  3S renormalized

     Subspace diagonalization in iterative solution of the eigenvalue problem:
     one sub-group per band group will be used
     scalapack distributed-memory algorithm (size of sub-group:  2*  2 procs)

 
     Parallelization info
     --------------------
     sticks:   dense  smooth     PW     G-vecs:    dense   smooth      PW
     Min        2552    1021    268               415108   104993   14176
     Max        2553    1021    269               415113   104995   14179
     Sum       28079   11231   2949              4566219  1154937  155951
 


     bravais-lattice index     =            0
     lattice parameter (alat)  =      38.3331  a.u.
     unit-cell volume          =   33796.5840 (a.u.)^3
     number of atoms/cell      =          300
     number of atomic types    =            3
     number of electrons       =       900.00
     number of Kohn-Sham states=          540
     kinetic-energy cutoff     =      40.0000  Ry
     charge density cutoff     =     400.0000  Ry
     convergence threshold     =      1.0E-12
     mixing beta               =       0.4000
     number of iterations used =            8  local-TF  mixing
     Exchange-correlation      = PBE ( 1  4  3  4 0 0)

     celldm(1)=  38.333092  celldm(2)=   0.000000  celldm(3)=   0.000000
     celldm(4)=   0.000000  celldm(5)=   0.000000  celldm(6)=   0.000000

     crystal axes: (cart. coord. in units of alat)
               a(1) = (   1.000000   0.000000   0.000000 )  
               a(2) = (   0.000000   0.600000   0.000000 )  
               a(3) = (   0.000000   0.000000   1.000000 )  

     reciprocal axes: (cart. coord. in units 2 pi/alat)
               b(1) = (  1.000000  0.000000  0.000000 )  
               b(2) = (  0.000000  1.666667  0.000000 )  
               b(3) = (  0.000000  0.000000  1.000000 )  


     PseudoPot. # 1 for Al read from file:
     /users/aglensk/Dropbox/Albert/scripts/dotfiles/scripts/potentials/quantum_espresso/pseudo_SSSPefV1.1_alalloy/Al.pbe-n-kjpaw_psl.1.0.0.UPF
     MD5 check sum: cfc449ca30b5f3223ec38ddd88ac046d
     Pseudo is Projector augmented-wave + core cor, Zval =  3.0
     Generated using "atomic" code by A. Dal Corso v.5.1
     Shape of augmentation charge: PSQ
     Using radial grid of 1135 points,  6 beta functions with: 
                l(1) =   0
                l(2) =   0
                l(3) =   1
                l(4) =   1
                l(5) =   2
                l(6) =   2
     Q(r) pseudized with 0 coefficients 


     PseudoPot. # 2 for Mg read from file:
     /users/aglensk/Dropbox/Albert/scripts/dotfiles/scripts/potentials/quantum_espresso/pseudo_SSSPefV1.1_alalloy/Mg.pbe-n-kjpaw_psl.0.3.0.UPF
     MD5 check sum: 24ecedc7f3e3cbe212e682f4413594e4
     Pseudo is Projector augmented-wave + core cor, Zval =  2.0
     Generated using "atomic" code by A. Dal Corso v.5.0.99 svn rev. 10869
     Shape of augmentation charge: PSQ
     Using radial grid of 1129 points,  4 beta functions with: 
                l(1) =   0
                l(2) =   0
                l(3) =   1
                l(4) =   1
     Q(r) pseudized with 0 coefficients 


     PseudoPot. # 3 for Si read from file:
     /users/aglensk/Dropbox/Albert/scripts/dotfiles/scripts/potentials/quantum_espresso/pseudo_SSSPefV1.1_alalloy/Si.pbe-n-rrkjus_psl.1.0.0.UPF
     MD5 check sum: 0b0bb1205258b0d07b9f9672cf965d36
     Pseudo is Ultrasoft + core correction, Zval =  4.0
     Generated using "atomic" code by A. Dal Corso v.5.1
     Using radial grid of 1141 points,  6 beta functions with: 
                l(1) =   0
                l(2) =   0
                l(3) =   1
                l(4) =   1
                l(5) =   2
                l(6) =   2
     Q(r) pseudized with 0 coefficients 


     atomic species   valence    mass     pseudopotential
        Al             3.00    26.98154     Al( 1.00)
        Mg             2.00    24.30500     Mg( 1.00)
        Si             4.00    28.08500     Si( 1.00)

     No symmetry found


                                    s                        frac. trans.

      isym =  1     identity                                     

 cryst.   s( 1) = (     1          0          0      )
                  (     0          1          0      )
                  (     0          0          1      )

 cart.    s( 1) = (  1.0000000  0.0000000  0.0000000 )
                  (  0.0000000  1.0000000  0.0000000 )
                  (  0.0000000  0.0000000  1.0000000 )


   Cartesian axes

     site n.     atom                  positions (alat units)
         1           Al  tau(   1) = (   0.0980036   0.0998217   0.9978849  )
         2           Al  tau(   2) = (   0.9981983   0.5998366   0.9976973  )
         3           Al  tau(   3) = (   0.0977851   0.5999145   0.0973752  )
         4           Al  tau(   4) = (   0.9981820   0.0998089   0.0975580  )
         5           Al  tau(   5) = (   0.0977290   0.0999382   0.1973358  )
         6           Al  tau(   6) = (   0.9982086   0.5998980   0.1972686  )
         7           Al  tau(   7) = (   0.0973659   0.5997592   0.2974740  )
         8           Al  tau(   8) = (   0.9982338   0.0998347   0.2975910  )
         9           Al  tau(   9) = (   0.0976174   0.0999140   0.3980340  )
        10           Al  tau(  10) = (   0.9982635   0.5998407   0.3979874  )
        11           Al  tau(  11) = (   0.0973748   0.5997538   0.4986820  )
        12           Al  tau(  12) = (   0.9982362   0.0998464   0.4984896  )
        13           Al  tau(  13) = (   0.0977478   0.0999316   0.5988519  )
        14           Al  tau(  14) = (   0.9982411   0.5998830   0.5989205  )
        15           Al  tau(  15) = (   0.0977782   0.5999063   0.6988646  )
        16           Al  tau(  16) = (   0.9982675   0.0998204   0.6987073  )
        17           Al  tau(  17) = (   0.0980112   0.0998384   0.7983755  )
        18           Al  tau(  18) = (   0.9982234   0.5998319   0.7986337  )
        19           Al  tau(  19) = (   0.0978780   0.5998505   0.8981908  )
        20           Al  tau(  20) = (   0.9982344   0.0998454   0.8981968  )
        21           Al  tau(  21) = (   0.2974179   0.0999579   0.9975746  )
        22           Al  tau(  22) = (   0.1974755   0.5999164   0.9976741  )
        23           Al  tau(  23) = (   0.2967941   0.5997766   0.0967615  )
        24           Al  tau(  24) = (   0.1979732   0.0999365   0.0978184  )
        25           Al  tau(  25) = (   0.2984680   0.0995690   0.1984654  )
        26           Al  tau(  26) = (   0.1969742   0.5997135   0.1967461  )
        27           Al  tau(  27) = (   0.2947534   0.5991249   0.2962594  )
        28           Al  tau(  28) = (   0.1970857   0.0996151   0.2974592  )
        29           Al  tau(  29) = (   0.2935109   0.1006077   0.3981045  )
        30           Al  tau(  30) = (   0.1954819   0.5992629   0.3980221  )
        31           Al  tau(  31) = (   0.2947655   0.5991345   0.4999607  )
        32           Al  tau(  32) = (   0.1970545   0.0996070   0.4987016  )
        33           Al  tau(  33) = (   0.2984643   0.0995648   0.5977849  )
        34           Al  tau(  34) = (   0.1969929   0.5996746   0.5994968  )
        35           Al  tau(  35) = (   0.2968112   0.5997594   0.6995605  )
        36           Al  tau(  36) = (   0.1979480   0.0999441   0.6984388  )
        37           Al  tau(  37) = (   0.2974797   0.0999649   0.7987120  )
        38           Al  tau(  38) = (   0.1974395   0.5999159   0.7986311  )
        39           Al  tau(  39) = (   0.2972787   0.5998442   0.8981873  )
        40           Al  tau(  40) = (   0.1976619   0.0997802   0.8981606  )
        41           Al  tau(  41) = (   0.4982208   0.0999398   0.9973602  )
        42           Al  tau(  42) = (   0.3975946   0.5998349   0.9971084  )
        43           Al  tau(  43) = (   0.4982138   0.5993477   0.0954797  )
        44           Al  tau(  44) = (   0.3976548   0.0996865   0.0969119  )
        45           Al  tau(  45) = (   0.3962256   0.5991011   0.1947471  )
        46           Al  tau(  46) = (   0.3961596   0.5991435   0.6015137  )
        47           Al  tau(  47) = (   0.4982335   0.5993399   0.7008121  )
        48           Al  tau(  48) = (   0.3976522   0.0997166   0.6993519  )
        49           Al  tau(  49) = (   0.4982852   0.0999450   0.7989209  )
        50           Al  tau(  50) = (   0.3976307   0.5998226   0.7991590  )
        51           Al  tau(  51) = (   0.4983568   0.5998725   0.8982014  )
        52           Al  tau(  52) = (   0.3977949   0.0998899   0.8982011  )
        53           Al  tau(  53) = (   0.6989985   0.1000207   0.9975796  )
        54           Al  tau(  54) = (   0.5987978   0.5998670   0.9971732  )
        55           Al  tau(  55) = (   0.6996663   0.5998190   0.0967742  )
        56           Al  tau(  56) = (   0.5988117   0.0996441   0.0968862  )
        57           Al  tau(  57) = (   0.6979487   0.0995919   0.1984761  )
        58           Al  tau(  58) = (   0.6005176   0.5991163   0.1945437  )
        59           Al  tau(  59) = (   0.7019487   0.5992343   0.2961454  )
        60           Al  tau(  60) = (   0.7031506   0.1009168   0.3980363  )
        61           Al  tau(  61) = (   0.7017993   0.5992912   0.4998497  )
        62           Al  tau(  62) = (   0.6979952   0.0996628   0.5978186  )
        63           Al  tau(  63) = (   0.6003848   0.5991331   0.6016330  )
        64           Al  tau(  64) = (   0.6996464   0.5998137   0.6993730  )
        65           Al  tau(  65) = (   0.5989060   0.0996561   0.6993913  )
        66           Al  tau(  66) = (   0.6990714   0.1000174   0.7986989  )
        67           Al  tau(  67) = (   0.5988415   0.5998613   0.7991028  )
        68           Al  tau(  68) = (   0.6991481   0.5998945   0.8981903  )
        69           Al  tau(  69) = (   0.5987933   0.0998888   0.8982045  )
        70           Al  tau(  70) = (   0.8984762   0.0997964   0.9978363  )
        71           Al  tau(  71) = (   0.7990759   0.5999690   0.9976126  )
        72           Al  tau(  72) = (   0.8988027   0.5999474   0.0973498  )
        73           Al  tau(  73) = (   0.7986060   0.1000069   0.0978388  )
        74           Al  tau(  74) = (   0.8988284   0.0999501   0.1973491  )
        75           Al  tau(  75) = (   0.7996385   0.5998154   0.1966726  )
        76           Al  tau(  76) = (   0.8992329   0.5998054   0.2974544  )
        77           Al  tau(  77) = (   0.7996178   0.0997118   0.2975181  )
        78           Al  tau(  78) = (   0.8990051   0.1000027   0.3980285  )
        79           Al  tau(  79) = (   0.8010984   0.5994911   0.3981177  )
        80           Al  tau(  80) = (   0.8993180   0.5998002   0.4987134  )
        81           Al  tau(  81) = (   0.7996371   0.0997563   0.4987539  )
        82           Al  tau(  82) = (   0.8989066   0.0999361   0.5989243  )
        83           Al  tau(  83) = (   0.7996727   0.5998476   0.5995614  )
        84           Al  tau(  84) = (   0.8988135   0.5999173   0.6988912  )
        85           Al  tau(  85) = (   0.7986372   0.0999658   0.6984374  )
        86           Al  tau(  86) = (   0.8985068   0.0998052   0.7984732  )
        87           Al  tau(  87) = (   0.7990139   0.5999474   0.7985897  )
        88           Al  tau(  88) = (   0.8985277   0.5998680   0.8981902  )
        89           Al  tau(  89) = (   0.7987783   0.0997566   0.8982092  )
        90           Mg  tau(  90) = (   0.4046774   0.0953223   0.3044401  )
        91           Mg  tau(  91) = (   0.5919409   0.0955006   0.3045242  )
        92           Al  tau(  92) = (   0.4982981   0.1007014   0.1935360  )
        93           Si  tau(  93) = (   0.4981358   0.5928351   0.2777557  )
        94           Si  tau(  94) = (   0.3776920   0.5926682   0.3980630  )
        95           Al  tau(  95) = (   0.4982234   0.0375042   0.3980932  )
        96           Mg  tau(  96) = (   0.4047582   0.0953025   0.4915662  )
        97           Mg  tau(  97) = (   0.5919253   0.0955341   0.4918444  )
        98           Si  tau(  98) = (   0.6193880   0.5928865   0.3981328  )
        99           Si  tau(  99) = (   0.4981004   0.5928041   0.5184061  )
       100           Al  tau( 100) = (   0.4981432   0.1006846   0.6026878  )
       101           Al  tau( 101) = (   0.0979042   0.2996973   0.9978704  )
       102           Al  tau( 102) = (   0.9982510   0.1997069   0.9979696  )
       103           Al  tau( 103) = (   0.0980572   0.1997411   0.0977066  )
       104           Al  tau( 104) = (   0.9982110   0.2997377   0.0977312  )
       105           Al  tau( 105) = (   0.0982385   0.2996438   0.1976784  )
       106           Al  tau( 106) = (   0.9982000   0.1999151   0.1975376  )
       107           Al  tau( 107) = (   0.0978857   0.1996635   0.2975627  )
       108           Al  tau( 108) = (   0.9982196   0.2995654   0.2975584  )
       109           Al  tau( 109) = (   0.0973760   0.2994426   0.3980564  )
       110           Al  tau( 110) = (   0.9982382   0.1995653   0.3980022  )
       111           Al  tau( 111) = (   0.0979268   0.1996580   0.4986009  )
       112           Al  tau( 112) = (   0.9982407   0.2995731   0.4985903  )
       113           Al  tau( 113) = (   0.0982829   0.2996375   0.5985930  )
       114           Al  tau( 114) = (   0.9982401   0.1999399   0.5986526  )
       115           Al  tau( 115) = (   0.0980743   0.1997540   0.6985454  )
       116           Al  tau( 116) = (   0.9982127   0.2997291   0.6985209  )
       117           Al  tau( 117) = (   0.0979047   0.2996991   0.7983974  )
       118           Al  tau( 118) = (   0.9982463   0.1997091   0.7982875  )
       119           Al  tau( 119) = (   0.0979807   0.1997216   0.8981760  )
       120           Al  tau( 120) = (   0.9982711   0.2997156   0.8981659  )
       121           Al  tau( 121) = (   0.2977072   0.2996316   0.9980105  )
       122           Al  tau( 122) = (   0.1977543   0.1997431   0.9978916  )
       123           Al  tau( 123) = (   0.2978986   0.1995717   0.0978573  )
       124           Al  tau( 124) = (   0.1977875   0.2996770   0.0977098  )
       125           Al  tau( 125) = (   0.2978774   0.2997583   0.1976574  )
       126           Al  tau( 126) = (   0.1980666   0.1995115   0.1977281  )
       127           Al  tau( 127) = (   0.2980273   0.1997047   0.2977304  )
       128           Al  tau( 128) = (   0.1980240   0.2994299   0.2976653  )
       129           Al  tau( 129) = (   0.2977748   0.3003154   0.3980312  )
       130           Al  tau( 130) = (   0.1969784   0.2006153   0.3980344  )
       131           Al  tau( 131) = (   0.2980582   0.1997274   0.4985145  )
       132           Al  tau( 132) = (   0.1980520   0.2994212   0.4985001  )
       133           Al  tau( 133) = (   0.2978595   0.2998002   0.5986218  )
       134           Al  tau( 134) = (   0.1980635   0.1995259   0.5985087  )
       135           Al  tau( 135) = (   0.2978898   0.1995759   0.6984637  )
       136           Al  tau( 136) = (   0.1977958   0.2996777   0.6985927  )
       137           Al  tau( 137) = (   0.2977093   0.2996539   0.7982772  )
       138           Al  tau( 138) = (   0.1977262   0.1997431   0.7984081  )
       139           Al  tau( 139) = (   0.2976059   0.1998504   0.8981758  )
       140           Al  tau( 140) = (   0.1976708   0.2997016   0.8981794  )
       141           Al  tau( 141) = (   0.4982580   0.2994555   0.9970911  )
       142           Al  tau( 142) = (   0.3976713   0.1996750   0.9976635  )
       143           Al  tau( 143) = (   0.4982322   0.2007599   0.0967887  )
       144           Al  tau( 144) = (   0.3978432   0.2994134   0.0978271  )
       145           Al  tau( 145) = (   0.4984721   0.3003019   0.1974849  )
       146           Al  tau( 146) = (   0.3978026   0.1995763   0.1979567  )
       147           Al  tau( 147) = (   0.4983543   0.2040314   0.2981020  )
       148           Al  tau( 148) = (   0.3978304   0.3018094   0.2974296  )
       149           Al  tau( 149) = (   0.4984864   0.3039860   0.3979858  )
       150           Al  tau( 150) = (   0.3981859   0.2040813   0.3980897  )
       151           Al  tau( 151) = (   0.4984086   0.2041145   0.4980217  )
       152           Al  tau( 152) = (   0.3977823   0.3019371   0.4987681  )
       153           Al  tau( 153) = (   0.4983440   0.3003508   0.5986843  )
       154           Al  tau( 154) = (   0.3977776   0.1995837   0.5982197  )
       155           Al  tau( 155) = (   0.4982546   0.2007926   0.6994583  )
       156           Al  tau( 156) = (   0.3978799   0.2994713   0.6984907  )
       157           Al  tau( 157) = (   0.4983067   0.2994674   0.7991577  )
       158           Al  tau( 158) = (   0.3977118   0.1996849   0.7986207  )
       159           Al  tau( 159) = (   0.4983198   0.1995477   0.8982070  )
       160           Al  tau( 160) = (   0.3976486   0.2995462   0.8981861  )
       161           Al  tau( 161) = (   0.6987222   0.2996411   0.9980127  )
       162           Al  tau( 162) = (   0.5987329   0.1997230   0.9977093  )
       163           Al  tau( 163) = (   0.6986083   0.1995540   0.0978237  )
       164           Al  tau( 164) = (   0.5986970   0.2994432   0.0978010  )
       165           Al  tau( 165) = (   0.6988299   0.2998761   0.1975728  )
       166           Al  tau( 166) = (   0.5988355   0.1996213   0.1979824  )
       167           Al  tau( 167) = (   0.6986059   0.1997822   0.2976448  )
       168           Al  tau( 168) = (   0.5990500   0.3019190   0.2973840  )
       169           Al  tau( 169) = (   0.6990246   0.3004078   0.3979779  )
       170           Al  tau( 170) = (   0.5985072   0.2040774   0.3980033  )
       171           Al  tau( 171) = (   0.6986659   0.1998231   0.4984601  )
       172           Al  tau( 172) = (   0.5989808   0.3018863   0.4986402  )
       173           Al  tau( 173) = (   0.6987829   0.2998685   0.5985580  )
       174           Al  tau( 174) = (   0.5987609   0.1997109   0.5982775  )
       175           Al  tau( 175) = (   0.6985979   0.1995849   0.6983593  )
       176           Al  tau( 176) = (   0.5986790   0.2994337   0.6984255  )
       177           Al  tau( 177) = (   0.6987420   0.2996285   0.7982953  )
       178           Al  tau( 178) = (   0.5987503   0.1997107   0.7985837  )
       179           Al  tau( 179) = (   0.6988111   0.1998392   0.8981974  )
       180           Al  tau( 180) = (   0.5988540   0.2995583   0.8981978  )
       181           Al  tau( 181) = (   0.8986284   0.2996887   0.9978927  )
       182           Al  tau( 182) = (   0.7987273   0.1996902   0.9978678  )
       183           Al  tau( 183) = (   0.8985100   0.1997249   0.0976278  )
       184           Al  tau( 184) = (   0.7986827   0.2996719   0.0976206  )
       185           Al  tau( 185) = (   0.8982850   0.2997008   0.1975639  )
       186           Al  tau( 186) = (   0.7985775   0.1995177   0.1976766  )
       187           Al  tau( 187) = (   0.8986522   0.1997110   0.2974888  )
       188           Al  tau( 188) = (   0.7985320   0.2995228   0.2975421  )
       189           Al  tau( 189) = (   0.8992408   0.2995204   0.3979591  )
       190           Al  tau( 190) = (   0.7997406   0.2008097   0.3980594  )
       191           Al  tau( 191) = (   0.8986956   0.1997137   0.4985993  )
       192           Al  tau( 192) = (   0.7985449   0.2995472   0.4985416  )
       193           Al  tau( 193) = (   0.8982740   0.2996925   0.5985777  )
       194           Al  tau( 194) = (   0.7985941   0.1995367   0.5985312  )
       195           Al  tau( 195) = (   0.8985033   0.1997370   0.6986055  )
       196           Al  tau( 196) = (   0.7986861   0.2996805   0.6986053  )
       197           Al  tau( 197) = (   0.8986298   0.2996652   0.7983712  )
       198           Al  tau( 198) = (   0.7986989   0.1997205   0.7983716  )
       199           Al  tau( 199) = (   0.8985156   0.1996698   0.8981830  )
       200           Al  tau( 200) = (   0.7987377   0.2996889   0.8982103  )
       201           Al  tau( 201) = (   0.0979095   0.4998347   0.9978317  )
       202           Al  tau( 202) = (   0.9982279   0.3997682   0.9979237  )
       203           Al  tau( 203) = (   0.0979366   0.3996580   0.0976518  )
       204           Al  tau( 204) = (   0.9982263   0.4998534   0.0974028  )
       205           Al  tau( 205) = (   0.0976079   0.4997456   0.1972532  )
       206           Al  tau( 206) = (   0.9982444   0.3996053   0.1973334  )
       207           Al  tau( 207) = (   0.0975990   0.3994675   0.2975114  )
       208           Al  tau( 208) = (   0.9982449   0.4998040   0.2974927  )
       209           Al  tau( 209) = (   0.0972026   0.4993449   0.3980419  )
       210           Al  tau( 210) = (   0.9982407   0.3995362   0.3980083  )
       211           Al  tau( 211) = (   0.0975959   0.3994577   0.4986990  )
       212           Al  tau( 212) = (   0.9982450   0.4997713   0.4985941  )
       213           Al  tau( 213) = (   0.0975967   0.4997447   0.5989784  )
       214           Al  tau( 214) = (   0.9982428   0.3995616   0.5988470  )
       215           Al  tau( 215) = (   0.0979691   0.3996509   0.6986257  )
       216           Al  tau( 216) = (   0.9982615   0.4998284   0.6988480  )
       217           Al  tau( 217) = (   0.0979598   0.4998194   0.7984002  )
       218           Al  tau( 218) = (   0.9982402   0.3997665   0.7983220  )
       219           Al  tau( 219) = (   0.0979467   0.3997441   0.8981598  )
       220           Al  tau( 220) = (   0.9982091   0.4997713   0.8981886  )
       221           Al  tau( 221) = (   0.2972844   0.4997380   0.9974065  )
       222           Al  tau( 222) = (   0.1975954   0.3996238   0.9978486  )
       223           Al  tau( 223) = (   0.2977668   0.3996720   0.0974280  )
       224           Al  tau( 224) = (   0.1974563   0.4996239   0.0973368  )
       225           Al  tau( 225) = (   0.2975817   0.4993616   0.1975041  )
       226           Al  tau( 226) = (   0.1977310   0.3996671   0.1976500  )
       227           Al  tau( 227) = (   0.2975826   0.3999058   0.2974595  )
       228           Al  tau( 228) = (   0.1967178   0.4995178   0.2972910  )
       229           Al  tau( 229) = (   0.2924705   0.4958049   0.3980279  )
       230           Al  tau( 230) = (   0.1960313   0.3984092   0.3980576  )
       231           Al  tau( 231) = (   0.2975467   0.3999579   0.4986746  )
       232           Al  tau( 232) = (   0.1966797   0.4995315   0.4988741  )
       233           Al  tau( 233) = (   0.2976225   0.4993451   0.5987554  )
       234           Al  tau( 234) = (   0.1977244   0.3996571   0.5986211  )
       235           Al  tau( 235) = (   0.2978672   0.3996767   0.6988104  )
       236           Al  tau( 236) = (   0.1975039   0.4996062   0.6989078  )
       237           Al  tau( 237) = (   0.2973428   0.4997106   0.7988625  )
       238           Al  tau( 238) = (   0.1976438   0.3996156   0.7983971  )
       239           Al  tau( 239) = (   0.2973051   0.3996118   0.8981913  )
       240           Al  tau( 240) = (   0.1973737   0.4998697   0.8981566  )
       241           Al  tau( 241) = (   0.4981964   0.4993615   0.9968594  )
       242           Al  tau( 242) = (   0.3975854   0.3994858   0.9973379  )
       243           Al  tau( 243) = (   0.4982371   0.3983928   0.0956806  )
       244           Al  tau( 244) = (   0.3974631   0.4996487   0.0964502  )
       245           Al  tau( 245) = (   0.4981917   0.4957977   0.1923255  )
       246           Al  tau( 246) = (   0.3977336   0.3999637   0.1972344  )
       247           Al  tau( 247) = (   0.4984219   0.4020058   0.2973200  )
       248           Al  tau( 248) = (   0.3977882   0.5009987   0.2976373  )
       249           Al  tau( 249) = (   0.4981336   0.5011925   0.3980714  )
       250           Al  tau( 250) = (   0.3976424   0.4018271   0.3980247  )
       251           Al  tau( 251) = (   0.4984881   0.4020015   0.4988597  )
       252           Al  tau( 252) = (   0.3977695   0.5009483   0.4985741  )
       253           Al  tau( 253) = (   0.4983196   0.4958561   0.6038738  )
       254           Al  tau( 254) = (   0.3978581   0.4000341   0.5989974  )
       255           Al  tau( 255) = (   0.4984489   0.3984360   0.7005534  )
       256           Al  tau( 256) = (   0.3975841   0.4995924   0.6998243  )
       257           Al  tau( 257) = (   0.4982946   0.4993663   0.7994323  )
       258           Al  tau( 258) = (   0.3976668   0.3994838   0.7989822  )
       259           Al  tau( 259) = (   0.4983407   0.3993855   0.8981810  )
       260           Al  tau( 260) = (   0.3976617   0.4997913   0.8981994  )
       261           Al  tau( 261) = (   0.6991040   0.4998208   0.9974092  )
       262           Al  tau( 262) = (   0.5988626   0.3994788   0.9972556  )
       263           Al  tau( 263) = (   0.6985892   0.3997496   0.0974111  )
       264           Al  tau( 264) = (   0.5988936   0.4996615   0.0964158  )
       265           Al  tau( 265) = (   0.6988617   0.4993966   0.1976054  )
       266           Al  tau( 266) = (   0.5988606   0.4000723   0.1972677  )
       267           Al  tau( 267) = (   0.6990655   0.4000578   0.2975265  )
       268           Al  tau( 268) = (   0.5987049   0.5012482   0.2978273  )
       269           Al  tau( 269) = (   0.7039783   0.4961393   0.3981251  )
       270           Al  tau( 270) = (   0.5991765   0.4020592   0.3980425  )
       271           Al  tau( 271) = (   0.6990501   0.4000345   0.4987251  )
       272           Al  tau( 272) = (   0.5987478   0.5013077   0.4983394  )
       273           Al  tau( 273) = (   0.6989315   0.4994654   0.5986338  )
       274           Al  tau( 274) = (   0.5989759   0.4000582   0.5989310  )
       275           Al  tau( 275) = (   0.6986705   0.3997440   0.6988470  )
       276           Al  tau( 276) = (   0.5990234   0.4996806   0.6997574  )
       277           Al  tau( 277) = (   0.6991355   0.4998246   0.7988446  )
       278           Al  tau( 278) = (   0.5989342   0.3994790   0.7989588  )
       279           Al  tau( 279) = (   0.6991217   0.3996971   0.8982048  )
       280           Al  tau( 280) = (   0.5989168   0.4998713   0.8981874  )
       281           Al  tau( 281) = (   0.8985620   0.4998938   0.9978838  )
       282           Al  tau( 282) = (   0.7988184   0.3997216   0.9978743  )
       283           Al  tau( 283) = (   0.8985130   0.3997267   0.0975799  )
       284           Al  tau( 284) = (   0.7989830   0.4997145   0.0973732  )
       285           Al  tau( 285) = (   0.8989620   0.4997712   0.1971899  )
       286           Al  tau( 286) = (   0.7988520   0.3997119   0.1975809  )
       287           Al  tau( 287) = (   0.8989838   0.3995206   0.2973933  )
       288           Al  tau( 288) = (   0.8000135   0.4997209   0.2972932  )
       289           Al  tau( 289) = (   0.8993899   0.4994364   0.3980213  )
       290           Al  tau( 290) = (   0.8007616   0.3984449   0.3980408  )
       291           Al  tau( 291) = (   0.8989245   0.3995434   0.4986392  )
       292           Al  tau( 292) = (   0.7999675   0.4997512   0.4989673  )
       293           Al  tau( 293) = (   0.8989692   0.4997483   0.5990056  )
       294           Al  tau( 294) = (   0.7988437   0.3996985   0.5986129  )
       295           Al  tau( 295) = (   0.8985266   0.3996854   0.6986321  )
       296           Al  tau( 296) = (   0.7990571   0.4997019   0.6989161  )
       297           Al  tau( 297) = (   0.8985959   0.4998796   0.7984567  )
       298           Al  tau( 298) = (   0.7988435   0.3996712   0.7984510  )
       299           Al  tau( 299) = (   0.8986345   0.3997597   0.8981888  )
       300           Al  tau( 300) = (   0.7990722   0.4999304   0.8982084  )

   Crystallographic axes

     site n.     atom                  positions (cryst. coord.)
         1           Al  tau(   1) = (  0.0980036  0.1663695  0.9978849  )
         2           Al  tau(   2) = (  0.9981983  0.9997277  0.9976973  )
         3           Al  tau(   3) = (  0.0977851  0.9998576  0.0973752  )
         4           Al  tau(   4) = (  0.9981820  0.1663482  0.0975580  )
         5           Al  tau(   5) = (  0.0977290  0.1665636  0.1973358  )
         6           Al  tau(   6) = (  0.9982086  0.9998300  0.1972686  )
         7           Al  tau(   7) = (  0.0973659  0.9995987  0.2974740  )
         8           Al  tau(   8) = (  0.9982338  0.1663911  0.2975910  )
         9           Al  tau(   9) = (  0.0976174  0.1665233  0.3980340  )
        10           Al  tau(  10) = (  0.9982635  0.9997345  0.3979874  )
        11           Al  tau(  11) = (  0.0973748  0.9995896  0.4986820  )
        12           Al  tau(  12) = (  0.9982362  0.1664106  0.4984896  )
        13           Al  tau(  13) = (  0.0977478  0.1665526  0.5988519  )
        14           Al  tau(  14) = (  0.9982411  0.9998050  0.5989205  )
        15           Al  tau(  15) = (  0.0977782  0.9998438  0.6988646  )
        16           Al  tau(  16) = (  0.9982675  0.1663674  0.6987073  )
        17           Al  tau(  17) = (  0.0980112  0.1663973  0.7983755  )
        18           Al  tau(  18) = (  0.9982234  0.9997198  0.7986337  )
        19           Al  tau(  19) = (  0.0978780  0.9997508  0.8981908  )
        20           Al  tau(  20) = (  0.9982344  0.1664089  0.8981968  )
        21           Al  tau(  21) = (  0.2974179  0.1665966  0.9975746  )
        22           Al  tau(  22) = (  0.1974755  0.9998607  0.9976741  )
        23           Al  tau(  23) = (  0.2967941  0.9996277  0.0967615  )
        24           Al  tau(  24) = (  0.1979732  0.1665608  0.0978184  )
        25           Al  tau(  25) = (  0.2984680  0.1659484  0.1984654  )
        26           Al  tau(  26) = (  0.1969742  0.9995225  0.1967461  )
        27           Al  tau(  27) = (  0.2947534  0.9985416  0.2962594  )
        28           Al  tau(  28) = (  0.1970857  0.1660251  0.2974592  )
        29           Al  tau(  29) = (  0.2935109  0.1676795  0.3981045  )
        30           Al  tau(  30) = (  0.1954819  0.9987714  0.3980221  )
        31           Al  tau(  31) = (  0.2947655  0.9985575  0.4999607  )
        32           Al  tau(  32) = (  0.1970545  0.1660117  0.4987016  )
        33           Al  tau(  33) = (  0.2984643  0.1659414  0.5977849  )
        34           Al  tau(  34) = (  0.1969929  0.9994576  0.5994968  )
        35           Al  tau(  35) = (  0.2968112  0.9995990  0.6995605  )
        36           Al  tau(  36) = (  0.1979480  0.1665734  0.6984388  )
        37           Al  tau(  37) = (  0.2974797  0.1666082  0.7987120  )
        38           Al  tau(  38) = (  0.1974395  0.9998598  0.7986311  )
        39           Al  tau(  39) = (  0.2972787  0.9997403  0.8981873  )
        40           Al  tau(  40) = (  0.1976619  0.1663004  0.8981606  )
        41           Al  tau(  41) = (  0.4982208  0.1665664  0.9973602  )
        42           Al  tau(  42) = (  0.3975946  0.9997249  0.9971084  )
        43           Al  tau(  43) = (  0.4982138  0.9989128  0.0954797  )
        44           Al  tau(  44) = (  0.3976548  0.1661441  0.0969119  )
        45           Al  tau(  45) = (  0.3962256  0.9985019  0.1947471  )
        46           Al  tau(  46) = (  0.3961596  0.9985726  0.6015137  )
        47           Al  tau(  47) = (  0.4982335  0.9988998  0.7008121  )
        48           Al  tau(  48) = (  0.3976522  0.1661944  0.6993519  )
        49           Al  tau(  49) = (  0.4982852  0.1665750  0.7989209  )
        50           Al  tau(  50) = (  0.3976307  0.9997043  0.7991590  )
        51           Al  tau(  51) = (  0.4983568  0.9997875  0.8982014  )
        52           Al  tau(  52) = (  0.3977949  0.1664832  0.8982011  )
        53           Al  tau(  53) = (  0.6989985  0.1667011  0.9975796  )
        54           Al  tau(  54) = (  0.5987978  0.9997783  0.9971732  )
        55           Al  tau(  55) = (  0.6996663  0.9996984  0.0967742  )
        56           Al  tau(  56) = (  0.5988117  0.1660735  0.0968862  )
        57           Al  tau(  57) = (  0.6979487  0.1659866  0.1984761  )
        58           Al  tau(  58) = (  0.6005176  0.9985272  0.1945437  )
        59           Al  tau(  59) = (  0.7019487  0.9987238  0.2961454  )
        60           Al  tau(  60) = (  0.7031506  0.1681947  0.3980363  )
        61           Al  tau(  61) = (  0.7017993  0.9988186  0.4998497  )
        62           Al  tau(  62) = (  0.6979952  0.1661047  0.5978186  )
        63           Al  tau(  63) = (  0.6003848  0.9985553  0.6016330  )
        64           Al  tau(  64) = (  0.6996464  0.9996895  0.6993730  )
        65           Al  tau(  65) = (  0.5989060  0.1660935  0.6993913  )
        66           Al  tau(  66) = (  0.6990714  0.1666957  0.7986989  )
        67           Al  tau(  67) = (  0.5988415  0.9997688  0.7991028  )
        68           Al  tau(  68) = (  0.6991481  0.9998242  0.8981903  )
        69           Al  tau(  69) = (  0.5987933  0.1664813  0.8982045  )
        70           Al  tau(  70) = (  0.8984762  0.1663274  0.9978363  )
        71           Al  tau(  71) = (  0.7990759  0.9999483  0.9976126  )
        72           Al  tau(  72) = (  0.8988027  0.9999123  0.0973498  )
        73           Al  tau(  73) = (  0.7986060  0.1666782  0.0978388  )
        74           Al  tau(  74) = (  0.8988284  0.1665834  0.1973491  )
        75           Al  tau(  75) = (  0.7996385  0.9996924  0.1966726  )
        76           Al  tau(  76) = (  0.8992329  0.9996757  0.2974544  )
        77           Al  tau(  77) = (  0.7996178  0.1661863  0.2975181  )
        78           Al  tau(  78) = (  0.8990051  0.1666712  0.3980285  )
        79           Al  tau(  79) = (  0.8010984  0.9991518  0.3981177  )
        80           Al  tau(  80) = (  0.8993180  0.9996670  0.4987134  )
        81           Al  tau(  81) = (  0.7996371  0.1662606  0.4987539  )
        82           Al  tau(  82) = (  0.8989066  0.1665602  0.5989243  )
        83           Al  tau(  83) = (  0.7996727  0.9997460  0.5995614  )
        84           Al  tau(  84) = (  0.8988135  0.9998622  0.6988912  )
        85           Al  tau(  85) = (  0.7986372  0.1666097  0.6984374  )
        86           Al  tau(  86) = (  0.8985068  0.1663419  0.7984732  )
        87           Al  tau(  87) = (  0.7990139  0.9999124  0.7985897  )
        88           Al  tau(  88) = (  0.8985277  0.9997800  0.8981902  )
        89           Al  tau(  89) = (  0.7987783  0.1662610  0.8982092  )
        90           Mg  tau(  90) = (  0.4046774  0.1588705  0.3044401  )
        91           Mg  tau(  91) = (  0.5919409  0.1591677  0.3045242  )
        92           Al  tau(  92) = (  0.4982981  0.1678357  0.1935360  )
        93           Si  tau(  93) = (  0.4981358  0.9880584  0.2777557  )
        94           Si  tau(  94) = (  0.3776920  0.9877803  0.3980630  )
        95           Al  tau(  95) = (  0.4982234  0.0625070  0.3980932  )
        96           Mg  tau(  96) = (  0.4047582  0.1588375  0.4915662  )
        97           Mg  tau(  97) = (  0.5919253  0.1592235  0.4918444  )
        98           Si  tau(  98) = (  0.6193880  0.9881441  0.3981328  )
        99           Si  tau(  99) = (  0.4981004  0.9880069  0.5184061  )
       100           Al  tau( 100) = (  0.4981432  0.1678076  0.6026878  )
       101           Al  tau( 101) = (  0.0979042  0.4994955  0.9978704  )
       102           Al  tau( 102) = (  0.9982510  0.3328448  0.9979696  )
       103           Al  tau( 103) = (  0.0980572  0.3329019  0.0977066  )
       104           Al  tau( 104) = (  0.9982110  0.4995628  0.0977312  )
       105           Al  tau( 105) = (  0.0982385  0.4994064  0.1976784  )
       106           Al  tau( 106) = (  0.9982000  0.3331918  0.1975376  )
       107           Al  tau( 107) = (  0.0978857  0.3327725  0.2975627  )
       108           Al  tau( 108) = (  0.9982196  0.4992756  0.2975584  )
       109           Al  tau( 109) = (  0.0973760  0.4990711  0.3980564  )
       110           Al  tau( 110) = (  0.9982382  0.3326089  0.3980022  )
       111           Al  tau( 111) = (  0.0979268  0.3327633  0.4986009  )
       112           Al  tau( 112) = (  0.9982407  0.4992885  0.4985903  )
       113           Al  tau( 113) = (  0.0982829  0.4993959  0.5985930  )
       114           Al  tau( 114) = (  0.9982401  0.3332331  0.5986526  )
       115           Al  tau( 115) = (  0.0980743  0.3329234  0.6985454  )
       116           Al  tau( 116) = (  0.9982127  0.4995485  0.6985209  )
       117           Al  tau( 117) = (  0.0979047  0.4994985  0.7983974  )
       118           Al  tau( 118) = (  0.9982463  0.3328486  0.7982875  )
       119           Al  tau( 119) = (  0.0979807  0.3328694  0.8981760  )
       120           Al  tau( 120) = (  0.9982711  0.4995259  0.8981659  )
       121           Al  tau( 121) = (  0.2977072  0.4993860  0.9980105  )
       122           Al  tau( 122) = (  0.1977543  0.3329052  0.9978916  )
       123           Al  tau( 123) = (  0.2978986  0.3326196  0.0978573  )
       124           Al  tau( 124) = (  0.1977875  0.4994617  0.0977098  )
       125           Al  tau( 125) = (  0.2978774  0.4995971  0.1976574  )
       126           Al  tau( 126) = (  0.1980666  0.3325191  0.1977281  )
       127           Al  tau( 127) = (  0.2980273  0.3328412  0.2977304  )
       128           Al  tau( 128) = (  0.1980240  0.4990498  0.2976653  )
       129           Al  tau( 129) = (  0.2977748  0.5005256  0.3980312  )
       130           Al  tau( 130) = (  0.1969784  0.3343588  0.3980344  )
       131           Al  tau( 131) = (  0.2980582  0.3328791  0.4985145  )
       132           Al  tau( 132) = (  0.1980520  0.4990354  0.4985001  )
       133           Al  tau( 133) = (  0.2978595  0.4996670  0.5986218  )
       134           Al  tau( 134) = (  0.1980635  0.3325432  0.5985087  )
       135           Al  tau( 135) = (  0.2978898  0.3326265  0.6984637  )
       136           Al  tau( 136) = (  0.1977958  0.4994628  0.6985927  )
       137           Al  tau( 137) = (  0.2977093  0.4994231  0.7982772  )
       138           Al  tau( 138) = (  0.1977262  0.3329051  0.7984081  )
       139           Al  tau( 139) = (  0.2976059  0.3330840  0.8981758  )
       140           Al  tau( 140) = (  0.1976708  0.4995027  0.8981794  )
       141           Al  tau( 141) = (  0.4982580  0.4990925  0.9970911  )
       142           Al  tau( 142) = (  0.3976713  0.3327918  0.9976635  )
       143           Al  tau( 143) = (  0.4982322  0.3345999  0.0967887  )
       144           Al  tau( 144) = (  0.3978432  0.4990223  0.0978271  )
       145           Al  tau( 145) = (  0.4984721  0.5005032  0.1974849  )
       146           Al  tau( 146) = (  0.3978026  0.3326271  0.1979567  )
       147           Al  tau( 147) = (  0.4983543  0.3400524  0.2981020  )
       148           Al  tau( 148) = (  0.3978304  0.5030157  0.2974296  )
       149           Al  tau( 149) = (  0.4984864  0.5066433  0.3979858  )
       150           Al  tau( 150) = (  0.3981859  0.3401354  0.3980897  )
       151           Al  tau( 151) = (  0.4984086  0.3401909  0.4980217  )
       152           Al  tau( 152) = (  0.3977823  0.5032285  0.4987681  )
       153           Al  tau( 153) = (  0.4983440  0.5005846  0.5986843  )
       154           Al  tau( 154) = (  0.3977776  0.3326394  0.5982197  )
       155           Al  tau( 155) = (  0.4982546  0.3346544  0.6994583  )
       156           Al  tau( 156) = (  0.3978799  0.4991188  0.6984907  )
       157           Al  tau( 157) = (  0.4983067  0.4991124  0.7991577  )
       158           Al  tau( 158) = (  0.3977118  0.3328082  0.7986207  )
       159           Al  tau( 159) = (  0.4983198  0.3325796  0.8982070  )
       160           Al  tau( 160) = (  0.3976486  0.4992437  0.8981861  )
       161           Al  tau( 161) = (  0.6987222  0.4994019  0.9980127  )
       162           Al  tau( 162) = (  0.5987329  0.3328717  0.9977093  )
       163           Al  tau( 163) = (  0.6986083  0.3325900  0.0978237  )
       164           Al  tau( 164) = (  0.5986970  0.4990720  0.0978010  )
       165           Al  tau( 165) = (  0.6988299  0.4997936  0.1975728  )
       166           Al  tau( 166) = (  0.5988355  0.3327021  0.1979824  )
       167           Al  tau( 167) = (  0.6986059  0.3329703  0.2976448  )
       168           Al  tau( 168) = (  0.5990500  0.5031983  0.2973840  )
       169           Al  tau( 169) = (  0.6990246  0.5006797  0.3979779  )
       170           Al  tau( 170) = (  0.5985072  0.3401290  0.3980033  )
       171           Al  tau( 171) = (  0.6986659  0.3330386  0.4984601  )
       172           Al  tau( 172) = (  0.5989808  0.5031438  0.4986402  )
       173           Al  tau( 173) = (  0.6987829  0.4997808  0.5985580  )
       174           Al  tau( 174) = (  0.5987609  0.3328515  0.5982775  )
       175           Al  tau( 175) = (  0.6985979  0.3326415  0.6983593  )
       176           Al  tau( 176) = (  0.5986790  0.4990561  0.6984255  )
       177           Al  tau( 177) = (  0.6987420  0.4993808  0.7982953  )
       178           Al  tau( 178) = (  0.5987503  0.3328512  0.7985837  )
       179           Al  tau( 179) = (  0.6988111  0.3330654  0.8981974  )
       180           Al  tau( 180) = (  0.5988540  0.4992638  0.8981978  )
       181           Al  tau( 181) = (  0.8986284  0.4994812  0.9978927  )
       182           Al  tau( 182) = (  0.7987273  0.3328171  0.9978678  )
       183           Al  tau( 183) = (  0.8985100  0.3328748  0.0976278  )
       184           Al  tau( 184) = (  0.7986827  0.4994531  0.0976206  )
       185           Al  tau( 185) = (  0.8982850  0.4995014  0.1975639  )
       186           Al  tau( 186) = (  0.7985775  0.3325296  0.1976766  )
       187           Al  tau( 187) = (  0.8986522  0.3328517  0.2974888  )
       188           Al  tau( 188) = (  0.7985320  0.4992046  0.2975421  )
       189           Al  tau( 189) = (  0.8992408  0.4992006  0.3979591  )
       190           Al  tau( 190) = (  0.7997406  0.3346828  0.3980594  )
       191           Al  tau( 191) = (  0.8986956  0.3328561  0.4985993  )
       192           Al  tau( 192) = (  0.7985449  0.4992454  0.4985416  )
       193           Al  tau( 193) = (  0.8982740  0.4994876  0.5985777  )
       194           Al  tau( 194) = (  0.7985941  0.3325612  0.5985312  )
       195           Al  tau( 195) = (  0.8985033  0.3328951  0.6986055  )
       196           Al  tau( 196) = (  0.7986861  0.4994675  0.6986053  )
       197           Al  tau( 197) = (  0.8986298  0.4994420  0.7983712  )
       198           Al  tau( 198) = (  0.7986989  0.3328675  0.7983716  )
       199           Al  tau( 199) = (  0.8985156  0.3327830  0.8981830  )
       200           Al  tau( 200) = (  0.7987377  0.4994815  0.8982103  )
       201           Al  tau( 201) = (  0.0979095  0.8330579  0.9978317  )
       202           Al  tau( 202) = (  0.9982279  0.6662804  0.9979237  )
       203           Al  tau( 203) = (  0.0979366  0.6660967  0.0976518  )
       204           Al  tau( 204) = (  0.9982263  0.8330891  0.0974028  )
       205           Al  tau( 205) = (  0.0976079  0.8329094  0.1972532  )
       206           Al  tau( 206) = (  0.9982444  0.6660088  0.1973334  )
       207           Al  tau( 207) = (  0.0975990  0.6657792  0.2975114  )
       208           Al  tau( 208) = (  0.9982449  0.8330066  0.2974927  )
       209           Al  tau( 209) = (  0.0972026  0.8322416  0.3980419  )
       210           Al  tau( 210) = (  0.9982407  0.6658936  0.3980083  )
       211           Al  tau( 211) = (  0.0975959  0.6657628  0.4986990  )
       212           Al  tau( 212) = (  0.9982450  0.8329522  0.4985941  )
       213           Al  tau( 213) = (  0.0975967  0.8329079  0.5989784  )
       214           Al  tau( 214) = (  0.9982428  0.6659360  0.5988470  )
       215           Al  tau( 215) = (  0.0979691  0.6660849  0.6986257  )
       216           Al  tau( 216) = (  0.9982615  0.8330473  0.6988480  )
       217           Al  tau( 217) = (  0.0979598  0.8330324  0.7984002  )
       218           Al  tau( 218) = (  0.9982402  0.6662775  0.7983220  )
       219           Al  tau( 219) = (  0.0979467  0.6662402  0.8981598  )
       220           Al  tau( 220) = (  0.9982091  0.8329523  0.8981886  )
       221           Al  tau( 221) = (  0.2972844  0.8328966  0.9974065  )
       222           Al  tau( 222) = (  0.1975954  0.6660396  0.9978486  )
       223           Al  tau( 223) = (  0.2977668  0.6661199  0.0974280  )
       224           Al  tau( 224) = (  0.1974563  0.8327065  0.0973368  )
       225           Al  tau( 225) = (  0.2975817  0.8322694  0.1975041  )
       226           Al  tau( 226) = (  0.1977310  0.6661119  0.1976500  )
       227           Al  tau( 227) = (  0.2975826  0.6665096  0.2974595  )
       228           Al  tau( 228) = (  0.1967178  0.8325296  0.2972910  )
       229           Al  tau( 229) = (  0.2924705  0.8263415  0.3980279  )
       230           Al  tau( 230) = (  0.1960313  0.6640154  0.3980576  )
       231           Al  tau( 231) = (  0.2975467  0.6665966  0.4986746  )
       232           Al  tau( 232) = (  0.1966797  0.8325525  0.4988741  )
       233           Al  tau( 233) = (  0.2976225  0.8322419  0.5987554  )
       234           Al  tau( 234) = (  0.1977244  0.6660952  0.5986211  )
       235           Al  tau( 235) = (  0.2978672  0.6661279  0.6988104  )
       236           Al  tau( 236) = (  0.1975039  0.8326770  0.6989078  )
       237           Al  tau( 237) = (  0.2973428  0.8328510  0.7988625  )
       238           Al  tau( 238) = (  0.1976438  0.6660261  0.7983971  )
       239           Al  tau( 239) = (  0.2973051  0.6660196  0.8981913  )
       240           Al  tau( 240) = (  0.1973737  0.8331162  0.8981566  )
       241           Al  tau( 241) = (  0.4981964  0.8322692  0.9968594  )
       242           Al  tau( 242) = (  0.3975854  0.6658097  0.9973379  )
       243           Al  tau( 243) = (  0.4982371  0.6639880  0.0956806  )
       244           Al  tau( 244) = (  0.3974631  0.8327478  0.0964502  )
       245           Al  tau( 245) = (  0.4981917  0.8263296  0.1923255  )
       246           Al  tau( 246) = (  0.3977336  0.6666062  0.1972344  )
       247           Al  tau( 247) = (  0.4984219  0.6700097  0.2973200  )
       248           Al  tau( 248) = (  0.3977882  0.8349978  0.2976373  )
       249           Al  tau( 249) = (  0.4981336  0.8353209  0.3980714  )
       250           Al  tau( 250) = (  0.3976424  0.6697118  0.3980247  )
       251           Al  tau( 251) = (  0.4984881  0.6700025  0.4988597  )
       252           Al  tau( 252) = (  0.3977695  0.8349138  0.4985741  )
       253           Al  tau( 253) = (  0.4983196  0.8264269  0.6038738  )
       254           Al  tau( 254) = (  0.3978581  0.6667235  0.5989974  )
       255           Al  tau( 255) = (  0.4984489  0.6640599  0.7005534  )
       256           Al  tau( 256) = (  0.3975841  0.8326540  0.6998243  )
       257           Al  tau( 257) = (  0.4982946  0.8322772  0.7994323  )
       258           Al  tau( 258) = (  0.3976668  0.6658064  0.7989822  )
       259           Al  tau( 259) = (  0.4983407  0.6656425  0.8981810  )
       260           Al  tau( 260) = (  0.3976617  0.8329856  0.8981994  )
       261           Al  tau( 261) = (  0.6991040  0.8330347  0.9974092  )
       262           Al  tau( 262) = (  0.5988626  0.6657980  0.9972556  )
       263           Al  tau( 263) = (  0.6985892  0.6662494  0.0974111  )
       264           Al  tau( 264) = (  0.5988936  0.8327692  0.0964158  )
       265           Al  tau( 265) = (  0.6988617  0.8323276  0.1976054  )
       266           Al  tau( 266) = (  0.5988606  0.6667872  0.1972677  )
       267           Al  tau( 267) = (  0.6990655  0.6667629  0.2975265  )
       268           Al  tau( 268) = (  0.5987049  0.8354137  0.2978273  )
       269           Al  tau( 269) = (  0.7039783  0.8268988  0.3981251  )
       270           Al  tau( 270) = (  0.5991765  0.6700987  0.3980425  )
       271           Al  tau( 271) = (  0.6990501  0.6667242  0.4987251  )
       272           Al  tau( 272) = (  0.5987478  0.8355128  0.4983394  )
       273           Al  tau( 273) = (  0.6989315  0.8324423  0.5986338  )
       274           Al  tau( 274) = (  0.5989759  0.6667636  0.5989310  )
       275           Al  tau( 275) = (  0.6986705  0.6662399  0.6988470  )
       276           Al  tau( 276) = (  0.5990234  0.8328010  0.6997574  )
       277           Al  tau( 277) = (  0.6991355  0.8330410  0.7988446  )
       278           Al  tau( 278) = (  0.5989342  0.6657984  0.7989588  )
       279           Al  tau( 279) = (  0.6991217  0.6661619  0.8982048  )
       280           Al  tau( 280) = (  0.5989168  0.8331188  0.8981874  )
       281           Al  tau( 281) = (  0.8985620  0.8331563  0.9978838  )
       282           Al  tau( 282) = (  0.7988184  0.6662026  0.9978743  )
       283           Al  tau( 283) = (  0.8985130  0.6662112  0.0975799  )
       284           Al  tau( 284) = (  0.7989830  0.8328576  0.0973732  )
       285           Al  tau( 285) = (  0.8989620  0.8329520  0.1971899  )
       286           Al  tau( 286) = (  0.7988520  0.6661865  0.1975809  )
       287           Al  tau( 287) = (  0.8989838  0.6658677  0.2973933  )
       288           Al  tau( 288) = (  0.8000135  0.8328681  0.2972932  )
       289           Al  tau( 289) = (  0.8993899  0.8323941  0.3980213  )
       290           Al  tau( 290) = (  0.8007616  0.6640749  0.3980408  )
       291           Al  tau( 291) = (  0.8989245  0.6659057  0.4986392  )
       292           Al  tau( 292) = (  0.7999675  0.8329187  0.4989673  )
       293           Al  tau( 293) = (  0.8989692  0.8329138  0.5990056  )
       294           Al  tau( 294) = (  0.7988437  0.6661642  0.5986129  )
       295           Al  tau( 295) = (  0.8985266  0.6661424  0.6986321  )
       296           Al  tau( 296) = (  0.7990571  0.8328366  0.6989161  )
       297           Al  tau( 297) = (  0.8985959  0.8331326  0.7984567  )
       298           Al  tau( 298) = (  0.7988435  0.6661187  0.7984510  )
       299           Al  tau( 299) = (  0.8986345  0.6662661  0.8981888  )
       300           Al  tau( 300) = (  0.7990722  0.8332173  0.8982084  )

     number of k points=    58  Methfessel-Paxton smearing, width (Ry)=  0.0441
                       cart. coord. in units 2pi/alat
        k(    1) = (   0.0000000   0.0000000   0.0000000), wk =   0.0178571
        k(    2) = (   0.0000000   0.0000000   0.2500000), wk =   0.0357143
        k(    3) = (   0.0000000   0.0000000  -0.5000000), wk =   0.0178571
        k(    4) = (   0.0000000   0.2380952   0.0000000), wk =   0.0357143
        k(    5) = (   0.0000000   0.2380952   0.2500000), wk =   0.0357143
        k(    6) = (   0.0000000   0.2380952  -0.5000000), wk =   0.0357143
        k(    7) = (   0.0000000   0.2380952  -0.2500000), wk =   0.0357143
        k(    8) = (   0.0000000   0.4761905   0.0000000), wk =   0.0357143
        k(    9) = (   0.0000000   0.4761905   0.2500000), wk =   0.0357143
        k(   10) = (   0.0000000   0.4761905  -0.5000000), wk =   0.0357143
        k(   11) = (   0.0000000   0.4761905  -0.2500000), wk =   0.0357143
        k(   12) = (   0.0000000   0.7142857   0.0000000), wk =   0.0357143
        k(   13) = (   0.0000000   0.7142857   0.2500000), wk =   0.0357143
        k(   14) = (   0.0000000   0.7142857  -0.5000000), wk =   0.0357143
        k(   15) = (   0.0000000   0.7142857  -0.2500000), wk =   0.0357143
        k(   16) = (   0.2500000   0.0000000   0.0000000), wk =   0.0357143
        k(   17) = (   0.2500000   0.0000000   0.2500000), wk =   0.0357143
        k(   18) = (   0.2500000   0.0000000  -0.5000000), wk =   0.0357143
        k(   19) = (   0.2500000   0.0000000  -0.2500000), wk =   0.0357143
        k(   20) = (   0.2500000   0.2380952   0.0000000), wk =   0.0357143
        k(   21) = (   0.2500000   0.2380952   0.2500000), wk =   0.0357143
        k(   22) = (   0.2500000   0.2380952  -0.5000000), wk =   0.0357143
        k(   23) = (   0.2500000   0.2380952  -0.2500000), wk =   0.0357143
        k(   24) = (   0.2500000   0.4761905   0.0000000), wk =   0.0357143
        k(   25) = (   0.2500000   0.4761905   0.2500000), wk =   0.0357143
        k(   26) = (   0.2500000   0.4761905  -0.5000000), wk =   0.0357143
        k(   27) = (   0.2500000   0.4761905  -0.2500000), wk =   0.0357143
        k(   28) = (   0.2500000   0.7142857   0.0000000), wk =   0.0357143
        k(   29) = (   0.2500000   0.7142857   0.2500000), wk =   0.0357143
        k(   30) = (   0.2500000   0.7142857  -0.5000000), wk =   0.0357143
        k(   31) = (   0.2500000   0.7142857  -0.2500000), wk =   0.0357143
        k(   32) = (   0.2500000  -0.7142857   0.0000000), wk =   0.0357143
        k(   33) = (   0.2500000  -0.7142857   0.2500000), wk =   0.0357143
        k(   34) = (   0.2500000  -0.7142857  -0.5000000), wk =   0.0357143
        k(   35) = (   0.2500000  -0.7142857  -0.2500000), wk =   0.0357143
        k(   36) = (   0.2500000  -0.4761905   0.0000000), wk =   0.0357143
        k(   37) = (   0.2500000  -0.4761905   0.2500000), wk =   0.0357143
        k(   38) = (   0.2500000  -0.4761905  -0.5000000), wk =   0.0357143
        k(   39) = (   0.2500000  -0.4761905  -0.2500000), wk =   0.0357143
        k(   40) = (   0.2500000  -0.2380952   0.0000000), wk =   0.0357143
        k(   41) = (   0.2500000  -0.2380952   0.2500000), wk =   0.0357143
        k(   42) = (   0.2500000  -0.2380952  -0.5000000), wk =   0.0357143
        k(   43) = (   0.2500000  -0.2380952  -0.2500000), wk =   0.0357143
        k(   44) = (  -0.5000000   0.0000000   0.0000000), wk =   0.0178571
        k(   45) = (  -0.5000000   0.0000000   0.2500000), wk =   0.0357143
        k(   46) = (  -0.5000000   0.0000000  -0.5000000), wk =   0.0178571
        k(   47) = (  -0.5000000   0.2380952   0.0000000), wk =   0.0357143
        k(   48) = (  -0.5000000   0.2380952   0.2500000), wk =   0.0357143
        k(   49) = (  -0.5000000   0.2380952  -0.5000000), wk =   0.0357143
        k(   50) = (  -0.5000000   0.2380952  -0.2500000), wk =   0.0357143
        k(   51) = (  -0.5000000   0.4761905   0.0000000), wk =   0.0357143
        k(   52) = (  -0.5000000   0.4761905   0.2500000), wk =   0.0357143
        k(   53) = (  -0.5000000   0.4761905  -0.5000000), wk =   0.0357143
        k(   54) = (  -0.5000000   0.4761905  -0.2500000), wk =   0.0357143
        k(   55) = (  -0.5000000   0.7142857   0.0000000), wk =   0.0357143
        k(   56) = (  -0.5000000   0.7142857   0.2500000), wk =   0.0357143
        k(   57) = (  -0.5000000   0.7142857  -0.5000000), wk =   0.0357143
        k(   58) = (  -0.5000000   0.7142857  -0.2500000), wk =   0.0357143

                       cryst. coord.
        k(    1) = (   0.0000000   0.0000000   0.0000000), wk =   0.0178571
        k(    2) = (   0.0000000   0.0000000   0.2500000), wk =   0.0357143
        k(    3) = (   0.0000000   0.0000000  -0.5000000), wk =   0.0178571
        k(    4) = (   0.0000000   0.1428571   0.0000000), wk =   0.0357143
        k(    5) = (   0.0000000   0.1428571   0.2500000), wk =   0.0357143
        k(    6) = (   0.0000000   0.1428571  -0.5000000), wk =   0.0357143
        k(    7) = (   0.0000000   0.1428571  -0.2500000), wk =   0.0357143
        k(    8) = (   0.0000000   0.2857143   0.0000000), wk =   0.0357143
        k(    9) = (   0.0000000   0.2857143   0.2500000), wk =   0.0357143
        k(   10) = (   0.0000000   0.2857143  -0.5000000), wk =   0.0357143
        k(   11) = (   0.0000000   0.2857143  -0.2500000), wk =   0.0357143
        k(   12) = (   0.0000000   0.4285714   0.0000000), wk =   0.0357143
        k(   13) = (   0.0000000   0.4285714   0.2500000), wk =   0.0357143
        k(   14) = (   0.0000000   0.4285714  -0.5000000), wk =   0.0357143
        k(   15) = (   0.0000000   0.4285714  -0.2500000), wk =   0.0357143
        k(   16) = (   0.2500000   0.0000000   0.0000000), wk =   0.0357143
        k(   17) = (   0.2500000   0.0000000   0.2500000), wk =   0.0357143
        k(   18) = (   0.2500000   0.0000000  -0.5000000), wk =   0.0357143
        k(   19) = (   0.2500000   0.0000000  -0.2500000), wk =   0.0357143
        k(   20) = (   0.2500000   0.1428571   0.0000000), wk =   0.0357143
        k(   21) = (   0.2500000   0.1428571   0.2500000), wk =   0.0357143
        k(   22) = (   0.2500000   0.1428571  -0.5000000), wk =   0.0357143
        k(   23) = (   0.2500000   0.1428571  -0.2500000), wk =   0.0357143
        k(   24) = (   0.2500000   0.2857143   0.0000000), wk =   0.0357143
        k(   25) = (   0.2500000   0.2857143   0.2500000), wk =   0.0357143
        k(   26) = (   0.2500000   0.2857143  -0.5000000), wk =   0.0357143
        k(   27) = (   0.2500000   0.2857143  -0.2500000), wk =   0.0357143
        k(   28) = (   0.2500000   0.4285714   0.0000000), wk =   0.0357143
        k(   29) = (   0.2500000   0.4285714   0.2500000), wk =   0.0357143
        k(   30) = (   0.2500000   0.4285714  -0.5000000), wk =   0.0357143
        k(   31) = (   0.2500000   0.4285714  -0.2500000), wk =   0.0357143
        k(   32) = (   0.2500000  -0.4285714   0.0000000), wk =   0.0357143
        k(   33) = (   0.2500000  -0.4285714   0.2500000), wk =   0.0357143
        k(   34) = (   0.2500000  -0.4285714  -0.5000000), wk =   0.0357143
        k(   35) = (   0.2500000  -0.4285714  -0.2500000), wk =   0.0357143
        k(   36) = (   0.2500000  -0.2857143   0.0000000), wk =   0.0357143
        k(   37) = (   0.2500000  -0.2857143   0.2500000), wk =   0.0357143
        k(   38) = (   0.2500000  -0.2857143  -0.5000000), wk =   0.0357143
        k(   39) = (   0.2500000  -0.2857143  -0.2500000), wk =   0.0357143
        k(   40) = (   0.2500000  -0.1428571   0.0000000), wk =   0.0357143
        k(   41) = (   0.2500000  -0.1428571   0.2500000), wk =   0.0357143
        k(   42) = (   0.2500000  -0.1428571  -0.5000000), wk =   0.0357143
        k(   43) = (   0.2500000  -0.1428571  -0.2500000), wk =   0.0357143
        k(   44) = (  -0.5000000   0.0000000   0.0000000), wk =   0.0178571
        k(   45) = (  -0.5000000   0.0000000   0.2500000), wk =   0.0357143
        k(   46) = (  -0.5000000   0.0000000  -0.5000000), wk =   0.0178571
        k(   47) = (  -0.5000000   0.1428571   0.0000000), wk =   0.0357143
        k(   48) = (  -0.5000000   0.1428571   0.2500000), wk =   0.0357143
        k(   49) = (  -0.5000000   0.1428571  -0.5000000), wk =   0.0357143
        k(   50) = (  -0.5000000   0.1428571  -0.2500000), wk =   0.0357143
        k(   51) = (  -0.5000000   0.2857143   0.0000000), wk =   0.0357143
        k(   52) = (  -0.5000000   0.2857143   0.2500000), wk =   0.0357143
        k(   53) = (  -0.5000000   0.2857143  -0.5000000), wk =   0.0357143
        k(   54) = (  -0.5000000   0.2857143  -0.2500000), wk =   0.0357143
        k(   55) = (  -0.5000000   0.4285714   0.0000000), wk =   0.0357143
        k(   56) = (  -0.5000000   0.4285714   0.2500000), wk =   0.0357143
        k(   57) = (  -0.5000000   0.4285714  -0.5000000), wk =   0.0357143
        k(   58) = (  -0.5000000   0.4285714  -0.2500000), wk =   0.0357143

     Dense  grid:  4566219 G-vectors     FFT dimensions: ( 250, 150, 250)

     Smooth grid:  1154937 G-vectors     FFT dimensions: ( 160,  96, 160)

     Dynamical RAM for                 wfc:     108.15 MB

     Dynamical RAM for     wfc (w. buffer):     324.44 MB

     Dynamical RAM for           str. fact:      19.00 MB

     Dynamical RAM for           local pot:       0.00 MB

     Dynamical RAM for          nlocal pot:    1073.46 MB

     Dynamical RAM for                qrad:      29.33 MB

     Dynamical RAM for          rho,v,vnew:      38.74 MB

     Dynamical RAM for               rhoin:      12.91 MB

     Dynamical RAM for            rho*nmix:     101.35 MB

     Dynamical RAM for           G-vectors:      24.55 MB

     Dynamical RAM for          h,s,v(r/c):      53.39 MB

     Dynamical RAM for          <psi|beta>:      44.17 MB

     Dynamical RAM for                 psi:     432.59 MB

     Dynamical RAM for                hpsi:     432.59 MB

     Dynamical RAM for                spsi:     432.59 MB

     Dynamical RAM for      wfcinit/wfcrot:     513.62 MB

     Dynamical RAM for           addusdens:      90.25 MB

     Dynamical RAM for          addusforce:     195.05 MB

     Dynamical RAM for         addusstress:      38.44 MB

     Estimated static dynamical RAM per process >       1.64 GB

     Estimated max dynamical RAM per process >       3.01 GB

     Estimated total dynamical RAM >    1190.07 GB

     Initial potential from superposition of free atoms

     starting charge  899.32532, renormalised to  900.00000
     Starting wfcs are 1200 randomized atomic wfcs
     Checking if some PAW data can be deallocated... 
       PAW data deallocated on   13 nodes for type:  1
       PAW data deallocated on  389 nodes for type:  2

     total cpu time spent up to now is      233.6 secs

     Self-consistent Calculation

     iteration #  1     ecut=    40.00 Ry     beta= 0.40
     Davidson diagonalization with overlap
     ethr =  1.00E-02,  avg # of iterations =  3.0

     Threshold (ethr) on eigenvalues was too large:
     Diagonalizing with lowered threshold

     Davidson diagonalization with overlap
     ethr =  3.09E-04,  avg # of iterations =  5.0

     total cpu time spent up to now is      992.6 secs

     total energy              =  -11715.05317504 Ry
     Harris-Foulkes estimate   =  -11715.29864840 Ry
     estimated scf accuracy    <       2.88705395 Ry

     iteration #  2     ecut=    40.00 Ry     beta= 0.40
     Davidson diagonalization with overlap
     ethr =  3.21E-04,  avg # of iterations =  1.7

     total cpu time spent up to now is     1253.3 secs

     total energy              =  -11714.74671935 Ry
     Harris-Foulkes estimate   =  -11715.07633002 Ry
     estimated scf accuracy    <       1.46990489 Ry

     iteration #  3     ecut=    40.00 Ry     beta= 0.40
     Davidson diagonalization with overlap
     ethr =  1.63E-04,  avg # of iterations =  2.3

     total cpu time spent up to now is     1524.1 secs

     total energy              =  -11714.81181248 Ry
     Harris-Foulkes estimate   =  -11714.81473201 Ry
     estimated scf accuracy    <       0.01837579 Ry

     iteration #  4     ecut=    40.00 Ry     beta= 0.40
     Davidson diagonalization with overlap
     ethr =  2.04E-06,  avg # of iterations = 16.9

     total cpu time spent up to now is     2304.4 secs

     total energy              =  -11714.82531003 Ry
     Harris-Foulkes estimate   =  -11714.82444720 Ry
     estimated scf accuracy    <       0.06138141 Ry

     iteration #  5     ecut=    40.00 Ry     beta= 0.40
     Davidson diagonalization with overlap
     ethr =  2.04E-06,  avg # of iterations =  2.5

     total cpu time spent up to now is     2610.3 secs

     total energy              =  -11714.80920217 Ry
     Harris-Foulkes estimate   =  -11714.82551600 Ry
     estimated scf accuracy    <       0.09329946 Ry

     iteration #  6     ecut=    40.00 Ry     beta= 0.40
     Davidson diagonalization with overlap
     ethr =  2.04E-06,  avg # of iterations =  9.1

     total cpu time spent up to now is     3104.7 secs

     total energy              =  -11714.81903301 Ry
     Harris-Foulkes estimate   =  -11714.82082411 Ry
     estimated scf accuracy    <       0.05553951 Ry

     iteration #  7     ecut=    40.00 Ry     beta= 0.40
     Davidson diagonalization with overlap
     ethr =  2.04E-06,  avg # of iterations =  1.0

     total cpu time spent up to now is     3354.9 secs

     total energy              =  -11714.81758911 Ry
     Harris-Foulkes estimate   =  -11714.81933436 Ry
     estimated scf accuracy    <       0.02656357 Ry

     iteration #  8     ecut=    40.00 Ry     beta= 0.40
     Davidson diagonalization with overlap
     ethr =  2.04E-06,  avg # of iterations =  1.6

     total cpu time spent up to now is     3609.3 secs

     total energy              =  -11714.81804541 Ry
     Harris-Foulkes estimate   =  -11714.81824254 Ry
     estimated scf accuracy    <       0.00244589 Ry

     iteration #  9     ecut=    40.00 Ry     beta= 0.40
     Davidson diagonalization with overlap
     ethr =  2.72E-07,  avg # of iterations =  4.1

     total cpu time spent up to now is     3930.4 secs

     total energy              =  -11714.81837181 Ry
     Harris-Foulkes estimate   =  -11714.81838136 Ry
     estimated scf accuracy    <       0.00032457 Ry

     iteration # 10     ecut=    40.00 Ry     beta= 0.40
     Davidson diagonalization with overlap
     ethr =  3.61E-08,  avg # of iterations =  2.0

     total cpu time spent up to now is     4186.3 secs

     total energy              =  -11714.81838510 Ry
     Harris-Foulkes estimate   =  -11714.81837946 Ry
     estimated scf accuracy    <       0.00022178 Ry

     iteration # 11     ecut=    40.00 Ry     beta= 0.40
     Davidson diagonalization with overlap
     ethr =  2.46E-08,  avg # of iterations =  1.1

     total cpu time spent up to now is     4436.2 secs

     total energy              =  -11714.81833905 Ry
     Harris-Foulkes estimate   =  -11714.81838948 Ry
     estimated scf accuracy    <       0.00040017 Ry

     iteration # 12     ecut=    40.00 Ry     beta= 0.40
     Davidson diagonalization with overlap
     ethr =  2.46E-08,  avg # of iterations =  2.3

     total cpu time spent up to now is     4717.0 secs

     total energy              =  -11714.81837037 Ry
     Harris-Foulkes estimate   =  -11714.81837364 Ry
     estimated scf accuracy    <       0.00005455 Ry

     iteration # 13     ecut=    40.00 Ry     beta= 0.40
     Davidson diagonalization with overlap
     ethr =  6.06E-09,  avg # of iterations =  1.0

     total cpu time spent up to now is     4967.1 secs

     total energy              =  -11714.81836976 Ry
     Harris-Foulkes estimate   =  -11714.81837158 Ry
     estimated scf accuracy    <       0.00001721 Ry

     iteration # 14     ecut=    40.00 Ry     beta= 0.40
     Davidson diagonalization with overlap
     ethr =  1.91E-09,  avg # of iterations =  3.1

     total cpu time spent up to now is     5249.1 secs

     total energy              =  -11714.81837123 Ry
     Harris-Foulkes estimate   =  -11714.81837124 Ry
     estimated scf accuracy    <       0.00000016 Ry

     iteration # 15     ecut=    40.00 Ry     beta= 0.40
     Davidson diagonalization with overlap
     ethr =  1.83E-11,  avg # of iterations =  5.6

     total cpu time spent up to now is     5878.0 secs

     total energy              =  -11714.81837178 Ry
     Harris-Foulkes estimate   =  -11714.81837177 Ry
     estimated scf accuracy    <       0.00000033 Ry

     iteration # 16     ecut=    40.00 Ry     beta= 0.40
     Davidson diagonalization with overlap
     ethr =  1.83E-11,  avg # of iterations =  1.0

     total cpu time spent up to now is     6127.9 secs

     total energy              =  -11714.81837174 Ry
     Harris-Foulkes estimate   =  -11714.81837176 Ry
     estimated scf accuracy    <       0.00000037 Ry

     iteration # 17     ecut=    40.00 Ry     beta= 0.40
     Davidson diagonalization with overlap
     ethr =  1.83E-11,  avg # of iterations =  1.0

     total cpu time spent up to now is     6377.9 secs

     total energy              =  -11714.81837170 Ry
     Harris-Foulkes estimate   =  -11714.81837173 Ry
     estimated scf accuracy    <       0.00000032 Ry

     iteration # 18     ecut=    40.00 Ry     beta= 0.40
     Davidson diagonalization with overlap
     ethr =  1.83E-11,  avg # of iterations =  1.6

     total cpu time spent up to now is     6629.6 secs

     total energy              =  -11714.81837170 Ry
     Harris-Foulkes estimate   =  -11714.81837170 Ry
     estimated scf accuracy    <       0.00000006 Ry

     iteration # 19     ecut=    40.00 Ry     beta= 0.40
     Davidson diagonalization with overlap
     ethr =  6.55E-12,  avg # of iterations =  1.9

     total cpu time spent up to now is     6883.6 secs

     total energy              =  -11714.81837169 Ry
     Harris-Foulkes estimate   =  -11714.81837169 Ry
     estimated scf accuracy    <       0.00000003 Ry

     iteration # 20     ecut=    40.00 Ry     beta= 0.40
     Davidson diagonalization with overlap
     ethr =  3.87E-12,  avg # of iterations =  1.0

     total cpu time spent up to now is     7133.6 secs

     total energy              =  -11714.81837168 Ry
     Harris-Foulkes estimate   =  -11714.81837168 Ry
     estimated scf accuracy    <       0.00000003 Ry

     iteration # 21     ecut=    40.00 Ry     beta= 0.40
     Davidson diagonalization with overlap
     ethr =  2.86E-12,  avg # of iterations =  3.1

     total cpu time spent up to now is     7397.4 secs

     total energy              =  -11714.81837167 Ry
     Harris-Foulkes estimate   =  -11714.81837168 Ry
     estimated scf accuracy    <          7.3E-09 Ry

     iteration # 22     ecut=    40.00 Ry     beta= 0.40
     Davidson diagonalization with overlap
     ethr =  8.12E-13,  avg # of iterations =  5.4

     total cpu time spent up to now is     7783.8 secs

     total energy              =  -11714.81837163 Ry
     Harris-Foulkes estimate   =  -11714.81837163 Ry
     estimated scf accuracy    <          2.9E-09 Ry

     iteration # 23     ecut=    40.00 Ry     beta= 0.40
     Davidson diagonalization with overlap
     ethr =  3.21E-13,  avg # of iterations =  1.1

     total cpu time spent up to now is     8035.5 secs

     total energy              =  -11714.81837161 Ry
     Harris-Foulkes estimate   =  -11714.81837161 Ry
     estimated scf accuracy    <          2.7E-09 Ry

     iteration # 24     ecut=    40.00 Ry     beta= 0.40
     Davidson diagonalization with overlap
     ethr =  3.00E-13,  avg # of iterations =  1.0

     total cpu time spent up to now is     8285.5 secs

     total energy              =  -11714.81837160 Ry
     Harris-Foulkes estimate   =  -11714.81837160 Ry
     estimated scf accuracy    <          6.3E-10 Ry

     iteration # 25     ecut=    40.00 Ry     beta= 0.40
     Davidson diagonalization with overlap
     ethr =  1.00E-13,  avg # of iterations =  2.8

     total cpu time spent up to now is     8550.1 secs

     total energy              =  -11714.81837160 Ry
     Harris-Foulkes estimate   =  -11714.81837160 Ry
     estimated scf accuracy    <          4.0E-11 Ry

     iteration # 26     ecut=    40.00 Ry     beta= 0.40
     Davidson diagonalization with overlap
     ethr =  1.00E-13,  avg # of iterations =  1.0

     total cpu time spent up to now is     8799.9 secs

     total energy              =  -11714.81837160 Ry
     Harris-Foulkes estimate   =  -11714.81837160 Ry
     estimated scf accuracy    <          3.6E-11 Ry

     iteration # 27     ecut=    40.00 Ry     beta= 0.40
     Davidson diagonalization with overlap
     ethr =  1.00E-13,  avg # of iterations =  1.0

     total cpu time spent up to now is     9049.8 secs

     total energy              =  -11714.81837159 Ry
     Harris-Foulkes estimate   =  -11714.81837159 Ry
     estimated scf accuracy    <          4.4E-12 Ry

     iteration # 28     ecut=    40.00 Ry     beta= 0.40
     Davidson diagonalization with overlap
     ethr =  1.00E-13,  avg # of iterations =  1.0

     total cpu time spent up to now is     9299.7 secs

     total energy              =  -11714.81837159 Ry
     Harris-Foulkes estimate   =  -11714.81837159 Ry
     estimated scf accuracy    <          5.0E-12 Ry

     iteration # 29     ecut=    40.00 Ry     beta= 0.40
     Davidson diagonalization with overlap
     ethr =  1.00E-13,  avg # of iterations =  1.0

     total cpu time spent up to now is     9548.8 secs

     End of self-consistent calculation

          k = 0.0000 0.0000 0.0000 (144307 PWs)   bands (ev):

    -3.3642  -3.0993  -2.9651  -2.9619  -2.9552  -2.6947  -2.6566  -2.6514
    -2.5670  -2.3813  -2.2694  -2.1410  -2.1185  -2.1112  -2.0343  -1.9537
    -1.9318  -1.9306  -1.9290  -1.8804  -1.8789  -1.8757  -1.8187  -1.7530
    -1.7524  -1.6860  -1.6079  -1.5918  -1.5764  -1.5741  -1.5734  -1.5311
    -1.5252  -1.5229  -1.5131  -1.4932  -1.4913  -1.4492  -1.3622  -1.1034
    -1.0088  -1.0073  -0.9361  -0.8831  -0.8238  -0.8233  -0.8151  -0.7381
    -0.7371  -0.6809  -0.6024  -0.5352  -0.5339  -0.5332  -0.5300  -0.5254
    -0.5248  -0.5241  -0.5228  -0.4871  -0.4814  -0.4627  -0.4616  -0.3903
    -0.3890  -0.3350  -0.3261  -0.2654  -0.0913  -0.0901  -0.0755   0.0826
     0.1757   0.1759   0.2523   0.2719   0.2721   0.2730   0.2819   0.4261
     0.4264   0.4871   0.5273   0.5399   0.5672   0.5679   0.6166   0.6420
     0.6594   0.6746   0.8303   0.8313   0.8616   0.8922   0.9092   0.9100
     0.9199   0.9800   0.9831   0.9879   0.9896   1.0087   1.0166   1.0173
     1.0533   1.0748   1.0930   1.0945   1.1586   1.2025   1.2041   1.2048
     1.2149   1.2330   1.2346   1.2386   1.2550   1.2579   1.2621   1.2701
     1.2717   1.2849   1.2861   1.3029   1.3098   1.3194   1.3211   1.3283
     1.3344   1.3579   1.3594   1.3617   1.3926   1.4620   1.4629   1.4817
     1.5267   1.9246   2.0113   2.0237   2.0241   2.0347   2.0596   2.0875
     2.0878   2.1285   2.1298   2.1391   2.1424   2.2319   2.2447   2.2459
     2.2507   2.2715   2.2830   2.2831   2.2851   2.2864   2.2914   2.3104
     2.3114   2.3280   2.3289   2.3484   2.3577   2.3635   2.3690   2.3710
     2.3799   2.3828   2.3855   2.3860   2.3877   2.4165   2.4240   2.4249
     2.4370   2.5254   2.5255   2.5745   2.6140   2.6535   2.6741   2.6764
     2.6778   2.6933   2.6937   2.7045   2.7370   2.9786   3.0103   3.0125
     3.0784   3.0922   3.2178   3.2184   3.2958   3.3056   3.3323   3.3331
     3.3539   3.3659   3.3669   3.4073   3.4116   3.4127   3.4373   3.4551
     3.4645   3.5006   3.5312   3.5319   3.5661   3.5877   3.5885   3.5987
     3.6014   3.6054   3.6476   3.6485   3.6514   3.6533   3.6729   3.6740
     3.6791   3.6800   3.6978   3.6981   3.7134   3.7175   3.7183   3.7197
     3.7304   3.7508   3.7830   3.7836   3.7852   3.7954   3.8479   3.8579
     3.8583   3.9265   3.9280   3.9579   4.0092   4.0102   4.0400   4.0406
     4.0510   4.0577   4.0589   4.0603   4.0799   4.0986   4.1043   4.1046
     4.1069   4.1328   4.1464   4.1468   4.1633   4.2209   4.2214   4.2692
     4.2876   4.5589   4.5691   4.5810   4.5829   4.6069   4.6276   4.6284
     4.6743   4.6956   4.7467   4.7475   4.7581   4.7754   4.8167   4.8217
     4.8222   4.8672   4.8693   4.8700   5.0799   5.0813   5.0944   5.1073
     5.1078   5.1206   5.1211   5.1222   5.1344   5.1349   5.1464   5.1695
     5.1700   5.1744   5.1811   5.1892   5.1945   5.1982   5.1988   5.2223
     5.2227   5.2365   5.2582   5.3661   5.3753   5.3765   5.3822   5.3957
     5.4037   5.4372   5.4376   5.5257   5.5287   5.5441   5.5937   5.6174
     5.7150   5.7155   5.8167   5.8170   5.8375   5.9558   5.9672   5.9948
     5.9952   6.0875   6.0881   6.1028   6.1046   6.1061   6.1073   6.1103
     6.1223   6.1283   6.1310   6.1317   6.1353   6.1572   6.1632   6.1662
     6.1850   6.1853   6.1860   6.2054   6.2077   6.2083   6.2193   6.2313
     6.2538   6.2799   6.2809   6.3342   6.3441   6.3450   6.3617   6.3770
     6.3771   6.3777   6.3818   6.3870   6.3919   6.4210   6.4235   6.4288
     6.4340   6.4394   6.4397   6.4742   6.4754   6.4784   6.4828   6.4838
     6.4846   6.4955   6.4959   6.5011   6.5062   6.5081   6.5105   6.5145
     6.5156   6.5293   6.5315   6.5375   6.5403   6.5540   6.5547   6.5898
     6.5967   6.5970   6.6009   6.6229   6.6681   6.6925   6.6937   6.8138
     6.8162   6.8217   6.8276   6.8281   6.8335   6.8486   6.8841   6.9027
     6.9079   6.9089   6.9096   6.9789   6.9944   7.0465   7.0470   7.0900
     7.0960   7.1230   7.1608   7.1608   7.1860   7.1890   7.2104   7.2322
     7.4009   7.4020   7.4236   7.4248   7.4470   7.4493   7.4599   7.4607
     7.4667   7.4771   7.4774   7.4826   7.4870   7.5050   7.5055   7.5060
     7.5060   7.5120   7.5161   7.5169   7.5234   7.5241   7.5377   7.5455
     7.5456   7.5577   7.5735   7.5834   7.5961   7.5972   7.6284   7.6543
     7.6578   7.6580   7.7753   7.7860   7.7915   7.7929   7.8404   7.8429
     7.8433   7.8539   7.8802   7.8806   7.8880   7.9132   7.9142   7.9334
     7.9347   7.9441   7.9728   7.9870   8.0193   8.0213   8.0892   8.0918
     8.1385   8.1397   8.1680   8.2410   8.2415   8.2552   8.2922   8.3216
     8.4753   8.4756   8.4874   8.5171   8.5177   8.5267   8.5273   8.5872
     8.5918   8.5919   8.6146   8.6426   8.6503   8.6569   8.6575   8.6959
     8.7228   8.7239   8.7327   8.7374   8.7382   8.7514   8.7744   8.7863
     8.8121   8.8130   8.8592   8.8594   8.8603   8.8617   8.8776   8.9274
     8.9283   8.9324   8.9444   8.9512   8.9924   8.9934   9.0668   9.0693
     9.0796   9.1168   9.1171   9.1213   9.1471   9.1481   9.1485   9.1490
     9.1607   9.1659   9.1681   9.1751

     occupation numbers 
     1.0000   1.0000   1.0000   1.0000   1.0000   1.0000   1.0000   1.0000
     1.0000   1.0000   1.0000   1.0000   1.0000   1.0000   1.0000   1.0000
     1.0000   1.0000   1.0000   1.0000   1.0000   1.0000   1.0000   1.0000
     1.0000   1.0000   1.0000   1.0000   1.0000   1.0000   1.0000   1.0000
     1.0000   1.0000   1.0000   1.0000   1.0000   1.0000   1.0000   1.0000
     1.0000   1.0000   1.0000   1.0000   1.0000   1.0000   1.0000   1.0000
     1.0000   1.0000   1.0000   1.0000   1.0000   1.0000   1.0000   1.0000
     1.0000   1.0000   1.0000   1.0000   1.0000   1.0000   1.0000   1.0000
     1.0000   1.0000   1.0000   1.0000   1.0000   1.0000   1.0000   1.0000
     1.0000   1.0000   1.0000   1.0000   1.0000   1.0000   1.0000   1.0000
     1.0000   1.0000   1.0000   1.0000   1.0000   1.0000   1.0000   1.0000
     1.0000   1.0000   1.0000   1.0000   1.0000   1.0000   1.0000   1.0000
     1.0000   1.0000   1.0000   1.0000   1.0000   1.0000   1.0000   1.0000
     1.0000   1.0000   1.0000   1.0000   1.0000   1.0000   1.0000   1.0000
     1.0000   1.0000   1.0000   1.0000   1.0000   1.0000   1.0000   1.0000
     1.0000   1.0000   1.0000   1.0000   1.0000   1.0000   1.0000   1.0000
[...]
     atom  119 type  1   force =    -0.00000001    0.00000002   -0.00000001
     atom  120 type  1   force =    -0.00000001   -0.00000001   -0.00000000
     atom  121 type  1   force =    -0.00000000    0.00000000    0.00000002
     atom  122 type  1   force =    -0.00000000    0.00000001    0.00000001
     atom  123 type  1   force =     0.00000003   -0.00000001    0.00000007
     atom  124 type  1   force =     0.00000001    0.00000000    0.00000002
     atom  125 type  1   force =     0.00000005   -0.00000003    0.00000004
     atom  126 type  1   force =     0.00000006   -0.00000001    0.00000003
     atom  127 type  1   force =     0.00000007   -0.00000002    0.00000003
     atom  128 type  1   force =     0.00000007   -0.00000003    0.00000001
     atom  129 type  1   force =     0.00000008   -0.00000005    0.00000001
     atom  130 type  1   force =     0.00000010   -0.00000002    0.00000000
     atom  131 type  1   force =     0.00000007   -0.00000002   -0.00000003
     atom  132 type  1   force =     0.00000007   -0.00000003   -0.00000000
     atom  133 type  1   force =     0.00000005   -0.00000003   -0.00000004
     atom  134 type  1   force =     0.00000007   -0.00000001   -0.00000003
     atom  135 type  1   force =     0.00000004   -0.00000001   -0.00000006
     atom  136 type  1   force =     0.00000003   -0.00000000   -0.00000002
     atom  137 type  1   force =     0.00000000    0.00000000   -0.00000003
     atom  138 type  1   force =     0.00000000    0.00000001   -0.00000001
     atom  139 type  1   force =    -0.00000001    0.00000001   -0.00000001
     atom  140 type  1   force =    -0.00000001   -0.00000001   -0.00000001
     atom  141 type  1   force =    -0.00000001   -0.00000001    0.00000004
     atom  142 type  1   force =     0.00000000   -0.00000001    0.00000005
     atom  143 type  1   force =    -0.00000001   -0.00000002    0.00000010
     atom  144 type  1   force =     0.00000001   -0.00000003    0.00000007
     atom  145 type  1   force =    -0.00000001   -0.00000004    0.00000008
     atom  146 type  1   force =     0.00000003   -0.00000002    0.00000006
     atom  147 type  1   force =    -0.00000000   -0.00000000    0.00000003
     atom  148 type  1   force =     0.00000004   -0.00000004    0.00000004
     atom  149 type  1   force =    -0.00000000   -0.00000003    0.00000000
     atom  150 type  1   force =     0.00000002   -0.00000001    0.00000000
     atom  151 type  1   force =    -0.00000000   -0.00000001   -0.00000002
     atom  152 type  1   force =     0.00000004   -0.00000004   -0.00000004
     atom  153 type  1   force =    -0.00000000   -0.00000004   -0.00000008
     atom  154 type  1   force =     0.00000003   -0.00000002   -0.00000006
     atom  155 type  1   force =    -0.00000000   -0.00000003   -0.00000010
     atom  156 type  1   force =    -0.00000000   -0.00000003   -0.00000007
     atom  157 type  1   force =    -0.00000000   -0.00000001   -0.00000005
     atom  158 type  1   force =    -0.00000000   -0.00000000   -0.00000006
     atom  159 type  1   force =    -0.00000000   -0.00000000   -0.00000000
     atom  160 type  1   force =    -0.00000002    0.00000001   -0.00000001
     atom  161 type  1   force =     0.00000001    0.00000000    0.00000002
     atom  162 type  1   force =    -0.00000001   -0.00000000    0.00000005
     atom  163 type  1   force =    -0.00000003   -0.00000000    0.00000007
     atom  164 type  1   force =    -0.00000001   -0.00000003    0.00000007
     atom  165 type  1   force =    -0.00000005   -0.00000003    0.00000004
     atom  166 type  1   force =    -0.00000003   -0.00000002    0.00000007
     atom  167 type  1   force =    -0.00000007   -0.00000002    0.00000003
     atom  168 type  1   force =    -0.00000005   -0.00000004    0.00000004
     atom  169 type  1   force =    -0.00000008   -0.00000004    0.00000000
     atom  170 type  1   force =    -0.00000003   -0.00000000    0.00000000
     atom  171 type  1   force =    -0.00000007   -0.00000002   -0.00000002
     atom  172 type  1   force =    -0.00000005   -0.00000004   -0.00000004
     atom  173 type  1   force =    -0.00000005   -0.00000003   -0.00000003
     atom  174 type  1   force =    -0.00000004   -0.00000002   -0.00000006
     atom  175 type  1   force =    -0.00000003   -0.00000001   -0.00000006
     atom  176 type  1   force =    -0.00000000   -0.00000002   -0.00000007
     atom  177 type  1   force =    -0.00000000   -0.00000000   -0.00000003
     atom  178 type  1   force =     0.00000001   -0.00000000   -0.00000006
     atom  179 type  1   force =     0.00000001    0.00000002   -0.00000002
     atom  180 type  1   force =     0.00000001    0.00000000   -0.00000001
     atom  181 type  1   force =     0.00000001    0.00000000   -0.00000002
     atom  182 type  1   force =     0.00000001    0.00000003    0.00000001
     atom  183 type  1   force =    -0.00000001    0.00000002   -0.00000001
     atom  184 type  1   force =    -0.00000002   -0.00000001    0.00000001
     atom  185 type  1   force =    -0.00000002   -0.00000001   -0.00000001
     atom  186 type  1   force =    -0.00000007   -0.00000000    0.00000002
     atom  187 type  1   force =    -0.00000005   -0.00000000    0.00000000
     atom  188 type  1   force =    -0.00000007   -0.00000003    0.00000001
     atom  189 type  1   force =    -0.00000004   -0.00000001    0.00000000
     atom  190 type  1   force =    -0.00000010   -0.00000002    0.00000000
     atom  191 type  1   force =    -0.00000005   -0.00000000    0.00000001
     atom  192 type  1   force =    -0.00000007   -0.00000003    0.00000000
     atom  193 type  1   force =    -0.00000003   -0.00000001    0.00000001
     atom  194 type  1   force =    -0.00000006   -0.00000001   -0.00000002
     atom  195 type  1   force =    -0.00000002    0.00000002   -0.00000000
     atom  196 type  1   force =    -0.00000003   -0.00000001   -0.00000002
     atom  197 type  1   force =     0.00000001   -0.00000000    0.00000001
     atom  198 type  1   force =    -0.00000001    0.00000002   -0.00000002
     atom  199 type  1   force =     0.00000002    0.00000004   -0.00000000
     atom  200 type  1   force =     0.00000002    0.00000000   -0.00000000
     atom  201 type  1   force =    -0.00000000   -0.00000002    0.00000001
     atom  202 type  1   force =    -0.00000000   -0.00000002   -0.00000001
     atom  203 type  1   force =     0.00000001   -0.00000001   -0.00000000
     atom  204 type  1   force =     0.00000001   -0.00000002   -0.00000000
     atom  205 type  1   force =     0.00000003   -0.00000001   -0.00000000
     atom  206 type  1   force =     0.00000002   -0.00000001   -0.00000002
     atom  207 type  1   force =     0.00000003   -0.00000001   -0.00000001
     atom  208 type  1   force =     0.00000001    0.00000000    0.00000000
     atom  209 type  1   force =     0.00000003    0.00000001   -0.00000000
     atom  210 type  1   force =     0.00000001    0.00000001    0.00000000
     atom  211 type  1   force =     0.00000003   -0.00000001    0.00000001
     atom  212 type  1   force =    -0.00000001   -0.00000000    0.00000000
     atom  213 type  1   force =     0.00000003   -0.00000000   -0.00000001
     atom  214 type  1   force =     0.00000000   -0.00000001    0.00000001
     atom  215 type  1   force =     0.00000001   -0.00000002    0.00000001
     atom  216 type  1   force =     0.00000001   -0.00000002    0.00000001
     atom  217 type  1   force =    -0.00000001   -0.00000002    0.00000000
     atom  218 type  1   force =    -0.00000000   -0.00000002    0.00000001
     atom  219 type  1   force =    -0.00000002   -0.00000002   -0.00000000
     atom  220 type  1   force =    -0.00000000   -0.00000002   -0.00000001
     atom  221 type  1   force =     0.00000001   -0.00000000    0.00000004
     atom  222 type  1   force =    -0.00000000   -0.00000001    0.00000003
     atom  223 type  1   force =     0.00000001    0.00000001    0.00000004
     atom  224 type  1   force =     0.00000003   -0.00000001    0.00000003
     atom  225 type  1   force =     0.00000005    0.00000003    0.00000004
     atom  226 type  1   force =     0.00000003    0.00000000   -0.00000000
     atom  227 type  1   force =     0.00000008    0.00000001    0.00000002
     atom  228 type  1   force =     0.00000007    0.00000003   -0.00000000
     atom  229 type  1   force =     0.00000011    0.00000004    0.00000000
     atom  230 type  1   force =     0.00000007   -0.00000001    0.00000000
     atom  231 type  1   force =     0.00000008    0.00000000   -0.00000002
     atom  232 type  1   force =     0.00000008    0.00000002   -0.00000001
     atom  233 type  1   force =     0.00000006    0.00000003   -0.00000005
     atom  234 type  1   force =     0.00000005   -0.00000001   -0.00000001
     atom  235 type  1   force =     0.00000002   -0.00000001   -0.00000003
     atom  236 type  1   force =     0.00000004   -0.00000001   -0.00000002
     atom  237 type  1   force =     0.00000002   -0.00000001   -0.00000003
     atom  238 type  1   force =     0.00000001   -0.00000001   -0.00000002
     atom  239 type  1   force =     0.00000000   -0.00000001   -0.00000001
     atom  240 type  1   force =     0.00000000   -0.00000002   -0.00000000
     atom  241 type  1   force =    -0.00000001    0.00000001    0.00000002
     atom  242 type  1   force =    -0.00000001    0.00000000    0.00000002
     atom  243 type  1   force =    -0.00000001   -0.00000001    0.00000007
     atom  244 type  1   force =    -0.00000001    0.00000003    0.00000007
     atom  245 type  1   force =    -0.00000001    0.00000004    0.00000010
     atom  246 type  1   force =     0.00000002    0.00000001    0.00000007
     atom  247 type  1   force =    -0.00000001    0.00000001    0.00000006
     atom  248 type  1   force =     0.00000005    0.00000005    0.00000005
     atom  249 type  1   force =    -0.00000001    0.00000005    0.00000000
     atom  250 type  1   force =     0.00000006    0.00000002    0.00000000
     atom  251 type  1   force =    -0.00000000    0.00000002   -0.00000005
     atom  252 type  1   force =     0.00000005    0.00000004   -0.00000005
     atom  253 type  1   force =    -0.00000000    0.00000004   -0.00000010
     atom  254 type  1   force =     0.00000002    0.00000000   -0.00000007
     atom  255 type  1   force =    -0.00000000   -0.00000000   -0.00000006
     atom  256 type  1   force =     0.00000000    0.00000002   -0.00000007
     atom  257 type  1   force =    -0.00000001    0.00000000   -0.00000003
     atom  258 type  1   force =    -0.00000001    0.00000000   -0.00000003
     atom  259 type  1   force =    -0.00000001    0.00000001   -0.00000001
     atom  260 type  1   force =    -0.00000000   -0.00000000   -0.00000001
     atom  261 type  1   force =    -0.00000001   -0.00000001    0.00000002
     atom  262 type  1   force =     0.00000001   -0.00000000    0.00000002
     atom  263 type  1   force =    -0.00000001   -0.00000001    0.00000004
     atom  264 type  1   force =    -0.00000001    0.00000002    0.00000007
     atom  265 type  1   force =    -0.00000006    0.00000002    0.00000005
     atom  266 type  1   force =    -0.00000002    0.00000000    0.00000007
     atom  267 type  1   force =    -0.00000008    0.00000000    0.00000002
     atom  268 type  1   force =    -0.00000006    0.00000004    0.00000006
     atom  269 type  1   force =    -0.00000010    0.00000004    0.00000001
     atom  270 type  1   force =    -0.00000006    0.00000001    0.00000000
     atom  271 type  1   force =    -0.00000008    0.00000001   -0.00000001
     atom  272 type  1   force =    -0.00000006    0.00000005   -0.00000004
     atom  273 type  1   force =    -0.00000006    0.00000003   -0.00000005
     atom  274 type  1   force =    -0.00000002    0.00000000   -0.00000007
     atom  275 type  1   force =    -0.00000002   -0.00000002   -0.00000004
     atom  276 type  1   force =    -0.00000001    0.00000002   -0.00000007
     atom  277 type  1   force =    -0.00000001   -0.00000001   -0.00000003
     atom  278 type  1   force =     0.00000001   -0.00000001   -0.00000003
     atom  279 type  1   force =     0.00000001   -0.00000001   -0.00000001
     atom  280 type  1   force =    -0.00000001   -0.00000001   -0.00000001
     atom  281 type  1   force =     0.00000001   -0.00000003   -0.00000000
     atom  282 type  1   force =     0.00000001   -0.00000002    0.00000000
     atom  283 type  1   force =    -0.00000000   -0.00000001   -0.00000001
     atom  284 type  1   force =    -0.00000002   -0.00000001    0.00000002
     atom  285 type  1   force =    -0.00000002   -0.00000000   -0.00000000
     atom  286 type  1   force =    -0.00000004   -0.00000001    0.00000001
     atom  287 type  1   force =    -0.00000002   -0.00000000   -0.00000000
     atom  288 type  1   force =    -0.00000007    0.00000002    0.00000001
     atom  289 type  1   force =    -0.00000002    0.00000001    0.00000001
     atom  290 type  1   force =    -0.00000007   -0.00000000    0.00000001
     atom  291 type  1   force =    -0.00000003    0.00000000    0.00000001
     atom  292 type  1   force =    -0.00000007    0.00000002    0.00000000
     atom  293 type  1   force =    -0.00000002   -0.00000000   -0.00000002
     atom  294 type  1   force =    -0.00000004   -0.00000001   -0.00000001
     atom  295 type  1   force =    -0.00000001   -0.00000002    0.00000001
     atom  296 type  1   force =    -0.00000003   -0.00000001   -0.00000003
     atom  297 type  1   force =     0.00000001   -0.00000003    0.00000001
     atom  298 type  1   force =    -0.00000000   -0.00000002   -0.00000000
     atom  299 type  1   force =     0.00000001   -0.00000002   -0.00000000
     atom  300 type  1   force =     0.00000001   -0.00000003   -0.00000000

     Total force =     0.012215     Total SCF correction =     0.000001


     Computing stress (Cartesian axis) and pressure

          total   stress  (Ry/bohr**3)                   (kbar)     P=   -6.88
  -0.00004529   0.00000007   0.00000003         -6.66      0.01      0.00
   0.00000007  -0.00004959  -0.00000001          0.01     -7.29     -0.00
   0.00000003  -0.00000001  -0.00004536          0.00     -0.00     -6.67

     kinetic stress (kbar)   1442.75      0.00     -0.00
                                0.00   1442.37     -0.00
                               -0.00     -0.00   1442.70

     local   stress (kbar)    590.28     -0.02     -0.04
                               -0.02    634.07     -0.00
                               -0.04     -0.00    589.91

     nonloc. stress (kbar)   1046.74      0.01      0.00
                                0.01   1046.53     -0.00
                                0.00     -0.00   1046.75

     hartree stress (kbar)     16.98     -0.00      0.01
                               -0.00     -1.02      0.00
                                0.01      0.00     17.08

     exc-cor stress (kbar)    541.31      0.00      0.00
                                0.00    541.29     -0.00
                                0.00     -0.00    541.31

     corecor stress (kbar)  -1313.58     -0.00     -0.00
                               -0.00  -1313.54      0.00
                               -0.00      0.00  -1313.58

     ewald   stress (kbar)  -2331.14      0.03      0.04
                                0.03  -2357.00      0.00
                                0.04      0.00  -2330.84

     hubbard stress (kbar)      0.00      0.00      0.00
                                0.00      0.00      0.00
                                0.00      0.00      0.00

     london  stress (kbar)      0.00      0.00      0.00
                                0.00      0.00      0.00
                                0.00      0.00      0.00

     DFT-D3  stress (kbar)      0.00      0.00      0.00
                                0.00      0.00      0.00
                                0.00      0.00      0.00

     XDM     stress (kbar)      0.00      0.00      0.00
                                0.00      0.00      0.00
                                0.00      0.00      0.00

     dft-nl  stress (kbar)      0.00      0.00      0.00
                                0.00      0.00      0.00
                                0.00      0.00      0.00

     TS-vdW  stress (kbar)      0.00      0.00      0.00
                                0.00      0.00      0.00
                                0.00      0.00      0.00



     Writing output data file aiida.save/
 
     init_run     :    227.93s CPU    230.47s WALL (       1 calls)
     electrons    :   9253.72s CPU   9315.68s WALL (       1 calls)
     forces       :    112.07s CPU    112.98s WALL (       1 calls)
     stress       :   1351.63s CPU   1353.16s WALL (       1 calls)

     Called by init_run:
     wfcinit      :    210.67s CPU    212.84s WALL (       1 calls)
     wfcinit:atom :      0.31s CPU      0.61s WALL (       2 calls)
     wfcinit:wfcr :    208.07s CPU    209.07s WALL (       2 calls)
     potinit      :      4.15s CPU      4.31s WALL (       1 calls)
     hinit0       :      6.76s CPU      6.83s WALL (       1 calls)

     Called by electrons:
     c_bands      :   8043.97s CPU   8096.02s WALL (      30 calls)
     sum_band     :   1121.62s CPU   1126.51s WALL (      30 calls)
     v_of_rho     :     40.05s CPU     41.29s WALL (      30 calls)
     v_h          :      4.19s CPU      4.20s WALL (      30 calls)
     v_xc         :     37.84s CPU     39.12s WALL (      32 calls)
     newd         :      9.54s CPU     11.68s WALL (      30 calls)
     PAW_pot      :      5.73s CPU      5.95s WALL (      30 calls)
     mix_rho      :     25.55s CPU     26.85s WALL (      30 calls)

     Called by c_bands:
     init_us_2    :     96.62s CPU     97.22s WALL (     126 calls)
     cegterg      :   7079.79s CPU   7129.08s WALL (      60 calls)

     Called by sum_band:
     sum_band:bec :      2.28s CPU      2.28s WALL (      60 calls)
     addusdens    :      8.52s CPU     11.05s WALL (      30 calls)

     Called by *egterg:
     h_psi        :   4514.33s CPU   4532.35s WALL (     224 calls)
     s_psi        :   1503.66s CPU   1504.35s WALL (     224 calls)
     g_psi        :      5.09s CPU      5.10s WALL (     162 calls)
     cdiaghg      :    396.12s CPU    402.04s WALL (     220 calls)
     cegterg:over :    342.95s CPU    344.69s WALL (     162 calls)
     cegterg:upda :    236.20s CPU    245.10s WALL (     162 calls)
     cegterg:last :    163.72s CPU    163.80s WALL (      64 calls)
     cdiaghg:chol :     17.78s CPU     17.92s WALL (     220 calls)
     cdiaghg:inve :      8.10s CPU      8.11s WALL (     220 calls)
     cdiaghg:para :     90.79s CPU     92.34s WALL (     440 calls)

     Called by h_psi:
     h_psi:pot    :   4508.44s CPU   4518.49s WALL (     224 calls)
     h_psi:calbec :   1481.86s CPU   1482.00s WALL (     224 calls)
     vloc_psi     :   1493.76s CPU   1502.74s WALL (     224 calls)
     add_vuspsi   :   1532.81s CPU   1533.74s WALL (     224 calls)

     General routines
     calbec       :   2197.38s CPU   2197.60s WALL (     294 calls)
     fft          :     43.36s CPU     43.92s WALL (     415 calls)
     ffts         :     11.65s CPU     11.70s WALL (     484 calls)
     fftw         :   1643.27s CPU   1653.32s WALL (  187004 calls)
     interpolate  :      3.95s CPU      4.06s WALL (      30 calls)
 
     Parallel routines
     fft_scatt_xy :    301.39s CPU    302.77s WALL (  187903 calls)
     fft_scatt_yz :    685.66s CPU    692.35s WALL (  187903 calls)

     PAW routines
     PAW_pot      :      5.73s CPU      5.95s WALL (      30 calls)
 
     PWSCF        :      3h 6m CPU      3h 8m WALL

 
   This run was terminated on:   9:13:22  28Feb2020            

=------------------------------------------------------------------------------=
   JOB DONE.
=------------------------------------------------------------------------------=
