begin
comment 4 atoms, species Al4
lattice      7.6356109726    -0.3817805486    -0.0000000000
lattice     -0.3817805486     7.6356109726    -0.0000000000
lattice     -0.0000000000    -0.0000000000     7.6547478422
atom      0.0000000000     0.0000000000     0.0000000000   Al  0.0 0.0   -1.02975172e-13  1.07724538e-13  6.49218526e-14
atom     -0.1908902743     3.8178054863     3.8273739211   Al  0.0 0.0   -2.25821561e-13 -2.20021825e-13 -6.48735959e-14
atom      3.8178054863    -0.1908902743     3.8273739211   Al  0.0 0.0    2.25725637e-13  2.20070531e-13 -6.49950572e-14
atom      3.6269152120     3.6269152120    -0.0000000000   Al  0.0 0.0    1.02982915e-13 -1.07699390e-13  6.49218136e-14
energy -7.900255782003435e+01
charge 0.0000
end
begin
comment 4 atoms, species Al4
lattice      7.6356109726    -0.2969404267    -0.0000000000
lattice     -0.2969404267     7.6356109726    -0.0000000000
lattice     -0.0000000000    -0.0000000000     7.6471761464
atom      0.0000000000     0.0000000000     0.0000000000   Al  0.0 0.0   -1.85589457e-13  1.99838336e-14 -1.55747659e-13
atom     -0.1484702134     3.8178054863     3.8235880732   Al  0.0 0.0   -2.15412404e-13 -1.27549176e-13  1.55849780e-13
atom      3.8178054863    -0.1484702134     3.8235880732   Al  0.0 0.0    2.15392175e-13  1.27562049e-13  1.56158289e-13
atom      3.6693352729     3.6693352729    -0.0000000000   Al  0.0 0.0    1.85570994e-13 -2.00553630e-14 -1.55977348e-13
energy -7.900378491436355e+01
charge 0.0000
end
begin
comment 4 atoms, species Al4
lattice      7.6356109726    -0.2121003048    -0.0000000000
lattice     -0.2121003048     7.6356109726    -0.0000000000
lattice     -0.0000000000    -0.0000000000     7.6415071972
atom      0.0000000000     0.0000000000     0.0000000000   Al  0.0 0.0   -9.45740852e-14 -1.88702782e-13 -6.68202004e-14
atom     -0.1060501524     3.8178054863     3.8207535986   Al  0.0 0.0   -9.29371204e-15  1.68581708e-13  6.69745825e-14
atom      3.8178054863    -0.1060501524     3.8207535986   Al  0.0 0.0    9.22933956e-15 -1.68830093e-13  6.65887548e-14
atom      3.7117553339     3.7117553339    -0.0000000000   Al  0.0 0.0    9.45835471e-14  1.88761848e-13 -6.69162934e-14
energy -7.900467083485816e+01
charge 0.0000
end
begin
comment 4 atoms, species Al4
lattice      7.6356109726    -0.1272601829    -0.0000000000
lattice     -0.1272601829     7.6356109726    -0.0000000000
lattice     -0.0000000000    -0.0000000000     7.6377325649
atom      0.0000000000     0.0000000000     0.0000000000   Al  0.0 0.0   -1.49656164e-13  1.09162219e-13  8.69852521e-14
atom     -0.0636300914     3.8178054863     3.8188662825   Al  0.0 0.0   -1.76782735e-13 -1.46873330e-13 -8.73098874e-14
atom      3.8178054863    -0.0636300914     3.8188662825   Al  0.0 0.0    1.76799124e-13  1.46775633e-13 -8.72086265e-14
atom      3.7541753948     3.7541753948    -0.0000000000   Al  0.0 0.0    1.49637397e-13 -1.09022021e-13  8.68897442e-14
energy -7.900524779146511e+01
charge 0.0000
end
begin
comment 4 atoms, species Al4
lattice      7.6356109726    -0.0424200610    -0.0000000000
lattice     -0.0424200610     7.6356109726    -0.0000000000
lattice     -0.0000000000    -0.0000000000     7.6358466468
atom      0.0000000000     0.0000000000     0.0000000000   Al  0.0 0.0   -1.05512118e-13 -1.44445651e-14  1.12809122e-13
atom     -0.0212100305     3.8178054863     3.8179233234   Al  0.0 0.0   -1.03497667e-13  6.45089679e-15 -1.12651180e-13
atom      3.8178054863    -0.0212100305     3.8179233234   Al  0.0 0.0    1.03495840e-13 -6.72750947e-15 -1.12646904e-13
atom      3.7965954558     3.7965954558    -0.0000000000   Al  0.0 0.0    1.05542340e-13  1.46386632e-14  1.12649497e-13
energy -7.900553280087726e+01
charge 0.0000
end
begin
comment 4 atoms, species Al4
lattice      7.6356109726     0.0424200610    -0.0000000000
lattice      0.0424200610     7.6356109726    -0.0000000000
lattice     -0.0000000000    -0.0000000000     7.6358466468
atom      0.0000000000     0.0000000000     0.0000000000   Al  0.0 0.0   -1.03445887e-13 -6.54126490e-15  1.12820234e-13
atom      0.0212100305     3.8178054863     3.8179233234   Al  0.0 0.0   -1.05477753e-13  1.44768891e-14 -1.12653624e-13
atom      3.8178054863     0.0212100305     3.8179233234   Al  0.0 0.0    1.05452041e-13 -1.45123193e-14 -1.12800627e-13
atom      3.8390155168     3.8390155168    -0.0000000000   Al  0.0 0.0    1.03453155e-13  6.59330858e-15  1.12617747e-13
energy -7.900553280087726e+01
charge 0.0000
end
begin
comment 4 atoms, species Al4
lattice      7.6356109726     0.1272601829    -0.0000000000
lattice      0.1272601829     7.6356109726    -0.0000000000
lattice     -0.0000000000    -0.0000000000     7.6377325649
atom      0.0000000000     0.0000000000     0.0000000000   Al  0.0 0.0   -1.76710059e-13  1.46885422e-13  8.70932721e-14
atom      0.0636300914     3.8178054863     3.8188662825   Al  0.0 0.0   -1.49659279e-13 -1.09040133e-13 -8.72227694e-14
atom      3.8178054863     0.0636300914     3.8188662825   Al  0.0 0.0    1.49653009e-13  1.09092393e-13 -8.72537002e-14
atom      3.8814355777     3.8814355777    -0.0000000000   Al  0.0 0.0    1.76687197e-13 -1.46744535e-13  8.70771024e-14
energy -7.900524779146511e+01
charge 0.0000
end
begin
comment 4 atoms, species Al4
lattice      7.6356109726     0.2121003048    -0.0000000000
lattice      0.2121003048     7.6356109726    -0.0000000000
lattice     -0.0000000000    -0.0000000000     7.6415071972
atom      0.0000000000     0.0000000000     0.0000000000   Al  0.0 0.0   -9.19309872e-15 -1.68665915e-13 -6.68598132e-14
atom      0.1060501524     3.8178054863     3.8207535986   Al  0.0 0.0   -9.47286275e-14  1.88784546e-13  6.70295894e-14
atom      3.8178054863     0.1060501524     3.8207535986   Al  0.0 0.0    9.46744962e-14 -1.88663072e-13  6.68255550e-14
atom      3.9238556387     3.9238556387    -0.0000000000   Al  0.0 0.0    9.28124614e-15  1.68641703e-13 -6.68813905e-14
energy -7.900467083485816e+01
charge 0.0000
end
begin
comment 4 atoms, species Al4
lattice      7.6356109726     0.2969404267    -0.0000000000
lattice      0.2969404267     7.6356109726    -0.0000000000
lattice     -0.0000000000    -0.0000000000     7.6471761464
atom      0.0000000000     0.0000000000     0.0000000000   Al  0.0 0.0   -2.15307656e-13  1.27536437e-13 -1.55715150e-13
atom      0.1484702134     3.8178054863     3.8235880732   Al  0.0 0.0   -1.85559913e-13 -1.99934880e-14  1.55883013e-13
atom      3.8178054863     0.1484702134     3.8235880732   Al  0.0 0.0    1.85550195e-13  2.00767011e-14  1.55990501e-13
atom      3.9662756996     3.9662756996    -0.0000000000   Al  0.0 0.0    2.15304546e-13 -1.27456478e-13 -1.56088123e-13
energy -7.900378491436355e+01
charge 0.0000
end
begin
comment 4 atoms, species Al4
lattice      7.6356109726     0.3817805486    -0.0000000000
lattice      0.3817805486     7.6356109726    -0.0000000000
lattice     -0.0000000000    -0.0000000000     7.6547478422
atom      0.0000000000     0.0000000000     0.0000000000   Al  0.0 0.0   -2.25768279e-13  2.20123523e-13  6.49685652e-14
atom      0.1908902743     3.8178054863     3.8273739211   Al  0.0 0.0   -1.02964518e-13 -1.07818717e-13 -6.48364414e-14
atom      3.8178054863     0.1908902743     3.8273739211   Al  0.0 0.0    1.02971419e-13  1.07775287e-13 -6.50029599e-14
atom      4.0086957606     4.0086957606    -0.0000000000   Al  0.0 0.0    2.25768568e-13 -2.20006370e-13  6.50392794e-14
energy -7.900255782003435e+01
charge 0.0000
end
