begin
comment 22 atoms, species Mg10Si12
lattice     26.8935753039     0.0000000000    -9.7280791982
lattice      0.0000000000     7.7112805474     0.0000000000
lattice      0.0134415111     0.0000000000    13.0864836559
atom      0.0515124465     0.0000000000    12.9219424001   Mg  0.0 0.0   -3.50999974e-06  4.99999962e-08 -2.01499985e-06
atom      2.1411812471     3.8556374138     3.9585479110   Mg  0.0 0.0   -2.28969983e-04 -1.04999992e-07  9.91499925e-06
atom      4.2594175487     3.8556374138    10.5264477622   Mg  0.0 0.0   -3.16764976e-04 -1.04999992e-07 -5.87549956e-05
atom      9.2768076305     0.0000000000    -2.6345018654   Mg  0.0 0.0    3.16564976e-04  1.14999991e-07  5.82749956e-05
atom     11.3949552753     0.0000000000     3.9335266810   Mg  0.0 0.0    2.29274983e-04  9.99999925e-08 -9.51999928e-06
atom      1.5981556365     0.0000000000     8.0327929143   Si  0.0 0.0    3.04099977e-05 -8.49999936e-08  2.13599984e-04
atom      5.2193444970     0.0000000000     1.3361462655   Si  0.0 0.0   -4.30249968e-05  3.49999974e-07  5.20819961e-04
atom      5.6726294314     0.0000000000     6.0706697550   Si  0.0 0.0   -3.03164977e-04  3.39999974e-07 -2.97124978e-04
atom      7.8634041348     3.8556374138     1.8213476392   Si  0.0 0.0    3.02619977e-04 -3.09999977e-07  2.97409978e-04
atom      8.3167148083     3.8556374138     6.5558539693   Si  0.0 0.0    4.41049967e-05 -3.89999971e-07 -5.20989961e-04
atom     11.9378493307     3.8556374138    -0.1407955394   Si  0.0 0.0   -3.03099977e-05  9.49999929e-08 -2.13404984e-04
atom     13.4981714032     3.8556374138     8.0565586499   Mg  0.0 0.0    1.42499989e-06 -4.99999962e-08  2.19499984e-06
atom     15.5877372475     0.0000000000    -0.9068615782   Mg  0.0 0.0   -2.26259983e-04  1.99999985e-08  1.46049989e-05
atom     17.7060879449     0.0000000000     5.6612813641   Mg  0.0 0.0   -3.15119976e-04  6.49999951e-08 -5.10049962e-05
atom     22.7237211179     3.8556374138    -7.4974203853   Mg  0.0 0.0    3.15004976e-04 -7.49999944e-08  5.07099962e-05
atom     24.8419802986     3.8556374138    -0.9291544675   Mg  0.0 0.0    2.26199983e-04 -1.99999985e-08 -1.46849989e-05
atom     15.0448346124     3.8556374138     3.1674749417   Si  0.0 0.0    2.87249978e-05 -7.99999940e-08  2.21259983e-04
atom     18.6661693276     3.8556374138    -3.5285711289   Si  0.0 0.0   -4.69049965e-05  5.99999955e-08  5.21129961e-04
atom     19.1195400589     3.8556374138     1.2058808632   Si  0.0 0.0   -3.03374977e-04 -9.99999925e-08 -2.91059978e-04
atom     21.3100802508     0.0000000000    -3.0419512469   Si  0.0 0.0    3.04674977e-04  6.99999947e-08  2.90794978e-04
atom     21.7634738613     0.0000000000     1.6924864457   Si  0.0 0.0    4.62799965e-05 -1.49999989e-08 -5.20819961e-04
atom     25.3847542384     0.0000000000    -5.0035653447   Si  0.0 0.0   -2.78699979e-05  6.99999947e-08 -2.21339983e-04
energy -2.365795797710685e+02
charge 0.0000
end
