
     Program PWSCF v.6.3 starts on 22Feb2020 at  7:39:27 

     This program is part of the open-source Quantum ESPRESSO suite
     for quantum simulation of materials; please cite
         "P. Giannozzi et al., J. Phys.:Condens. Matter 21 395502 (2009);
         "P. Giannozzi et al., J. Phys.:Condens. Matter 29 465901 (2017);
          URL http://www.quantum-espresso.org", 
     in publications or presentations arising from this work. More details at
     http://www.quantum-espresso.org/quote

 *** WARNING: using old-style file format, will disappear from next version ***

     Parallel version (MPI & OpenMP), running on      36 processor cores
     Number of MPI processes:                36
     Threads/MPI process:                     1

     MPI processes distributed on     1 nodes
     K-points division:     npool     =       4
     R & G space division:  proc/nbgrp/npool/nimage =       9
     Reading input from aiida.in
Warning: card &IONS ignored
Warning: card   !PRESS_CONV_THR = 0.05                 ! JUST FOR VOLUME RELAXATIONS ignored
Warning: card / ignored

     Current dimensions of program PWSCF are:
     Max number of different atomic species (ntypx) = 10
     Max number of k-points (npk) =  40000
     Max angular momentum in pseudopotentials (lmaxx) =  3
               file Al.pbe-n-kjpaw_psl.1.0.0.UPF: wavefunction(s)  3S 3P renormalized

     Subspace diagonalization in iterative solution of the eigenvalue problem:
     one sub-group per band group will be used
     scalapack distributed-memory algorithm (size of sub-group:  2*  2 procs)

 
     Parallelization info
     --------------------
     sticks:   dense  smooth     PW     G-vecs:    dense   smooth      PW
     Min        3324    1330    347               432816   109512   14645
     Max        3325    1331    348               432821   109515   14652
     Sum       29921   11977   3125              3895379   985619  131827
 


     bravais-lattice index     =            0
     lattice parameter (alat)  =      30.6665  a.u.
     unit-cell volume          =   28839.7502 (a.u.)^3
     number of atoms/cell      =          256
     number of atomic types    =            2
     number of electrons       =       770.00
     number of Kohn-Sham states=          462
     kinetic-energy cutoff     =      40.0000  Ry
     charge density cutoff     =     400.0000  Ry
     convergence threshold     =      1.0E-12
     mixing beta               =       0.4000
     number of iterations used =            8  local-TF  mixing
     Exchange-correlation      = SLA PW PBX PBC ( 1  4  3  4 0 0)

     celldm(1)=  30.666473  celldm(2)=   0.000000  celldm(3)=   0.000000
     celldm(4)=   0.000000  celldm(5)=   0.000000  celldm(6)=   0.000000

     crystal axes: (cart. coord. in units of alat)
               a(1) = (   1.000000   0.000000   0.000000 )  
               a(2) = (   0.000000   1.000000   0.000000 )  
               a(3) = (   0.000000   0.000000   1.000000 )  

     reciprocal axes: (cart. coord. in units 2 pi/alat)
               b(1) = (  1.000000  0.000000  0.000000 )  
               b(2) = (  0.000000  1.000000  0.000000 )  
               b(3) = (  0.000000  0.000000  1.000000 )  


     PseudoPot. # 1 for Si read from file:
     /users/aglensk/Dropbox/Albert/scripts/dotfiles/scripts/potentials/quantum_espresso/pseudo_SSSPefV1.1_alalloy/Si.pbe-n-rrkjus_psl.1.0.0.UPF
     MD5 check sum: 0b0bb1205258b0d07b9f9672cf965d36
     Pseudo is Ultrasoft + core correction, Zval =  4.0
     Generated using "atomic" code by A. Dal Corso v.5.1
     Using radial grid of 1141 points,  6 beta functions with: 
                l(1) =   0
                l(2) =   0
                l(3) =   1
                l(4) =   1
                l(5) =   2
                l(6) =   2
     Q(r) pseudized with 0 coefficients 


     PseudoPot. # 2 for Al read from file:
     /users/aglensk/Dropbox/Albert/scripts/dotfiles/scripts/potentials/quantum_espresso/pseudo_SSSPefV1.1_alalloy/Al.pbe-n-kjpaw_psl.1.0.0.UPF
     MD5 check sum: cfc449ca30b5f3223ec38ddd88ac046d
     Pseudo is Projector augmented-wave + core cor, Zval =  3.0
     Generated using "atomic" code by A. Dal Corso v.5.1
     Shape of augmentation charge: PSQ
     Using radial grid of 1135 points,  6 beta functions with: 
                l(1) =   0
                l(2) =   0
                l(3) =   1
                l(4) =   1
                l(5) =   2
                l(6) =   2
     Q(r) pseudized with 0 coefficients 


     atomic species   valence    mass     pseudopotential
        Si             4.00    28.08500     Si( 1.00)
        Al             3.00    26.98154     Al( 1.00)

     No symmetry found


                                    s                        frac. trans.

      isym =  1     identity                                     

 cryst.   s( 1) = (     1          0          0      )
                  (     0          1          0      )
                  (     0          0          1      )

 cart.    s( 1) = (  1.0000000  0.0000000  0.0000000 )
                  (  0.0000000  1.0000000  0.0000000 )
                  (  0.0000000  0.0000000  1.0000000 )


   Cartesian axes

     site n.     atom                  positions (alat units)
         1           Si  tau(   1) = (   0.9999113   0.9998625   0.9999113  )
         2           Al  tau(   2) = (   0.1242134   0.0003439   0.1242134  )
         3           Al  tau(   3) = (   0.1242217   0.1250000   0.0007783  )
         4           Al  tau(   4) = (   0.0007783   0.1250000   0.1242217  )
         5           Al  tau(   5) = (   0.0000019   0.0000788   0.2496718  )
         6           Al  tau(   6) = (   0.1249900   0.1257493   0.2491397  )
         7           Al  tau(   7) = (   0.1249953   0.0001276   0.3748202  )
         8           Al  tau(   8) = (   0.0000090   0.1250033   0.3748575  )
         9           Al  tau(   9) = (   0.0000103   0.0000148   0.4999947  )
        10           Al  tau(  10) = (   0.1250081   0.1250136   0.4999475  )
        11           Al  tau(  11) = (   0.1249945   0.0000204   0.6250501  )
        12           Al  tau(  12) = (   0.9999921   0.1249864   0.6250526  )
        13           Al  tau(  13) = (   0.0000115   0.0000135   0.7503339  )
        14           Al  tau(  14) = (   0.1249911   0.1249966   0.7501425  )
        15           Al  tau(  15) = (   0.1242584   0.0001256   0.8758849  )
        16           Al  tau(  16) = (   0.0000100   0.1242507   0.8758604  )
        17           Al  tau(  17) = (   0.0007867   0.2496561   0.0007867  )
        18           Al  tau(  18) = (   0.1249923   0.3742126   0.0007494  )
        19           Si  tau(  19) = (   0.1250882   0.2501375   0.1250882  )
        20           Al  tau(  20) = (   0.0007494   0.3742126   0.1249923  )
        21           Al  tau(  21) = (   0.0007418   0.2498745   0.2491150  )
        22           Al  tau(  22) = (   0.1249804   0.3742197   0.2492145  )
        23           Al  tau(  23) = (   0.1249886   0.2499866   0.3746662  )
        24           Al  tau(  24) = (   0.0000120   0.3750008   0.3749249  )
        25           Al  tau(  25) = (   0.0000058   0.2499795   0.4999499  )
        26           Al  tau(  26) = (   0.1250018   0.3750057   0.4999541  )
        27           Al  tau(  27) = (   0.1249899   0.2499852   0.6250053  )
        28           Al  tau(  28) = (   0.9999923   0.3750188   0.6249900  )
        29           Al  tau(  29) = (   0.0000048   0.2498723   0.7501799  )
        30           Al  tau(  30) = (   0.1249897   0.3749872   0.7500667  )
        31           Al  tau(  31) = (   0.1249982   0.2499211   0.8753282  )
        32           Al  tau(  32) = (   0.0000095   0.3749374   0.8750955  )
        33           Al  tau(  33) = (   0.0000095   0.4999160   0.0000095  )
        34           Al  tau(  34) = (   0.1249938   0.6250000   0.0000063  )
        35           Al  tau(  35) = (   0.1250086   0.4996922   0.1250086  )
        36           Al  tau(  36) = (   0.0000063   0.6250000   0.1249938  )
        37           Al  tau(  37) = (   0.0000112   0.4999109   0.2499708  )
        38           Al  tau(  38) = (   0.1249900   0.6249533   0.2499791  )
        39           Al  tau(  39) = (   0.1250029   0.4998772   0.3748874  )
        40           Al  tau(  40) = (   0.0000081   0.6249863   0.3749974  )
        41           Al  tau(  41) = (   0.0000089   0.4999862   0.4999957  )
        42           Al  tau(  42) = (   0.1250003   0.6249984   0.5000106  )
        43           Al  tau(  43) = (   0.1250009   0.4999813   0.6249882  )
        44           Al  tau(  44) = (   1.0000000   0.6250017   0.6249893  )
        45           Al  tau(  45) = (   0.0000105   0.4999837   0.7500247  )
        46           Al  tau(  46) = (   0.1249921   0.6250138   0.7500025  )
        47           Al  tau(  47) = (   0.1250069   0.4998707   0.8751216  )
        48           Al  tau(  48) = (   0.0000102   0.6250467   0.8750210  )
        49           Al  tau(  49) = (   0.9999915   0.7503078   0.9999915  )
        50           Al  tau(  50) = (   0.1242507   0.8757874   0.0000078  )
        51           Al  tau(  51) = (   0.1249907   0.7500840   0.1249907  )
        52           Al  tau(  52) = (   0.0000078   0.8757874   0.1242507  )
        53           Al  tau(  53) = (   0.9999931   0.7501294   0.2498784  )
        54           Al  tau(  54) = (   0.1249906   0.8750625   0.2499045  )
        55           Al  tau(  55) = (   0.1249898   0.7500163   0.3749754  )
        56           Al  tau(  56) = (   0.0000103   0.8750128   0.3749333  )
        57           Al  tau(  57) = (   0.9999993   0.7500188   0.5000118  )
        58           Al  tau(  58) = (   0.1250080   0.8749812   0.5000101  )
        59           Al  tau(  59) = (   0.1249914   0.7500139   0.6250041  )
        60           Al  tau(  60) = (   0.9999984   0.8749943   0.6250459  )
        61           Al  tau(  61) = (   0.9999973   0.7501229   0.7501126  )
        62           Al  tau(  62) = (   0.1249882   0.8749992   0.7500750  )
        63           Al  tau(  63) = (   0.1249890   0.7500892   0.8750292  )
        64           Al  tau(  64) = (   0.0000197   0.8757804   0.8757855  )
        65           Al  tau(  65) = (   0.2496718   0.0000788   0.0000019  )
        66           Al  tau(  66) = (   0.3748575   0.1250033   0.0000090  )
        67           Al  tau(  67) = (   0.3748202   0.0001276   0.1249953  )
        68           Al  tau(  68) = (   0.2491397   0.1257493   0.1249900  )
        69           Al  tau(  69) = (   0.2498535   0.0000945   0.2498535  )
        70           Al  tau(  70) = (   0.3749132   0.1249964   0.2499781  )
        71           Al  tau(  71) = (   0.3750524   0.9999580   0.3750524  )
        72           Al  tau(  72) = (   0.2499781   0.1249964   0.3749132  )
        73           Al  tau(  73) = (   0.2499697   0.0000139   0.4999960  )
        74           Al  tau(  74) = (   0.3749943   0.1250111   0.4999945  )
        75           Al  tau(  75) = (   0.3750083   0.0000026   0.6249883  )
        76           Al  tau(  76) = (   0.2499935   0.1249822   0.6250045  )
        77           Al  tau(  77) = (   0.2498628   0.0000137   0.7501301  )
        78           Al  tau(  78) = (   0.3749792   0.1249999   0.7500206  )
        79           Al  tau(  79) = (   0.3749935   0.9999579   0.8749629  )
        80           Al  tau(  80) = (   0.2499022   0.1250000   0.8750978  )
        81           Al  tau(  81) = (   0.2491150   0.2498745   0.0007418  )
        82           Al  tau(  82) = (   0.3749249   0.3750008   0.0000120  )
        83           Al  tau(  83) = (   0.3746662   0.2499866   0.1249886  )
        84           Al  tau(  84) = (   0.2492145   0.3742197   0.1249804  )
        85           Al  tau(  85) = (   0.2493087   0.2500377   0.2493087  )
        86           Al  tau(  86) = (   0.3749057   0.3749873   0.2499809  )
        87           Al  tau(  87) = (   0.3748744   0.2499971   0.3748744  )
        88           Al  tau(  88) = (   0.2499809   0.3749873   0.3749057  )
        89           Al  tau(  89) = (   0.2499932   0.2499994   0.4999523  )
        90           Al  tau(  90) = (   0.3749713   0.3749780   0.4999937  )
        91           Al  tau(  91) = (   0.3749813   0.2499996   0.6249966  )
        92           Al  tau(  92) = (   0.2500065   0.3750100   0.6249978  )
        93           Al  tau(  93) = (   0.2500371   0.2500420   0.7500064  )
        94           Al  tau(  94) = (   0.3749886   0.3749939   0.7500021  )
        95           Al  tau(  95) = (   0.3748698   0.2499862   0.8751373  )
        96           Al  tau(  96) = (   0.2499824   0.3749928   0.8750889  )
        97           Al  tau(  97) = (   0.2499708   0.4999109   0.0000112  )
        98           Al  tau(  98) = (   0.3749974   0.6249863   0.0000081  )
        99           Al  tau(  99) = (   0.3748874   0.4998772   0.1250029  )
       100           Al  tau( 100) = (   0.2499791   0.6249533   0.1249900  )
       101           Al  tau( 101) = (   0.2499865   0.4999010   0.2499865  )
       102           Al  tau( 102) = (   0.3749871   0.6249958   0.2499914  )
       103           Al  tau( 103) = (   0.3750248   0.5000381   0.3750248  )
       104           Al  tau( 104) = (   0.2499914   0.6249958   0.3749871  )
       105           Al  tau( 105) = (   0.2499957   0.4999879   0.4999985  )
       106           Al  tau( 106) = (   0.3749887   0.6250173   0.5000028  )
       107           Al  tau( 107) = (   0.3749848   0.4999978   0.6250150  )
       108           Al  tau( 108) = (   0.2500011   0.6250075   0.6249942  )
       109           Al  tau( 109) = (   0.2499865   0.4999844   0.7500073  )
       110           Al  tau( 110) = (   0.3750018   0.6250001   0.7499980  )
       111           Al  tau( 111) = (   0.3750519   0.5000416   0.8749581  )
       112           Al  tau( 112) = (   0.2499752   0.6250000   0.8750248  )
       113           Al  tau( 113) = (   0.2498784   0.7501294   0.9999931  )
       114           Al  tau( 114) = (   0.3749333   0.8750128   0.0000103  )
       115           Al  tau( 115) = (   0.3749754   0.7500163   0.1249898  )
       116           Al  tau( 116) = (   0.2499045   0.8750625   0.1249906  )
       117           Al  tau( 117) = (   0.2500495   0.7499562   0.2500495  )
       118           Al  tau( 118) = (   0.3749781   0.8750173   0.2499738  )
       119           Al  tau( 119) = (   0.3750001   0.7500000   0.3750001  )
       120           Al  tau( 120) = (   0.2499738   0.8750173   0.3749781  )
       121           Al  tau( 121) = (   0.2499999   0.7499996   0.5000103  )
       122           Al  tau( 122) = (   0.3750121   0.8749951   0.5000030  )
       123           Al  tau( 123) = (   0.3750031   0.7500010   0.6249973  )
       124           Al  tau( 124) = (   0.2499845   0.8750003   0.6250052  )
       125           Al  tau( 125) = (   0.2500420   0.7499585   0.7499479  )
       126           Al  tau( 126) = (   0.3749979   0.8750062   0.7500110  )
       127           Al  tau( 127) = (   0.3749926   0.7500157   0.8750134  )
       128           Al  tau( 128) = (   0.2499111   0.8750072   0.8750175  )
       129           Al  tau( 129) = (   0.4999947   0.0000148   0.0000103  )
       130           Al  tau( 130) = (   0.6250526   0.1249864   0.9999921  )
       131           Al  tau( 131) = (   0.6250501   0.0000204   0.1249945  )
       132           Al  tau( 132) = (   0.4999475   0.1250136   0.1250081  )
       133           Al  tau( 133) = (   0.4999960   0.0000139   0.2499697  )
       134           Al  tau( 134) = (   0.6250045   0.1249822   0.2499935  )
       135           Al  tau( 135) = (   0.6249883   0.0000026   0.3750083  )
       136           Al  tau( 136) = (   0.4999945   0.1250111   0.3749943  )
       137           Al  tau( 137) = (   0.5000018   0.0000001   0.5000018  )
       138           Al  tau( 138) = (   0.6249886   0.1249999   0.5000112  )
       139           Al  tau( 139) = (   0.6249891   0.9999969   0.6249891  )
       140           Al  tau( 140) = (   0.5000112   0.1249999   0.6249886  )
       141           Al  tau( 141) = (   0.5000032   0.0000003   0.7500185  )
       142           Al  tau( 142) = (   0.6250055   0.1249887   0.7500056  )
       143           Al  tau( 143) = (   0.6250477   0.0000006   0.8750068  )
       144           Al  tau( 144) = (   0.4999954   0.1250177   0.8750066  )
       145           Al  tau( 145) = (   0.4999499   0.2499795   0.0000058  )
       146           Al  tau( 146) = (   0.6249900   0.3750188   0.9999923  )
       147           Al  tau( 147) = (   0.6250053   0.2499852   0.1249899  )
       148           Al  tau( 148) = (   0.4999541   0.3750057   0.1250018  )
       149           Al  tau( 149) = (   0.4999523   0.2499994   0.2499932  )
       150           Al  tau( 150) = (   0.6249978   0.3750100   0.2500065  )
       151           Al  tau( 151) = (   0.6249966   0.2499996   0.3749813  )
       152           Al  tau( 152) = (   0.4999937   0.3749780   0.3749713  )
       153           Al  tau( 153) = (   0.5000107   0.2500029   0.5000107  )
       154           Al  tau( 154) = (   0.6250144   0.3749868   0.5000101  )
       155           Al  tau( 155) = (   0.6249982   0.2499996   0.6249982  )
       156           Al  tau( 156) = (   0.5000101   0.3749868   0.6250144  )
       157           Al  tau( 157) = (   0.5000115   0.2499972   0.7499917  )
       158           Al  tau( 158) = (   0.6249970   0.3750048   0.7499880  )
       159           Al  tau( 159) = (   0.6250041   0.2499858   0.8750305  )
       160           Al  tau( 160) = (   0.4999946   0.3749996   0.8750158  )
       161           Al  tau( 161) = (   0.4999957   0.4999862   0.0000089  )
       162           Al  tau( 162) = (   0.6249893   0.6250017   1.0000000  )
       163           Al  tau( 163) = (   0.6249882   0.4999813   0.1250009  )
       164           Al  tau( 164) = (   0.5000106   0.6249984   0.1250003  )
       165           Al  tau( 165) = (   0.4999985   0.4999879   0.2499957  )
       166           Al  tau( 166) = (   0.6249942   0.6250075   0.2500011  )
       167           Al  tau( 167) = (   0.6250150   0.4999978   0.3749848  )
       168           Al  tau( 168) = (   0.5000028   0.6250173   0.3749887  )
       169           Al  tau( 169) = (   0.5000041   0.5000012   0.5000041  )
       170           Al  tau( 170) = (   0.6250143   0.6250002   0.4999855  )
       171           Al  tau( 171) = (   0.6250130   0.5000022   0.6250130  )
       172           Al  tau( 172) = (   0.4999855   0.6250002   0.6250143  )
       173           Al  tau( 173) = (   0.5000024   0.4999993   0.7499969  )
       174           Al  tau( 174) = (   0.6249971   0.6249831   0.7500113  )
       175           Al  tau( 175) = (   0.6249897   0.5000006   0.8750004  )
       176           Al  tau( 176) = (   0.5000056   0.6249927   0.8749990  )
       177           Al  tau( 177) = (   0.5000118   0.7500188   0.9999993  )
       178           Al  tau( 178) = (   0.6250459   0.8749943   0.9999984  )
       179           Al  tau( 179) = (   0.6250041   0.7500139   0.1249914  )
       180           Al  tau( 180) = (   0.5000101   0.8749812   0.1250080  )
       181           Al  tau( 181) = (   0.5000103   0.7499996   0.2499999  )
       182           Al  tau( 182) = (   0.6250052   0.8750003   0.2499845  )
       183           Al  tau( 183) = (   0.6249973   0.7500010   0.3750031  )
       184           Al  tau( 184) = (   0.5000030   0.8749951   0.3750121  )
       185           Al  tau( 185) = (   0.4999869   0.7499981   0.4999869  )
       186           Al  tau( 186) = (   0.6249895   0.8750131   0.4999855  )
       187           Al  tau( 187) = (   0.6249956   0.7499991   0.6249956  )
       188           Al  tau( 188) = (   0.4999855   0.8750131   0.6249895  )
       189           Al  tau( 189) = (   0.4999848   0.7500024   0.7500149  )
       190           Al  tau( 190) = (   0.6250062   0.8750220   0.7500285  )
       191           Al  tau( 191) = (   0.6250014   0.7500122   0.8750044  )
       192           Al  tau( 192) = (   0.5000021   0.8749900   0.8749934  )
       193           Al  tau( 193) = (   0.7503339   0.0000135   0.0000115  )
       194           Al  tau( 194) = (   0.8758604   0.1242507   0.0000100  )
       195           Al  tau( 195) = (   0.8758849   0.0001256   0.1242584  )
       196           Al  tau( 196) = (   0.7501425   0.1249966   0.1249911  )
       197           Al  tau( 197) = (   0.7501301   0.0000137   0.2498628  )
       198           Al  tau( 198) = (   0.8750978   0.1250000   0.2499022  )
       199           Al  tau( 199) = (   0.8749629   0.9999579   0.3749935  )
       200           Al  tau( 200) = (   0.7500206   0.1249999   0.3749792  )
       201           Al  tau( 201) = (   0.7500185   0.0000003   0.5000032  )
       202           Al  tau( 202) = (   0.8750066   0.1250177   0.4999954  )
       203           Al  tau( 203) = (   0.8750068   0.0000006   0.6250477  )
       204           Al  tau( 204) = (   0.7500056   0.1249887   0.6250055  )
       205           Al  tau( 205) = (   0.7501256   0.0000030   0.7501256  )
       206           Al  tau( 206) = (   0.8750219   0.1250036   0.7500870  )
       207           Al  tau( 207) = (   0.8756914   0.9999625   0.8756914  )
       208           Al  tau( 208) = (   0.7500870   0.1250036   0.8750219  )
       209           Al  tau( 209) = (   0.7501799   0.2498723   0.0000048  )
       210           Al  tau( 210) = (   0.8750955   0.3749374   0.0000095  )
       211           Al  tau( 211) = (   0.8753282   0.2499211   0.1249982  )
       212           Al  tau( 212) = (   0.7500667   0.3749872   0.1249897  )
       213           Al  tau( 213) = (   0.7500064   0.2500420   0.2500371  )
       214           Al  tau( 214) = (   0.8750889   0.3749928   0.2499824  )
       215           Al  tau( 215) = (   0.8751373   0.2499862   0.3748698  )
       216           Al  tau( 216) = (   0.7500021   0.3749939   0.3749886  )
       217           Al  tau( 217) = (   0.7499917   0.2499972   0.5000115  )
       218           Al  tau( 218) = (   0.8750158   0.3749996   0.4999946  )
       219           Al  tau( 219) = (   0.8750305   0.2499858   0.6250041  )
       220           Al  tau( 220) = (   0.7499880   0.3750048   0.6249970  )
       221           Al  tau( 221) = (   0.7499479   0.2500417   0.7499479  )
       222           Al  tau( 222) = (   0.8750265   0.3749825   0.7500221  )
       223           Al  tau( 223) = (   0.8751465   0.2499054   0.8751465  )
       224           Al  tau( 224) = (   0.7500221   0.3749825   0.8750265  )
       225           Al  tau( 225) = (   0.7500247   0.4999837   0.0000105  )
       226           Al  tau( 226) = (   0.8750210   0.6250467   0.0000102  )
       227           Al  tau( 227) = (   0.8751216   0.4998707   0.1250069  )
       228           Al  tau( 228) = (   0.7500025   0.6250138   0.1249921  )
       229           Al  tau( 229) = (   0.7500073   0.4999844   0.2499865  )
       230           Al  tau( 230) = (   0.8750248   0.6250000   0.2499752  )
       231           Al  tau( 231) = (   0.8749581   0.5000416   0.3750519  )
       232           Al  tau( 232) = (   0.7499980   0.6250001   0.3750018  )
       233           Al  tau( 233) = (   0.7499969   0.4999993   0.5000024  )
       234           Al  tau( 234) = (   0.8749990   0.6249927   0.5000056  )
       235           Al  tau( 235) = (   0.8750004   0.5000006   0.6249897  )
       236           Al  tau( 236) = (   0.7500113   0.6249831   0.6249971  )
       237           Al  tau( 237) = (   0.7500001   0.5000002   0.7500001  )
       238           Al  tau( 238) = (   0.8750087   0.6250043   0.7500129  )
       239           Al  tau( 239) = (   0.8749506   0.5000438   0.8749506  )
       240           Al  tau( 240) = (   0.7500129   0.6250043   0.8750087  )
       241           Al  tau( 241) = (   0.7501126   0.7501229   0.9999973  )
       242           Al  tau( 242) = (   0.8757855   0.8757804   0.0000197  )
       243           Al  tau( 243) = (   0.8750292   0.7500892   0.1249890  )
       244           Al  tau( 244) = (   0.7500750   0.8749992   0.1249882  )
       245           Al  tau( 245) = (   0.7499479   0.7499585   0.2500420  )
       246           Al  tau( 246) = (   0.8750175   0.8750072   0.2499111  )
       247           Al  tau( 247) = (   0.8750134   0.7500157   0.3749926  )
       248           Al  tau( 248) = (   0.7500110   0.8750062   0.3749979  )
       249           Al  tau( 249) = (   0.7500149   0.7500024   0.4999848  )
       250           Al  tau( 250) = (   0.8749934   0.8749900   0.5000021  )
       251           Al  tau( 251) = (   0.8750044   0.7500122   0.6250014  )
       252           Al  tau( 252) = (   0.7500285   0.8750220   0.6250062  )
       253           Al  tau( 253) = (   0.7499751   0.7499621   0.7499751  )
       254           Al  tau( 254) = (   0.8750192   0.8750128   0.7500943  )
       255           Al  tau( 255) = (   0.8750136   0.7500991   0.8750136  )
       256           Al  tau( 256) = (   0.7500943   0.8750128   0.8750192  )

   Crystallographic axes

     site n.     atom                  positions (cryst. coord.)
         1           Si  tau(   1) = (  0.9999113  0.9998625  0.9999113  )
         2           Al  tau(   2) = (  0.1242134  0.0003439  0.1242134  )
         3           Al  tau(   3) = (  0.1242217  0.1250000  0.0007783  )
         4           Al  tau(   4) = (  0.0007783  0.1250000  0.1242217  )
         5           Al  tau(   5) = (  0.0000019  0.0000788  0.2496718  )
         6           Al  tau(   6) = (  0.1249900  0.1257493  0.2491397  )
         7           Al  tau(   7) = (  0.1249953  0.0001276  0.3748202  )
         8           Al  tau(   8) = (  0.0000090  0.1250033  0.3748575  )
         9           Al  tau(   9) = (  0.0000103  0.0000148  0.4999947  )
        10           Al  tau(  10) = (  0.1250081  0.1250136  0.4999475  )
        11           Al  tau(  11) = (  0.1249945  0.0000204  0.6250501  )
        12           Al  tau(  12) = (  0.9999921  0.1249864  0.6250526  )
        13           Al  tau(  13) = (  0.0000115  0.0000135  0.7503339  )
        14           Al  tau(  14) = (  0.1249911  0.1249966  0.7501425  )
        15           Al  tau(  15) = (  0.1242584  0.0001256  0.8758849  )
        16           Al  tau(  16) = (  0.0000100  0.1242507  0.8758604  )
        17           Al  tau(  17) = (  0.0007867  0.2496561  0.0007867  )
        18           Al  tau(  18) = (  0.1249923  0.3742126  0.0007494  )
        19           Si  tau(  19) = (  0.1250882  0.2501375  0.1250882  )
        20           Al  tau(  20) = (  0.0007494  0.3742126  0.1249923  )
        21           Al  tau(  21) = (  0.0007418  0.2498745  0.2491150  )
        22           Al  tau(  22) = (  0.1249804  0.3742197  0.2492145  )
        23           Al  tau(  23) = (  0.1249886  0.2499866  0.3746662  )
        24           Al  tau(  24) = (  0.0000120  0.3750008  0.3749249  )
        25           Al  tau(  25) = (  0.0000058  0.2499795  0.4999499  )
        26           Al  tau(  26) = (  0.1250018  0.3750057  0.4999541  )
        27           Al  tau(  27) = (  0.1249899  0.2499852  0.6250053  )
        28           Al  tau(  28) = (  0.9999923  0.3750188  0.6249900  )
        29           Al  tau(  29) = (  0.0000048  0.2498723  0.7501799  )
        30           Al  tau(  30) = (  0.1249897  0.3749872  0.7500667  )
        31           Al  tau(  31) = (  0.1249982  0.2499211  0.8753282  )
        32           Al  tau(  32) = (  0.0000095  0.3749374  0.8750955  )
        33           Al  tau(  33) = (  0.0000095  0.4999160  0.0000095  )
        34           Al  tau(  34) = (  0.1249938  0.6250000  0.0000063  )
        35           Al  tau(  35) = (  0.1250086  0.4996922  0.1250086  )
        36           Al  tau(  36) = (  0.0000063  0.6250000  0.1249938  )
        37           Al  tau(  37) = (  0.0000112  0.4999109  0.2499708  )
        38           Al  tau(  38) = (  0.1249900  0.6249533  0.2499791  )
        39           Al  tau(  39) = (  0.1250029  0.4998772  0.3748874  )
        40           Al  tau(  40) = (  0.0000081  0.6249863  0.3749974  )
        41           Al  tau(  41) = (  0.0000089  0.4999862  0.4999957  )
        42           Al  tau(  42) = (  0.1250003  0.6249984  0.5000106  )
        43           Al  tau(  43) = (  0.1250009  0.4999813  0.6249882  )
        44           Al  tau(  44) = (  1.0000000  0.6250017  0.6249893  )
        45           Al  tau(  45) = (  0.0000105  0.4999837  0.7500247  )
        46           Al  tau(  46) = (  0.1249921  0.6250138  0.7500025  )
        47           Al  tau(  47) = (  0.1250069  0.4998707  0.8751216  )
        48           Al  tau(  48) = (  0.0000102  0.6250467  0.8750210  )
        49           Al  tau(  49) = (  0.9999915  0.7503078  0.9999915  )
        50           Al  tau(  50) = (  0.1242507  0.8757874  0.0000078  )
        51           Al  tau(  51) = (  0.1249907  0.7500840  0.1249907  )
        52           Al  tau(  52) = (  0.0000078  0.8757874  0.1242507  )
        53           Al  tau(  53) = (  0.9999931  0.7501294  0.2498784  )
        54           Al  tau(  54) = (  0.1249906  0.8750625  0.2499045  )
        55           Al  tau(  55) = (  0.1249898  0.7500163  0.3749754  )
        56           Al  tau(  56) = (  0.0000103  0.8750128  0.3749333  )
        57           Al  tau(  57) = (  0.9999993  0.7500188  0.5000118  )
        58           Al  tau(  58) = (  0.1250080  0.8749812  0.5000101  )
        59           Al  tau(  59) = (  0.1249914  0.7500139  0.6250041  )
        60           Al  tau(  60) = (  0.9999984  0.8749943  0.6250459  )
        61           Al  tau(  61) = (  0.9999973  0.7501229  0.7501126  )
        62           Al  tau(  62) = (  0.1249882  0.8749992  0.7500750  )
        63           Al  tau(  63) = (  0.1249890  0.7500892  0.8750292  )
        64           Al  tau(  64) = (  0.0000197  0.8757804  0.8757855  )
        65           Al  tau(  65) = (  0.2496718  0.0000788  0.0000019  )
        66           Al  tau(  66) = (  0.3748575  0.1250033  0.0000090  )
        67           Al  tau(  67) = (  0.3748202  0.0001276  0.1249953  )
        68           Al  tau(  68) = (  0.2491397  0.1257493  0.1249900  )
        69           Al  tau(  69) = (  0.2498535  0.0000945  0.2498535  )
        70           Al  tau(  70) = (  0.3749132  0.1249964  0.2499781  )
        71           Al  tau(  71) = (  0.3750524  0.9999580  0.3750524  )
        72           Al  tau(  72) = (  0.2499781  0.1249964  0.3749132  )
        73           Al  tau(  73) = (  0.2499697  0.0000139  0.4999960  )
        74           Al  tau(  74) = (  0.3749943  0.1250111  0.4999945  )
        75           Al  tau(  75) = (  0.3750083  0.0000026  0.6249883  )
        76           Al  tau(  76) = (  0.2499935  0.1249822  0.6250045  )
        77           Al  tau(  77) = (  0.2498628  0.0000137  0.7501301  )
        78           Al  tau(  78) = (  0.3749792  0.1249999  0.7500206  )
        79           Al  tau(  79) = (  0.3749935  0.9999579  0.8749629  )
        80           Al  tau(  80) = (  0.2499022  0.1250000  0.8750978  )
        81           Al  tau(  81) = (  0.2491150  0.2498745  0.0007418  )
        82           Al  tau(  82) = (  0.3749249  0.3750008  0.0000120  )
        83           Al  tau(  83) = (  0.3746662  0.2499866  0.1249886  )
        84           Al  tau(  84) = (  0.2492145  0.3742197  0.1249804  )
        85           Al  tau(  85) = (  0.2493087  0.2500377  0.2493087  )
        86           Al  tau(  86) = (  0.3749057  0.3749873  0.2499809  )
        87           Al  tau(  87) = (  0.3748744  0.2499971  0.3748744  )
        88           Al  tau(  88) = (  0.2499809  0.3749873  0.3749057  )
        89           Al  tau(  89) = (  0.2499932  0.2499994  0.4999523  )
        90           Al  tau(  90) = (  0.3749713  0.3749780  0.4999937  )
        91           Al  tau(  91) = (  0.3749813  0.2499996  0.6249966  )
        92           Al  tau(  92) = (  0.2500065  0.3750100  0.6249978  )
        93           Al  tau(  93) = (  0.2500371  0.2500420  0.7500064  )
        94           Al  tau(  94) = (  0.3749886  0.3749939  0.7500021  )
        95           Al  tau(  95) = (  0.3748698  0.2499862  0.8751373  )
        96           Al  tau(  96) = (  0.2499824  0.3749928  0.8750889  )
        97           Al  tau(  97) = (  0.2499708  0.4999109  0.0000112  )
        98           Al  tau(  98) = (  0.3749974  0.6249863  0.0000081  )
        99           Al  tau(  99) = (  0.3748874  0.4998772  0.1250029  )
       100           Al  tau( 100) = (  0.2499791  0.6249533  0.1249900  )
       101           Al  tau( 101) = (  0.2499865  0.4999010  0.2499865  )
       102           Al  tau( 102) = (  0.3749871  0.6249958  0.2499914  )
       103           Al  tau( 103) = (  0.3750248  0.5000381  0.3750248  )
       104           Al  tau( 104) = (  0.2499914  0.6249958  0.3749871  )
       105           Al  tau( 105) = (  0.2499957  0.4999879  0.4999985  )
       106           Al  tau( 106) = (  0.3749887  0.6250173  0.5000028  )
       107           Al  tau( 107) = (  0.3749848  0.4999978  0.6250150  )
       108           Al  tau( 108) = (  0.2500011  0.6250075  0.6249942  )
       109           Al  tau( 109) = (  0.2499865  0.4999844  0.7500073  )
       110           Al  tau( 110) = (  0.3750018  0.6250001  0.7499980  )
       111           Al  tau( 111) = (  0.3750519  0.5000416  0.8749581  )
       112           Al  tau( 112) = (  0.2499752  0.6250000  0.8750248  )
       113           Al  tau( 113) = (  0.2498784  0.7501294  0.9999931  )
       114           Al  tau( 114) = (  0.3749333  0.8750128  0.0000103  )
       115           Al  tau( 115) = (  0.3749754  0.7500163  0.1249898  )
       116           Al  tau( 116) = (  0.2499045  0.8750625  0.1249906  )
       117           Al  tau( 117) = (  0.2500495  0.7499562  0.2500495  )
       118           Al  tau( 118) = (  0.3749781  0.8750173  0.2499738  )
       119           Al  tau( 119) = (  0.3750001  0.7500000  0.3750001  )
       120           Al  tau( 120) = (  0.2499738  0.8750173  0.3749781  )
       121           Al  tau( 121) = (  0.2499999  0.7499996  0.5000103  )
       122           Al  tau( 122) = (  0.3750121  0.8749951  0.5000030  )
       123           Al  tau( 123) = (  0.3750031  0.7500010  0.6249973  )
       124           Al  tau( 124) = (  0.2499845  0.8750003  0.6250052  )
       125           Al  tau( 125) = (  0.2500420  0.7499585  0.7499479  )
       126           Al  tau( 126) = (  0.3749979  0.8750062  0.7500110  )
       127           Al  tau( 127) = (  0.3749926  0.7500157  0.8750134  )
       128           Al  tau( 128) = (  0.2499111  0.8750072  0.8750175  )
       129           Al  tau( 129) = (  0.4999947  0.0000148  0.0000103  )
       130           Al  tau( 130) = (  0.6250526  0.1249864  0.9999921  )
       131           Al  tau( 131) = (  0.6250501  0.0000204  0.1249945  )
       132           Al  tau( 132) = (  0.4999475  0.1250136  0.1250081  )
       133           Al  tau( 133) = (  0.4999960  0.0000139  0.2499697  )
       134           Al  tau( 134) = (  0.6250045  0.1249822  0.2499935  )
       135           Al  tau( 135) = (  0.6249883  0.0000026  0.3750083  )
       136           Al  tau( 136) = (  0.4999945  0.1250111  0.3749943  )
       137           Al  tau( 137) = (  0.5000018  0.0000001  0.5000018  )
       138           Al  tau( 138) = (  0.6249886  0.1249999  0.5000112  )
       139           Al  tau( 139) = (  0.6249891  0.9999969  0.6249891  )
       140           Al  tau( 140) = (  0.5000112  0.1249999  0.6249886  )
       141           Al  tau( 141) = (  0.5000032  0.0000003  0.7500185  )
       142           Al  tau( 142) = (  0.6250055  0.1249887  0.7500056  )
       143           Al  tau( 143) = (  0.6250477  0.0000006  0.8750068  )
       144           Al  tau( 144) = (  0.4999954  0.1250177  0.8750066  )
       145           Al  tau( 145) = (  0.4999499  0.2499795  0.0000058  )
       146           Al  tau( 146) = (  0.6249900  0.3750188  0.9999923  )
       147           Al  tau( 147) = (  0.6250053  0.2499852  0.1249899  )
       148           Al  tau( 148) = (  0.4999541  0.3750057  0.1250018  )
       149           Al  tau( 149) = (  0.4999523  0.2499994  0.2499932  )
       150           Al  tau( 150) = (  0.6249978  0.3750100  0.2500065  )
       151           Al  tau( 151) = (  0.6249966  0.2499996  0.3749813  )
       152           Al  tau( 152) = (  0.4999937  0.3749780  0.3749713  )
       153           Al  tau( 153) = (  0.5000107  0.2500029  0.5000107  )
       154           Al  tau( 154) = (  0.6250144  0.3749868  0.5000101  )
       155           Al  tau( 155) = (  0.6249982  0.2499996  0.6249982  )
       156           Al  tau( 156) = (  0.5000101  0.3749868  0.6250144  )
       157           Al  tau( 157) = (  0.5000115  0.2499972  0.7499917  )
       158           Al  tau( 158) = (  0.6249970  0.3750048  0.7499880  )
       159           Al  tau( 159) = (  0.6250041  0.2499858  0.8750305  )
       160           Al  tau( 160) = (  0.4999946  0.3749996  0.8750158  )
       161           Al  tau( 161) = (  0.4999957  0.4999862  0.0000089  )
       162           Al  tau( 162) = (  0.6249893  0.6250017  1.0000000  )
       163           Al  tau( 163) = (  0.6249882  0.4999813  0.1250009  )
       164           Al  tau( 164) = (  0.5000106  0.6249984  0.1250003  )
       165           Al  tau( 165) = (  0.4999985  0.4999879  0.2499957  )
       166           Al  tau( 166) = (  0.6249942  0.6250075  0.2500011  )
       167           Al  tau( 167) = (  0.6250150  0.4999978  0.3749848  )
       168           Al  tau( 168) = (  0.5000028  0.6250173  0.3749887  )
       169           Al  tau( 169) = (  0.5000041  0.5000012  0.5000041  )
       170           Al  tau( 170) = (  0.6250143  0.6250002  0.4999855  )
       171           Al  tau( 171) = (  0.6250130  0.5000022  0.6250130  )
       172           Al  tau( 172) = (  0.4999855  0.6250002  0.6250143  )
       173           Al  tau( 173) = (  0.5000024  0.4999993  0.7499969  )
       174           Al  tau( 174) = (  0.6249971  0.6249831  0.7500113  )
       175           Al  tau( 175) = (  0.6249897  0.5000006  0.8750004  )
       176           Al  tau( 176) = (  0.5000056  0.6249927  0.8749990  )
       177           Al  tau( 177) = (  0.5000118  0.7500188  0.9999993  )
       178           Al  tau( 178) = (  0.6250459  0.8749943  0.9999984  )
       179           Al  tau( 179) = (  0.6250041  0.7500139  0.1249914  )
       180           Al  tau( 180) = (  0.5000101  0.8749812  0.1250080  )
       181           Al  tau( 181) = (  0.5000103  0.7499996  0.2499999  )
       182           Al  tau( 182) = (  0.6250052  0.8750003  0.2499845  )
       183           Al  tau( 183) = (  0.6249973  0.7500010  0.3750031  )
       184           Al  tau( 184) = (  0.5000030  0.8749951  0.3750121  )
       185           Al  tau( 185) = (  0.4999869  0.7499981  0.4999869  )
       186           Al  tau( 186) = (  0.6249895  0.8750131  0.4999855  )
       187           Al  tau( 187) = (  0.6249956  0.7499991  0.6249956  )
       188           Al  tau( 188) = (  0.4999855  0.8750131  0.6249895  )
       189           Al  tau( 189) = (  0.4999848  0.7500024  0.7500149  )
       190           Al  tau( 190) = (  0.6250062  0.8750220  0.7500285  )
       191           Al  tau( 191) = (  0.6250014  0.7500122  0.8750044  )
       192           Al  tau( 192) = (  0.5000021  0.8749900  0.8749934  )
       193           Al  tau( 193) = (  0.7503339  0.0000135  0.0000115  )
       194           Al  tau( 194) = (  0.8758604  0.1242507  0.0000100  )
       195           Al  tau( 195) = (  0.8758849  0.0001256  0.1242584  )
       196           Al  tau( 196) = (  0.7501425  0.1249966  0.1249911  )
       197           Al  tau( 197) = (  0.7501301  0.0000137  0.2498628  )
       198           Al  tau( 198) = (  0.8750978  0.1250000  0.2499022  )
       199           Al  tau( 199) = (  0.8749629  0.9999579  0.3749935  )
       200           Al  tau( 200) = (  0.7500206  0.1249999  0.3749792  )
       201           Al  tau( 201) = (  0.7500185  0.0000003  0.5000032  )
       202           Al  tau( 202) = (  0.8750066  0.1250177  0.4999954  )
       203           Al  tau( 203) = (  0.8750068  0.0000006  0.6250477  )
       204           Al  tau( 204) = (  0.7500056  0.1249887  0.6250055  )
       205           Al  tau( 205) = (  0.7501256  0.0000030  0.7501256  )
       206           Al  tau( 206) = (  0.8750219  0.1250036  0.7500870  )
       207           Al  tau( 207) = (  0.8756914  0.9999625  0.8756914  )
       208           Al  tau( 208) = (  0.7500870  0.1250036  0.8750219  )
       209           Al  tau( 209) = (  0.7501799  0.2498723  0.0000048  )
       210           Al  tau( 210) = (  0.8750955  0.3749374  0.0000095  )
       211           Al  tau( 211) = (  0.8753282  0.2499211  0.1249982  )
       212           Al  tau( 212) = (  0.7500667  0.3749872  0.1249897  )
       213           Al  tau( 213) = (  0.7500064  0.2500420  0.2500371  )
       214           Al  tau( 214) = (  0.8750889  0.3749928  0.2499824  )
       215           Al  tau( 215) = (  0.8751373  0.2499862  0.3748698  )
       216           Al  tau( 216) = (  0.7500021  0.3749939  0.3749886  )
       217           Al  tau( 217) = (  0.7499917  0.2499972  0.5000115  )
       218           Al  tau( 218) = (  0.8750158  0.3749996  0.4999946  )
       219           Al  tau( 219) = (  0.8750305  0.2499858  0.6250041  )
       220           Al  tau( 220) = (  0.7499880  0.3750048  0.6249970  )
       221           Al  tau( 221) = (  0.7499479  0.2500417  0.7499479  )
       222           Al  tau( 222) = (  0.8750265  0.3749825  0.7500221  )
       223           Al  tau( 223) = (  0.8751465  0.2499054  0.8751465  )
       224           Al  tau( 224) = (  0.7500221  0.3749825  0.8750265  )
       225           Al  tau( 225) = (  0.7500247  0.4999837  0.0000105  )
       226           Al  tau( 226) = (  0.8750210  0.6250467  0.0000102  )
       227           Al  tau( 227) = (  0.8751216  0.4998707  0.1250069  )
       228           Al  tau( 228) = (  0.7500025  0.6250138  0.1249921  )
       229           Al  tau( 229) = (  0.7500073  0.4999844  0.2499865  )
       230           Al  tau( 230) = (  0.8750248  0.6250000  0.2499752  )
       231           Al  tau( 231) = (  0.8749581  0.5000416  0.3750519  )
       232           Al  tau( 232) = (  0.7499980  0.6250001  0.3750018  )
       233           Al  tau( 233) = (  0.7499969  0.4999993  0.5000024  )
       234           Al  tau( 234) = (  0.8749990  0.6249927  0.5000056  )
       235           Al  tau( 235) = (  0.8750004  0.5000006  0.6249897  )
       236           Al  tau( 236) = (  0.7500113  0.6249831  0.6249971  )
       237           Al  tau( 237) = (  0.7500001  0.5000002  0.7500001  )
       238           Al  tau( 238) = (  0.8750087  0.6250043  0.7500129  )
       239           Al  tau( 239) = (  0.8749506  0.5000438  0.8749506  )
       240           Al  tau( 240) = (  0.7500129  0.6250043  0.8750087  )
       241           Al  tau( 241) = (  0.7501126  0.7501229  0.9999973  )
       242           Al  tau( 242) = (  0.8757855  0.8757804  0.0000197  )
       243           Al  tau( 243) = (  0.8750292  0.7500892  0.1249890  )
       244           Al  tau( 244) = (  0.7500750  0.8749992  0.1249882  )
       245           Al  tau( 245) = (  0.7499479  0.7499585  0.2500420  )
       246           Al  tau( 246) = (  0.8750175  0.8750072  0.2499111  )
       247           Al  tau( 247) = (  0.8750134  0.7500157  0.3749926  )
       248           Al  tau( 248) = (  0.7500110  0.8750062  0.3749979  )
       249           Al  tau( 249) = (  0.7500149  0.7500024  0.4999848  )
       250           Al  tau( 250) = (  0.8749934  0.8749900  0.5000021  )
       251           Al  tau( 251) = (  0.8750044  0.7500122  0.6250014  )
       252           Al  tau( 252) = (  0.7500285  0.8750220  0.6250062  )
       253           Al  tau( 253) = (  0.7499751  0.7499621  0.7499751  )
       254           Al  tau( 254) = (  0.8750192  0.8750128  0.7500943  )
       255           Al  tau( 255) = (  0.8750136  0.7500991  0.8750136  )
       256           Al  tau( 256) = (  0.7500943  0.8750128  0.8750192  )

     number of k points=    63  Methfessel-Paxton smearing, width (Ry)=  0.0441
                       cart. coord. in units 2pi/alat
        k(    1) = (   0.0000000   0.0000000   0.0000000), wk =   0.0160000
        k(    2) = (   0.0000000   0.0000000   0.2000000), wk =   0.0320000
        k(    3) = (   0.0000000   0.0000000   0.4000000), wk =   0.0320000
        k(    4) = (   0.0000000   0.2000000   0.0000000), wk =   0.0320000
        k(    5) = (   0.0000000   0.2000000   0.2000000), wk =   0.0320000
        k(    6) = (   0.0000000   0.2000000   0.4000000), wk =   0.0320000
        k(    7) = (   0.0000000   0.2000000  -0.4000000), wk =   0.0320000
        k(    8) = (   0.0000000   0.2000000  -0.2000000), wk =   0.0320000
        k(    9) = (   0.0000000   0.4000000   0.0000000), wk =   0.0320000
        k(   10) = (   0.0000000   0.4000000   0.2000000), wk =   0.0320000
        k(   11) = (   0.0000000   0.4000000   0.4000000), wk =   0.0320000
        k(   12) = (   0.0000000   0.4000000  -0.4000000), wk =   0.0320000
        k(   13) = (   0.0000000   0.4000000  -0.2000000), wk =   0.0320000
        k(   14) = (   0.2000000   0.0000000   0.0000000), wk =   0.0320000
        k(   15) = (   0.2000000   0.0000000   0.2000000), wk =   0.0320000
        k(   16) = (   0.2000000   0.0000000   0.4000000), wk =   0.0320000
        k(   17) = (   0.2000000   0.0000000  -0.4000000), wk =   0.0320000
        k(   18) = (   0.2000000   0.0000000  -0.2000000), wk =   0.0320000
        k(   19) = (   0.2000000   0.2000000   0.0000000), wk =   0.0320000
        k(   20) = (   0.2000000   0.2000000   0.2000000), wk =   0.0320000
        k(   21) = (   0.2000000   0.2000000   0.4000000), wk =   0.0320000
        k(   22) = (   0.2000000   0.2000000  -0.4000000), wk =   0.0320000
        k(   23) = (   0.2000000   0.2000000  -0.2000000), wk =   0.0320000
        k(   24) = (   0.2000000   0.4000000   0.0000000), wk =   0.0320000
        k(   25) = (   0.2000000   0.4000000   0.2000000), wk =   0.0320000
        k(   26) = (   0.2000000   0.4000000   0.4000000), wk =   0.0320000
        k(   27) = (   0.2000000   0.4000000  -0.4000000), wk =   0.0320000
        k(   28) = (   0.2000000   0.4000000  -0.2000000), wk =   0.0320000
        k(   29) = (   0.2000000  -0.4000000   0.0000000), wk =   0.0320000
        k(   30) = (   0.2000000  -0.4000000   0.2000000), wk =   0.0320000
        k(   31) = (   0.2000000  -0.4000000   0.4000000), wk =   0.0320000
        k(   32) = (   0.2000000  -0.4000000  -0.4000000), wk =   0.0320000
        k(   33) = (   0.2000000  -0.4000000  -0.2000000), wk =   0.0320000
        k(   34) = (   0.2000000  -0.2000000   0.0000000), wk =   0.0320000
        k(   35) = (   0.2000000  -0.2000000   0.2000000), wk =   0.0320000
        k(   36) = (   0.2000000  -0.2000000   0.4000000), wk =   0.0320000
        k(   37) = (   0.2000000  -0.2000000  -0.4000000), wk =   0.0320000
        k(   38) = (   0.2000000  -0.2000000  -0.2000000), wk =   0.0320000
        k(   39) = (   0.4000000   0.0000000   0.0000000), wk =   0.0320000
        k(   40) = (   0.4000000   0.0000000   0.2000000), wk =   0.0320000
        k(   41) = (   0.4000000   0.0000000   0.4000000), wk =   0.0320000
        k(   42) = (   0.4000000   0.0000000  -0.4000000), wk =   0.0320000
        k(   43) = (   0.4000000   0.0000000  -0.2000000), wk =   0.0320000
        k(   44) = (   0.4000000   0.2000000   0.0000000), wk =   0.0320000
        k(   45) = (   0.4000000   0.2000000   0.2000000), wk =   0.0320000
        k(   46) = (   0.4000000   0.2000000   0.4000000), wk =   0.0320000
        k(   47) = (   0.4000000   0.2000000  -0.4000000), wk =   0.0320000
        k(   48) = (   0.4000000   0.2000000  -0.2000000), wk =   0.0320000
        k(   49) = (   0.4000000   0.4000000   0.0000000), wk =   0.0320000
        k(   50) = (   0.4000000   0.4000000   0.2000000), wk =   0.0320000
        k(   51) = (   0.4000000   0.4000000   0.4000000), wk =   0.0320000
        k(   52) = (   0.4000000   0.4000000  -0.4000000), wk =   0.0320000
        k(   53) = (   0.4000000   0.4000000  -0.2000000), wk =   0.0320000
        k(   54) = (   0.4000000  -0.4000000   0.0000000), wk =   0.0320000
        k(   55) = (   0.4000000  -0.4000000   0.2000000), wk =   0.0320000
        k(   56) = (   0.4000000  -0.4000000   0.4000000), wk =   0.0320000
        k(   57) = (   0.4000000  -0.4000000  -0.4000000), wk =   0.0320000
        k(   58) = (   0.4000000  -0.4000000  -0.2000000), wk =   0.0320000
        k(   59) = (   0.4000000  -0.2000000   0.0000000), wk =   0.0320000
        k(   60) = (   0.4000000  -0.2000000   0.2000000), wk =   0.0320000
        k(   61) = (   0.4000000  -0.2000000   0.4000000), wk =   0.0320000
        k(   62) = (   0.4000000  -0.2000000  -0.4000000), wk =   0.0320000
        k(   63) = (   0.4000000  -0.2000000  -0.2000000), wk =   0.0320000

                       cryst. coord.
        k(    1) = (   0.0000000   0.0000000   0.0000000), wk =   0.0160000
        k(    2) = (   0.0000000   0.0000000   0.2000000), wk =   0.0320000
        k(    3) = (   0.0000000   0.0000000   0.4000000), wk =   0.0320000
        k(    4) = (   0.0000000   0.2000000   0.0000000), wk =   0.0320000
        k(    5) = (   0.0000000   0.2000000   0.2000000), wk =   0.0320000
        k(    6) = (   0.0000000   0.2000000   0.4000000), wk =   0.0320000
        k(    7) = (   0.0000000   0.2000000  -0.4000000), wk =   0.0320000
        k(    8) = (   0.0000000   0.2000000  -0.2000000), wk =   0.0320000
        k(    9) = (   0.0000000   0.4000000   0.0000000), wk =   0.0320000
        k(   10) = (   0.0000000   0.4000000   0.2000000), wk =   0.0320000
        k(   11) = (   0.0000000   0.4000000   0.4000000), wk =   0.0320000
        k(   12) = (   0.0000000   0.4000000  -0.4000000), wk =   0.0320000
        k(   13) = (   0.0000000   0.4000000  -0.2000000), wk =   0.0320000
        k(   14) = (   0.2000000   0.0000000   0.0000000), wk =   0.0320000
        k(   15) = (   0.2000000   0.0000000   0.2000000), wk =   0.0320000
        k(   16) = (   0.2000000   0.0000000   0.4000000), wk =   0.0320000
        k(   17) = (   0.2000000   0.0000000  -0.4000000), wk =   0.0320000
        k(   18) = (   0.2000000   0.0000000  -0.2000000), wk =   0.0320000
        k(   19) = (   0.2000000   0.2000000   0.0000000), wk =   0.0320000
        k(   20) = (   0.2000000   0.2000000   0.2000000), wk =   0.0320000
        k(   21) = (   0.2000000   0.2000000   0.4000000), wk =   0.0320000
        k(   22) = (   0.2000000   0.2000000  -0.4000000), wk =   0.0320000
        k(   23) = (   0.2000000   0.2000000  -0.2000000), wk =   0.0320000
        k(   24) = (   0.2000000   0.4000000   0.0000000), wk =   0.0320000
        k(   25) = (   0.2000000   0.4000000   0.2000000), wk =   0.0320000
        k(   26) = (   0.2000000   0.4000000   0.4000000), wk =   0.0320000
        k(   27) = (   0.2000000   0.4000000  -0.4000000), wk =   0.0320000
        k(   28) = (   0.2000000   0.4000000  -0.2000000), wk =   0.0320000
        k(   29) = (   0.2000000  -0.4000000   0.0000000), wk =   0.0320000
        k(   30) = (   0.2000000  -0.4000000   0.2000000), wk =   0.0320000
        k(   31) = (   0.2000000  -0.4000000   0.4000000), wk =   0.0320000
        k(   32) = (   0.2000000  -0.4000000  -0.4000000), wk =   0.0320000
        k(   33) = (   0.2000000  -0.4000000  -0.2000000), wk =   0.0320000
        k(   34) = (   0.2000000  -0.2000000   0.0000000), wk =   0.0320000
        k(   35) = (   0.2000000  -0.2000000   0.2000000), wk =   0.0320000
        k(   36) = (   0.2000000  -0.2000000   0.4000000), wk =   0.0320000
        k(   37) = (   0.2000000  -0.2000000  -0.4000000), wk =   0.0320000
        k(   38) = (   0.2000000  -0.2000000  -0.2000000), wk =   0.0320000
        k(   39) = (   0.4000000   0.0000000   0.0000000), wk =   0.0320000
        k(   40) = (   0.4000000   0.0000000   0.2000000), wk =   0.0320000
        k(   41) = (   0.4000000   0.0000000   0.4000000), wk =   0.0320000
        k(   42) = (   0.4000000   0.0000000  -0.4000000), wk =   0.0320000
        k(   43) = (   0.4000000   0.0000000  -0.2000000), wk =   0.0320000
        k(   44) = (   0.4000000   0.2000000   0.0000000), wk =   0.0320000
        k(   45) = (   0.4000000   0.2000000   0.2000000), wk =   0.0320000
        k(   46) = (   0.4000000   0.2000000   0.4000000), wk =   0.0320000
        k(   47) = (   0.4000000   0.2000000  -0.4000000), wk =   0.0320000
        k(   48) = (   0.4000000   0.2000000  -0.2000000), wk =   0.0320000
        k(   49) = (   0.4000000   0.4000000   0.0000000), wk =   0.0320000
        k(   50) = (   0.4000000   0.4000000   0.2000000), wk =   0.0320000
        k(   51) = (   0.4000000   0.4000000   0.4000000), wk =   0.0320000
        k(   52) = (   0.4000000   0.4000000  -0.4000000), wk =   0.0320000
        k(   53) = (   0.4000000   0.4000000  -0.2000000), wk =   0.0320000
        k(   54) = (   0.4000000  -0.4000000   0.0000000), wk =   0.0320000
        k(   55) = (   0.4000000  -0.4000000   0.2000000), wk =   0.0320000
        k(   56) = (   0.4000000  -0.4000000   0.4000000), wk =   0.0320000
        k(   57) = (   0.4000000  -0.4000000  -0.4000000), wk =   0.0320000
        k(   58) = (   0.4000000  -0.4000000  -0.2000000), wk =   0.0320000
        k(   59) = (   0.4000000  -0.2000000   0.0000000), wk =   0.0320000
        k(   60) = (   0.4000000  -0.2000000   0.2000000), wk =   0.0320000
        k(   61) = (   0.4000000  -0.2000000   0.4000000), wk =   0.0320000
        k(   62) = (   0.4000000  -0.2000000  -0.4000000), wk =   0.0320000
        k(   63) = (   0.4000000  -0.2000000  -0.2000000), wk =   0.0320000

     Dense  grid:  3895379 G-vectors     FFT dimensions: ( 200, 200, 200)

     Smooth grid:   985619 G-vectors     FFT dimensions: ( 125, 125, 125)

     Dynamical RAM for                 wfc:      96.50 MB

     Dynamical RAM for     wfc (w. buffer):    1640.52 MB

     Dynamical RAM for           str. fact:      13.21 MB

     Dynamical RAM for           local pot:       0.00 MB

     Dynamical RAM for          nlocal pot:     962.51 MB

     Dynamical RAM for                qrad:      15.65 MB

     Dynamical RAM for          rho,v,vnew:      40.87 MB

     Dynamical RAM for               rhoin:      13.62 MB

     Dynamical RAM for            rho*nmix:     105.67 MB

     Dynamical RAM for           G-vectors:      25.60 MB

     Dynamical RAM for          h,s,v(r/c):      39.08 MB

     Dynamical RAM for          <psi|beta>:      32.48 MB

     Dynamical RAM for                 psi:     386.01 MB

     Dynamical RAM for                hpsi:     386.01 MB

     Dynamical RAM for                spsi:     386.01 MB

     Dynamical RAM for      wfcinit/wfcrot:     451.79 MB

     Dynamical RAM for           addusdens:     731.43 MB

     Dynamical RAM for          addusforce:    1576.13 MB

     Dynamical RAM for         addusstress:     334.34 MB

     Estimated static dynamical RAM per process >       2.81 GB

     Estimated max dynamical RAM per process >       4.34 GB

     Estimated total dynamical RAM >     156.40 GB

     Initial potential from superposition of free atoms

     starting charge  769.41717, renormalised to  770.00000
     Starting wfcs are 1024 randomized atomic wfcs
