
     Program PWSCF v.6.3 starts on 24Feb2020 at  9:37: 6 

     This program is part of the open-source Quantum ESPRESSO suite
     for quantum simulation of materials; please cite
         "P. Giannozzi et al., J. Phys.:Condens. Matter 21 395502 (2009);
         "P. Giannozzi et al., J. Phys.:Condens. Matter 29 465901 (2017);
          URL http://www.quantum-espresso.org", 
     in publications or presentations arising from this work. More details at
     http://www.quantum-espresso.org/quote

 *** WARNING: using old-style file format, will disappear from next version ***

     Parallel version (MPI & OpenMP), running on      36 processor cores
     Number of MPI processes:                36
     Threads/MPI process:                     1

     MPI processes distributed on     1 nodes
     K-points division:     npool     =       9
     R & G space division:  proc/nbgrp/npool/nimage =       4
     Reading input from aiida.in
Warning: card &IONS ignored
Warning: card   !PRESS_CONV_THR = 0.05                 ! JUST FOR VOLUME RELAXATIONS ignored
Warning: card / ignored

     Current dimensions of program PWSCF are:
     Max number of different atomic species (ntypx) = 10
     Max number of k-points (npk) =  40000
     Max angular momentum in pseudopotentials (lmaxx) =  3
               file Al.pbe-n-kjpaw_psl.1.0.0.UPF: wavefunction(s)  3S 3P renormalized

     Subspace diagonalization in iterative solution of the eigenvalue problem:
     a serial algorithm will be used

     Found symmetry operation: I + ( -0.5000  0.5000  0.0000)
     This is a supercell, fractional translations are disabled
 
     Parallelization info
     --------------------
     sticks:   dense  smooth     PW     G-vecs:    dense   smooth      PW
     Min         523     211     62                18055     4557     748
     Max         524     212     63                18058     4558     749
     Sum        2093     845    251                72223    18229    2995
 


     bravais-lattice index     =            0
     lattice parameter (alat)  =       8.1499  a.u.
     unit-cell volume          =     534.1825 (a.u.)^3
     number of atoms/cell      =            4
     number of atomic types    =            1
     number of electrons       =        12.00
     number of Kohn-Sham states=           10
     kinetic-energy cutoff     =      40.0000  Ry
     charge density cutoff     =     400.0000  Ry
     convergence threshold     =      1.0E-12
     mixing beta               =       0.4000
     number of iterations used =            8  local-TF  mixing
     Exchange-correlation      = SLA PW PBX PBC ( 1  4  3  4 0 0)

     celldm(1)=   8.149926  celldm(2)=   0.000000  celldm(3)=   0.000000
     celldm(4)=   0.000000  celldm(5)=   0.000000  celldm(6)=   0.000000

     crystal axes: (cart. coord. in units of alat)
               a(1) = (   1.000000   0.000000   0.000000 )  
               a(2) = (   0.000000   0.993377   0.000000 )  
               a(3) = (   0.000000   0.000000   0.993377 )  

     reciprocal axes: (cart. coord. in units 2 pi/alat)
               b(1) = (  1.000000  0.000000  0.000000 )  
               b(2) = (  0.000000  1.006667  0.000000 )  
               b(3) = (  0.000000  0.000000  1.006667 )  


     PseudoPot. # 1 for Al read from file:
     /users/aglensk/Dropbox/Albert/scripts/dotfiles/scripts/potentials/quantum_espresso/pseudo_SSSPefV1.1_alalloy/Al.pbe-n-kjpaw_psl.1.0.0.UPF
     MD5 check sum: cfc449ca30b5f3223ec38ddd88ac046d
     Pseudo is Projector augmented-wave + core cor, Zval =  3.0
     Generated using "atomic" code by A. Dal Corso v.5.1
     Shape of augmentation charge: PSQ
     Using radial grid of 1135 points,  6 beta functions with: 
                l(1) =   0
                l(2) =   0
                l(3) =   1
                l(4) =   1
                l(5) =   2
                l(6) =   2
     Q(r) pseudized with 0 coefficients 


     atomic species   valence    mass     pseudopotential
        Al             3.00    26.98154     Al( 1.00)

     No symmetry found


                                    s                        frac. trans.

      isym =  1     identity                                     

 cryst.   s( 1) = (     1          0          0      )
                  (     0          1          0      )
                  (     0          0          1      )

 cart.    s( 1) = (  1.0000000  0.0000000  0.0000000 )
                  (  0.0000000  1.0000000  0.0000000 )
                  (  0.0000000  0.0000000  1.0000000 )


   Cartesian axes

     site n.     atom                  positions (alat units)
         1           Al  tau(   1) = (   0.0000000   0.0000000   0.0000000  )
         2           Al  tau(   2) = (   0.5000000   0.4966887   0.0000000  )
         3           Al  tau(   3) = (   0.5000000   0.0000000   0.4966887  )
         4           Al  tau(   4) = (   0.0000000   0.4966887   0.4966887  )

   Crystallographic axes

     site n.     atom                  positions (cryst. coord.)
         1           Al  tau(   1) = (  0.0000000  0.0000000  0.0000000  )
         2           Al  tau(   2) = (  0.5000000  0.4999999  0.0000000  )
         3           Al  tau(   3) = (  0.5000000  0.0000000  0.4999999  )
         4           Al  tau(   4) = (  0.0000000  0.4999999  0.4999999  )

     number of k points=  3430  Methfessel-Paxton smearing, width (Ry)=  0.0441
                       cart. coord. in units 2pi/alat
        k(    1) = (   0.0000000   0.0000000   0.0000000), wk =   0.0002916
        k(    2) = (   0.0000000   0.0000000   0.0529825), wk =   0.0005832
        k(    3) = (   0.0000000   0.0000000   0.1059649), wk =   0.0005832
        k(    4) = (   0.0000000   0.0000000   0.1589474), wk =   0.0005832
        k(    5) = (   0.0000000   0.0000000   0.2119298), wk =   0.0005832
        k(    6) = (   0.0000000   0.0000000   0.2649123), wk =   0.0005832
        k(    7) = (   0.0000000   0.0000000   0.3178947), wk =   0.0005832
        k(    8) = (   0.0000000   0.0000000   0.3708772), wk =   0.0005832
        k(    9) = (   0.0000000   0.0000000   0.4238596), wk =   0.0005832
        k(   10) = (   0.0000000   0.0000000   0.4768421), wk =   0.0005832
        k(   11) = (   0.0000000   0.0529825   0.0000000), wk =   0.0005832
        k(   12) = (   0.0000000   0.0529825   0.0529825), wk =   0.0005832
        k(   13) = (   0.0000000   0.0529825   0.1059649), wk =   0.0005832
        k(   14) = (   0.0000000   0.0529825   0.1589474), wk =   0.0005832
        k(   15) = (   0.0000000   0.0529825   0.2119298), wk =   0.0005832
        k(   16) = (   0.0000000   0.0529825   0.2649123), wk =   0.0005832
        k(   17) = (   0.0000000   0.0529825   0.3178947), wk =   0.0005832
        k(   18) = (   0.0000000   0.0529825   0.3708772), wk =   0.0005832
        k(   19) = (   0.0000000   0.0529825   0.4238596), wk =   0.0005832
        k(   20) = (   0.0000000   0.0529825   0.4768421), wk =   0.0005832
        k(   21) = (   0.0000000   0.0529825  -0.4768421), wk =   0.0005832
        k(   22) = (   0.0000000   0.0529825  -0.4238596), wk =   0.0005832
        k(   23) = (   0.0000000   0.0529825  -0.3708772), wk =   0.0005832
        k(   24) = (   0.0000000   0.0529825  -0.3178947), wk =   0.0005832
        k(   25) = (   0.0000000   0.0529825  -0.2649123), wk =   0.0005832
        k(   26) = (   0.0000000   0.0529825  -0.2119298), wk =   0.0005832
        k(   27) = (   0.0000000   0.0529825  -0.1589474), wk =   0.0005832
        k(   28) = (   0.0000000   0.0529825  -0.1059649), wk =   0.0005832
        k(   29) = (   0.0000000   0.0529825  -0.0529825), wk =   0.0005832
        k(   30) = (   0.0000000   0.1059649   0.0000000), wk =   0.0005832
        k(   31) = (   0.0000000   0.1059649   0.0529825), wk =   0.0005832
        k(   32) = (   0.0000000   0.1059649   0.1059649), wk =   0.0005832
        k(   33) = (   0.0000000   0.1059649   0.1589474), wk =   0.0005832
        k(   34) = (   0.0000000   0.1059649   0.2119298), wk =   0.0005832
        k(   35) = (   0.0000000   0.1059649   0.2649123), wk =   0.0005832
        k(   36) = (   0.0000000   0.1059649   0.3178947), wk =   0.0005832
        k(   37) = (   0.0000000   0.1059649   0.3708772), wk =   0.0005832
        k(   38) = (   0.0000000   0.1059649   0.4238596), wk =   0.0005832
        k(   39) = (   0.0000000   0.1059649   0.4768421), wk =   0.0005832
        k(   40) = (   0.0000000   0.1059649  -0.4768421), wk =   0.0005832
        k(   41) = (   0.0000000   0.1059649  -0.4238596), wk =   0.0005832
        k(   42) = (   0.0000000   0.1059649  -0.3708772), wk =   0.0005832
        k(   43) = (   0.0000000   0.1059649  -0.3178947), wk =   0.0005832
        k(   44) = (   0.0000000   0.1059649  -0.2649123), wk =   0.0005832
        k(   45) = (   0.0000000   0.1059649  -0.2119298), wk =   0.0005832
        k(   46) = (   0.0000000   0.1059649  -0.1589474), wk =   0.0005832
        k(   47) = (   0.0000000   0.1059649  -0.1059649), wk =   0.0005832
        k(   48) = (   0.0000000   0.1059649  -0.0529825), wk =   0.0005832
        k(   49) = (   0.0000000   0.1589474   0.0000000), wk =   0.0005832
        k(   50) = (   0.0000000   0.1589474   0.0529825), wk =   0.0005832
        k(   51) = (   0.0000000   0.1589474   0.1059649), wk =   0.0005832
        k(   52) = (   0.0000000   0.1589474   0.1589474), wk =   0.0005832
        k(   53) = (   0.0000000   0.1589474   0.2119298), wk =   0.0005832
        k(   54) = (   0.0000000   0.1589474   0.2649123), wk =   0.0005832
        k(   55) = (   0.0000000   0.1589474   0.3178947), wk =   0.0005832
        k(   56) = (   0.0000000   0.1589474   0.3708772), wk =   0.0005832
        k(   57) = (   0.0000000   0.1589474   0.4238596), wk =   0.0005832
        k(   58) = (   0.0000000   0.1589474   0.4768421), wk =   0.0005832
        k(   59) = (   0.0000000   0.1589474  -0.4768421), wk =   0.0005832
        k(   60) = (   0.0000000   0.1589474  -0.4238596), wk =   0.0005832
        k(   61) = (   0.0000000   0.1589474  -0.3708772), wk =   0.0005832
        k(   62) = (   0.0000000   0.1589474  -0.3178947), wk =   0.0005832
        k(   63) = (   0.0000000   0.1589474  -0.2649123), wk =   0.0005832
        k(   64) = (   0.0000000   0.1589474  -0.2119298), wk =   0.0005832
        k(   65) = (   0.0000000   0.1589474  -0.1589474), wk =   0.0005832
        k(   66) = (   0.0000000   0.1589474  -0.1059649), wk =   0.0005832
        k(   67) = (   0.0000000   0.1589474  -0.0529825), wk =   0.0005832
        k(   68) = (   0.0000000   0.2119298   0.0000000), wk =   0.0005832
        k(   69) = (   0.0000000   0.2119298   0.0529825), wk =   0.0005832
        k(   70) = (   0.0000000   0.2119298   0.1059649), wk =   0.0005832
        k(   71) = (   0.0000000   0.2119298   0.1589474), wk =   0.0005832
        k(   72) = (   0.0000000   0.2119298   0.2119298), wk =   0.0005832
        k(   73) = (   0.0000000   0.2119298   0.2649123), wk =   0.0005832
        k(   74) = (   0.0000000   0.2119298   0.3178947), wk =   0.0005832
        k(   75) = (   0.0000000   0.2119298   0.3708772), wk =   0.0005832
        k(   76) = (   0.0000000   0.2119298   0.4238596), wk =   0.0005832
        k(   77) = (   0.0000000   0.2119298   0.4768421), wk =   0.0005832
        k(   78) = (   0.0000000   0.2119298  -0.4768421), wk =   0.0005832
        k(   79) = (   0.0000000   0.2119298  -0.4238596), wk =   0.0005832
        k(   80) = (   0.0000000   0.2119298  -0.3708772), wk =   0.0005832
        k(   81) = (   0.0000000   0.2119298  -0.3178947), wk =   0.0005832
        k(   82) = (   0.0000000   0.2119298  -0.2649123), wk =   0.0005832
        k(   83) = (   0.0000000   0.2119298  -0.2119298), wk =   0.0005832
        k(   84) = (   0.0000000   0.2119298  -0.1589474), wk =   0.0005832
        k(   85) = (   0.0000000   0.2119298  -0.1059649), wk =   0.0005832
        k(   86) = (   0.0000000   0.2119298  -0.0529825), wk =   0.0005832
        k(   87) = (   0.0000000   0.2649123   0.0000000), wk =   0.0005832
        k(   88) = (   0.0000000   0.2649123   0.0529825), wk =   0.0005832
        k(   89) = (   0.0000000   0.2649123   0.1059649), wk =   0.0005832
        k(   90) = (   0.0000000   0.2649123   0.1589474), wk =   0.0005832
        k(   91) = (   0.0000000   0.2649123   0.2119298), wk =   0.0005832
        k(   92) = (   0.0000000   0.2649123   0.2649123), wk =   0.0005832
        k(   93) = (   0.0000000   0.2649123   0.3178947), wk =   0.0005832
        k(   94) = (   0.0000000   0.2649123   0.3708772), wk =   0.0005832
        k(   95) = (   0.0000000   0.2649123   0.4238596), wk =   0.0005832
        k(   96) = (   0.0000000   0.2649123   0.4768421), wk =   0.0005832
        k(   97) = (   0.0000000   0.2649123  -0.4768421), wk =   0.0005832
        k(   98) = (   0.0000000   0.2649123  -0.4238596), wk =   0.0005832
        k(   99) = (   0.0000000   0.2649123  -0.3708772), wk =   0.0005832
        k(  100) = (   0.0000000   0.2649123  -0.3178947), wk =   0.0005832
        k(  101) = (   0.0000000   0.2649123  -0.2649123), wk =   0.0005832
        k(  102) = (   0.0000000   0.2649123  -0.2119298), wk =   0.0005832
        k(  103) = (   0.0000000   0.2649123  -0.1589474), wk =   0.0005832
        k(  104) = (   0.0000000   0.2649123  -0.1059649), wk =   0.0005832
        k(  105) = (   0.0000000   0.2649123  -0.0529825), wk =   0.0005832
        k(  106) = (   0.0000000   0.3178947   0.0000000), wk =   0.0005832
        k(  107) = (   0.0000000   0.3178947   0.0529825), wk =   0.0005832
        k(  108) = (   0.0000000   0.3178947   0.1059649), wk =   0.0005832
        k(  109) = (   0.0000000   0.3178947   0.1589474), wk =   0.0005832
        k(  110) = (   0.0000000   0.3178947   0.2119298), wk =   0.0005832
        k(  111) = (   0.0000000   0.3178947   0.2649123), wk =   0.0005832
        k(  112) = (   0.0000000   0.3178947   0.3178947), wk =   0.0005832
        k(  113) = (   0.0000000   0.3178947   0.3708772), wk =   0.0005832
        k(  114) = (   0.0000000   0.3178947   0.4238596), wk =   0.0005832
        k(  115) = (   0.0000000   0.3178947   0.4768421), wk =   0.0005832
        k(  116) = (   0.0000000   0.3178947  -0.4768421), wk =   0.0005832
        k(  117) = (   0.0000000   0.3178947  -0.4238596), wk =   0.0005832
        k(  118) = (   0.0000000   0.3178947  -0.3708772), wk =   0.0005832
        k(  119) = (   0.0000000   0.3178947  -0.3178947), wk =   0.0005832
        k(  120) = (   0.0000000   0.3178947  -0.2649123), wk =   0.0005832
        k(  121) = (   0.0000000   0.3178947  -0.2119298), wk =   0.0005832
        k(  122) = (   0.0000000   0.3178947  -0.1589474), wk =   0.0005832
        k(  123) = (   0.0000000   0.3178947  -0.1059649), wk =   0.0005832
        k(  124) = (   0.0000000   0.3178947  -0.0529825), wk =   0.0005832
        k(  125) = (   0.0000000   0.3708772   0.0000000), wk =   0.0005832
        k(  126) = (   0.0000000   0.3708772   0.0529825), wk =   0.0005832
        k(  127) = (   0.0000000   0.3708772   0.1059649), wk =   0.0005832
        k(  128) = (   0.0000000   0.3708772   0.1589474), wk =   0.0005832
        k(  129) = (   0.0000000   0.3708772   0.2119298), wk =   0.0005832
        k(  130) = (   0.0000000   0.3708772   0.2649123), wk =   0.0005832
        k(  131) = (   0.0000000   0.3708772   0.3178947), wk =   0.0005832
        k(  132) = (   0.0000000   0.3708772   0.3708772), wk =   0.0005832
        k(  133) = (   0.0000000   0.3708772   0.4238596), wk =   0.0005832
        k(  134) = (   0.0000000   0.3708772   0.4768421), wk =   0.0005832
        k(  135) = (   0.0000000   0.3708772  -0.4768421), wk =   0.0005832
        k(  136) = (   0.0000000   0.3708772  -0.4238596), wk =   0.0005832
        k(  137) = (   0.0000000   0.3708772  -0.3708772), wk =   0.0005832
        k(  138) = (   0.0000000   0.3708772  -0.3178947), wk =   0.0005832
        k(  139) = (   0.0000000   0.3708772  -0.2649123), wk =   0.0005832
        k(  140) = (   0.0000000   0.3708772  -0.2119298), wk =   0.0005832
        k(  141) = (   0.0000000   0.3708772  -0.1589474), wk =   0.0005832
        k(  142) = (   0.0000000   0.3708772  -0.1059649), wk =   0.0005832
        k(  143) = (   0.0000000   0.3708772  -0.0529825), wk =   0.0005832
        k(  144) = (   0.0000000   0.4238596   0.0000000), wk =   0.0005832
        k(  145) = (   0.0000000   0.4238596   0.0529825), wk =   0.0005832
        k(  146) = (   0.0000000   0.4238596   0.1059649), wk =   0.0005832
        k(  147) = (   0.0000000   0.4238596   0.1589474), wk =   0.0005832
        k(  148) = (   0.0000000   0.4238596   0.2119298), wk =   0.0005832
        k(  149) = (   0.0000000   0.4238596   0.2649123), wk =   0.0005832
        k(  150) = (   0.0000000   0.4238596   0.3178947), wk =   0.0005832
        k(  151) = (   0.0000000   0.4238596   0.3708772), wk =   0.0005832
        k(  152) = (   0.0000000   0.4238596   0.4238596), wk =   0.0005832
        k(  153) = (   0.0000000   0.4238596   0.4768421), wk =   0.0005832
        k(  154) = (   0.0000000   0.4238596  -0.4768421), wk =   0.0005832
        k(  155) = (   0.0000000   0.4238596  -0.4238596), wk =   0.0005832
        k(  156) = (   0.0000000   0.4238596  -0.3708772), wk =   0.0005832
        k(  157) = (   0.0000000   0.4238596  -0.3178947), wk =   0.0005832
        k(  158) = (   0.0000000   0.4238596  -0.2649123), wk =   0.0005832
        k(  159) = (   0.0000000   0.4238596  -0.2119298), wk =   0.0005832
        k(  160) = (   0.0000000   0.4238596  -0.1589474), wk =   0.0005832
        k(  161) = (   0.0000000   0.4238596  -0.1059649), wk =   0.0005832
        k(  162) = (   0.0000000   0.4238596  -0.0529825), wk =   0.0005832
        k(  163) = (   0.0000000   0.4768421   0.0000000), wk =   0.0005832
        k(  164) = (   0.0000000   0.4768421   0.0529825), wk =   0.0005832
        k(  165) = (   0.0000000   0.4768421   0.1059649), wk =   0.0005832
        k(  166) = (   0.0000000   0.4768421   0.1589474), wk =   0.0005832
        k(  167) = (   0.0000000   0.4768421   0.2119298), wk =   0.0005832
        k(  168) = (   0.0000000   0.4768421   0.2649123), wk =   0.0005832
        k(  169) = (   0.0000000   0.4768421   0.3178947), wk =   0.0005832
        k(  170) = (   0.0000000   0.4768421   0.3708772), wk =   0.0005832
        k(  171) = (   0.0000000   0.4768421   0.4238596), wk =   0.0005832
        k(  172) = (   0.0000000   0.4768421   0.4768421), wk =   0.0005832
        k(  173) = (   0.0000000   0.4768421  -0.4768421), wk =   0.0005832
        k(  174) = (   0.0000000   0.4768421  -0.4238596), wk =   0.0005832
        k(  175) = (   0.0000000   0.4768421  -0.3708772), wk =   0.0005832
        k(  176) = (   0.0000000   0.4768421  -0.3178947), wk =   0.0005832
        k(  177) = (   0.0000000   0.4768421  -0.2649123), wk =   0.0005832
        k(  178) = (   0.0000000   0.4768421  -0.2119298), wk =   0.0005832
        k(  179) = (   0.0000000   0.4768421  -0.1589474), wk =   0.0005832
        k(  180) = (   0.0000000   0.4768421  -0.1059649), wk =   0.0005832
        k(  181) = (   0.0000000   0.4768421  -0.0529825), wk =   0.0005832
        k(  182) = (   0.0526316   0.0000000   0.0000000), wk =   0.0005832
        k(  183) = (   0.0526316   0.0000000   0.0529825), wk =   0.0005832
        k(  184) = (   0.0526316   0.0000000   0.1059649), wk =   0.0005832
        k(  185) = (   0.0526316   0.0000000   0.1589474), wk =   0.0005832
        k(  186) = (   0.0526316   0.0000000   0.2119298), wk =   0.0005832
        k(  187) = (   0.0526316   0.0000000   0.2649123), wk =   0.0005832
        k(  188) = (   0.0526316   0.0000000   0.3178947), wk =   0.0005832
        k(  189) = (   0.0526316   0.0000000   0.3708772), wk =   0.0005832
        k(  190) = (   0.0526316   0.0000000   0.4238596), wk =   0.0005832
        k(  191) = (   0.0526316   0.0000000   0.4768421), wk =   0.0005832
        k(  192) = (   0.0526316   0.0000000  -0.4768421), wk =   0.0005832
        k(  193) = (   0.0526316   0.0000000  -0.4238596), wk =   0.0005832
        k(  194) = (   0.0526316   0.0000000  -0.3708772), wk =   0.0005832
        k(  195) = (   0.0526316   0.0000000  -0.3178947), wk =   0.0005832
        k(  196) = (   0.0526316   0.0000000  -0.2649123), wk =   0.0005832
        k(  197) = (   0.0526316   0.0000000  -0.2119298), wk =   0.0005832
        k(  198) = (   0.0526316   0.0000000  -0.1589474), wk =   0.0005832
        k(  199) = (   0.0526316   0.0000000  -0.1059649), wk =   0.0005832
        k(  200) = (   0.0526316   0.0000000  -0.0529825), wk =   0.0005832
        k(  201) = (   0.0526316   0.0529825   0.0000000), wk =   0.0005832
        k(  202) = (   0.0526316   0.0529825   0.0529825), wk =   0.0005832
        k(  203) = (   0.0526316   0.0529825   0.1059649), wk =   0.0005832
        k(  204) = (   0.0526316   0.0529825   0.1589474), wk =   0.0005832
        k(  205) = (   0.0526316   0.0529825   0.2119298), wk =   0.0005832
        k(  206) = (   0.0526316   0.0529825   0.2649123), wk =   0.0005832
        k(  207) = (   0.0526316   0.0529825   0.3178947), wk =   0.0005832
        k(  208) = (   0.0526316   0.0529825   0.3708772), wk =   0.0005832
        k(  209) = (   0.0526316   0.0529825   0.4238596), wk =   0.0005832
        k(  210) = (   0.0526316   0.0529825   0.4768421), wk =   0.0005832
        k(  211) = (   0.0526316   0.0529825  -0.4768421), wk =   0.0005832
        k(  212) = (   0.0526316   0.0529825  -0.4238596), wk =   0.0005832
        k(  213) = (   0.0526316   0.0529825  -0.3708772), wk =   0.0005832
        k(  214) = (   0.0526316   0.0529825  -0.3178947), wk =   0.0005832
        k(  215) = (   0.0526316   0.0529825  -0.2649123), wk =   0.0005832
        k(  216) = (   0.0526316   0.0529825  -0.2119298), wk =   0.0005832
        k(  217) = (   0.0526316   0.0529825  -0.1589474), wk =   0.0005832
        k(  218) = (   0.0526316   0.0529825  -0.1059649), wk =   0.0005832
        k(  219) = (   0.0526316   0.0529825  -0.0529825), wk =   0.0005832
        k(  220) = (   0.0526316   0.1059649   0.0000000), wk =   0.0005832
        k(  221) = (   0.0526316   0.1059649   0.0529825), wk =   0.0005832
        k(  222) = (   0.0526316   0.1059649   0.1059649), wk =   0.0005832
        k(  223) = (   0.0526316   0.1059649   0.1589474), wk =   0.0005832
        k(  224) = (   0.0526316   0.1059649   0.2119298), wk =   0.0005832
        k(  225) = (   0.0526316   0.1059649   0.2649123), wk =   0.0005832
        k(  226) = (   0.0526316   0.1059649   0.3178947), wk =   0.0005832
        k(  227) = (   0.0526316   0.1059649   0.3708772), wk =   0.0005832
        k(  228) = (   0.0526316   0.1059649   0.4238596), wk =   0.0005832
        k(  229) = (   0.0526316   0.1059649   0.4768421), wk =   0.0005832
        k(  230) = (   0.0526316   0.1059649  -0.4768421), wk =   0.0005832
        k(  231) = (   0.0526316   0.1059649  -0.4238596), wk =   0.0005832
        k(  232) = (   0.0526316   0.1059649  -0.3708772), wk =   0.0005832
        k(  233) = (   0.0526316   0.1059649  -0.3178947), wk =   0.0005832
        k(  234) = (   0.0526316   0.1059649  -0.2649123), wk =   0.0005832
        k(  235) = (   0.0526316   0.1059649  -0.2119298), wk =   0.0005832
        k(  236) = (   0.0526316   0.1059649  -0.1589474), wk =   0.0005832
        k(  237) = (   0.0526316   0.1059649  -0.1059649), wk =   0.0005832
        k(  238) = (   0.0526316   0.1059649  -0.0529825), wk =   0.0005832
        k(  239) = (   0.0526316   0.1589474   0.0000000), wk =   0.0005832
        k(  240) = (   0.0526316   0.1589474   0.0529825), wk =   0.0005832
        k(  241) = (   0.0526316   0.1589474   0.1059649), wk =   0.0005832
        k(  242) = (   0.0526316   0.1589474   0.1589474), wk =   0.0005832
        k(  243) = (   0.0526316   0.1589474   0.2119298), wk =   0.0005832
        k(  244) = (   0.0526316   0.1589474   0.2649123), wk =   0.0005832
        k(  245) = (   0.0526316   0.1589474   0.3178947), wk =   0.0005832
        k(  246) = (   0.0526316   0.1589474   0.3708772), wk =   0.0005832
        k(  247) = (   0.0526316   0.1589474   0.4238596), wk =   0.0005832
        k(  248) = (   0.0526316   0.1589474   0.4768421), wk =   0.0005832
        k(  249) = (   0.0526316   0.1589474  -0.4768421), wk =   0.0005832
        k(  250) = (   0.0526316   0.1589474  -0.4238596), wk =   0.0005832
        k(  251) = (   0.0526316   0.1589474  -0.3708772), wk =   0.0005832
        k(  252) = (   0.0526316   0.1589474  -0.3178947), wk =   0.0005832
        k(  253) = (   0.0526316   0.1589474  -0.2649123), wk =   0.0005832
        k(  254) = (   0.0526316   0.1589474  -0.2119298), wk =   0.0005832
        k(  255) = (   0.0526316   0.1589474  -0.1589474), wk =   0.0005832
        k(  256) = (   0.0526316   0.1589474  -0.1059649), wk =   0.0005832
        k(  257) = (   0.0526316   0.1589474  -0.0529825), wk =   0.0005832
        k(  258) = (   0.0526316   0.2119298   0.0000000), wk =   0.0005832
        k(  259) = (   0.0526316   0.2119298   0.0529825), wk =   0.0005832
        k(  260) = (   0.0526316   0.2119298   0.1059649), wk =   0.0005832
        k(  261) = (   0.0526316   0.2119298   0.1589474), wk =   0.0005832
        k(  262) = (   0.0526316   0.2119298   0.2119298), wk =   0.0005832
        k(  263) = (   0.0526316   0.2119298   0.2649123), wk =   0.0005832
        k(  264) = (   0.0526316   0.2119298   0.3178947), wk =   0.0005832
        k(  265) = (   0.0526316   0.2119298   0.3708772), wk =   0.0005832
        k(  266) = (   0.0526316   0.2119298   0.4238596), wk =   0.0005832
        k(  267) = (   0.0526316   0.2119298   0.4768421), wk =   0.0005832
        k(  268) = (   0.0526316   0.2119298  -0.4768421), wk =   0.0005832
        k(  269) = (   0.0526316   0.2119298  -0.4238596), wk =   0.0005832
        k(  270) = (   0.0526316   0.2119298  -0.3708772), wk =   0.0005832
        k(  271) = (   0.0526316   0.2119298  -0.3178947), wk =   0.0005832
        k(  272) = (   0.0526316   0.2119298  -0.2649123), wk =   0.0005832
        k(  273) = (   0.0526316   0.2119298  -0.2119298), wk =   0.0005832
        k(  274) = (   0.0526316   0.2119298  -0.1589474), wk =   0.0005832
        k(  275) = (   0.0526316   0.2119298  -0.1059649), wk =   0.0005832
        k(  276) = (   0.0526316   0.2119298  -0.0529825), wk =   0.0005832
        k(  277) = (   0.0526316   0.2649123   0.0000000), wk =   0.0005832
        k(  278) = (   0.0526316   0.2649123   0.0529825), wk =   0.0005832
        k(  279) = (   0.0526316   0.2649123   0.1059649), wk =   0.0005832
        k(  280) = (   0.0526316   0.2649123   0.1589474), wk =   0.0005832
        k(  281) = (   0.0526316   0.2649123   0.2119298), wk =   0.0005832
        k(  282) = (   0.0526316   0.2649123   0.2649123), wk =   0.0005832
        k(  283) = (   0.0526316   0.2649123   0.3178947), wk =   0.0005832
        k(  284) = (   0.0526316   0.2649123   0.3708772), wk =   0.0005832
        k(  285) = (   0.0526316   0.2649123   0.4238596), wk =   0.0005832
        k(  286) = (   0.0526316   0.2649123   0.4768421), wk =   0.0005832
        k(  287) = (   0.0526316   0.2649123  -0.4768421), wk =   0.0005832
        k(  288) = (   0.0526316   0.2649123  -0.4238596), wk =   0.0005832
        k(  289) = (   0.0526316   0.2649123  -0.3708772), wk =   0.0005832
        k(  290) = (   0.0526316   0.2649123  -0.3178947), wk =   0.0005832
        k(  291) = (   0.0526316   0.2649123  -0.2649123), wk =   0.0005832
        k(  292) = (   0.0526316   0.2649123  -0.2119298), wk =   0.0005832
        k(  293) = (   0.0526316   0.2649123  -0.1589474), wk =   0.0005832
        k(  294) = (   0.0526316   0.2649123  -0.1059649), wk =   0.0005832
        k(  295) = (   0.0526316   0.2649123  -0.0529825), wk =   0.0005832
        k(  296) = (   0.0526316   0.3178947   0.0000000), wk =   0.0005832
        k(  297) = (   0.0526316   0.3178947   0.0529825), wk =   0.0005832
        k(  298) = (   0.0526316   0.3178947   0.1059649), wk =   0.0005832
        k(  299) = (   0.0526316   0.3178947   0.1589474), wk =   0.0005832
        k(  300) = (   0.0526316   0.3178947   0.2119298), wk =   0.0005832
        k(  301) = (   0.0526316   0.3178947   0.2649123), wk =   0.0005832
        k(  302) = (   0.0526316   0.3178947   0.3178947), wk =   0.0005832
        k(  303) = (   0.0526316   0.3178947   0.3708772), wk =   0.0005832
        k(  304) = (   0.0526316   0.3178947   0.4238596), wk =   0.0005832
        k(  305) = (   0.0526316   0.3178947   0.4768421), wk =   0.0005832
        k(  306) = (   0.0526316   0.3178947  -0.4768421), wk =   0.0005832
        k(  307) = (   0.0526316   0.3178947  -0.4238596), wk =   0.0005832
        k(  308) = (   0.0526316   0.3178947  -0.3708772), wk =   0.0005832
        k(  309) = (   0.0526316   0.3178947  -0.3178947), wk =   0.0005832
        k(  310) = (   0.0526316   0.3178947  -0.2649123), wk =   0.0005832
        k(  311) = (   0.0526316   0.3178947  -0.2119298), wk =   0.0005832
        k(  312) = (   0.0526316   0.3178947  -0.1589474), wk =   0.0005832
        k(  313) = (   0.0526316   0.3178947  -0.1059649), wk =   0.0005832
        k(  314) = (   0.0526316   0.3178947  -0.0529825), wk =   0.0005832
        k(  315) = (   0.0526316   0.3708772   0.0000000), wk =   0.0005832
        k(  316) = (   0.0526316   0.3708772   0.0529825), wk =   0.0005832
        k(  317) = (   0.0526316   0.3708772   0.1059649), wk =   0.0005832
        k(  318) = (   0.0526316   0.3708772   0.1589474), wk =   0.0005832
        k(  319) = (   0.0526316   0.3708772   0.2119298), wk =   0.0005832
        k(  320) = (   0.0526316   0.3708772   0.2649123), wk =   0.0005832
        k(  321) = (   0.0526316   0.3708772   0.3178947), wk =   0.0005832
        k(  322) = (   0.0526316   0.3708772   0.3708772), wk =   0.0005832
        k(  323) = (   0.0526316   0.3708772   0.4238596), wk =   0.0005832
        k(  324) = (   0.0526316   0.3708772   0.4768421), wk =   0.0005832
        k(  325) = (   0.0526316   0.3708772  -0.4768421), wk =   0.0005832
        k(  326) = (   0.0526316   0.3708772  -0.4238596), wk =   0.0005832
        k(  327) = (   0.0526316   0.3708772  -0.3708772), wk =   0.0005832
        k(  328) = (   0.0526316   0.3708772  -0.3178947), wk =   0.0005832
        k(  329) = (   0.0526316   0.3708772  -0.2649123), wk =   0.0005832
        k(  330) = (   0.0526316   0.3708772  -0.2119298), wk =   0.0005832
        k(  331) = (   0.0526316   0.3708772  -0.1589474), wk =   0.0005832
        k(  332) = (   0.0526316   0.3708772  -0.1059649), wk =   0.0005832
        k(  333) = (   0.0526316   0.3708772  -0.0529825), wk =   0.0005832
        k(  334) = (   0.0526316   0.4238596   0.0000000), wk =   0.0005832
        k(  335) = (   0.0526316   0.4238596   0.0529825), wk =   0.0005832
        k(  336) = (   0.0526316   0.4238596   0.1059649), wk =   0.0005832
        k(  337) = (   0.0526316   0.4238596   0.1589474), wk =   0.0005832
        k(  338) = (   0.0526316   0.4238596   0.2119298), wk =   0.0005832
        k(  339) = (   0.0526316   0.4238596   0.2649123), wk =   0.0005832
        k(  340) = (   0.0526316   0.4238596   0.3178947), wk =   0.0005832
        k(  341) = (   0.0526316   0.4238596   0.3708772), wk =   0.0005832
        k(  342) = (   0.0526316   0.4238596   0.4238596), wk =   0.0005832
        k(  343) = (   0.0526316   0.4238596   0.4768421), wk =   0.0005832
        k(  344) = (   0.0526316   0.4238596  -0.4768421), wk =   0.0005832
        k(  345) = (   0.0526316   0.4238596  -0.4238596), wk =   0.0005832
        k(  346) = (   0.0526316   0.4238596  -0.3708772), wk =   0.0005832
        k(  347) = (   0.0526316   0.4238596  -0.3178947), wk =   0.0005832
        k(  348) = (   0.0526316   0.4238596  -0.2649123), wk =   0.0005832
        k(  349) = (   0.0526316   0.4238596  -0.2119298), wk =   0.0005832
        k(  350) = (   0.0526316   0.4238596  -0.1589474), wk =   0.0005832
        k(  351) = (   0.0526316   0.4238596  -0.1059649), wk =   0.0005832
        k(  352) = (   0.0526316   0.4238596  -0.0529825), wk =   0.0005832
        k(  353) = (   0.0526316   0.4768421   0.0000000), wk =   0.0005832
        k(  354) = (   0.0526316   0.4768421   0.0529825), wk =   0.0005832
        k(  355) = (   0.0526316   0.4768421   0.1059649), wk =   0.0005832
        k(  356) = (   0.0526316   0.4768421   0.1589474), wk =   0.0005832
        k(  357) = (   0.0526316   0.4768421   0.2119298), wk =   0.0005832
        k(  358) = (   0.0526316   0.4768421   0.2649123), wk =   0.0005832
        k(  359) = (   0.0526316   0.4768421   0.3178947), wk =   0.0005832
        k(  360) = (   0.0526316   0.4768421   0.3708772), wk =   0.0005832
        k(  361) = (   0.0526316   0.4768421   0.4238596), wk =   0.0005832
        k(  362) = (   0.0526316   0.4768421   0.4768421), wk =   0.0005832
        k(  363) = (   0.0526316   0.4768421  -0.4768421), wk =   0.0005832
        k(  364) = (   0.0526316   0.4768421  -0.4238596), wk =   0.0005832
        k(  365) = (   0.0526316   0.4768421  -0.3708772), wk =   0.0005832
        k(  366) = (   0.0526316   0.4768421  -0.3178947), wk =   0.0005832
        k(  367) = (   0.0526316   0.4768421  -0.2649123), wk =   0.0005832
        k(  368) = (   0.0526316   0.4768421  -0.2119298), wk =   0.0005832
        k(  369) = (   0.0526316   0.4768421  -0.1589474), wk =   0.0005832
        k(  370) = (   0.0526316   0.4768421  -0.1059649), wk =   0.0005832
        k(  371) = (   0.0526316   0.4768421  -0.0529825), wk =   0.0005832
        k(  372) = (   0.0526316  -0.4768421   0.0000000), wk =   0.0005832
        k(  373) = (   0.0526316  -0.4768421   0.0529825), wk =   0.0005832
        k(  374) = (   0.0526316  -0.4768421   0.1059649), wk =   0.0005832
        k(  375) = (   0.0526316  -0.4768421   0.1589474), wk =   0.0005832
        k(  376) = (   0.0526316  -0.4768421   0.2119298), wk =   0.0005832
        k(  377) = (   0.0526316  -0.4768421   0.2649123), wk =   0.0005832
        k(  378) = (   0.0526316  -0.4768421   0.3178947), wk =   0.0005832
        k(  379) = (   0.0526316  -0.4768421   0.3708772), wk =   0.0005832
        k(  380) = (   0.0526316  -0.4768421   0.4238596), wk =   0.0005832
        k(  381) = (   0.0526316  -0.4768421   0.4768421), wk =   0.0005832
        k(  382) = (   0.0526316  -0.4768421  -0.4768421), wk =   0.0005832
        k(  383) = (   0.0526316  -0.4768421  -0.4238596), wk =   0.0005832
        k(  384) = (   0.0526316  -0.4768421  -0.3708772), wk =   0.0005832
        k(  385) = (   0.0526316  -0.4768421  -0.3178947), wk =   0.0005832
        k(  386) = (   0.0526316  -0.4768421  -0.2649123), wk =   0.0005832
        k(  387) = (   0.0526316  -0.4768421  -0.2119298), wk =   0.0005832
        k(  388) = (   0.0526316  -0.4768421  -0.1589474), wk =   0.0005832
        k(  389) = (   0.0526316  -0.4768421  -0.1059649), wk =   0.0005832
        k(  390) = (   0.0526316  -0.4768421  -0.0529825), wk =   0.0005832
        k(  391) = (   0.0526316  -0.4238596   0.0000000), wk =   0.0005832
        k(  392) = (   0.0526316  -0.4238596   0.0529825), wk =   0.0005832
        k(  393) = (   0.0526316  -0.4238596   0.1059649), wk =   0.0005832
        k(  394) = (   0.0526316  -0.4238596   0.1589474), wk =   0.0005832
        k(  395) = (   0.0526316  -0.4238596   0.2119298), wk =   0.0005832
        k(  396) = (   0.0526316  -0.4238596   0.2649123), wk =   0.0005832
        k(  397) = (   0.0526316  -0.4238596   0.3178947), wk =   0.0005832
        k(  398) = (   0.0526316  -0.4238596   0.3708772), wk =   0.0005832
        k(  399) = (   0.0526316  -0.4238596   0.4238596), wk =   0.0005832
        k(  400) = (   0.0526316  -0.4238596   0.4768421), wk =   0.0005832
        k(  401) = (   0.0526316  -0.4238596  -0.4768421), wk =   0.0005832
        k(  402) = (   0.0526316  -0.4238596  -0.4238596), wk =   0.0005832
        k(  403) = (   0.0526316  -0.4238596  -0.3708772), wk =   0.0005832
        k(  404) = (   0.0526316  -0.4238596  -0.3178947), wk =   0.0005832
        k(  405) = (   0.0526316  -0.4238596  -0.2649123), wk =   0.0005832
        k(  406) = (   0.0526316  -0.4238596  -0.2119298), wk =   0.0005832
        k(  407) = (   0.0526316  -0.4238596  -0.1589474), wk =   0.0005832
        k(  408) = (   0.0526316  -0.4238596  -0.1059649), wk =   0.0005832
        k(  409) = (   0.0526316  -0.4238596  -0.0529825), wk =   0.0005832
        k(  410) = (   0.0526316  -0.3708772   0.0000000), wk =   0.0005832
        k(  411) = (   0.0526316  -0.3708772   0.0529825), wk =   0.0005832
        k(  412) = (   0.0526316  -0.3708772   0.1059649), wk =   0.0005832
        k(  413) = (   0.0526316  -0.3708772   0.1589474), wk =   0.0005832
        k(  414) = (   0.0526316  -0.3708772   0.2119298), wk =   0.0005832
        k(  415) = (   0.0526316  -0.3708772   0.2649123), wk =   0.0005832
        k(  416) = (   0.0526316  -0.3708772   0.3178947), wk =   0.0005832
        k(  417) = (   0.0526316  -0.3708772   0.3708772), wk =   0.0005832
        k(  418) = (   0.0526316  -0.3708772   0.4238596), wk =   0.0005832
        k(  419) = (   0.0526316  -0.3708772   0.4768421), wk =   0.0005832
        k(  420) = (   0.0526316  -0.3708772  -0.4768421), wk =   0.0005832
        k(  421) = (   0.0526316  -0.3708772  -0.4238596), wk =   0.0005832
        k(  422) = (   0.0526316  -0.3708772  -0.3708772), wk =   0.0005832
        k(  423) = (   0.0526316  -0.3708772  -0.3178947), wk =   0.0005832
        k(  424) = (   0.0526316  -0.3708772  -0.2649123), wk =   0.0005832
        k(  425) = (   0.0526316  -0.3708772  -0.2119298), wk =   0.0005832
        k(  426) = (   0.0526316  -0.3708772  -0.1589474), wk =   0.0005832
        k(  427) = (   0.0526316  -0.3708772  -0.1059649), wk =   0.0005832
        k(  428) = (   0.0526316  -0.3708772  -0.0529825), wk =   0.0005832
        k(  429) = (   0.0526316  -0.3178947   0.0000000), wk =   0.0005832
        k(  430) = (   0.0526316  -0.3178947   0.0529825), wk =   0.0005832
        k(  431) = (   0.0526316  -0.3178947   0.1059649), wk =   0.0005832
        k(  432) = (   0.0526316  -0.3178947   0.1589474), wk =   0.0005832
        k(  433) = (   0.0526316  -0.3178947   0.2119298), wk =   0.0005832
        k(  434) = (   0.0526316  -0.3178947   0.2649123), wk =   0.0005832
        k(  435) = (   0.0526316  -0.3178947   0.3178947), wk =   0.0005832
        k(  436) = (   0.0526316  -0.3178947   0.3708772), wk =   0.0005832
        k(  437) = (   0.0526316  -0.3178947   0.4238596), wk =   0.0005832
        k(  438) = (   0.0526316  -0.3178947   0.4768421), wk =   0.0005832
        k(  439) = (   0.0526316  -0.3178947  -0.4768421), wk =   0.0005832
        k(  440) = (   0.0526316  -0.3178947  -0.4238596), wk =   0.0005832
        k(  441) = (   0.0526316  -0.3178947  -0.3708772), wk =   0.0005832
        k(  442) = (   0.0526316  -0.3178947  -0.3178947), wk =   0.0005832
        k(  443) = (   0.0526316  -0.3178947  -0.2649123), wk =   0.0005832
        k(  444) = (   0.0526316  -0.3178947  -0.2119298), wk =   0.0005832
        k(  445) = (   0.0526316  -0.3178947  -0.1589474), wk =   0.0005832
        k(  446) = (   0.0526316  -0.3178947  -0.1059649), wk =   0.0005832
        k(  447) = (   0.0526316  -0.3178947  -0.0529825), wk =   0.0005832
        k(  448) = (   0.0526316  -0.2649123   0.0000000), wk =   0.0005832
        k(  449) = (   0.0526316  -0.2649123   0.0529825), wk =   0.0005832
        k(  450) = (   0.0526316  -0.2649123   0.1059649), wk =   0.0005832
        k(  451) = (   0.0526316  -0.2649123   0.1589474), wk =   0.0005832
        k(  452) = (   0.0526316  -0.2649123   0.2119298), wk =   0.0005832
        k(  453) = (   0.0526316  -0.2649123   0.2649123), wk =   0.0005832
        k(  454) = (   0.0526316  -0.2649123   0.3178947), wk =   0.0005832
        k(  455) = (   0.0526316  -0.2649123   0.3708772), wk =   0.0005832
        k(  456) = (   0.0526316  -0.2649123   0.4238596), wk =   0.0005832
        k(  457) = (   0.0526316  -0.2649123   0.4768421), wk =   0.0005832
        k(  458) = (   0.0526316  -0.2649123  -0.4768421), wk =   0.0005832
        k(  459) = (   0.0526316  -0.2649123  -0.4238596), wk =   0.0005832
        k(  460) = (   0.0526316  -0.2649123  -0.3708772), wk =   0.0005832
        k(  461) = (   0.0526316  -0.2649123  -0.3178947), wk =   0.0005832
        k(  462) = (   0.0526316  -0.2649123  -0.2649123), wk =   0.0005832
        k(  463) = (   0.0526316  -0.2649123  -0.2119298), wk =   0.0005832
        k(  464) = (   0.0526316  -0.2649123  -0.1589474), wk =   0.0005832
        k(  465) = (   0.0526316  -0.2649123  -0.1059649), wk =   0.0005832
        k(  466) = (   0.0526316  -0.2649123  -0.0529825), wk =   0.0005832
        k(  467) = (   0.0526316  -0.2119298   0.0000000), wk =   0.0005832
        k(  468) = (   0.0526316  -0.2119298   0.0529825), wk =   0.0005832
        k(  469) = (   0.0526316  -0.2119298   0.1059649), wk =   0.0005832
        k(  470) = (   0.0526316  -0.2119298   0.1589474), wk =   0.0005832
        k(  471) = (   0.0526316  -0.2119298   0.2119298), wk =   0.0005832
        k(  472) = (   0.0526316  -0.2119298   0.2649123), wk =   0.0005832
        k(  473) = (   0.0526316  -0.2119298   0.3178947), wk =   0.0005832
        k(  474) = (   0.0526316  -0.2119298   0.3708772), wk =   0.0005832
        k(  475) = (   0.0526316  -0.2119298   0.4238596), wk =   0.0005832
        k(  476) = (   0.0526316  -0.2119298   0.4768421), wk =   0.0005832
        k(  477) = (   0.0526316  -0.2119298  -0.4768421), wk =   0.0005832
        k(  478) = (   0.0526316  -0.2119298  -0.4238596), wk =   0.0005832
        k(  479) = (   0.0526316  -0.2119298  -0.3708772), wk =   0.0005832
        k(  480) = (   0.0526316  -0.2119298  -0.3178947), wk =   0.0005832
        k(  481) = (   0.0526316  -0.2119298  -0.2649123), wk =   0.0005832
        k(  482) = (   0.0526316  -0.2119298  -0.2119298), wk =   0.0005832
        k(  483) = (   0.0526316  -0.2119298  -0.1589474), wk =   0.0005832
        k(  484) = (   0.0526316  -0.2119298  -0.1059649), wk =   0.0005832
        k(  485) = (   0.0526316  -0.2119298  -0.0529825), wk =   0.0005832
        k(  486) = (   0.0526316  -0.1589474   0.0000000), wk =   0.0005832
        k(  487) = (   0.0526316  -0.1589474   0.0529825), wk =   0.0005832
        k(  488) = (   0.0526316  -0.1589474   0.1059649), wk =   0.0005832
        k(  489) = (   0.0526316  -0.1589474   0.1589474), wk =   0.0005832
        k(  490) = (   0.0526316  -0.1589474   0.2119298), wk =   0.0005832
        k(  491) = (   0.0526316  -0.1589474   0.2649123), wk =   0.0005832
        k(  492) = (   0.0526316  -0.1589474   0.3178947), wk =   0.0005832
        k(  493) = (   0.0526316  -0.1589474   0.3708772), wk =   0.0005832
        k(  494) = (   0.0526316  -0.1589474   0.4238596), wk =   0.0005832
        k(  495) = (   0.0526316  -0.1589474   0.4768421), wk =   0.0005832
        k(  496) = (   0.0526316  -0.1589474  -0.4768421), wk =   0.0005832
        k(  497) = (   0.0526316  -0.1589474  -0.4238596), wk =   0.0005832
        k(  498) = (   0.0526316  -0.1589474  -0.3708772), wk =   0.0005832
        k(  499) = (   0.0526316  -0.1589474  -0.3178947), wk =   0.0005832
        k(  500) = (   0.0526316  -0.1589474  -0.2649123), wk =   0.0005832
        k(  501) = (   0.0526316  -0.1589474  -0.2119298), wk =   0.0005832
        k(  502) = (   0.0526316  -0.1589474  -0.1589474), wk =   0.0005832
        k(  503) = (   0.0526316  -0.1589474  -0.1059649), wk =   0.0005832
        k(  504) = (   0.0526316  -0.1589474  -0.0529825), wk =   0.0005832
        k(  505) = (   0.0526316  -0.1059649   0.0000000), wk =   0.0005832
        k(  506) = (   0.0526316  -0.1059649   0.0529825), wk =   0.0005832
        k(  507) = (   0.0526316  -0.1059649   0.1059649), wk =   0.0005832
        k(  508) = (   0.0526316  -0.1059649   0.1589474), wk =   0.0005832
        k(  509) = (   0.0526316  -0.1059649   0.2119298), wk =   0.0005832
        k(  510) = (   0.0526316  -0.1059649   0.2649123), wk =   0.0005832
        k(  511) = (   0.0526316  -0.1059649   0.3178947), wk =   0.0005832
        k(  512) = (   0.0526316  -0.1059649   0.3708772), wk =   0.0005832
        k(  513) = (   0.0526316  -0.1059649   0.4238596), wk =   0.0005832
        k(  514) = (   0.0526316  -0.1059649   0.4768421), wk =   0.0005832
        k(  515) = (   0.0526316  -0.1059649  -0.4768421), wk =   0.0005832
        k(  516) = (   0.0526316  -0.1059649  -0.4238596), wk =   0.0005832
        k(  517) = (   0.0526316  -0.1059649  -0.3708772), wk =   0.0005832
        k(  518) = (   0.0526316  -0.1059649  -0.3178947), wk =   0.0005832
        k(  519) = (   0.0526316  -0.1059649  -0.2649123), wk =   0.0005832
        k(  520) = (   0.0526316  -0.1059649  -0.2119298), wk =   0.0005832
        k(  521) = (   0.0526316  -0.1059649  -0.1589474), wk =   0.0005832
        k(  522) = (   0.0526316  -0.1059649  -0.1059649), wk =   0.0005832
        k(  523) = (   0.0526316  -0.1059649  -0.0529825), wk =   0.0005832
        k(  524) = (   0.0526316  -0.0529825   0.0000000), wk =   0.0005832
        k(  525) = (   0.0526316  -0.0529825   0.0529825), wk =   0.0005832
        k(  526) = (   0.0526316  -0.0529825   0.1059649), wk =   0.0005832
        k(  527) = (   0.0526316  -0.0529825   0.1589474), wk =   0.0005832
        k(  528) = (   0.0526316  -0.0529825   0.2119298), wk =   0.0005832
        k(  529) = (   0.0526316  -0.0529825   0.2649123), wk =   0.0005832
        k(  530) = (   0.0526316  -0.0529825   0.3178947), wk =   0.0005832
        k(  531) = (   0.0526316  -0.0529825   0.3708772), wk =   0.0005832
        k(  532) = (   0.0526316  -0.0529825   0.4238596), wk =   0.0005832
        k(  533) = (   0.0526316  -0.0529825   0.4768421), wk =   0.0005832
        k(  534) = (   0.0526316  -0.0529825  -0.4768421), wk =   0.0005832
        k(  535) = (   0.0526316  -0.0529825  -0.4238596), wk =   0.0005832
        k(  536) = (   0.0526316  -0.0529825  -0.3708772), wk =   0.0005832
        k(  537) = (   0.0526316  -0.0529825  -0.3178947), wk =   0.0005832
        k(  538) = (   0.0526316  -0.0529825  -0.2649123), wk =   0.0005832
        k(  539) = (   0.0526316  -0.0529825  -0.2119298), wk =   0.0005832
        k(  540) = (   0.0526316  -0.0529825  -0.1589474), wk =   0.0005832
        k(  541) = (   0.0526316  -0.0529825  -0.1059649), wk =   0.0005832
        k(  542) = (   0.0526316  -0.0529825  -0.0529825), wk =   0.0005832
        k(  543) = (   0.1052632   0.0000000   0.0000000), wk =   0.0005832
        k(  544) = (   0.1052632   0.0000000   0.0529825), wk =   0.0005832
        k(  545) = (   0.1052632   0.0000000   0.1059649), wk =   0.0005832
        k(  546) = (   0.1052632   0.0000000   0.1589474), wk =   0.0005832
        k(  547) = (   0.1052632   0.0000000   0.2119298), wk =   0.0005832
        k(  548) = (   0.1052632   0.0000000   0.2649123), wk =   0.0005832
        k(  549) = (   0.1052632   0.0000000   0.3178947), wk =   0.0005832
        k(  550) = (   0.1052632   0.0000000   0.3708772), wk =   0.0005832
        k(  551) = (   0.1052632   0.0000000   0.4238596), wk =   0.0005832
        k(  552) = (   0.1052632   0.0000000   0.4768421), wk =   0.0005832
        k(  553) = (   0.1052632   0.0000000  -0.4768421), wk =   0.0005832
        k(  554) = (   0.1052632   0.0000000  -0.4238596), wk =   0.0005832
        k(  555) = (   0.1052632   0.0000000  -0.3708772), wk =   0.0005832
        k(  556) = (   0.1052632   0.0000000  -0.3178947), wk =   0.0005832
        k(  557) = (   0.1052632   0.0000000  -0.2649123), wk =   0.0005832
        k(  558) = (   0.1052632   0.0000000  -0.2119298), wk =   0.0005832
        k(  559) = (   0.1052632   0.0000000  -0.1589474), wk =   0.0005832
        k(  560) = (   0.1052632   0.0000000  -0.1059649), wk =   0.0005832
        k(  561) = (   0.1052632   0.0000000  -0.0529825), wk =   0.0005832
        k(  562) = (   0.1052632   0.0529825   0.0000000), wk =   0.0005832
        k(  563) = (   0.1052632   0.0529825   0.0529825), wk =   0.0005832
        k(  564) = (   0.1052632   0.0529825   0.1059649), wk =   0.0005832
        k(  565) = (   0.1052632   0.0529825   0.1589474), wk =   0.0005832
        k(  566) = (   0.1052632   0.0529825   0.2119298), wk =   0.0005832
        k(  567) = (   0.1052632   0.0529825   0.2649123), wk =   0.0005832
        k(  568) = (   0.1052632   0.0529825   0.3178947), wk =   0.0005832
        k(  569) = (   0.1052632   0.0529825   0.3708772), wk =   0.0005832
        k(  570) = (   0.1052632   0.0529825   0.4238596), wk =   0.0005832
        k(  571) = (   0.1052632   0.0529825   0.4768421), wk =   0.0005832
        k(  572) = (   0.1052632   0.0529825  -0.4768421), wk =   0.0005832
        k(  573) = (   0.1052632   0.0529825  -0.4238596), wk =   0.0005832
        k(  574) = (   0.1052632   0.0529825  -0.3708772), wk =   0.0005832
        k(  575) = (   0.1052632   0.0529825  -0.3178947), wk =   0.0005832
        k(  576) = (   0.1052632   0.0529825  -0.2649123), wk =   0.0005832
        k(  577) = (   0.1052632   0.0529825  -0.2119298), wk =   0.0005832
        k(  578) = (   0.1052632   0.0529825  -0.1589474), wk =   0.0005832
        k(  579) = (   0.1052632   0.0529825  -0.1059649), wk =   0.0005832
        k(  580) = (   0.1052632   0.0529825  -0.0529825), wk =   0.0005832
        k(  581) = (   0.1052632   0.1059649   0.0000000), wk =   0.0005832
        k(  582) = (   0.1052632   0.1059649   0.0529825), wk =   0.0005832
        k(  583) = (   0.1052632   0.1059649   0.1059649), wk =   0.0005832
        k(  584) = (   0.1052632   0.1059649   0.1589474), wk =   0.0005832
        k(  585) = (   0.1052632   0.1059649   0.2119298), wk =   0.0005832
        k(  586) = (   0.1052632   0.1059649   0.2649123), wk =   0.0005832
        k(  587) = (   0.1052632   0.1059649   0.3178947), wk =   0.0005832
        k(  588) = (   0.1052632   0.1059649   0.3708772), wk =   0.0005832
        k(  589) = (   0.1052632   0.1059649   0.4238596), wk =   0.0005832
        k(  590) = (   0.1052632   0.1059649   0.4768421), wk =   0.0005832
        k(  591) = (   0.1052632   0.1059649  -0.4768421), wk =   0.0005832
        k(  592) = (   0.1052632   0.1059649  -0.4238596), wk =   0.0005832
        k(  593) = (   0.1052632   0.1059649  -0.3708772), wk =   0.0005832
        k(  594) = (   0.1052632   0.1059649  -0.3178947), wk =   0.0005832
        k(  595) = (   0.1052632   0.1059649  -0.2649123), wk =   0.0005832
        k(  596) = (   0.1052632   0.1059649  -0.2119298), wk =   0.0005832
        k(  597) = (   0.1052632   0.1059649  -0.1589474), wk =   0.0005832
        k(  598) = (   0.1052632   0.1059649  -0.1059649), wk =   0.0005832
        k(  599) = (   0.1052632   0.1059649  -0.0529825), wk =   0.0005832
        k(  600) = (   0.1052632   0.1589474   0.0000000), wk =   0.0005832
        k(  601) = (   0.1052632   0.1589474   0.0529825), wk =   0.0005832
        k(  602) = (   0.1052632   0.1589474   0.1059649), wk =   0.0005832
        k(  603) = (   0.1052632   0.1589474   0.1589474), wk =   0.0005832
        k(  604) = (   0.1052632   0.1589474   0.2119298), wk =   0.0005832
        k(  605) = (   0.1052632   0.1589474   0.2649123), wk =   0.0005832
        k(  606) = (   0.1052632   0.1589474   0.3178947), wk =   0.0005832
        k(  607) = (   0.1052632   0.1589474   0.3708772), wk =   0.0005832
        k(  608) = (   0.1052632   0.1589474   0.4238596), wk =   0.0005832
        k(  609) = (   0.1052632   0.1589474   0.4768421), wk =   0.0005832
        k(  610) = (   0.1052632   0.1589474  -0.4768421), wk =   0.0005832
        k(  611) = (   0.1052632   0.1589474  -0.4238596), wk =   0.0005832
        k(  612) = (   0.1052632   0.1589474  -0.3708772), wk =   0.0005832
        k(  613) = (   0.1052632   0.1589474  -0.3178947), wk =   0.0005832
        k(  614) = (   0.1052632   0.1589474  -0.2649123), wk =   0.0005832
        k(  615) = (   0.1052632   0.1589474  -0.2119298), wk =   0.0005832
        k(  616) = (   0.1052632   0.1589474  -0.1589474), wk =   0.0005832
        k(  617) = (   0.1052632   0.1589474  -0.1059649), wk =   0.0005832
        k(  618) = (   0.1052632   0.1589474  -0.0529825), wk =   0.0005832
        k(  619) = (   0.1052632   0.2119298   0.0000000), wk =   0.0005832
        k(  620) = (   0.1052632   0.2119298   0.0529825), wk =   0.0005832
        k(  621) = (   0.1052632   0.2119298   0.1059649), wk =   0.0005832
        k(  622) = (   0.1052632   0.2119298   0.1589474), wk =   0.0005832
        k(  623) = (   0.1052632   0.2119298   0.2119298), wk =   0.0005832
        k(  624) = (   0.1052632   0.2119298   0.2649123), wk =   0.0005832
        k(  625) = (   0.1052632   0.2119298   0.3178947), wk =   0.0005832
        k(  626) = (   0.1052632   0.2119298   0.3708772), wk =   0.0005832
        k(  627) = (   0.1052632   0.2119298   0.4238596), wk =   0.0005832
        k(  628) = (   0.1052632   0.2119298   0.4768421), wk =   0.0005832
        k(  629) = (   0.1052632   0.2119298  -0.4768421), wk =   0.0005832
        k(  630) = (   0.1052632   0.2119298  -0.4238596), wk =   0.0005832
        k(  631) = (   0.1052632   0.2119298  -0.3708772), wk =   0.0005832
        k(  632) = (   0.1052632   0.2119298  -0.3178947), wk =   0.0005832
        k(  633) = (   0.1052632   0.2119298  -0.2649123), wk =   0.0005832
        k(  634) = (   0.1052632   0.2119298  -0.2119298), wk =   0.0005832
        k(  635) = (   0.1052632   0.2119298  -0.1589474), wk =   0.0005832
        k(  636) = (   0.1052632   0.2119298  -0.1059649), wk =   0.0005832
        k(  637) = (   0.1052632   0.2119298  -0.0529825), wk =   0.0005832
        k(  638) = (   0.1052632   0.2649123   0.0000000), wk =   0.0005832
        k(  639) = (   0.1052632   0.2649123   0.0529825), wk =   0.0005832
        k(  640) = (   0.1052632   0.2649123   0.1059649), wk =   0.0005832
        k(  641) = (   0.1052632   0.2649123   0.1589474), wk =   0.0005832
        k(  642) = (   0.1052632   0.2649123   0.2119298), wk =   0.0005832
        k(  643) = (   0.1052632   0.2649123   0.2649123), wk =   0.0005832
        k(  644) = (   0.1052632   0.2649123   0.3178947), wk =   0.0005832
        k(  645) = (   0.1052632   0.2649123   0.3708772), wk =   0.0005832
        k(  646) = (   0.1052632   0.2649123   0.4238596), wk =   0.0005832
        k(  647) = (   0.1052632   0.2649123   0.4768421), wk =   0.0005832
        k(  648) = (   0.1052632   0.2649123  -0.4768421), wk =   0.0005832
        k(  649) = (   0.1052632   0.2649123  -0.4238596), wk =   0.0005832
        k(  650) = (   0.1052632   0.2649123  -0.3708772), wk =   0.0005832
        k(  651) = (   0.1052632   0.2649123  -0.3178947), wk =   0.0005832
        k(  652) = (   0.1052632   0.2649123  -0.2649123), wk =   0.0005832
        k(  653) = (   0.1052632   0.2649123  -0.2119298), wk =   0.0005832
        k(  654) = (   0.1052632   0.2649123  -0.1589474), wk =   0.0005832
        k(  655) = (   0.1052632   0.2649123  -0.1059649), wk =   0.0005832
        k(  656) = (   0.1052632   0.2649123  -0.0529825), wk =   0.0005832
        k(  657) = (   0.1052632   0.3178947   0.0000000), wk =   0.0005832
        k(  658) = (   0.1052632   0.3178947   0.0529825), wk =   0.0005832
        k(  659) = (   0.1052632   0.3178947   0.1059649), wk =   0.0005832
        k(  660) = (   0.1052632   0.3178947   0.1589474), wk =   0.0005832
        k(  661) = (   0.1052632   0.3178947   0.2119298), wk =   0.0005832
        k(  662) = (   0.1052632   0.3178947   0.2649123), wk =   0.0005832
        k(  663) = (   0.1052632   0.3178947   0.3178947), wk =   0.0005832
        k(  664) = (   0.1052632   0.3178947   0.3708772), wk =   0.0005832
        k(  665) = (   0.1052632   0.3178947   0.4238596), wk =   0.0005832
        k(  666) = (   0.1052632   0.3178947   0.4768421), wk =   0.0005832
        k(  667) = (   0.1052632   0.3178947  -0.4768421), wk =   0.0005832
        k(  668) = (   0.1052632   0.3178947  -0.4238596), wk =   0.0005832
        k(  669) = (   0.1052632   0.3178947  -0.3708772), wk =   0.0005832
        k(  670) = (   0.1052632   0.3178947  -0.3178947), wk =   0.0005832
        k(  671) = (   0.1052632   0.3178947  -0.2649123), wk =   0.0005832
        k(  672) = (   0.1052632   0.3178947  -0.2119298), wk =   0.0005832
        k(  673) = (   0.1052632   0.3178947  -0.1589474), wk =   0.0005832
        k(  674) = (   0.1052632   0.3178947  -0.1059649), wk =   0.0005832
        k(  675) = (   0.1052632   0.3178947  -0.0529825), wk =   0.0005832
        k(  676) = (   0.1052632   0.3708772   0.0000000), wk =   0.0005832
        k(  677) = (   0.1052632   0.3708772   0.0529825), wk =   0.0005832
        k(  678) = (   0.1052632   0.3708772   0.1059649), wk =   0.0005832
        k(  679) = (   0.1052632   0.3708772   0.1589474), wk =   0.0005832
        k(  680) = (   0.1052632   0.3708772   0.2119298), wk =   0.0005832
        k(  681) = (   0.1052632   0.3708772   0.2649123), wk =   0.0005832
        k(  682) = (   0.1052632   0.3708772   0.3178947), wk =   0.0005832
        k(  683) = (   0.1052632   0.3708772   0.3708772), wk =   0.0005832
        k(  684) = (   0.1052632   0.3708772   0.4238596), wk =   0.0005832
        k(  685) = (   0.1052632   0.3708772   0.4768421), wk =   0.0005832
        k(  686) = (   0.1052632   0.3708772  -0.4768421), wk =   0.0005832
        k(  687) = (   0.1052632   0.3708772  -0.4238596), wk =   0.0005832
        k(  688) = (   0.1052632   0.3708772  -0.3708772), wk =   0.0005832
        k(  689) = (   0.1052632   0.3708772  -0.3178947), wk =   0.0005832
        k(  690) = (   0.1052632   0.3708772  -0.2649123), wk =   0.0005832
        k(  691) = (   0.1052632   0.3708772  -0.2119298), wk =   0.0005832
        k(  692) = (   0.1052632   0.3708772  -0.1589474), wk =   0.0005832
        k(  693) = (   0.1052632   0.3708772  -0.1059649), wk =   0.0005832
        k(  694) = (   0.1052632   0.3708772  -0.0529825), wk =   0.0005832
        k(  695) = (   0.1052632   0.4238596   0.0000000), wk =   0.0005832
        k(  696) = (   0.1052632   0.4238596   0.0529825), wk =   0.0005832
        k(  697) = (   0.1052632   0.4238596   0.1059649), wk =   0.0005832
        k(  698) = (   0.1052632   0.4238596   0.1589474), wk =   0.0005832
        k(  699) = (   0.1052632   0.4238596   0.2119298), wk =   0.0005832
        k(  700) = (   0.1052632   0.4238596   0.2649123), wk =   0.0005832
        k(  701) = (   0.1052632   0.4238596   0.3178947), wk =   0.0005832
        k(  702) = (   0.1052632   0.4238596   0.3708772), wk =   0.0005832
        k(  703) = (   0.1052632   0.4238596   0.4238596), wk =   0.0005832
        k(  704) = (   0.1052632   0.4238596   0.4768421), wk =   0.0005832
        k(  705) = (   0.1052632   0.4238596  -0.4768421), wk =   0.0005832
        k(  706) = (   0.1052632   0.4238596  -0.4238596), wk =   0.0005832
        k(  707) = (   0.1052632   0.4238596  -0.3708772), wk =   0.0005832
        k(  708) = (   0.1052632   0.4238596  -0.3178947), wk =   0.0005832
        k(  709) = (   0.1052632   0.4238596  -0.2649123), wk =   0.0005832
        k(  710) = (   0.1052632   0.4238596  -0.2119298), wk =   0.0005832
        k(  711) = (   0.1052632   0.4238596  -0.1589474), wk =   0.0005832
        k(  712) = (   0.1052632   0.4238596  -0.1059649), wk =   0.0005832
        k(  713) = (   0.1052632   0.4238596  -0.0529825), wk =   0.0005832
        k(  714) = (   0.1052632   0.4768421   0.0000000), wk =   0.0005832
        k(  715) = (   0.1052632   0.4768421   0.0529825), wk =   0.0005832
        k(  716) = (   0.1052632   0.4768421   0.1059649), wk =   0.0005832
        k(  717) = (   0.1052632   0.4768421   0.1589474), wk =   0.0005832
        k(  718) = (   0.1052632   0.4768421   0.2119298), wk =   0.0005832
        k(  719) = (   0.1052632   0.4768421   0.2649123), wk =   0.0005832
        k(  720) = (   0.1052632   0.4768421   0.3178947), wk =   0.0005832
        k(  721) = (   0.1052632   0.4768421   0.3708772), wk =   0.0005832
        k(  722) = (   0.1052632   0.4768421   0.4238596), wk =   0.0005832
        k(  723) = (   0.1052632   0.4768421   0.4768421), wk =   0.0005832
        k(  724) = (   0.1052632   0.4768421  -0.4768421), wk =   0.0005832
        k(  725) = (   0.1052632   0.4768421  -0.4238596), wk =   0.0005832
        k(  726) = (   0.1052632   0.4768421  -0.3708772), wk =   0.0005832
        k(  727) = (   0.1052632   0.4768421  -0.3178947), wk =   0.0005832
        k(  728) = (   0.1052632   0.4768421  -0.2649123), wk =   0.0005832
        k(  729) = (   0.1052632   0.4768421  -0.2119298), wk =   0.0005832
        k(  730) = (   0.1052632   0.4768421  -0.1589474), wk =   0.0005832
        k(  731) = (   0.1052632   0.4768421  -0.1059649), wk =   0.0005832
        k(  732) = (   0.1052632   0.4768421  -0.0529825), wk =   0.0005832
        k(  733) = (   0.1052632  -0.4768421   0.0000000), wk =   0.0005832
        k(  734) = (   0.1052632  -0.4768421   0.0529825), wk =   0.0005832
        k(  735) = (   0.1052632  -0.4768421   0.1059649), wk =   0.0005832
        k(  736) = (   0.1052632  -0.4768421   0.1589474), wk =   0.0005832
        k(  737) = (   0.1052632  -0.4768421   0.2119298), wk =   0.0005832
        k(  738) = (   0.1052632  -0.4768421   0.2649123), wk =   0.0005832
        k(  739) = (   0.1052632  -0.4768421   0.3178947), wk =   0.0005832
        k(  740) = (   0.1052632  -0.4768421   0.3708772), wk =   0.0005832
        k(  741) = (   0.1052632  -0.4768421   0.4238596), wk =   0.0005832
        k(  742) = (   0.1052632  -0.4768421   0.4768421), wk =   0.0005832
        k(  743) = (   0.1052632  -0.4768421  -0.4768421), wk =   0.0005832
        k(  744) = (   0.1052632  -0.4768421  -0.4238596), wk =   0.0005832
        k(  745) = (   0.1052632  -0.4768421  -0.3708772), wk =   0.0005832
        k(  746) = (   0.1052632  -0.4768421  -0.3178947), wk =   0.0005832
        k(  747) = (   0.1052632  -0.4768421  -0.2649123), wk =   0.0005832
        k(  748) = (   0.1052632  -0.4768421  -0.2119298), wk =   0.0005832
        k(  749) = (   0.1052632  -0.4768421  -0.1589474), wk =   0.0005832
        k(  750) = (   0.1052632  -0.4768421  -0.1059649), wk =   0.0005832
        k(  751) = (   0.1052632  -0.4768421  -0.0529825), wk =   0.0005832
        k(  752) = (   0.1052632  -0.4238596   0.0000000), wk =   0.0005832
        k(  753) = (   0.1052632  -0.4238596   0.0529825), wk =   0.0005832
        k(  754) = (   0.1052632  -0.4238596   0.1059649), wk =   0.0005832
        k(  755) = (   0.1052632  -0.4238596   0.1589474), wk =   0.0005832
        k(  756) = (   0.1052632  -0.4238596   0.2119298), wk =   0.0005832
        k(  757) = (   0.1052632  -0.4238596   0.2649123), wk =   0.0005832
        k(  758) = (   0.1052632  -0.4238596   0.3178947), wk =   0.0005832
        k(  759) = (   0.1052632  -0.4238596   0.3708772), wk =   0.0005832
        k(  760) = (   0.1052632  -0.4238596   0.4238596), wk =   0.0005832
        k(  761) = (   0.1052632  -0.4238596   0.4768421), wk =   0.0005832
        k(  762) = (   0.1052632  -0.4238596  -0.4768421), wk =   0.0005832
        k(  763) = (   0.1052632  -0.4238596  -0.4238596), wk =   0.0005832
        k(  764) = (   0.1052632  -0.4238596  -0.3708772), wk =   0.0005832
        k(  765) = (   0.1052632  -0.4238596  -0.3178947), wk =   0.0005832
        k(  766) = (   0.1052632  -0.4238596  -0.2649123), wk =   0.0005832
        k(  767) = (   0.1052632  -0.4238596  -0.2119298), wk =   0.0005832
        k(  768) = (   0.1052632  -0.4238596  -0.1589474), wk =   0.0005832
        k(  769) = (   0.1052632  -0.4238596  -0.1059649), wk =   0.0005832
        k(  770) = (   0.1052632  -0.4238596  -0.0529825), wk =   0.0005832
        k(  771) = (   0.1052632  -0.3708772   0.0000000), wk =   0.0005832
        k(  772) = (   0.1052632  -0.3708772   0.0529825), wk =   0.0005832
        k(  773) = (   0.1052632  -0.3708772   0.1059649), wk =   0.0005832
        k(  774) = (   0.1052632  -0.3708772   0.1589474), wk =   0.0005832
        k(  775) = (   0.1052632  -0.3708772   0.2119298), wk =   0.0005832
        k(  776) = (   0.1052632  -0.3708772   0.2649123), wk =   0.0005832
        k(  777) = (   0.1052632  -0.3708772   0.3178947), wk =   0.0005832
        k(  778) = (   0.1052632  -0.3708772   0.3708772), wk =   0.0005832
        k(  779) = (   0.1052632  -0.3708772   0.4238596), wk =   0.0005832
        k(  780) = (   0.1052632  -0.3708772   0.4768421), wk =   0.0005832
        k(  781) = (   0.1052632  -0.3708772  -0.4768421), wk =   0.0005832
        k(  782) = (   0.1052632  -0.3708772  -0.4238596), wk =   0.0005832
        k(  783) = (   0.1052632  -0.3708772  -0.3708772), wk =   0.0005832
        k(  784) = (   0.1052632  -0.3708772  -0.3178947), wk =   0.0005832
        k(  785) = (   0.1052632  -0.3708772  -0.2649123), wk =   0.0005832
        k(  786) = (   0.1052632  -0.3708772  -0.2119298), wk =   0.0005832
        k(  787) = (   0.1052632  -0.3708772  -0.1589474), wk =   0.0005832
        k(  788) = (   0.1052632  -0.3708772  -0.1059649), wk =   0.0005832
        k(  789) = (   0.1052632  -0.3708772  -0.0529825), wk =   0.0005832
        k(  790) = (   0.1052632  -0.3178947   0.0000000), wk =   0.0005832
        k(  791) = (   0.1052632  -0.3178947   0.0529825), wk =   0.0005832
        k(  792) = (   0.1052632  -0.3178947   0.1059649), wk =   0.0005832
        k(  793) = (   0.1052632  -0.3178947   0.1589474), wk =   0.0005832
        k(  794) = (   0.1052632  -0.3178947   0.2119298), wk =   0.0005832
        k(  795) = (   0.1052632  -0.3178947   0.2649123), wk =   0.0005832
        k(  796) = (   0.1052632  -0.3178947   0.3178947), wk =   0.0005832
        k(  797) = (   0.1052632  -0.3178947   0.3708772), wk =   0.0005832
        k(  798) = (   0.1052632  -0.3178947   0.4238596), wk =   0.0005832
        k(  799) = (   0.1052632  -0.3178947   0.4768421), wk =   0.0005832
        k(  800) = (   0.1052632  -0.3178947  -0.4768421), wk =   0.0005832
        k(  801) = (   0.1052632  -0.3178947  -0.4238596), wk =   0.0005832
        k(  802) = (   0.1052632  -0.3178947  -0.3708772), wk =   0.0005832
        k(  803) = (   0.1052632  -0.3178947  -0.3178947), wk =   0.0005832
        k(  804) = (   0.1052632  -0.3178947  -0.2649123), wk =   0.0005832
        k(  805) = (   0.1052632  -0.3178947  -0.2119298), wk =   0.0005832
        k(  806) = (   0.1052632  -0.3178947  -0.1589474), wk =   0.0005832
        k(  807) = (   0.1052632  -0.3178947  -0.1059649), wk =   0.0005832
        k(  808) = (   0.1052632  -0.3178947  -0.0529825), wk =   0.0005832
        k(  809) = (   0.1052632  -0.2649123   0.0000000), wk =   0.0005832
        k(  810) = (   0.1052632  -0.2649123   0.0529825), wk =   0.0005832
        k(  811) = (   0.1052632  -0.2649123   0.1059649), wk =   0.0005832
        k(  812) = (   0.1052632  -0.2649123   0.1589474), wk =   0.0005832
        k(  813) = (   0.1052632  -0.2649123   0.2119298), wk =   0.0005832
        k(  814) = (   0.1052632  -0.2649123   0.2649123), wk =   0.0005832
        k(  815) = (   0.1052632  -0.2649123   0.3178947), wk =   0.0005832
        k(  816) = (   0.1052632  -0.2649123   0.3708772), wk =   0.0005832
        k(  817) = (   0.1052632  -0.2649123   0.4238596), wk =   0.0005832
        k(  818) = (   0.1052632  -0.2649123   0.4768421), wk =   0.0005832
        k(  819) = (   0.1052632  -0.2649123  -0.4768421), wk =   0.0005832
        k(  820) = (   0.1052632  -0.2649123  -0.4238596), wk =   0.0005832
        k(  821) = (   0.1052632  -0.2649123  -0.3708772), wk =   0.0005832
        k(  822) = (   0.1052632  -0.2649123  -0.3178947), wk =   0.0005832
        k(  823) = (   0.1052632  -0.2649123  -0.2649123), wk =   0.0005832
        k(  824) = (   0.1052632  -0.2649123  -0.2119298), wk =   0.0005832
        k(  825) = (   0.1052632  -0.2649123  -0.1589474), wk =   0.0005832
        k(  826) = (   0.1052632  -0.2649123  -0.1059649), wk =   0.0005832
        k(  827) = (   0.1052632  -0.2649123  -0.0529825), wk =   0.0005832
        k(  828) = (   0.1052632  -0.2119298   0.0000000), wk =   0.0005832
        k(  829) = (   0.1052632  -0.2119298   0.0529825), wk =   0.0005832
        k(  830) = (   0.1052632  -0.2119298   0.1059649), wk =   0.0005832
        k(  831) = (   0.1052632  -0.2119298   0.1589474), wk =   0.0005832
        k(  832) = (   0.1052632  -0.2119298   0.2119298), wk =   0.0005832
        k(  833) = (   0.1052632  -0.2119298   0.2649123), wk =   0.0005832
        k(  834) = (   0.1052632  -0.2119298   0.3178947), wk =   0.0005832
        k(  835) = (   0.1052632  -0.2119298   0.3708772), wk =   0.0005832
        k(  836) = (   0.1052632  -0.2119298   0.4238596), wk =   0.0005832
        k(  837) = (   0.1052632  -0.2119298   0.4768421), wk =   0.0005832
        k(  838) = (   0.1052632  -0.2119298  -0.4768421), wk =   0.0005832
        k(  839) = (   0.1052632  -0.2119298  -0.4238596), wk =   0.0005832
        k(  840) = (   0.1052632  -0.2119298  -0.3708772), wk =   0.0005832
        k(  841) = (   0.1052632  -0.2119298  -0.3178947), wk =   0.0005832
        k(  842) = (   0.1052632  -0.2119298  -0.2649123), wk =   0.0005832
        k(  843) = (   0.1052632  -0.2119298  -0.2119298), wk =   0.0005832
        k(  844) = (   0.1052632  -0.2119298  -0.1589474), wk =   0.0005832
        k(  845) = (   0.1052632  -0.2119298  -0.1059649), wk =   0.0005832
        k(  846) = (   0.1052632  -0.2119298  -0.0529825), wk =   0.0005832
        k(  847) = (   0.1052632  -0.1589474   0.0000000), wk =   0.0005832
        k(  848) = (   0.1052632  -0.1589474   0.0529825), wk =   0.0005832
        k(  849) = (   0.1052632  -0.1589474   0.1059649), wk =   0.0005832
        k(  850) = (   0.1052632  -0.1589474   0.1589474), wk =   0.0005832
        k(  851) = (   0.1052632  -0.1589474   0.2119298), wk =   0.0005832
        k(  852) = (   0.1052632  -0.1589474   0.2649123), wk =   0.0005832
        k(  853) = (   0.1052632  -0.1589474   0.3178947), wk =   0.0005832
        k(  854) = (   0.1052632  -0.1589474   0.3708772), wk =   0.0005832
        k(  855) = (   0.1052632  -0.1589474   0.4238596), wk =   0.0005832
        k(  856) = (   0.1052632  -0.1589474   0.4768421), wk =   0.0005832
        k(  857) = (   0.1052632  -0.1589474  -0.4768421), wk =   0.0005832
        k(  858) = (   0.1052632  -0.1589474  -0.4238596), wk =   0.0005832
        k(  859) = (   0.1052632  -0.1589474  -0.3708772), wk =   0.0005832
        k(  860) = (   0.1052632  -0.1589474  -0.3178947), wk =   0.0005832
        k(  861) = (   0.1052632  -0.1589474  -0.2649123), wk =   0.0005832
        k(  862) = (   0.1052632  -0.1589474  -0.2119298), wk =   0.0005832
        k(  863) = (   0.1052632  -0.1589474  -0.1589474), wk =   0.0005832
        k(  864) = (   0.1052632  -0.1589474  -0.1059649), wk =   0.0005832
        k(  865) = (   0.1052632  -0.1589474  -0.0529825), wk =   0.0005832
        k(  866) = (   0.1052632  -0.1059649   0.0000000), wk =   0.0005832
        k(  867) = (   0.1052632  -0.1059649   0.0529825), wk =   0.0005832
        k(  868) = (   0.1052632  -0.1059649   0.1059649), wk =   0.0005832
        k(  869) = (   0.1052632  -0.1059649   0.1589474), wk =   0.0005832
        k(  870) = (   0.1052632  -0.1059649   0.2119298), wk =   0.0005832
        k(  871) = (   0.1052632  -0.1059649   0.2649123), wk =   0.0005832
        k(  872) = (   0.1052632  -0.1059649   0.3178947), wk =   0.0005832
        k(  873) = (   0.1052632  -0.1059649   0.3708772), wk =   0.0005832
        k(  874) = (   0.1052632  -0.1059649   0.4238596), wk =   0.0005832
        k(  875) = (   0.1052632  -0.1059649   0.4768421), wk =   0.0005832
        k(  876) = (   0.1052632  -0.1059649  -0.4768421), wk =   0.0005832
        k(  877) = (   0.1052632  -0.1059649  -0.4238596), wk =   0.0005832
        k(  878) = (   0.1052632  -0.1059649  -0.3708772), wk =   0.0005832
        k(  879) = (   0.1052632  -0.1059649  -0.3178947), wk =   0.0005832
        k(  880) = (   0.1052632  -0.1059649  -0.2649123), wk =   0.0005832
        k(  881) = (   0.1052632  -0.1059649  -0.2119298), wk =   0.0005832
        k(  882) = (   0.1052632  -0.1059649  -0.1589474), wk =   0.0005832
        k(  883) = (   0.1052632  -0.1059649  -0.1059649), wk =   0.0005832
        k(  884) = (   0.1052632  -0.1059649  -0.0529825), wk =   0.0005832
        k(  885) = (   0.1052632  -0.0529825   0.0000000), wk =   0.0005832
        k(  886) = (   0.1052632  -0.0529825   0.0529825), wk =   0.0005832
        k(  887) = (   0.1052632  -0.0529825   0.1059649), wk =   0.0005832
        k(  888) = (   0.1052632  -0.0529825   0.1589474), wk =   0.0005832
        k(  889) = (   0.1052632  -0.0529825   0.2119298), wk =   0.0005832
        k(  890) = (   0.1052632  -0.0529825   0.2649123), wk =   0.0005832
        k(  891) = (   0.1052632  -0.0529825   0.3178947), wk =   0.0005832
        k(  892) = (   0.1052632  -0.0529825   0.3708772), wk =   0.0005832
        k(  893) = (   0.1052632  -0.0529825   0.4238596), wk =   0.0005832
        k(  894) = (   0.1052632  -0.0529825   0.4768421), wk =   0.0005832
        k(  895) = (   0.1052632  -0.0529825  -0.4768421), wk =   0.0005832
        k(  896) = (   0.1052632  -0.0529825  -0.4238596), wk =   0.0005832
        k(  897) = (   0.1052632  -0.0529825  -0.3708772), wk =   0.0005832
        k(  898) = (   0.1052632  -0.0529825  -0.3178947), wk =   0.0005832
        k(  899) = (   0.1052632  -0.0529825  -0.2649123), wk =   0.0005832
        k(  900) = (   0.1052632  -0.0529825  -0.2119298), wk =   0.0005832
        k(  901) = (   0.1052632  -0.0529825  -0.1589474), wk =   0.0005832
        k(  902) = (   0.1052632  -0.0529825  -0.1059649), wk =   0.0005832
        k(  903) = (   0.1052632  -0.0529825  -0.0529825), wk =   0.0005832
        k(  904) = (   0.1578947   0.0000000   0.0000000), wk =   0.0005832
        k(  905) = (   0.1578947   0.0000000   0.0529825), wk =   0.0005832
        k(  906) = (   0.1578947   0.0000000   0.1059649), wk =   0.0005832
        k(  907) = (   0.1578947   0.0000000   0.1589474), wk =   0.0005832
        k(  908) = (   0.1578947   0.0000000   0.2119298), wk =   0.0005832
        k(  909) = (   0.1578947   0.0000000   0.2649123), wk =   0.0005832
        k(  910) = (   0.1578947   0.0000000   0.3178947), wk =   0.0005832
        k(  911) = (   0.1578947   0.0000000   0.3708772), wk =   0.0005832
        k(  912) = (   0.1578947   0.0000000   0.4238596), wk =   0.0005832
        k(  913) = (   0.1578947   0.0000000   0.4768421), wk =   0.0005832
        k(  914) = (   0.1578947   0.0000000  -0.4768421), wk =   0.0005832
        k(  915) = (   0.1578947   0.0000000  -0.4238596), wk =   0.0005832
        k(  916) = (   0.1578947   0.0000000  -0.3708772), wk =   0.0005832
        k(  917) = (   0.1578947   0.0000000  -0.3178947), wk =   0.0005832
        k(  918) = (   0.1578947   0.0000000  -0.2649123), wk =   0.0005832
        k(  919) = (   0.1578947   0.0000000  -0.2119298), wk =   0.0005832
        k(  920) = (   0.1578947   0.0000000  -0.1589474), wk =   0.0005832
        k(  921) = (   0.1578947   0.0000000  -0.1059649), wk =   0.0005832
        k(  922) = (   0.1578947   0.0000000  -0.0529825), wk =   0.0005832
        k(  923) = (   0.1578947   0.0529825   0.0000000), wk =   0.0005832
        k(  924) = (   0.1578947   0.0529825   0.0529825), wk =   0.0005832
        k(  925) = (   0.1578947   0.0529825   0.1059649), wk =   0.0005832
        k(  926) = (   0.1578947   0.0529825   0.1589474), wk =   0.0005832
        k(  927) = (   0.1578947   0.0529825   0.2119298), wk =   0.0005832
        k(  928) = (   0.1578947   0.0529825   0.2649123), wk =   0.0005832
        k(  929) = (   0.1578947   0.0529825   0.3178947), wk =   0.0005832
        k(  930) = (   0.1578947   0.0529825   0.3708772), wk =   0.0005832
        k(  931) = (   0.1578947   0.0529825   0.4238596), wk =   0.0005832
        k(  932) = (   0.1578947   0.0529825   0.4768421), wk =   0.0005832
        k(  933) = (   0.1578947   0.0529825  -0.4768421), wk =   0.0005832
        k(  934) = (   0.1578947   0.0529825  -0.4238596), wk =   0.0005832
        k(  935) = (   0.1578947   0.0529825  -0.3708772), wk =   0.0005832
        k(  936) = (   0.1578947   0.0529825  -0.3178947), wk =   0.0005832
        k(  937) = (   0.1578947   0.0529825  -0.2649123), wk =   0.0005832
        k(  938) = (   0.1578947   0.0529825  -0.2119298), wk =   0.0005832
        k(  939) = (   0.1578947   0.0529825  -0.1589474), wk =   0.0005832
        k(  940) = (   0.1578947   0.0529825  -0.1059649), wk =   0.0005832
        k(  941) = (   0.1578947   0.0529825  -0.0529825), wk =   0.0005832
        k(  942) = (   0.1578947   0.1059649   0.0000000), wk =   0.0005832
        k(  943) = (   0.1578947   0.1059649   0.0529825), wk =   0.0005832
        k(  944) = (   0.1578947   0.1059649   0.1059649), wk =   0.0005832
        k(  945) = (   0.1578947   0.1059649   0.1589474), wk =   0.0005832
        k(  946) = (   0.1578947   0.1059649   0.2119298), wk =   0.0005832
        k(  947) = (   0.1578947   0.1059649   0.2649123), wk =   0.0005832
        k(  948) = (   0.1578947   0.1059649   0.3178947), wk =   0.0005832
        k(  949) = (   0.1578947   0.1059649   0.3708772), wk =   0.0005832
        k(  950) = (   0.1578947   0.1059649   0.4238596), wk =   0.0005832
        k(  951) = (   0.1578947   0.1059649   0.4768421), wk =   0.0005832
        k(  952) = (   0.1578947   0.1059649  -0.4768421), wk =   0.0005832
        k(  953) = (   0.1578947   0.1059649  -0.4238596), wk =   0.0005832
        k(  954) = (   0.1578947   0.1059649  -0.3708772), wk =   0.0005832
        k(  955) = (   0.1578947   0.1059649  -0.3178947), wk =   0.0005832
        k(  956) = (   0.1578947   0.1059649  -0.2649123), wk =   0.0005832
        k(  957) = (   0.1578947   0.1059649  -0.2119298), wk =   0.0005832
        k(  958) = (   0.1578947   0.1059649  -0.1589474), wk =   0.0005832
        k(  959) = (   0.1578947   0.1059649  -0.1059649), wk =   0.0005832
        k(  960) = (   0.1578947   0.1059649  -0.0529825), wk =   0.0005832
        k(  961) = (   0.1578947   0.1589474   0.0000000), wk =   0.0005832
        k(  962) = (   0.1578947   0.1589474   0.0529825), wk =   0.0005832
        k(  963) = (   0.1578947   0.1589474   0.1059649), wk =   0.0005832
        k(  964) = (   0.1578947   0.1589474   0.1589474), wk =   0.0005832
        k(  965) = (   0.1578947   0.1589474   0.2119298), wk =   0.0005832
        k(  966) = (   0.1578947   0.1589474   0.2649123), wk =   0.0005832
        k(  967) = (   0.1578947   0.1589474   0.3178947), wk =   0.0005832
        k(  968) = (   0.1578947   0.1589474   0.3708772), wk =   0.0005832
        k(  969) = (   0.1578947   0.1589474   0.4238596), wk =   0.0005832
        k(  970) = (   0.1578947   0.1589474   0.4768421), wk =   0.0005832
        k(  971) = (   0.1578947   0.1589474  -0.4768421), wk =   0.0005832
        k(  972) = (   0.1578947   0.1589474  -0.4238596), wk =   0.0005832
        k(  973) = (   0.1578947   0.1589474  -0.3708772), wk =   0.0005832
        k(  974) = (   0.1578947   0.1589474  -0.3178947), wk =   0.0005832
        k(  975) = (   0.1578947   0.1589474  -0.2649123), wk =   0.0005832
        k(  976) = (   0.1578947   0.1589474  -0.2119298), wk =   0.0005832
        k(  977) = (   0.1578947   0.1589474  -0.1589474), wk =   0.0005832
        k(  978) = (   0.1578947   0.1589474  -0.1059649), wk =   0.0005832
        k(  979) = (   0.1578947   0.1589474  -0.0529825), wk =   0.0005832
        k(  980) = (   0.1578947   0.2119298   0.0000000), wk =   0.0005832
[...]
     1.0000   1.0000   1.0000   1.0010   1.0348   0.8770   0.1809  -0.0305
    -0.0015  -0.0001

          k = 0.4737-0.1060 0.0530 (  2284 PWs)   bands (ev):

    -1.9020  -1.4884   4.2417   4.6334   5.0033   5.3922   6.8625   7.2398
     7.6320   8.0056

     occupation numbers 
     1.0000   1.0000   1.0000   1.0011   1.0112   1.0354  -0.0354  -0.0130
    -0.0012  -0.0000

          k = 0.4737-0.1060 0.1060 (  2280 PWs)   bands (ev):

    -1.8358  -1.4224   4.2978   4.2978   4.7166   4.7166   7.6524   7.6524
     8.0791   8.0791

     occupation numbers 
     1.0000   1.0000   1.0001   1.0001   1.0021   1.0021  -0.0010  -0.0010
    -0.0000  -0.0000

          k = 0.4737-0.1060 0.1589 (  2273 PWs)   bands (ev):

    -1.7255  -1.3124   3.6183   4.0089   4.4286   4.8168   7.7695   8.1474
     8.5642   8.9378

     occupation numbers 
     1.0000   1.0000   1.0000   1.0000   1.0002   1.0040  -0.0004  -0.0000
    -0.0000  -0.0000

          k = 0.4737-0.1060 0.2119 (  2272 PWs)   bands (ev):

    -1.5713  -1.1585   2.9637   3.3629   4.5690   4.9638   7.9184   8.3050
     8.9361   9.3239

     occupation numbers 
     1.0000   1.0000   1.0000   1.0000   1.0007   1.0092  -0.0001  -0.0000
    -0.0000  -0.0000

          k = 0.4737-0.1060 0.2649 (  2278 PWs)   bands (ev):

    -1.3731  -0.9609   2.3447   2.7466   4.7581   5.1537   8.1074   8.3395
     8.4945   8.7287

     occupation numbers 
     1.0000   1.0000   1.0000   1.0000   1.0027   1.0213  -0.0000  -0.0000
    -0.0000  -0.0000

          k = 0.4737-0.1060 0.3179 (  2285 PWs)   bands (ev):

    -1.1312  -0.7196   1.7645   2.1683   4.9903   5.3858   7.7801   8.1706
     8.3371   8.7238

     occupation numbers 
     1.0000   1.0000   1.0000   1.0000   1.0106   1.0354  -0.0004  -0.0000
    -0.0000  -0.0000

          k = 0.4737-0.1060 0.3709 (  2282 PWs)   bands (ev):

    -0.8458  -0.4350   1.2246   1.6300   5.2648   5.6600   7.2596   7.6511
     8.6074   8.9932

     occupation numbers 
     1.0000   1.0000   1.0000   1.0000   1.0297   0.9887  -0.0118  -0.0010
    -0.0000  -0.0000

          k = 0.4737-0.1060 0.4239 (  2282 PWs)   bands (ev):

    -0.5171  -0.1071   0.7259   1.1327   5.5811   5.9759   6.7788   7.1713
     8.9180   9.3026

     occupation numbers 
     1.0000   1.0000   1.0000   1.0000   1.0157   0.7182  -0.0309  -0.0175
    -0.0000  -0.0000

          k = 0.4737-0.1060 0.4768 (  2281 PWs)   bands (ev):

    -0.1454   0.2637   0.2691   0.6771   5.9392   6.3333   6.3385   6.7319
     9.2680   9.6524

     occupation numbers 
     1.0000   1.0000   1.0000   1.0000   0.7627   0.2387   0.2325  -0.0243
    -0.0000  -0.0000

          k = 0.4737-0.1060-0.4768 (  2281 PWs)   bands (ev):

    -0.1454   0.2637   0.2691   0.6771   5.9392   6.3333   6.3385   6.7319
     9.2680   9.6562

     occupation numbers 
     1.0000   1.0000   1.0000   1.0000   0.7627   0.2387   0.2325  -0.0243
    -0.0000  -0.0000

          k = 0.4737-0.1060-0.4239 (  2282 PWs)   bands (ev):

    -0.5171  -0.1071   0.7259   1.1327   5.5811   5.9759   6.7788   7.1713
     8.9180   9.3026

     occupation numbers 
     1.0000   1.0000   1.0000   1.0000   1.0157   0.7182  -0.0309  -0.0175
    -0.0000  -0.0000

          k = 0.4737-0.1060-0.3709 (  2282 PWs)   bands (ev):

    -0.8458  -0.4350   1.2246   1.6300   5.2648   5.6600   7.2596   7.6511
     8.6074   8.9932

     occupation numbers 
     1.0000   1.0000   1.0000   1.0000   1.0297   0.9887  -0.0118  -0.0010
    -0.0000  -0.0000

          k = 0.4737-0.1060-0.3179 (  2285 PWs)   bands (ev):

    -1.1312  -0.7196   1.7645   2.1683   4.9903   5.3858   7.7801   8.1706
     8.3371   8.7238

     occupation numbers 
     1.0000   1.0000   1.0000   1.0000   1.0106   1.0354  -0.0004  -0.0000
    -0.0000  -0.0000

          k = 0.4737-0.1060-0.2649 (  2278 PWs)   bands (ev):

    -1.3731  -0.9609   2.3447   2.7466   4.7581   5.1537   8.1074   8.3395
     8.4945   8.7287

     occupation numbers 
     1.0000   1.0000   1.0000   1.0000   1.0027   1.0213  -0.0000  -0.0000
    -0.0000  -0.0000

          k = 0.4737-0.1060-0.2119 (  2272 PWs)   bands (ev):

    -1.5713  -1.1585   2.9637   3.3629   4.5690   4.9638   7.9184   8.3050
     8.9361   9.3239

     occupation numbers 
     1.0000   1.0000   1.0000   1.0000   1.0007   1.0092  -0.0001  -0.0000
    -0.0000  -0.0000

          k = 0.4737-0.1060-0.1589 (  2273 PWs)   bands (ev):

    -1.7255  -1.3124   3.6183   4.0089   4.4286   4.8168   7.7695   8.1474
     8.5642   8.9378

     occupation numbers 
     1.0000   1.0000   1.0000   1.0000   1.0002   1.0040  -0.0004  -0.0000
    -0.0000  -0.0000

          k = 0.4737-0.1060-0.1060 (  2280 PWs)   bands (ev):

    -1.8358  -1.4224   4.2978   4.2978   4.7166   4.7166   7.6524   7.6524
     8.0791   8.0791

     occupation numbers 
     1.0000   1.0000   1.0001   1.0001   1.0021   1.0021  -0.0010  -0.0010
    -0.0000  -0.0000

          k = 0.4737-0.1060-0.0530 (  2284 PWs)   bands (ev):

    -1.9020  -1.4884   4.2417   4.6334   5.0033   5.3922   6.8625   7.2398
     7.6320   8.0056

     occupation numbers 
     1.0000   1.0000   1.0000   1.0011   1.0112   1.0354  -0.0354  -0.0130
    -0.0012  -0.0000

          k = 0.4737-0.0530 0.0000 (  2284 PWs)   bands (ev):

    -1.9903  -1.5765   4.9093   5.3015   5.3761   5.7667   6.3115   6.6287
     6.8794   7.1948

     occupation numbers 
     1.0000   1.0000   1.0069   1.0321   1.0352   0.9274   0.2647   0.0050
    -0.0354  -0.0159

          k = 0.4737-0.0530 0.0530 (  2290 PWs)   bands (ev):

    -1.9682  -1.5544   4.9275   4.9275   5.3298   5.3298   6.7807   6.7807
     7.2265   7.2265

     occupation numbers 
     1.0000   1.0000   1.0076   1.0076   1.0336   1.0336  -0.0311  -0.0311
    -0.0138  -0.0138

          k = 0.4737-0.0530 0.1060 (  2284 PWs)   bands (ev):

    -1.9020  -1.4884   4.2417   4.6334   5.0033   5.3922   6.8625   7.2398
     7.6320   8.0056

     occupation numbers 
     1.0000   1.0000   1.0000   1.0011   1.0112   1.0354  -0.0354  -0.0130
    -0.0012  -0.0000

          k = 0.4737-0.0530 0.1589 (  2281 PWs)   bands (ev):

    -1.7917  -1.3783   3.5564   3.9545   5.1043   5.4972   6.9716   7.3621
     8.4911   8.8736

     occupation numbers 
     1.0000   1.0000   1.0000   1.0000   1.0176   1.0307  -0.0321  -0.0070
    -0.0000  -0.0000

          k = 0.4737-0.0530 0.2119 (  2276 PWs)   bands (ev):

    -1.6373  -1.2244   2.9004   3.3011   5.2508   5.6442   7.1207   7.5125
     9.4092   9.6014

     occupation numbers 
     1.0000   1.0000   1.0000   1.0000   1.0287   0.9952  -0.0212  -0.0028
    -0.0000  -0.0000

          k = 0.4737-0.0530 0.2649 (  2275 PWs)   bands (ev):

    -1.4391  -1.0267   2.2807   2.6834   5.4398   5.8332   7.3111   7.7026
     9.0056   9.3935

     occupation numbers 
     1.0000   1.0000   1.0000   1.0000   1.0348   0.8734  -0.0092  -0.0007
    -0.0000  -0.0000

          k = 0.4737-0.0530 0.3179 (  2279 PWs)   bands (ev):

    -1.1971  -0.7853   1.7001   2.1044   5.6707   6.0640   7.5427   7.9336
     8.4474   8.8365

     occupation numbers 
     1.0000   1.0000   1.0000   1.0000   0.9839   0.6019  -0.0023  -0.0001
    -0.0000  -0.0000

          k = 0.4737-0.0530 0.3709 (  2275 PWs)   bands (ev):

    -0.9116  -0.5005   1.1599   1.5656   5.9436   6.3365   7.8155   7.9285
     8.2052   8.3185

     occupation numbers 
     1.0000   1.0000   1.0000   1.0000   0.7575   0.2349  -0.0003  -0.0001
    -0.0000  -0.0000

          k = 0.4737-0.0530 0.4239 (  2275 PWs)   bands (ev):

    -0.5827  -0.1725   0.6609   1.0680   6.2581   6.6506   7.4496   7.8404
     8.1288   8.5173

     occupation numbers 
     1.0000   1.0000   1.0000   1.0000   0.3328  -0.0031  -0.0042  -0.0002
    -0.0000  -0.0000

          k = 0.4737-0.0530 0.4768 (  2273 PWs)   bands (ev):

    -0.2108   0.1985   0.2039   0.6121   6.6141   7.0061   7.0113   7.4028
     8.4820   8.8708

     occupation numbers 
     1.0000   1.0000   1.0000   1.0000   0.0111  -0.0299  -0.0295  -0.0055
    -0.0000  -0.0000

          k = 0.4737-0.0530-0.4768 (  2273 PWs)   bands (ev):

    -0.2108   0.1985   0.2039   0.6121   6.6141   7.0061   7.0113   7.4028
     8.4820   8.8739

     occupation numbers 
     1.0000   1.0000   1.0000   1.0000   0.0111  -0.0299  -0.0295  -0.0055
    -0.0000  -0.0000

          k = 0.4737-0.0530-0.4239 (  2275 PWs)   bands (ev):

    -0.5827  -0.1725   0.6609   1.0680   6.2581   6.6506   7.4496   7.8404
     8.1288   8.5173

     occupation numbers 
     1.0000   1.0000   1.0000   1.0000   0.3328  -0.0031  -0.0042  -0.0002
    -0.0000  -0.0000

          k = 0.4737-0.0530-0.3709 (  2275 PWs)   bands (ev):

    -0.9116  -0.5005   1.1599   1.5656   5.9436   6.3365   7.8155   7.9285
     8.2052   8.3185

     occupation numbers 
     1.0000   1.0000   1.0000   1.0000   0.7575   0.2349  -0.0003  -0.0001
    -0.0000  -0.0000

          k = 0.4737-0.0530-0.3179 (  2279 PWs)   bands (ev):

    -1.1971  -0.7853   1.7001   2.1044   5.6707   6.0640   7.5427   7.9336
     8.4474   8.8365

     occupation numbers 
     1.0000   1.0000   1.0000   1.0000   0.9839   0.6019  -0.0023  -0.0001
    -0.0000  -0.0000

          k = 0.4737-0.0530-0.2649 (  2275 PWs)   bands (ev):

    -1.4391  -1.0267   2.2807   2.6834   5.4398   5.8332   7.3111   7.7026
     9.0056   9.3935

     occupation numbers 
     1.0000   1.0000   1.0000   1.0000   1.0348   0.8734  -0.0092  -0.0007
    -0.0000  -0.0000

          k = 0.4737-0.0530-0.2119 (  2276 PWs)   bands (ev):

    -1.6373  -1.2244   2.9004   3.3011   5.2508   5.6442   7.1207   7.5125
     9.4092   9.6014

     occupation numbers 
     1.0000   1.0000   1.0000   1.0000   1.0287   0.9952  -0.0212  -0.0028
    -0.0000  -0.0000

          k = 0.4737-0.0530-0.1589 (  2281 PWs)   bands (ev):

    -1.7917  -1.3783   3.5564   3.9545   5.1043   5.4972   6.9716   7.3621
     8.4911   8.8736

     occupation numbers 
     1.0000   1.0000   1.0000   1.0000   1.0176   1.0307  -0.0321  -0.0070
    -0.0000  -0.0000

          k = 0.4737-0.0530-0.1060 (  2284 PWs)   bands (ev):

    -1.9020  -1.4884   4.2417   4.6334   5.0033   5.3922   6.8625   7.2398
     7.6320   8.0056

     occupation numbers 
     1.0000   1.0000   1.0000   1.0011   1.0112   1.0354  -0.0354  -0.0130
    -0.0012  -0.0000

          k = 0.4737-0.0530-0.0530 (  2290 PWs)   bands (ev):

    -1.9682  -1.5544   4.9275   4.9275   5.3298   5.3298   6.7807   6.7807
     7.2265   7.2265

     occupation numbers 
     1.0000   1.0000   1.0076   1.0076   1.0336   1.0336  -0.0311  -0.0311
    -0.0138  -0.0138

     the Fermi energy is     6.1368 ev

!    total energy              =    -157.97757993 Ry
     Harris-Foulkes estimate   =    -157.97757993 Ry
     estimated scf accuracy    <          5.0E-13 Ry

     total all-electron energy =     -1942.548706 Ry

     The total energy is the sum of the following terms:

     one-electron contribution =      11.00375790 Ry
     hartree contribution      =       0.02874690 Ry
     xc contribution           =      -9.99753159 Ry
     ewald contribution        =     -20.34223155 Ry
     one-center paw contrib.   =    -138.67026272 Ry
      -> PAW hartree energy AE =       1.10148336 Ry
      -> PAW hartree energy PS =      -1.09734177 Ry
      -> PAW xc energy AE      =     -36.42905737 Ry
      -> PAW xc energy PS      =       1.75735005 Ry
      -> total E_H with PAW    =       0.03288849 Ry
      -> total E_XC with PAW   =     -44.66923891 Ry
     smearing contrib. (-TS)   =      -0.00005886 Ry

     convergence has been achieved in  13 iterations

     Forces acting on atoms (cartesian axes, Ry/au):

     atom    1 type  1   force =    -0.00000001   -0.00000001   -0.00000002
     atom    2 type  1   force =     0.00000001    0.00000000   -0.00000001
     atom    3 type  1   force =     0.00000001   -0.00000000    0.00000001
     atom    4 type  1   force =    -0.00000001    0.00000001    0.00000002
     The non-local contrib.  to forces
     atom    1 type  1   force =    -0.00000000   -0.00000003   -0.00000003
     atom    2 type  1   force =    -0.00000010    0.00000013   -0.00000006
     atom    3 type  1   force =    -0.00000002   -0.00000015    0.00000011
     atom    4 type  1   force =    -0.00000001    0.00000007    0.00000006
     The ionic contribution  to forces
     atom    1 type  1   force =     0.00000000   -0.00000029   -0.00000029
     atom    2 type  1   force =    -0.00000000    0.00000029   -0.00000029
     atom    3 type  1   force =    -0.00000000   -0.00000029    0.00000029
     atom    4 type  1   force =     0.00000000    0.00000029    0.00000029
     The local contribution  to forces
     atom    1 type  1   force =    -0.00000004    0.00000036    0.00000034
     atom    2 type  1   force =     0.00000015   -0.00000049    0.00000038
     atom    3 type  1   force =     0.00000005    0.00000054   -0.00000044
     atom    4 type  1   force =    -0.00000003   -0.00000042   -0.00000036
     The core correction contribution to forces
     atom    1 type  1   force =     0.00000000    0.00000000    0.00000000
     atom    2 type  1   force =     0.00000001   -0.00000002    0.00000001
     atom    3 type  1   force =     0.00000000    0.00000002   -0.00000001
     atom    4 type  1   force =     0.00000000   -0.00000001   -0.00000001
     The Hubbard contrib.    to forces
     atom    1 type  1   force =     0.00000000    0.00000000    0.00000000
     atom    2 type  1   force =     0.00000000    0.00000000    0.00000000
     atom    3 type  1   force =     0.00000000    0.00000000    0.00000000
     atom    4 type  1   force =     0.00000000    0.00000000    0.00000000
     The SCF correction term to forces
     atom    1 type  1   force =     0.00000004   -0.00000006   -0.00000004
     atom    2 type  1   force =    -0.00000006    0.00000010   -0.00000005
     atom    3 type  1   force =    -0.00000003   -0.00000012    0.00000006
     atom    4 type  1   force =     0.00000003    0.00000008    0.00000004

     Total force =     0.000000     Total SCF correction =     0.000000
     SCF correction compared to forces is large: reduce conv_thr to get better values


     Computing stress (Cartesian axis) and pressure

          total   stress  (Ry/bohr**3)                   (kbar)     P=  -91.99
  -0.00063069   0.00000000   0.00000000        -92.78      0.00      0.00
   0.00000000  -0.00062262   0.00000000          0.00    -91.59      0.00
   0.00000000   0.00000000  -0.00062262          0.00      0.00    -91.59

     kinetic stress (kbar)   1091.08      0.00      0.00
                                0.00   1091.52      0.00
                                0.00      0.00   1091.52

     local   stress (kbar)    440.20      0.00      0.00
                                0.00    438.06      0.00
                                0.00      0.00    438.06

     nonloc. stress (kbar)    859.11     -0.00     -0.00
                               -0.00    860.54     -0.00
                               -0.00     -0.00    860.54

     hartree stress (kbar)      2.77     -0.00     -0.00
                               -0.00      2.58     -0.00
                               -0.00     -0.00      2.58

     exc-cor stress (kbar)    448.40     -0.00     -0.00
                               -0.00    448.45     -0.00
                               -0.00     -0.00    448.45

     corecor stress (kbar)  -1065.82      0.00      0.00
                                0.00  -1066.03      0.00
                                0.00      0.00  -1066.03

     ewald   stress (kbar)  -1868.52      0.00      0.00
                                0.00  -1866.70     -0.00
                                0.00     -0.00  -1866.70

     hubbard stress (kbar)      0.00      0.00      0.00
                                0.00      0.00      0.00
                                0.00      0.00      0.00

     london  stress (kbar)      0.00      0.00      0.00
                                0.00      0.00      0.00
                                0.00      0.00      0.00

     DFT-D3  stress (kbar)      0.00      0.00      0.00
                                0.00      0.00      0.00
                                0.00      0.00      0.00

     XDM     stress (kbar)      0.00      0.00      0.00
                                0.00      0.00      0.00
                                0.00      0.00      0.00

     dft-nl  stress (kbar)      0.00      0.00      0.00
                                0.00      0.00      0.00
                                0.00      0.00      0.00

     TS-vdW  stress (kbar)      0.00      0.00      0.00
                                0.00      0.00      0.00
                                0.00      0.00      0.00



     Writing output data file aiida.save/
 
     init_run     :      3.04s CPU      3.19s WALL (       1 calls)
     electrons    :     96.22s CPU    100.76s WALL (       1 calls)
     forces       :      0.67s CPU      0.67s WALL (       1 calls)
     stress       :      2.02s CPU      2.03s WALL (       1 calls)

     Called by init_run:
     wfcinit      :      2.74s CPU      2.84s WALL (       1 calls)
     wfcinit:atom :      0.03s CPU      0.04s WALL (     382 calls)
     wfcinit:wfcr :      2.48s CPU      2.56s WALL (     382 calls)
     potinit      :      0.10s CPU      0.12s WALL (       1 calls)
     hinit0       :      0.14s CPU      0.15s WALL (       1 calls)

     Called by electrons:
     c_bands      :     82.52s CPU     86.73s WALL (      14 calls)
     sum_band     :     12.23s CPU     12.50s WALL (      14 calls)
     v_of_rho     :      0.37s CPU      0.37s WALL (      14 calls)
     v_h          :      0.02s CPU      0.02s WALL (      14 calls)
     v_xc         :      0.39s CPU      0.40s WALL (      16 calls)
     newd         :      0.14s CPU      0.16s WALL (      14 calls)
     PAW_pot      :      0.78s CPU      0.81s WALL (      14 calls)
     mix_rho      :      0.13s CPU      0.13s WALL (      14 calls)

     Called by c_bands:
     init_us_2    :      2.64s CPU      2.75s WALL (   11842 calls)
     cegterg      :     61.27s CPU     62.96s WALL (    5348 calls)

     Called by sum_band:
     sum_band:bec :      0.08s CPU      0.08s WALL (    5348 calls)
     addusdens    :      0.15s CPU      0.16s WALL (      14 calls)

     Called by *egterg:
     h_psi        :     53.17s CPU     54.63s WALL (   17812 calls)
     s_psi        :      2.19s CPU      2.27s WALL (   17812 calls)
     g_psi        :      0.39s CPU      0.41s WALL (   12082 calls)
     cdiaghg      :      3.20s CPU      3.30s WALL (   17048 calls)
     cegterg:over :      1.84s CPU      1.90s WALL (   12082 calls)
     cegterg:upda :      0.86s CPU      0.89s WALL (   12082 calls)
     cegterg:last :      0.32s CPU      0.33s WALL (    5384 calls)

     Called by h_psi:
     h_psi:pot    :     52.95s CPU     54.40s WALL (   17812 calls)
     h_psi:calbec :      2.95s CPU      3.05s WALL (   17812 calls)
     vloc_psi     :     47.63s CPU     48.92s WALL (   17812 calls)
     add_vuspsi   :      2.25s CPU      2.32s WALL (   17812 calls)

     General routines
     calbec       :      4.39s CPU      4.51s WALL (   25070 calls)
     fft          :      0.28s CPU      0.29s WALL (     207 calls)
     ffts         :      0.06s CPU      0.06s WALL (     168 calls)
     fftw         :     51.40s CPU     52.72s WALL (  333790 calls)
     interpolate  :      0.03s CPU      0.03s WALL (      14 calls)
 
     Parallel routines
     fft_scatt_xy :      7.01s CPU      7.21s WALL (  334165 calls)
     fft_scatt_yz :     16.37s CPU     16.85s WALL (  334165 calls)

     PAW routines
     PAW_pot      :      0.78s CPU      0.81s WALL (      14 calls)
 
     PWSCF        :   1m54.19s CPU   2m39.35s WALL

 
   This run was terminated on:   9:39:46  24Feb2020            

=------------------------------------------------------------------------------=
   JOB DONE.
=------------------------------------------------------------------------------=
