begin
comment 4 atoms, species Al4
lattice      7.6331373306    -0.3816568665     0.0000000000
lattice     -0.3816568665     7.6331373306     0.0000000000
lattice      0.0000000000     0.0000000000     7.6522680006
atom      0.0000000000     0.0000000000     0.0000000000   Al  0.0 0.0   -2.84285284e-14  1.31832274e-13 -1.92845828e-13
atom     -0.1908284333     3.8165686653     3.8261340003   Al  0.0 0.0   -1.78411767e-13 -2.07879762e-13  1.92847264e-13
atom      3.8165686653    -0.1908284333     3.8261340003   Al  0.0 0.0    1.78417289e-13  2.07855099e-13  1.92871115e-13
atom      3.6257402320     3.6257402320    -0.0000000000   Al  0.0 0.0    2.84079858e-14 -1.31729713e-13 -1.92809906e-13
energy -7.900170430388258e+01
charge 0.0000
end
begin
comment 4 atoms, species Al4
lattice      7.6331373306    -0.2968442295     0.0000000000
lattice     -0.2968442295     7.6331373306     0.0000000000
lattice      0.0000000000     0.0000000000     7.6446987577
atom      0.0000000000     0.0000000000     0.0000000000   Al  0.0 0.0   -1.74762682e-13 -1.48164102e-13 -5.14655037e-14
atom     -0.1484221148     3.8165686653     3.8223493789   Al  0.0 0.0   -1.20875831e-13  6.29772928e-14  5.16000306e-14
atom      3.8165686653    -0.1484221148     3.8223493789   Al  0.0 0.0    1.20879827e-13 -6.30273293e-14  5.16682852e-14
atom      3.6681465505     3.6681465505    -0.0000000000   Al  0.0 0.0    1.74750549e-13  1.48157686e-13 -5.14818573e-14
energy -7.900302028491788e+01
charge 0.0000
end
begin
comment 4 atoms, species Al4
lattice      7.6331373306    -0.2120315925     0.0000000000
lattice     -0.2120315925     7.6331373306     0.0000000000
lattice      0.0000000000     0.0000000000     7.6390316451
atom      0.0000000000     0.0000000000     0.0000000000   Al  0.0 0.0   -1.85521082e-13 -9.16694170e-14 -2.24836642e-13
atom     -0.1060157963     3.8165686653     3.8195158226   Al  0.0 0.0   -1.65038568e-13  1.90701319e-14  2.24727798e-13
atom      3.8165686653    -0.1060157963     3.8195158226   Al  0.0 0.0    1.65069754e-13 -1.90262652e-14  2.24776789e-13
atom      3.7105528690     3.7105528690    -0.0000000000   Al  0.0 0.0    1.85466688e-13  9.16648533e-14 -2.24841808e-13
energy -7.900398456601211e+01
charge 0.0000
end
begin
comment 4 atoms, species Al4
lattice      7.6331373306    -0.1272189555     0.0000000000
lattice     -0.1272189555     7.6331373306     0.0000000000
lattice      0.0000000000     0.0000000000     7.6352582357
atom      0.0000000000     0.0000000000     0.0000000000   Al  0.0 0.0   -8.85074125e-14  9.93980839e-14  2.15779902e-13
atom     -0.0636094778     3.8165686653     3.8176291178   Al  0.0 0.0   -1.12873729e-13 -1.24372233e-13 -2.15446805e-13
atom      3.8165686653    -0.0636094778     3.8176291178   Al  0.0 0.0    1.12909545e-13  1.24466415e-13 -2.15345088e-13
atom      3.7529591875     3.7529591875    -0.0000000000   Al  0.0 0.0    8.85213344e-14 -9.93613879e-14  2.15396940e-13
energy -7.900462008015111e+01
charge 0.0000
end
begin
comment 4 atoms, species Al4
lattice      7.6331373306    -0.0424063185     0.0000000000
lattice     -0.0424063185     7.6331373306     0.0000000000
lattice      0.0000000000     0.0000000000     7.6333729285
atom      0.0000000000     0.0000000000     0.0000000000   Al  0.0 0.0    5.20038802e-14  1.80550555e-13  1.66271133e-13
atom     -0.0212031593     3.8165686653     3.8166864643   Al  0.0 0.0    3.48572460e-14 -1.77006951e-13 -1.65938795e-13
atom      3.8165686653    -0.0212031593     3.8166864643   Al  0.0 0.0   -3.48013546e-14  1.77011523e-13 -1.65921252e-13
atom      3.7953655060     3.7953655060    -0.0000000000   Al  0.0 0.0   -5.19954344e-14 -1.80487693e-13  1.66248006e-13
energy -7.900493632742496e+01
charge 0.0000
end
begin
comment 4 atoms, species Al4
lattice      7.6331373306     0.0424063185     0.0000000000
lattice      0.0424063185     7.6331373306     0.0000000000
lattice      0.0000000000     0.0000000000     7.6333729285
atom      0.0000000000     0.0000000000     0.0000000000   Al  0.0 0.0    3.48097147e-14  1.77061237e-13  1.66161169e-13
atom      0.0212031593     3.8165686653     3.8166864643   Al  0.0 0.0    5.19692578e-14 -1.80585241e-13 -1.65949270e-13
atom      3.8165686653     0.0212031593     3.8166864643   Al  0.0 0.0   -5.19308752e-14  1.80644441e-13 -1.65917519e-13
atom      3.8377718246     3.8377718246    -0.0000000000   Al  0.0 0.0   -3.48538710e-14 -1.77020873e-13  1.66015113e-13
energy -7.900493632742496e+01
charge 0.0000
end
begin
comment 4 atoms, species Al4
lattice      7.6331373306     0.1272189555     0.0000000000
lattice      0.1272189555     7.6331373306     0.0000000000
lattice      0.0000000000     0.0000000000     7.6352582357
atom      0.0000000000     0.0000000000     0.0000000000   Al  0.0 0.0   -1.12976684e-13  1.24379192e-13  2.15510736e-13
atom      0.0636094778     3.8165686653     3.8176291178   Al  0.0 0.0   -8.85490672e-14 -9.93766449e-14 -2.15345926e-13
atom      3.8165686653     0.0636094778     3.8176291178   Al  0.0 0.0    8.85596071e-14  9.93758590e-14 -2.15417598e-13
atom      3.8801781431     3.8801781431    -0.0000000000   Al  0.0 0.0    1.12928515e-13 -1.24387975e-13  2.15640178e-13
energy -7.900462008015113e+01
charge 0.0000
end
begin
comment 4 atoms, species Al4
lattice      7.6331373306     0.2120315925     0.0000000000
lattice      0.2120315925     7.6331373306     0.0000000000
lattice      0.0000000000     0.0000000000     7.6390316451
atom      0.0000000000     0.0000000000     0.0000000000   Al  0.0 0.0   -1.65076366e-13 -1.90506631e-14 -2.24875985e-13
atom      0.1060157963     3.8165686653     3.8195158226   Al  0.0 0.0   -1.85475361e-13  9.16830810e-14  2.24714206e-13
atom      3.8165686653     0.1060157963     3.8195158226   Al  0.0 0.0    1.85495562e-13 -9.17092736e-14  2.24781863e-13
atom      3.9225844616     3.9225844616    -0.0000000000   Al  0.0 0.0    1.65056883e-13  1.90859623e-14 -2.24801905e-13
energy -7.900398456601212e+01
charge 0.0000
end
begin
comment 4 atoms, species Al4
lattice      7.6331373306     0.2968442295     0.0000000000
lattice      0.2968442295     7.6331373306     0.0000000000
lattice      0.0000000000     0.0000000000     7.6446987577
atom      0.0000000000     0.0000000000     0.0000000000   Al  0.0 0.0   -1.20827090e-13 -6.30291440e-14 -5.16996207e-14
atom      0.1484221148     3.8165686653     3.8223493789   Al  0.0 0.0   -1.74726971e-13  1.48145183e-13  5.15777615e-14
atom      3.8165686653     0.1484221148     3.8223493789   Al  0.0 0.0    1.74731882e-13 -1.48153416e-13  5.16469384e-14
atom      3.9649907801     3.9649907801    -0.0000000000   Al  0.0 0.0    1.20839256e-13  6.29958566e-14 -5.15480359e-14
energy -7.900302028491788e+01
charge 0.0000
end
begin
comment 4 atoms, species Al4
lattice      7.6331373306     0.3816568665     0.0000000000
lattice      0.3816568665     7.6331373306     0.0000000000
lattice      0.0000000000     0.0000000000     7.6522680006
atom      0.0000000000     0.0000000000     0.0000000000   Al  0.0 0.0   -1.78426632e-13  2.07863616e-13 -1.92848885e-13
atom      0.1908284333     3.8165686653     3.8261340003   Al  0.0 0.0   -2.83185573e-14 -1.31784841e-13  1.92845352e-13
atom      3.8165686653     0.1908284333     3.8261340003   Al  0.0 0.0    2.83986226e-14  1.31749444e-13  1.92928577e-13
atom      4.0073970986     4.0073970986    -0.0000000000   Al  0.0 0.0    1.78366453e-13 -2.07752391e-13 -1.92980505e-13
energy -7.900170430388256e+01
charge 0.0000
end
