   1    1        0.000000000       0.271300853       0.040476351
   1    2        0.000000000       0.395210063       0.063402819
   1    3        0.000000000       0.401682877       0.061299769
   1    4        0.000000000       0.240461815       0.034266459
   1    5        0.000000000       0.247415387       0.034409161
   1    6        0.000000000       0.075654591       0.008568132
   1    7        0.000000000       0.077250416       0.008450672
   1    8        0.000000000       0.081172769       0.009238459
   1    9        0.000000000       0.019398111       0.001124110
   1   10        0.000000000       2.313312691       0.670341677
   1   11        0.000000000       3.001077966       0.686713408
   1   12        0.000000000       2.491156019       0.528194785
   1   13        0.000000000       2.982626149       0.989455402
   1   14        0.000000000       2.743774711       0.631846006
   1   15        0.000000000       3.593498551       1.213702303
   1   16        0.000000000       4.605756849       1.103544713
   1   17        0.000000000       1.008288080       0.340163766
   1   18        0.000000000       1.268233632       0.318949854
   1   19        0.000000000       0.944912614       0.224552013
   1   20        0.000000000       8.476397194       2.697283899
   1   21        0.000000000      10.748266623       2.578517554
   1   22        0.000000000       8.331083533       1.845515840
   1   23        0.000000000       5.492071871       1.225034658
   1   24        0.000000000       7.098478094       2.352008988
   1   25        0.000000000       8.964857396       2.177876034
   1   26        0.000000000       2.015108599       0.676392086
   1   27        0.000000000       2.436635294       0.615117752
   1   28        0.000000000       1.910705734       0.413649061
   1   29        0.000000000       3.749119999       1.233241307
   1   30        0.000000000       4.646368059       1.171277715
   1   31        0.000000000       3.700802007       0.799927312
   1   32        0.000000000       5.069054905       1.734742455
   1   33        0.000000000       4.739580047       1.088307575
   1   34        0.000000000       0.000642054       0.000027077
   1   35        0.000000000       0.001283662       0.000034691
   1   36        0.000000000       0.001362650       0.000024405
   1   37        0.000000000       0.025700376       0.001661191
   1   38        0.000000000       0.015095137       0.002217491
   1   39        0.000000000       0.018763264       0.002719551
   1   40        0.000000000       0.049431816       0.003386976
   1   41        0.000000000       0.013997368       0.002239735
   1   42        0.000000000       0.043603040       0.002003821
   1   43        0.000000000       0.072741229       0.004813700
   1   44        0.000000000       0.052071596       0.006809846
   1   45        0.000000000       0.064647858       0.009754975
   1   46        0.000000000       0.141495879       0.009964974
   1   47        0.000000000       0.046439163       0.007376194
   1   48        0.000000000       0.107013238       0.005066775
   1   49        0.000000000       0.002208644       0.000089428
   1   50        0.000000000       0.001662281       0.000130449
   1   51        0.000000000       0.005248221       0.000201885
   1   52        0.000000000       0.034932526       0.002220674
   1   53        0.000000000       0.028412817       0.003283036
   1   54        0.000000000       0.035444997       0.005095896
   1   55        0.000000000       0.071547796       0.004826523
   1   56        0.000000000       0.025539275       0.003826588
   1   57        0.000000000       0.049365372       0.002446998
   1   58        0.000000000       0.005673209       0.000689248
   1   59        0.000000000       0.013769702       0.000504025
   1   60        0.000000000       0.020237195       0.001051154
   1   61        0.000000000       0.015079957       0.001641279
   1   62        0.000000000       0.019817818       0.002517612
   1   63        0.000000000       0.015915960       0.002023281
   1   64        0.000000000       0.015509126       0.000687528
   2    1        0.000000000       0.232546316       0.015146411
   2    2        0.000000000       0.427274058       0.188276508
   2    3        0.000000000       0.439775007       0.023356603
   2    4        0.000000000       0.131026618       0.008185974
   2    5        0.000000000       0.178795093       0.050345916
   2    6        0.000000000       0.040340329       0.002018796
   2    7        0.000000000       0.095985150       0.003995750
   2    8        0.000000000       0.077606964       0.008709654
   2    9        0.000000000       1.860950359       0.164050172
   2   10        0.007913699       3.060593452       1.761350089
   2   11        0.000000000       2.634444437       0.195332306
   2   12        0.079991970       3.740466741       2.281525789
   2   13        0.000000000       2.573238333       0.263627735
   2   14        0.017868930       4.613124352       2.759317055
   2   15        0.000000000       3.532175958       0.301041470
   2   16        0.000000000       0.681133545       0.076194491
   2   17        0.060692111       1.292089688       0.774654502
   2   18        0.000000000       1.014091428       0.089839118
   2   19        0.000000000       6.296018678       0.615986588
   2   20        0.205406498      10.720187619       6.476940272
   2   21        0.000000000       8.796627189       0.724949336
   2   22        0.000000000       4.937090173       0.520276631
   2   23        0.246950605       8.907923113       5.425085656
   2   24        0.000000000       6.961229531       0.615920157
   2   25        0.000000000       1.507922332       0.146946560
   2   26        0.093053144       2.530993364       1.542168448
   2   27        0.000000000       1.997973963       0.172508424
   2   28        0.000000000       2.674260051       0.279808591
   2   29        0.246687833       4.805036743       2.857433823
   2   30        0.000000000       3.915082422       0.326700761
   2   31        0.000000000       3.670999803       0.375440357
   2   32        0.000000000       4.993095171       0.421426243
   2   33        0.000000000       0.000628017       0.000070782
   2   34        0.000000000       0.000509181       0.000016369
   2   35        0.000000000       0.001638189       0.000211854
   2   36        0.000000000       0.000957039       0.000036777
   2   37        0.000000000       0.001872341       0.000006227
   2   38        0.000000000       0.019109606       0.000303054
   2   39        0.000000000       0.018330094       0.001666791
   2   40        0.000000000       0.021147493       0.000581661
   2   41        0.000000000       0.054644660       0.015497412
   2   42        0.000000000       0.024729372       0.002379788
   2   43        0.000000000       0.050707972       0.000497829
   2   44        0.000000000       0.048733745       0.000775224
   2   45        0.000000000       0.055620550       0.004712550
   2   46        0.000000000       0.063774066       0.001715505
   2   47        0.000000000       0.152790218       0.044265648
   2   48        0.000000000       0.094495834       0.006999242
   2   49        0.000000000       0.123647552       0.001217971
   2   50        0.000000000       0.001588262       0.000021847
   2   51        0.000000000       0.002220627       0.000040552
   2   52        0.000000000       0.006460560       0.000054185
   2   53        0.000000000       0.021313607       0.000336770
   2   54        0.000000000       0.028412817       0.002215543
   2   55        0.000000000       0.031964881       0.000824590
   2   56        0.000000000       0.076705003       0.021186299
   2   57        0.000000000       0.053217335       0.003429428
   2   58        0.000000000       0.058018536       0.000567040
   2   59        0.000000000       0.016388316       0.000136526
   2   60        0.000000000       0.014035219       0.000187440
   2   61        0.000000000       0.021970610       0.000467652
   2   62        0.000000000       0.030477701       0.001958097
   2   63        0.000000000       0.013295627       0.000931671
   2   64        0.000000000       0.031195861       0.000249875
   3    1        0.000000000       0.305341567       0.059111231
   3    2        0.000000000       0.439015480       0.094280024
   3    3        0.000000000       0.317982803       0.082484340
   3    4        0.000000000       0.238853773       0.051434972
   3    5        0.000000000       0.070133934       0.008908626
   3    6        0.000000000       0.097069581       0.016129031
   3    7        0.000000000       0.131974142       0.017982110
   3    8        0.000000000       0.082064371       0.007117201
   3    9        0.000000000       2.034574773       0.509337059
   3   10        0.000000000       3.095479492       0.788468016
   3   11        0.000000000       1.888816110       0.587393085
   3   12        0.000000000       2.783581709       0.734232701
   3   13        0.000000000       4.638984094       1.215168013
   3   14        0.000000000       3.770195681       1.245515205
   3   15        0.000000000       0.744453202       0.216535008
   3   16        0.000000000       1.283012605       0.362639813
   3   17        0.000000000       1.039871382       0.316536179
   3   18        0.000000000       6.854011729       1.779626830
   3   19        0.000000000      10.930525792       2.926292000
   3   20        0.000000000       8.556042583       2.773129891
   3   21        0.000000000       5.379750795       1.447474292
   3   22        0.000000000       7.135556764       2.335968833
   3   23        0.000000000       1.628283459       0.398880872
   3   24        0.000000000       2.475172454       0.696338347
   3   25        0.000000000       2.010031536       0.689100757
   3   26        0.000000000       2.963918259       0.771368133
   3   27        0.000000000       4.710925488       1.318742948
   3   28        0.000000000       3.910954136       1.219531771
   3   29        0.000000000       3.953132822       1.049452580
   3   30        0.000000000       5.416907678       1.768403946
   3   31        0.000000000       0.000914908       0.000042320
   3   32        0.000000000       0.001768112       0.000072196
   3   33        0.000000000       0.001288120       0.000051290
   3   34        0.000000000       0.000785621       0.000034358
   3   35        0.000000000       0.000222020       0.000003719
   3   36        0.000000000       0.000263795       0.000006608
   3   37        0.000000000       0.024759693       0.002037230
   3   38        0.000000000       0.020740166       0.002702864
   3   39        0.000000000       0.027787479       0.003417682
   3   40        0.000000000       0.056917289       0.005148795
   3   41        0.000000000       0.029089441       0.003446063
   3   42        0.000000000       0.062364284       0.003977349
   3   43        0.000000000       0.044528651       0.006569754
   3   44        0.000000000       0.079215384       0.010218638
   3   45        0.000000000       0.157408001       0.013780652
   3   46        0.000000000       0.094495834       0.010405755
   3   47        0.000000000       0.075489673       0.009007093
   3   48        0.000000000       0.013342844       0.001380655
   3   49        0.000000000       0.003108038       0.000180221
   3   50        0.000000000       0.002957548       0.000245322
   3   51        0.000000000       0.003519547       0.000279369
   3   52        0.000000000       0.004787183       0.000443461
   3   53        0.000000000       0.027717000       0.001390696
   3   54        0.000000000       0.038713086       0.005049147
   3   55        0.000000000       0.053217335       0.005347247
   3   56        0.000000000       0.043249345       0.004840128
   3   57        0.000000000       0.007136936       0.000523390
   3   58        0.000000000       0.009238848       0.000940547
   3   59        0.000000000       0.008166735       0.000893479
   3   60        0.000000000       0.018772079       0.001022795
   3   61        0.000000000       0.015135533       0.001784860
   3   62        0.000000000       0.025730515       0.002731550
   3   63        0.000000000       0.022917436       0.002437421
   3   64        0.000000000       0.016504330       0.001428044
       -0.1824150362       -0.0386324451
