
     Program PWSCF v.6.3 starts on 22Feb2020 at 14:12:22 

     This program is part of the open-source Quantum ESPRESSO suite
     for quantum simulation of materials; please cite
         "P. Giannozzi et al., J. Phys.:Condens. Matter 21 395502 (2009);
         "P. Giannozzi et al., J. Phys.:Condens. Matter 29 465901 (2017);
          URL http://www.quantum-espresso.org", 
     in publications or presentations arising from this work. More details at
     http://www.quantum-espresso.org/quote

 *** WARNING: using old-style file format, will disappear from next version ***

     Parallel version (MPI & OpenMP), running on      36 processor cores
     Number of MPI processes:                36
     Threads/MPI process:                     1

     MPI processes distributed on     1 nodes
     K-points division:     npool     =       4
     R & G space division:  proc/nbgrp/npool/nimage =       9
     Reading input from aiida.in
Warning: card &IONS ignored
Warning: card   !PRESS_CONV_THR = 0.05                 ! JUST FOR VOLUME RELAXATIONS ignored
Warning: card / ignored

     Current dimensions of program PWSCF are:
     Max number of different atomic species (ntypx) = 10
     Max number of k-points (npk) =  40000
     Max angular momentum in pseudopotentials (lmaxx) =  3
               file Mg.pbe-n-kjpaw_psl.0.3.0.UPF: wavefunction(s)  3S renormalized

     Subspace diagonalization in iterative solution of the eigenvalue problem:
     one sub-group per band group will be used
     scalapack distributed-memory algorithm (size of sub-group:  2*  2 procs)

 
     Parallelization info
     --------------------
     sticks:   dense  smooth     PW     G-vecs:    dense   smooth      PW
     Min         751     300     87                39437     9972    1555
     Max         751     301     88                39438     9973    1556
     Sum        6759    2705    787               354939    89755   14003
 


     bravais-lattice index     =            0
     lattice parameter (alat)  =      27.6424  a.u.
     unit-cell volume          =    2627.1428 (a.u.)^3
     number of atoms/cell      =           22
     number of atomic types    =            2
     number of electrons       =        68.00
     number of Kohn-Sham states=           41
     kinetic-energy cutoff     =      40.0000  Ry
     charge density cutoff     =     400.0000  Ry
     convergence threshold     =      1.0E-12
     mixing beta               =       0.4000
     number of iterations used =            8  local-TF  mixing
     Exchange-correlation      = PBE ( 1  4  3  4 0 0)

     celldm(1)=  27.642385  celldm(2)=   0.000000  celldm(3)=   0.000000
     celldm(4)=   0.000000  celldm(5)=   0.000000  celldm(6)=   0.000000

     crystal axes: (cart. coord. in units of alat)
               a(1) = (   0.964764   0.000000  -0.263117 )  
               a(2) = (   0.000000   0.277352   0.000000 )  
               a(3) = (   0.000000   0.000000   0.464841 )  

     reciprocal axes: (cart. coord. in units 2 pi/alat)
               b(1) = (  1.036523  0.000000  0.000000 )  
               b(2) = (  0.000000  3.605521  0.000000 )  
               b(3) = (  0.586711  0.000000  2.151274 )  


     PseudoPot. # 1 for Mg read from file:
     /users/aglensk/Dropbox/Albert/scripts/dotfiles/scripts/potentials/quantum_espresso/pseudo_SSSPefV1.1_alalloy/Mg.pbe-n-kjpaw_psl.0.3.0.UPF
     MD5 check sum: 24ecedc7f3e3cbe212e682f4413594e4
     Pseudo is Projector augmented-wave + core cor, Zval =  2.0
     Generated using "atomic" code by A. Dal Corso v.5.0.99 svn rev. 10869
     Shape of augmentation charge: PSQ
     Using radial grid of 1129 points,  4 beta functions with: 
                l(1) =   0
                l(2) =   0
                l(3) =   1
                l(4) =   1
     Q(r) pseudized with 0 coefficients 


     PseudoPot. # 2 for Si read from file:
     /users/aglensk/Dropbox/Albert/scripts/dotfiles/scripts/potentials/quantum_espresso/pseudo_SSSPefV1.1_alalloy/Si.pbe-n-rrkjus_psl.1.0.0.UPF
     MD5 check sum: 0b0bb1205258b0d07b9f9672cf965d36
     Pseudo is Ultrasoft + core correction, Zval =  4.0
     Generated using "atomic" code by A. Dal Corso v.5.1
     Using radial grid of 1141 points,  6 beta functions with: 
                l(1) =   0
                l(2) =   0
                l(3) =   1
                l(4) =   1
                l(5) =   2
                l(6) =   2
     Q(r) pseudized with 0 coefficients 


     atomic species   valence    mass     pseudopotential
        Mg             2.00    24.30500     Mg( 1.00)
        Si             4.00    28.08500     Si( 1.00)

     No symmetry found


                                    s                        frac. trans.

      isym =  1     identity                                     

 cryst.   s( 1) = (     1          0          0      )
                  (     0          1          0      )
                  (     0          0          1      )

 cart.    s( 1) = (  1.0000000  0.0000000  0.0000000 )
                  (  0.0000000  1.0000000  0.0000000 )
                  ( -0.0000000  0.0000000  1.0000000 )


   Cartesian axes

     site n.     atom                  positions (alat units)
         1           Mg  tau(   1) = (   0.0013568   0.0000000   0.3164289  )
         2           Mg  tau(   2) = (   0.0768769   0.1386762   0.0012962  )
         3           Mg  tau(   3) = (   0.1500965   0.1386762   0.2416418  )
         4           Mg  tau(   4) = (   0.3349997   0.0000000   0.2596606  )
         5           Mg  tau(   5) = (   0.4082225   0.0000000   0.0351541  )
         6           Si  tau(   6) = (   0.0550879   0.0000000   0.1457146  )
         7           Si  tau(   7) = (   0.1871040   0.0000000   0.3818188  )
         8           Si  tau(   8) = (   0.2053448   0.0000000   0.0875045  )
         9           Si  tau(   9) = (   0.2797660   0.1386762  -0.0510375  )
        10           Si  tau(  10) = (   0.2979991   0.1386762   0.1194878  )
        11           Si  tau(  11) = (   0.4300233   0.1386762  -0.1092508  )
        12           Mg  tau(  12) = (   0.4837360   0.1386762   0.1848712  )
        13           Mg  tau(  13) = (   0.5592515   0.0000000  -0.1302694  )
        14           Mg  tau(  14) = (   0.6324545   0.0000000   0.1100797  )
        15           Mg  tau(  15) = (   0.8174057   0.1386762   0.1281156  )
        16           Mg  tau(  16) = (   0.8906118   0.1386762  -0.0963948  )
        17           Si  tau(  17) = (   0.5374798   0.1386762   0.0141549  )
        18           Si  tau(  18) = (   0.6694819   0.1386762   0.2502556  )
        19           Si  tau(  19) = (   0.6877350   0.1386762  -0.0440607  )
        20           Si  tau(  20) = (   0.7621419   0.0000000  -0.1825762  )
        21           Si  tau(  21) = (   0.7803885   0.0000000  -0.0120535  )
        22           Si  tau(  22) = (   0.9123946   0.0000000  -0.2408062  )

   Crystallographic axes

     site n.     atom                  positions (cryst. coord.)
         1           Mg  tau(   1) = (  0.0014064  0.0000000  0.6815215  )
         2           Mg  tau(   2) = (  0.0796847  0.5000000  0.0478931  )
         3           Mg  tau(   3) = (  0.1555784  0.5000000  0.6079012  )
         4           Mg  tau(   4) = (  0.3472349  0.0000000  0.7551493  )
         5           Mg  tau(   5) = (  0.4231320  0.0000000  0.3151347  )
         6           Si  tau(   6) = (  0.0570999  0.0000000  0.3457928  )
         7           Si  tau(   7) = (  0.1939376  0.0000000  0.9311729  )
         8           Si  tau(   8) = (  0.2128446  0.0000000  0.3087243  )
         9           Si  tau(   9) = (  0.2899839  0.5000000  0.0543461  )
        10           Si  tau(  10) = (  0.3088830  0.5000000  0.4318906  )
        11           Si  tau(  11) = (  0.4457291  0.5000000  0.0172711  )
        12           Mg  tau(  12) = (  0.5014036  0.5000000  0.6815220  )
        13           Mg  tau(  13) = (  0.5796771  0.0000000  0.0478738  )
        14           Mg  tau(  14) = (  0.6555538  0.0000000  0.6078799  )
        15           Mg  tau(  15) = (  0.8472599  0.5000000  0.7551929  )
        16           Mg  tau(  16) = (  0.9231397  0.5000000  0.3151603  )
        17           Si  tau(  17) = (  0.5571102  0.5000000  0.3457965  )
        18           Si  tau(  18) = (  0.6939335  0.5000000  0.9311610  )
        19           Si  tau(  19) = (  0.7128532  0.5000000  0.3087152  )
        20           Si  tau(  20) = (  0.7899777  0.0000000  0.0543857  )
        21           Si  tau(  21) = (  0.8088907  0.0000000  0.4319324  )
        22           Si  tau(  22) = (  0.9457181  0.0000000  0.0172720  )

     number of k points=   782  Methfessel-Paxton smearing, width (Ry)=  0.0441
                       cart. coord. in units 2pi/alat
        k(    1) = (   0.0000000   0.0000000   0.0000000), wk =   0.0012821
        k(    2) = (   0.0451316   0.0000000   0.1654826), wk =   0.0025641
        k(    3) = (   0.0902633   0.0000000   0.3309653), wk =   0.0025641
        k(    4) = (   0.1353949   0.0000000   0.4964479), wk =   0.0025641
        k(    5) = (   0.1805265   0.0000000   0.6619306), wk =   0.0025641
        k(    6) = (   0.2256582   0.0000000   0.8274132), wk =   0.0025641
        k(    7) = (   0.2707898   0.0000000   0.9928959), wk =   0.0025641
        k(    8) = (   0.0000000   0.1802761   0.0000000), wk =   0.0025641
        k(    9) = (   0.0451316   0.1802761   0.1654826), wk =   0.0025641
        k(   10) = (   0.0902633   0.1802761   0.3309653), wk =   0.0025641
        k(   11) = (   0.1353949   0.1802761   0.4964479), wk =   0.0025641
        k(   12) = (   0.1805265   0.1802761   0.6619306), wk =   0.0025641
        k(   13) = (   0.2256582   0.1802761   0.8274132), wk =   0.0025641
        k(   14) = (   0.2707898   0.1802761   0.9928959), wk =   0.0025641
        k(   15) = (  -0.2707898   0.1802761  -0.9928959), wk =   0.0025641
        k(   16) = (  -0.2256582   0.1802761  -0.8274132), wk =   0.0025641
        k(   17) = (  -0.1805265   0.1802761  -0.6619306), wk =   0.0025641
        k(   18) = (  -0.1353949   0.1802761  -0.4964479), wk =   0.0025641
        k(   19) = (  -0.0902633   0.1802761  -0.3309653), wk =   0.0025641
        k(   20) = (  -0.0451316   0.1802761  -0.1654826), wk =   0.0025641
        k(   21) = (   0.0000000   0.3605521   0.0000000), wk =   0.0025641
        k(   22) = (   0.0451316   0.3605521   0.1654826), wk =   0.0025641
        k(   23) = (   0.0902633   0.3605521   0.3309653), wk =   0.0025641
        k(   24) = (   0.1353949   0.3605521   0.4964479), wk =   0.0025641
        k(   25) = (   0.1805265   0.3605521   0.6619306), wk =   0.0025641
        k(   26) = (   0.2256582   0.3605521   0.8274132), wk =   0.0025641
        k(   27) = (   0.2707898   0.3605521   0.9928959), wk =   0.0025641
        k(   28) = (  -0.2707898   0.3605521  -0.9928959), wk =   0.0025641
        k(   29) = (  -0.2256582   0.3605521  -0.8274132), wk =   0.0025641
        k(   30) = (  -0.1805265   0.3605521  -0.6619306), wk =   0.0025641
        k(   31) = (  -0.1353949   0.3605521  -0.4964479), wk =   0.0025641
        k(   32) = (  -0.0902633   0.3605521  -0.3309653), wk =   0.0025641
        k(   33) = (  -0.0451316   0.3605521  -0.1654826), wk =   0.0025641
        k(   34) = (   0.0000000   0.5408282   0.0000000), wk =   0.0025641
        k(   35) = (   0.0451316   0.5408282   0.1654826), wk =   0.0025641
        k(   36) = (   0.0902633   0.5408282   0.3309653), wk =   0.0025641
        k(   37) = (   0.1353949   0.5408282   0.4964479), wk =   0.0025641
        k(   38) = (   0.1805265   0.5408282   0.6619306), wk =   0.0025641
        k(   39) = (   0.2256582   0.5408282   0.8274132), wk =   0.0025641
        k(   40) = (   0.2707898   0.5408282   0.9928959), wk =   0.0025641
        k(   41) = (  -0.2707898   0.5408282  -0.9928959), wk =   0.0025641
        k(   42) = (  -0.2256582   0.5408282  -0.8274132), wk =   0.0025641
        k(   43) = (  -0.1805265   0.5408282  -0.6619306), wk =   0.0025641
        k(   44) = (  -0.1353949   0.5408282  -0.4964479), wk =   0.0025641
        k(   45) = (  -0.0902633   0.5408282  -0.3309653), wk =   0.0025641
        k(   46) = (  -0.0451316   0.5408282  -0.1654826), wk =   0.0025641
        k(   47) = (   0.0000000   0.7211043   0.0000000), wk =   0.0025641
        k(   48) = (   0.0451316   0.7211043   0.1654826), wk =   0.0025641
        k(   49) = (   0.0902633   0.7211043   0.3309653), wk =   0.0025641
        k(   50) = (   0.1353949   0.7211043   0.4964479), wk =   0.0025641
        k(   51) = (   0.1805265   0.7211043   0.6619306), wk =   0.0025641
        k(   52) = (   0.2256582   0.7211043   0.8274132), wk =   0.0025641
        k(   53) = (   0.2707898   0.7211043   0.9928959), wk =   0.0025641
        k(   54) = (  -0.2707898   0.7211043  -0.9928959), wk =   0.0025641
        k(   55) = (  -0.2256582   0.7211043  -0.8274132), wk =   0.0025641
        k(   56) = (  -0.1805265   0.7211043  -0.6619306), wk =   0.0025641
        k(   57) = (  -0.1353949   0.7211043  -0.4964479), wk =   0.0025641
        k(   58) = (  -0.0902633   0.7211043  -0.3309653), wk =   0.0025641
        k(   59) = (  -0.0451316   0.7211043  -0.1654826), wk =   0.0025641
        k(   60) = (   0.0000000   0.9013803   0.0000000), wk =   0.0025641
        k(   61) = (   0.0451316   0.9013803   0.1654826), wk =   0.0025641
        k(   62) = (   0.0902633   0.9013803   0.3309653), wk =   0.0025641
        k(   63) = (   0.1353949   0.9013803   0.4964479), wk =   0.0025641
        k(   64) = (   0.1805265   0.9013803   0.6619306), wk =   0.0025641
        k(   65) = (   0.2256582   0.9013803   0.8274132), wk =   0.0025641
        k(   66) = (   0.2707898   0.9013803   0.9928959), wk =   0.0025641
        k(   67) = (  -0.2707898   0.9013803  -0.9928959), wk =   0.0025641
        k(   68) = (  -0.2256582   0.9013803  -0.8274132), wk =   0.0025641
        k(   69) = (  -0.1805265   0.9013803  -0.6619306), wk =   0.0025641
        k(   70) = (  -0.1353949   0.9013803  -0.4964479), wk =   0.0025641
        k(   71) = (  -0.0902633   0.9013803  -0.3309653), wk =   0.0025641
        k(   72) = (  -0.0451316   0.9013803  -0.1654826), wk =   0.0025641
        k(   73) = (   0.0000000   1.0816564   0.0000000), wk =   0.0025641
        k(   74) = (   0.0451316   1.0816564   0.1654826), wk =   0.0025641
        k(   75) = (   0.0902633   1.0816564   0.3309653), wk =   0.0025641
        k(   76) = (   0.1353949   1.0816564   0.4964479), wk =   0.0025641
        k(   77) = (   0.1805265   1.0816564   0.6619306), wk =   0.0025641
        k(   78) = (   0.2256582   1.0816564   0.8274132), wk =   0.0025641
        k(   79) = (   0.2707898   1.0816564   0.9928959), wk =   0.0025641
        k(   80) = (  -0.2707898   1.0816564  -0.9928959), wk =   0.0025641
        k(   81) = (  -0.2256582   1.0816564  -0.8274132), wk =   0.0025641
        k(   82) = (  -0.1805265   1.0816564  -0.6619306), wk =   0.0025641
        k(   83) = (  -0.1353949   1.0816564  -0.4964479), wk =   0.0025641
        k(   84) = (  -0.0902633   1.0816564  -0.3309653), wk =   0.0025641
        k(   85) = (  -0.0451316   1.0816564  -0.1654826), wk =   0.0025641
        k(   86) = (   0.0000000   1.2619324   0.0000000), wk =   0.0025641
        k(   87) = (   0.0451316   1.2619324   0.1654826), wk =   0.0025641
        k(   88) = (   0.0902633   1.2619324   0.3309653), wk =   0.0025641
        k(   89) = (   0.1353949   1.2619324   0.4964479), wk =   0.0025641
        k(   90) = (   0.1805265   1.2619324   0.6619306), wk =   0.0025641
        k(   91) = (   0.2256582   1.2619324   0.8274132), wk =   0.0025641
        k(   92) = (   0.2707898   1.2619324   0.9928959), wk =   0.0025641
        k(   93) = (  -0.2707898   1.2619324  -0.9928959), wk =   0.0025641
        k(   94) = (  -0.2256582   1.2619324  -0.8274132), wk =   0.0025641
        k(   95) = (  -0.1805265   1.2619324  -0.6619306), wk =   0.0025641
        k(   96) = (  -0.1353949   1.2619324  -0.4964479), wk =   0.0025641
        k(   97) = (  -0.0902633   1.2619324  -0.3309653), wk =   0.0025641
        k(   98) = (  -0.0451316   1.2619324  -0.1654826), wk =   0.0025641
        k(   99) = (   0.0000000   1.4422085   0.0000000), wk =   0.0025641
        k(  100) = (   0.0451316   1.4422085   0.1654826), wk =   0.0025641
        k(  101) = (   0.0902633   1.4422085   0.3309653), wk =   0.0025641
        k(  102) = (   0.1353949   1.4422085   0.4964479), wk =   0.0025641
        k(  103) = (   0.1805265   1.4422085   0.6619306), wk =   0.0025641
        k(  104) = (   0.2256582   1.4422085   0.8274132), wk =   0.0025641
        k(  105) = (   0.2707898   1.4422085   0.9928959), wk =   0.0025641
        k(  106) = (  -0.2707898   1.4422085  -0.9928959), wk =   0.0025641
        k(  107) = (  -0.2256582   1.4422085  -0.8274132), wk =   0.0025641
        k(  108) = (  -0.1805265   1.4422085  -0.6619306), wk =   0.0025641
        k(  109) = (  -0.1353949   1.4422085  -0.4964479), wk =   0.0025641
        k(  110) = (  -0.0902633   1.4422085  -0.3309653), wk =   0.0025641
        k(  111) = (  -0.0451316   1.4422085  -0.1654826), wk =   0.0025641
        k(  112) = (   0.0000000   1.6224846   0.0000000), wk =   0.0025641
        k(  113) = (   0.0451316   1.6224846   0.1654826), wk =   0.0025641
        k(  114) = (   0.0902633   1.6224846   0.3309653), wk =   0.0025641
        k(  115) = (   0.1353949   1.6224846   0.4964479), wk =   0.0025641
        k(  116) = (   0.1805265   1.6224846   0.6619306), wk =   0.0025641
        k(  117) = (   0.2256582   1.6224846   0.8274132), wk =   0.0025641
        k(  118) = (   0.2707898   1.6224846   0.9928959), wk =   0.0025641
        k(  119) = (  -0.2707898   1.6224846  -0.9928959), wk =   0.0025641
        k(  120) = (  -0.2256582   1.6224846  -0.8274132), wk =   0.0025641
        k(  121) = (  -0.1805265   1.6224846  -0.6619306), wk =   0.0025641
        k(  122) = (  -0.1353949   1.6224846  -0.4964479), wk =   0.0025641
        k(  123) = (  -0.0902633   1.6224846  -0.3309653), wk =   0.0025641
        k(  124) = (  -0.0451316   1.6224846  -0.1654826), wk =   0.0025641
        k(  125) = (   0.0000000  -1.8027606   0.0000000), wk =   0.0012821
        k(  126) = (   0.0451316  -1.8027606   0.1654826), wk =   0.0025641
        k(  127) = (   0.0902633  -1.8027606   0.3309653), wk =   0.0025641
        k(  128) = (   0.1353949  -1.8027606   0.4964479), wk =   0.0025641
        k(  129) = (   0.1805265  -1.8027606   0.6619306), wk =   0.0025641
        k(  130) = (   0.2256582  -1.8027606   0.8274132), wk =   0.0025641
        k(  131) = (   0.2707898  -1.8027606   0.9928959), wk =   0.0025641
        k(  132) = (   0.1727539   0.0000000   0.0000000), wk =   0.0025641
        k(  133) = (   0.2178855   0.0000000   0.1654826), wk =   0.0025641
        k(  134) = (   0.2630171   0.0000000   0.3309653), wk =   0.0025641
        k(  135) = (   0.3081488   0.0000000   0.4964479), wk =   0.0025641
        k(  136) = (   0.3532804   0.0000000   0.6619306), wk =   0.0025641
        k(  137) = (   0.3984120   0.0000000   0.8274132), wk =   0.0025641
        k(  138) = (   0.4435437   0.0000000   0.9928959), wk =   0.0025641
        k(  139) = (  -0.0980359   0.0000000  -0.9928959), wk =   0.0025641
        k(  140) = (  -0.0529043   0.0000000  -0.8274132), wk =   0.0025641
        k(  141) = (  -0.0077727   0.0000000  -0.6619306), wk =   0.0025641
        k(  142) = (   0.0373590   0.0000000  -0.4964479), wk =   0.0025641
        k(  143) = (   0.0824906   0.0000000  -0.3309653), wk =   0.0025641
        k(  144) = (   0.1276222   0.0000000  -0.1654826), wk =   0.0025641
        k(  145) = (   0.1727539   0.1802761   0.0000000), wk =   0.0025641
        k(  146) = (   0.2178855   0.1802761   0.1654826), wk =   0.0025641
        k(  147) = (   0.2630171   0.1802761   0.3309653), wk =   0.0025641
        k(  148) = (   0.3081488   0.1802761   0.4964479), wk =   0.0025641
        k(  149) = (   0.3532804   0.1802761   0.6619306), wk =   0.0025641
        k(  150) = (   0.3984120   0.1802761   0.8274132), wk =   0.0025641
        k(  151) = (   0.4435437   0.1802761   0.9928959), wk =   0.0025641
        k(  152) = (  -0.0980359   0.1802761  -0.9928959), wk =   0.0025641
        k(  153) = (  -0.0529043   0.1802761  -0.8274132), wk =   0.0025641
        k(  154) = (  -0.0077727   0.1802761  -0.6619306), wk =   0.0025641
        k(  155) = (   0.0373590   0.1802761  -0.4964479), wk =   0.0025641
        k(  156) = (   0.0824906   0.1802761  -0.3309653), wk =   0.0025641
        k(  157) = (   0.1276222   0.1802761  -0.1654826), wk =   0.0025641
        k(  158) = (   0.1727539   0.3605521   0.0000000), wk =   0.0025641
        k(  159) = (   0.2178855   0.3605521   0.1654826), wk =   0.0025641
        k(  160) = (   0.2630171   0.3605521   0.3309653), wk =   0.0025641
        k(  161) = (   0.3081488   0.3605521   0.4964479), wk =   0.0025641
        k(  162) = (   0.3532804   0.3605521   0.6619306), wk =   0.0025641
        k(  163) = (   0.3984120   0.3605521   0.8274132), wk =   0.0025641
        k(  164) = (   0.4435437   0.3605521   0.9928959), wk =   0.0025641
        k(  165) = (  -0.0980359   0.3605521  -0.9928959), wk =   0.0025641
        k(  166) = (  -0.0529043   0.3605521  -0.8274132), wk =   0.0025641
        k(  167) = (  -0.0077727   0.3605521  -0.6619306), wk =   0.0025641
        k(  168) = (   0.0373590   0.3605521  -0.4964479), wk =   0.0025641
        k(  169) = (   0.0824906   0.3605521  -0.3309653), wk =   0.0025641
        k(  170) = (   0.1276222   0.3605521  -0.1654826), wk =   0.0025641
        k(  171) = (   0.1727539   0.5408282   0.0000000), wk =   0.0025641
        k(  172) = (   0.2178855   0.5408282   0.1654826), wk =   0.0025641
        k(  173) = (   0.2630171   0.5408282   0.3309653), wk =   0.0025641
        k(  174) = (   0.3081488   0.5408282   0.4964479), wk =   0.0025641
        k(  175) = (   0.3532804   0.5408282   0.6619306), wk =   0.0025641
        k(  176) = (   0.3984120   0.5408282   0.8274132), wk =   0.0025641
        k(  177) = (   0.4435437   0.5408282   0.9928959), wk =   0.0025641
        k(  178) = (  -0.0980359   0.5408282  -0.9928959), wk =   0.0025641
        k(  179) = (  -0.0529043   0.5408282  -0.8274132), wk =   0.0025641
        k(  180) = (  -0.0077727   0.5408282  -0.6619306), wk =   0.0025641
        k(  181) = (   0.0373590   0.5408282  -0.4964479), wk =   0.0025641
        k(  182) = (   0.0824906   0.5408282  -0.3309653), wk =   0.0025641
        k(  183) = (   0.1276222   0.5408282  -0.1654826), wk =   0.0025641
        k(  184) = (   0.1727539   0.7211043   0.0000000), wk =   0.0025641
        k(  185) = (   0.2178855   0.7211043   0.1654826), wk =   0.0025641
        k(  186) = (   0.2630171   0.7211043   0.3309653), wk =   0.0025641
        k(  187) = (   0.3081488   0.7211043   0.4964479), wk =   0.0025641
        k(  188) = (   0.3532804   0.7211043   0.6619306), wk =   0.0025641
        k(  189) = (   0.3984120   0.7211043   0.8274132), wk =   0.0025641
        k(  190) = (   0.4435437   0.7211043   0.9928959), wk =   0.0025641
        k(  191) = (  -0.0980359   0.7211043  -0.9928959), wk =   0.0025641
        k(  192) = (  -0.0529043   0.7211043  -0.8274132), wk =   0.0025641
        k(  193) = (  -0.0077727   0.7211043  -0.6619306), wk =   0.0025641
        k(  194) = (   0.0373590   0.7211043  -0.4964479), wk =   0.0025641
        k(  195) = (   0.0824906   0.7211043  -0.3309653), wk =   0.0025641
        k(  196) = (   0.1276222   0.7211043  -0.1654826), wk =   0.0025641
        k(  197) = (   0.1727539   0.9013803   0.0000000), wk =   0.0025641
        k(  198) = (   0.2178855   0.9013803   0.1654826), wk =   0.0025641
        k(  199) = (   0.2630171   0.9013803   0.3309653), wk =   0.0025641
        k(  200) = (   0.3081488   0.9013803   0.4964479), wk =   0.0025641
        k(  201) = (   0.3532804   0.9013803   0.6619306), wk =   0.0025641
        k(  202) = (   0.3984120   0.9013803   0.8274132), wk =   0.0025641
        k(  203) = (   0.4435437   0.9013803   0.9928959), wk =   0.0025641
        k(  204) = (  -0.0980359   0.9013803  -0.9928959), wk =   0.0025641
        k(  205) = (  -0.0529043   0.9013803  -0.8274132), wk =   0.0025641
        k(  206) = (  -0.0077727   0.9013803  -0.6619306), wk =   0.0025641
        k(  207) = (   0.0373590   0.9013803  -0.4964479), wk =   0.0025641
        k(  208) = (   0.0824906   0.9013803  -0.3309653), wk =   0.0025641
        k(  209) = (   0.1276222   0.9013803  -0.1654826), wk =   0.0025641
        k(  210) = (   0.1727539   1.0816564   0.0000000), wk =   0.0025641
        k(  211) = (   0.2178855   1.0816564   0.1654826), wk =   0.0025641
        k(  212) = (   0.2630171   1.0816564   0.3309653), wk =   0.0025641
        k(  213) = (   0.3081488   1.0816564   0.4964479), wk =   0.0025641
        k(  214) = (   0.3532804   1.0816564   0.6619306), wk =   0.0025641
        k(  215) = (   0.3984120   1.0816564   0.8274132), wk =   0.0025641
        k(  216) = (   0.4435437   1.0816564   0.9928959), wk =   0.0025641
        k(  217) = (  -0.0980359   1.0816564  -0.9928959), wk =   0.0025641
        k(  218) = (  -0.0529043   1.0816564  -0.8274132), wk =   0.0025641
        k(  219) = (  -0.0077727   1.0816564  -0.6619306), wk =   0.0025641
        k(  220) = (   0.0373590   1.0816564  -0.4964479), wk =   0.0025641
        k(  221) = (   0.0824906   1.0816564  -0.3309653), wk =   0.0025641
        k(  222) = (   0.1276222   1.0816564  -0.1654826), wk =   0.0025641
        k(  223) = (   0.1727539   1.2619324   0.0000000), wk =   0.0025641
        k(  224) = (   0.2178855   1.2619324   0.1654826), wk =   0.0025641
        k(  225) = (   0.2630171   1.2619324   0.3309653), wk =   0.0025641
        k(  226) = (   0.3081488   1.2619324   0.4964479), wk =   0.0025641
        k(  227) = (   0.3532804   1.2619324   0.6619306), wk =   0.0025641
        k(  228) = (   0.3984120   1.2619324   0.8274132), wk =   0.0025641
        k(  229) = (   0.4435437   1.2619324   0.9928959), wk =   0.0025641
        k(  230) = (  -0.0980359   1.2619324  -0.9928959), wk =   0.0025641
        k(  231) = (  -0.0529043   1.2619324  -0.8274132), wk =   0.0025641
        k(  232) = (  -0.0077727   1.2619324  -0.6619306), wk =   0.0025641
        k(  233) = (   0.0373590   1.2619324  -0.4964479), wk =   0.0025641
        k(  234) = (   0.0824906   1.2619324  -0.3309653), wk =   0.0025641
        k(  235) = (   0.1276222   1.2619324  -0.1654826), wk =   0.0025641
        k(  236) = (   0.1727539   1.4422085   0.0000000), wk =   0.0025641
        k(  237) = (   0.2178855   1.4422085   0.1654826), wk =   0.0025641
        k(  238) = (   0.2630171   1.4422085   0.3309653), wk =   0.0025641
        k(  239) = (   0.3081488   1.4422085   0.4964479), wk =   0.0025641
        k(  240) = (   0.3532804   1.4422085   0.6619306), wk =   0.0025641
        k(  241) = (   0.3984120   1.4422085   0.8274132), wk =   0.0025641
        k(  242) = (   0.4435437   1.4422085   0.9928959), wk =   0.0025641
        k(  243) = (  -0.0980359   1.4422085  -0.9928959), wk =   0.0025641
        k(  244) = (  -0.0529043   1.4422085  -0.8274132), wk =   0.0025641
        k(  245) = (  -0.0077727   1.4422085  -0.6619306), wk =   0.0025641
        k(  246) = (   0.0373590   1.4422085  -0.4964479), wk =   0.0025641
        k(  247) = (   0.0824906   1.4422085  -0.3309653), wk =   0.0025641
        k(  248) = (   0.1276222   1.4422085  -0.1654826), wk =   0.0025641
        k(  249) = (   0.1727539   1.6224846   0.0000000), wk =   0.0025641
        k(  250) = (   0.2178855   1.6224846   0.1654826), wk =   0.0025641
        k(  251) = (   0.2630171   1.6224846   0.3309653), wk =   0.0025641
        k(  252) = (   0.3081488   1.6224846   0.4964479), wk =   0.0025641
        k(  253) = (   0.3532804   1.6224846   0.6619306), wk =   0.0025641
        k(  254) = (   0.3984120   1.6224846   0.8274132), wk =   0.0025641
        k(  255) = (   0.4435437   1.6224846   0.9928959), wk =   0.0025641
        k(  256) = (  -0.0980359   1.6224846  -0.9928959), wk =   0.0025641
        k(  257) = (  -0.0529043   1.6224846  -0.8274132), wk =   0.0025641
        k(  258) = (  -0.0077727   1.6224846  -0.6619306), wk =   0.0025641
        k(  259) = (   0.0373590   1.6224846  -0.4964479), wk =   0.0025641
        k(  260) = (   0.0824906   1.6224846  -0.3309653), wk =   0.0025641
        k(  261) = (   0.1276222   1.6224846  -0.1654826), wk =   0.0025641
        k(  262) = (   0.1727539  -1.8027606   0.0000000), wk =   0.0025641
        k(  263) = (   0.2178855  -1.8027606   0.1654826), wk =   0.0025641
        k(  264) = (   0.2630171  -1.8027606   0.3309653), wk =   0.0025641
        k(  265) = (   0.3081488  -1.8027606   0.4964479), wk =   0.0025641
        k(  266) = (   0.3532804  -1.8027606   0.6619306), wk =   0.0025641
        k(  267) = (   0.3984120  -1.8027606   0.8274132), wk =   0.0025641
        k(  268) = (   0.4435437  -1.8027606   0.9928959), wk =   0.0025641
        k(  269) = (  -0.0980359  -1.8027606  -0.9928959), wk =   0.0025641
        k(  270) = (  -0.0529043  -1.8027606  -0.8274132), wk =   0.0025641
        k(  271) = (  -0.0077727  -1.8027606  -0.6619306), wk =   0.0025641
        k(  272) = (   0.0373590  -1.8027606  -0.4964479), wk =   0.0025641
        k(  273) = (   0.0824906  -1.8027606  -0.3309653), wk =   0.0025641
        k(  274) = (   0.1276222  -1.8027606  -0.1654826), wk =   0.0025641
        k(  275) = (   0.1727539  -1.6224846   0.0000000), wk =   0.0025641
        k(  276) = (   0.2178855  -1.6224846   0.1654826), wk =   0.0025641
        k(  277) = (   0.2630171  -1.6224846   0.3309653), wk =   0.0025641
        k(  278) = (   0.3081488  -1.6224846   0.4964479), wk =   0.0025641
        k(  279) = (   0.3532804  -1.6224846   0.6619306), wk =   0.0025641
        k(  280) = (   0.3984120  -1.6224846   0.8274132), wk =   0.0025641
        k(  281) = (   0.4435437  -1.6224846   0.9928959), wk =   0.0025641
        k(  282) = (  -0.0980359  -1.6224846  -0.9928959), wk =   0.0025641
        k(  283) = (  -0.0529043  -1.6224846  -0.8274132), wk =   0.0025641
        k(  284) = (  -0.0077727  -1.6224846  -0.6619306), wk =   0.0025641
        k(  285) = (   0.0373590  -1.6224846  -0.4964479), wk =   0.0025641
        k(  286) = (   0.0824906  -1.6224846  -0.3309653), wk =   0.0025641
        k(  287) = (   0.1276222  -1.6224846  -0.1654826), wk =   0.0025641
        k(  288) = (   0.1727539  -1.4422085   0.0000000), wk =   0.0025641
        k(  289) = (   0.2178855  -1.4422085   0.1654826), wk =   0.0025641
        k(  290) = (   0.2630171  -1.4422085   0.3309653), wk =   0.0025641
        k(  291) = (   0.3081488  -1.4422085   0.4964479), wk =   0.0025641
        k(  292) = (   0.3532804  -1.4422085   0.6619306), wk =   0.0025641
        k(  293) = (   0.3984120  -1.4422085   0.8274132), wk =   0.0025641
        k(  294) = (   0.4435437  -1.4422085   0.9928959), wk =   0.0025641
        k(  295) = (  -0.0980359  -1.4422085  -0.9928959), wk =   0.0025641
        k(  296) = (  -0.0529043  -1.4422085  -0.8274132), wk =   0.0025641
        k(  297) = (  -0.0077727  -1.4422085  -0.6619306), wk =   0.0025641
        k(  298) = (   0.0373590  -1.4422085  -0.4964479), wk =   0.0025641
        k(  299) = (   0.0824906  -1.4422085  -0.3309653), wk =   0.0025641
        k(  300) = (   0.1276222  -1.4422085  -0.1654826), wk =   0.0025641
        k(  301) = (   0.1727539  -1.2619324   0.0000000), wk =   0.0025641
        k(  302) = (   0.2178855  -1.2619324   0.1654826), wk =   0.0025641
        k(  303) = (   0.2630171  -1.2619324   0.3309653), wk =   0.0025641
        k(  304) = (   0.3081488  -1.2619324   0.4964479), wk =   0.0025641
        k(  305) = (   0.3532804  -1.2619324   0.6619306), wk =   0.0025641
        k(  306) = (   0.3984120  -1.2619324   0.8274132), wk =   0.0025641
        k(  307) = (   0.4435437  -1.2619324   0.9928959), wk =   0.0025641
        k(  308) = (  -0.0980359  -1.2619324  -0.9928959), wk =   0.0025641
        k(  309) = (  -0.0529043  -1.2619324  -0.8274132), wk =   0.0025641
        k(  310) = (  -0.0077727  -1.2619324  -0.6619306), wk =   0.0025641
        k(  311) = (   0.0373590  -1.2619324  -0.4964479), wk =   0.0025641
        k(  312) = (   0.0824906  -1.2619324  -0.3309653), wk =   0.0025641
        k(  313) = (   0.1276222  -1.2619324  -0.1654826), wk =   0.0025641
        k(  314) = (   0.1727539  -1.0816564   0.0000000), wk =   0.0025641
        k(  315) = (   0.2178855  -1.0816564   0.1654826), wk =   0.0025641
        k(  316) = (   0.2630171  -1.0816564   0.3309653), wk =   0.0025641
        k(  317) = (   0.3081488  -1.0816564   0.4964479), wk =   0.0025641
        k(  318) = (   0.3532804  -1.0816564   0.6619306), wk =   0.0025641
        k(  319) = (   0.3984120  -1.0816564   0.8274132), wk =   0.0025641
        k(  320) = (   0.4435437  -1.0816564   0.9928959), wk =   0.0025641
        k(  321) = (  -0.0980359  -1.0816564  -0.9928959), wk =   0.0025641
        k(  322) = (  -0.0529043  -1.0816564  -0.8274132), wk =   0.0025641
        k(  323) = (  -0.0077727  -1.0816564  -0.6619306), wk =   0.0025641
        k(  324) = (   0.0373590  -1.0816564  -0.4964479), wk =   0.0025641
        k(  325) = (   0.0824906  -1.0816564  -0.3309653), wk =   0.0025641
        k(  326) = (   0.1276222  -1.0816564  -0.1654826), wk =   0.0025641
        k(  327) = (   0.1727539  -0.9013803   0.0000000), wk =   0.0025641
        k(  328) = (   0.2178855  -0.9013803   0.1654826), wk =   0.0025641
        k(  329) = (   0.2630171  -0.9013803   0.3309653), wk =   0.0025641
        k(  330) = (   0.3081488  -0.9013803   0.4964479), wk =   0.0025641
        k(  331) = (   0.3532804  -0.9013803   0.6619306), wk =   0.0025641
        k(  332) = (   0.3984120  -0.9013803   0.8274132), wk =   0.0025641
        k(  333) = (   0.4435437  -0.9013803   0.9928959), wk =   0.0025641
        k(  334) = (  -0.0980359  -0.9013803  -0.9928959), wk =   0.0025641
        k(  335) = (  -0.0529043  -0.9013803  -0.8274132), wk =   0.0025641
        k(  336) = (  -0.0077727  -0.9013803  -0.6619306), wk =   0.0025641
        k(  337) = (   0.0373590  -0.9013803  -0.4964479), wk =   0.0025641
        k(  338) = (   0.0824906  -0.9013803  -0.3309653), wk =   0.0025641
        k(  339) = (   0.1276222  -0.9013803  -0.1654826), wk =   0.0025641
        k(  340) = (   0.1727539  -0.7211043   0.0000000), wk =   0.0025641
        k(  341) = (   0.2178855  -0.7211043   0.1654826), wk =   0.0025641
        k(  342) = (   0.2630171  -0.7211043   0.3309653), wk =   0.0025641
        k(  343) = (   0.3081488  -0.7211043   0.4964479), wk =   0.0025641
        k(  344) = (   0.3532804  -0.7211043   0.6619306), wk =   0.0025641
        k(  345) = (   0.3984120  -0.7211043   0.8274132), wk =   0.0025641
        k(  346) = (   0.4435437  -0.7211043   0.9928959), wk =   0.0025641
        k(  347) = (  -0.0980359  -0.7211043  -0.9928959), wk =   0.0025641
        k(  348) = (  -0.0529043  -0.7211043  -0.8274132), wk =   0.0025641
        k(  349) = (  -0.0077727  -0.7211043  -0.6619306), wk =   0.0025641
        k(  350) = (   0.0373590  -0.7211043  -0.4964479), wk =   0.0025641
        k(  351) = (   0.0824906  -0.7211043  -0.3309653), wk =   0.0025641
        k(  352) = (   0.1276222  -0.7211043  -0.1654826), wk =   0.0025641
        k(  353) = (   0.1727539  -0.5408282   0.0000000), wk =   0.0025641
        k(  354) = (   0.2178855  -0.5408282   0.1654826), wk =   0.0025641
        k(  355) = (   0.2630171  -0.5408282   0.3309653), wk =   0.0025641
        k(  356) = (   0.3081488  -0.5408282   0.4964479), wk =   0.0025641
        k(  357) = (   0.3532804  -0.5408282   0.6619306), wk =   0.0025641
        k(  358) = (   0.3984120  -0.5408282   0.8274132), wk =   0.0025641
        k(  359) = (   0.4435437  -0.5408282   0.9928959), wk =   0.0025641
        k(  360) = (  -0.0980359  -0.5408282  -0.9928959), wk =   0.0025641
        k(  361) = (  -0.0529043  -0.5408282  -0.8274132), wk =   0.0025641
        k(  362) = (  -0.0077727  -0.5408282  -0.6619306), wk =   0.0025641
        k(  363) = (   0.0373590  -0.5408282  -0.4964479), wk =   0.0025641
        k(  364) = (   0.0824906  -0.5408282  -0.3309653), wk =   0.0025641
        k(  365) = (   0.1276222  -0.5408282  -0.1654826), wk =   0.0025641
        k(  366) = (   0.1727539  -0.3605521   0.0000000), wk =   0.0025641
        k(  367) = (   0.2178855  -0.3605521   0.1654826), wk =   0.0025641
        k(  368) = (   0.2630171  -0.3605521   0.3309653), wk =   0.0025641
        k(  369) = (   0.3081488  -0.3605521   0.4964479), wk =   0.0025641
        k(  370) = (   0.3532804  -0.3605521   0.6619306), wk =   0.0025641
        k(  371) = (   0.3984120  -0.3605521   0.8274132), wk =   0.0025641
        k(  372) = (   0.4435437  -0.3605521   0.9928959), wk =   0.0025641
        k(  373) = (  -0.0980359  -0.3605521  -0.9928959), wk =   0.0025641
        k(  374) = (  -0.0529043  -0.3605521  -0.8274132), wk =   0.0025641
        k(  375) = (  -0.0077727  -0.3605521  -0.6619306), wk =   0.0025641
        k(  376) = (   0.0373590  -0.3605521  -0.4964479), wk =   0.0025641
        k(  377) = (   0.0824906  -0.3605521  -0.3309653), wk =   0.0025641
        k(  378) = (   0.1276222  -0.3605521  -0.1654826), wk =   0.0025641
        k(  379) = (   0.1727539  -0.1802761   0.0000000), wk =   0.0025641
        k(  380) = (   0.2178855  -0.1802761   0.1654826), wk =   0.0025641
        k(  381) = (   0.2630171  -0.1802761   0.3309653), wk =   0.0025641
        k(  382) = (   0.3081488  -0.1802761   0.4964479), wk =   0.0025641
        k(  383) = (   0.3532804  -0.1802761   0.6619306), wk =   0.0025641
        k(  384) = (   0.3984120  -0.1802761   0.8274132), wk =   0.0025641
        k(  385) = (   0.4435437  -0.1802761   0.9928959), wk =   0.0025641
        k(  386) = (  -0.0980359  -0.1802761  -0.9928959), wk =   0.0025641
        k(  387) = (  -0.0529043  -0.1802761  -0.8274132), wk =   0.0025641
        k(  388) = (  -0.0077727  -0.1802761  -0.6619306), wk =   0.0025641
        k(  389) = (   0.0373590  -0.1802761  -0.4964479), wk =   0.0025641
        k(  390) = (   0.0824906  -0.1802761  -0.3309653), wk =   0.0025641
        k(  391) = (   0.1276222  -0.1802761  -0.1654826), wk =   0.0025641
        k(  392) = (   0.3455077   0.0000000   0.0000000), wk =   0.0025641
        k(  393) = (   0.3906393   0.0000000   0.1654826), wk =   0.0025641
        k(  394) = (   0.4357710   0.0000000   0.3309653), wk =   0.0025641
        k(  395) = (   0.4809026   0.0000000   0.4964479), wk =   0.0025641
        k(  396) = (   0.5260342   0.0000000   0.6619306), wk =   0.0025641
        k(  397) = (   0.5711659   0.0000000   0.8274132), wk =   0.0025641
        k(  398) = (   0.6162975   0.0000000   0.9928959), wk =   0.0025641
        k(  399) = (   0.0747179   0.0000000  -0.9928959), wk =   0.0025641
        k(  400) = (   0.1198495   0.0000000  -0.8274132), wk =   0.0025641
        k(  401) = (   0.1649812   0.0000000  -0.6619306), wk =   0.0025641
        k(  402) = (   0.2101128   0.0000000  -0.4964479), wk =   0.0025641
        k(  403) = (   0.2552444   0.0000000  -0.3309653), wk =   0.0025641
        k(  404) = (   0.3003761   0.0000000  -0.1654826), wk =   0.0025641
        k(  405) = (   0.3455077   0.1802761   0.0000000), wk =   0.0025641
        k(  406) = (   0.3906393   0.1802761   0.1654826), wk =   0.0025641
        k(  407) = (   0.4357710   0.1802761   0.3309653), wk =   0.0025641
        k(  408) = (   0.4809026   0.1802761   0.4964479), wk =   0.0025641
        k(  409) = (   0.5260342   0.1802761   0.6619306), wk =   0.0025641
        k(  410) = (   0.5711659   0.1802761   0.8274132), wk =   0.0025641
        k(  411) = (   0.6162975   0.1802761   0.9928959), wk =   0.0025641
        k(  412) = (   0.0747179   0.1802761  -0.9928959), wk =   0.0025641
        k(  413) = (   0.1198495   0.1802761  -0.8274132), wk =   0.0025641
        k(  414) = (   0.1649812   0.1802761  -0.6619306), wk =   0.0025641
        k(  415) = (   0.2101128   0.1802761  -0.4964479), wk =   0.0025641
        k(  416) = (   0.2552444   0.1802761  -0.3309653), wk =   0.0025641
        k(  417) = (   0.3003761   0.1802761  -0.1654826), wk =   0.0025641
        k(  418) = (   0.3455077   0.3605521   0.0000000), wk =   0.0025641
        k(  419) = (   0.3906393   0.3605521   0.1654826), wk =   0.0025641
        k(  420) = (   0.4357710   0.3605521   0.3309653), wk =   0.0025641
        k(  421) = (   0.4809026   0.3605521   0.4964479), wk =   0.0025641
        k(  422) = (   0.5260342   0.3605521   0.6619306), wk =   0.0025641
        k(  423) = (   0.5711659   0.3605521   0.8274132), wk =   0.0025641
        k(  424) = (   0.6162975   0.3605521   0.9928959), wk =   0.0025641
        k(  425) = (   0.0747179   0.3605521  -0.9928959), wk =   0.0025641
        k(  426) = (   0.1198495   0.3605521  -0.8274132), wk =   0.0025641
        k(  427) = (   0.1649812   0.3605521  -0.6619306), wk =   0.0025641
        k(  428) = (   0.2101128   0.3605521  -0.4964479), wk =   0.0025641
        k(  429) = (   0.2552444   0.3605521  -0.3309653), wk =   0.0025641
        k(  430) = (   0.3003761   0.3605521  -0.1654826), wk =   0.0025641
        k(  431) = (   0.3455077   0.5408282   0.0000000), wk =   0.0025641
        k(  432) = (   0.3906393   0.5408282   0.1654826), wk =   0.0025641
        k(  433) = (   0.4357710   0.5408282   0.3309653), wk =   0.0025641
        k(  434) = (   0.4809026   0.5408282   0.4964479), wk =   0.0025641
        k(  435) = (   0.5260342   0.5408282   0.6619306), wk =   0.0025641
        k(  436) = (   0.5711659   0.5408282   0.8274132), wk =   0.0025641
        k(  437) = (   0.6162975   0.5408282   0.9928959), wk =   0.0025641
        k(  438) = (   0.0747179   0.5408282  -0.9928959), wk =   0.0025641
        k(  439) = (   0.1198495   0.5408282  -0.8274132), wk =   0.0025641
        k(  440) = (   0.1649812   0.5408282  -0.6619306), wk =   0.0025641
        k(  441) = (   0.2101128   0.5408282  -0.4964479), wk =   0.0025641
        k(  442) = (   0.2552444   0.5408282  -0.3309653), wk =   0.0025641
        k(  443) = (   0.3003761   0.5408282  -0.1654826), wk =   0.0025641
        k(  444) = (   0.3455077   0.7211043   0.0000000), wk =   0.0025641
        k(  445) = (   0.3906393   0.7211043   0.1654826), wk =   0.0025641
        k(  446) = (   0.4357710   0.7211043   0.3309653), wk =   0.0025641
        k(  447) = (   0.4809026   0.7211043   0.4964479), wk =   0.0025641
        k(  448) = (   0.5260342   0.7211043   0.6619306), wk =   0.0025641
        k(  449) = (   0.5711659   0.7211043   0.8274132), wk =   0.0025641
        k(  450) = (   0.6162975   0.7211043   0.9928959), wk =   0.0025641
        k(  451) = (   0.0747179   0.7211043  -0.9928959), wk =   0.0025641
        k(  452) = (   0.1198495   0.7211043  -0.8274132), wk =   0.0025641
        k(  453) = (   0.1649812   0.7211043  -0.6619306), wk =   0.0025641
        k(  454) = (   0.2101128   0.7211043  -0.4964479), wk =   0.0025641
        k(  455) = (   0.2552444   0.7211043  -0.3309653), wk =   0.0025641
        k(  456) = (   0.3003761   0.7211043  -0.1654826), wk =   0.0025641
        k(  457) = (   0.3455077   0.9013803   0.0000000), wk =   0.0025641
        k(  458) = (   0.3906393   0.9013803   0.1654826), wk =   0.0025641
        k(  459) = (   0.4357710   0.9013803   0.3309653), wk =   0.0025641
        k(  460) = (   0.4809026   0.9013803   0.4964479), wk =   0.0025641
        k(  461) = (   0.5260342   0.9013803   0.6619306), wk =   0.0025641
        k(  462) = (   0.5711659   0.9013803   0.8274132), wk =   0.0025641
        k(  463) = (   0.6162975   0.9013803   0.9928959), wk =   0.0025641
        k(  464) = (   0.0747179   0.9013803  -0.9928959), wk =   0.0025641
        k(  465) = (   0.1198495   0.9013803  -0.8274132), wk =   0.0025641
        k(  466) = (   0.1649812   0.9013803  -0.6619306), wk =   0.0025641
        k(  467) = (   0.2101128   0.9013803  -0.4964479), wk =   0.0025641
        k(  468) = (   0.2552444   0.9013803  -0.3309653), wk =   0.0025641
        k(  469) = (   0.3003761   0.9013803  -0.1654826), wk =   0.0025641
        k(  470) = (   0.3455077   1.0816564   0.0000000), wk =   0.0025641
        k(  471) = (   0.3906393   1.0816564   0.1654826), wk =   0.0025641
        k(  472) = (   0.4357710   1.0816564   0.3309653), wk =   0.0025641
        k(  473) = (   0.4809026   1.0816564   0.4964479), wk =   0.0025641
        k(  474) = (   0.5260342   1.0816564   0.6619306), wk =   0.0025641
        k(  475) = (   0.5711659   1.0816564   0.8274132), wk =   0.0025641
        k(  476) = (   0.6162975   1.0816564   0.9928959), wk =   0.0025641
        k(  477) = (   0.0747179   1.0816564  -0.9928959), wk =   0.0025641
        k(  478) = (   0.1198495   1.0816564  -0.8274132), wk =   0.0025641
        k(  479) = (   0.1649812   1.0816564  -0.6619306), wk =   0.0025641
        k(  480) = (   0.2101128   1.0816564  -0.4964479), wk =   0.0025641
        k(  481) = (   0.2552444   1.0816564  -0.3309653), wk =   0.0025641
        k(  482) = (   0.3003761   1.0816564  -0.1654826), wk =   0.0025641
        k(  483) = (   0.3455077   1.2619324   0.0000000), wk =   0.0025641
        k(  484) = (   0.3906393   1.2619324   0.1654826), wk =   0.0025641
        k(  485) = (   0.4357710   1.2619324   0.3309653), wk =   0.0025641
        k(  486) = (   0.4809026   1.2619324   0.4964479), wk =   0.0025641
        k(  487) = (   0.5260342   1.2619324   0.6619306), wk =   0.0025641
        k(  488) = (   0.5711659   1.2619324   0.8274132), wk =   0.0025641
        k(  489) = (   0.6162975   1.2619324   0.9928959), wk =   0.0025641
        k(  490) = (   0.0747179   1.2619324  -0.9928959), wk =   0.0025641
        k(  491) = (   0.1198495   1.2619324  -0.8274132), wk =   0.0025641
        k(  492) = (   0.1649812   1.2619324  -0.6619306), wk =   0.0025641
        k(  493) = (   0.2101128   1.2619324  -0.4964479), wk =   0.0025641
        k(  494) = (   0.2552444   1.2619324  -0.3309653), wk =   0.0025641
        k(  495) = (   0.3003761   1.2619324  -0.1654826), wk =   0.0025641
        k(  496) = (   0.3455077   1.4422085   0.0000000), wk =   0.0025641
        k(  497) = (   0.3906393   1.4422085   0.1654826), wk =   0.0025641
        k(  498) = (   0.4357710   1.4422085   0.3309653), wk =   0.0025641
        k(  499) = (   0.4809026   1.4422085   0.4964479), wk =   0.0025641
        k(  500) = (   0.5260342   1.4422085   0.6619306), wk =   0.0025641
        k(  501) = (   0.5711659   1.4422085   0.8274132), wk =   0.0025641
        k(  502) = (   0.6162975   1.4422085   0.9928959), wk =   0.0025641
        k(  503) = (   0.0747179   1.4422085  -0.9928959), wk =   0.0025641
        k(  504) = (   0.1198495   1.4422085  -0.8274132), wk =   0.0025641
        k(  505) = (   0.1649812   1.4422085  -0.6619306), wk =   0.0025641
        k(  506) = (   0.2101128   1.4422085  -0.4964479), wk =   0.0025641
        k(  507) = (   0.2552444   1.4422085  -0.3309653), wk =   0.0025641
        k(  508) = (   0.3003761   1.4422085  -0.1654826), wk =   0.0025641
        k(  509) = (   0.3455077   1.6224846   0.0000000), wk =   0.0025641
        k(  510) = (   0.3906393   1.6224846   0.1654826), wk =   0.0025641
        k(  511) = (   0.4357710   1.6224846   0.3309653), wk =   0.0025641
        k(  512) = (   0.4809026   1.6224846   0.4964479), wk =   0.0025641
        k(  513) = (   0.5260342   1.6224846   0.6619306), wk =   0.0025641
        k(  514) = (   0.5711659   1.6224846   0.8274132), wk =   0.0025641
        k(  515) = (   0.6162975   1.6224846   0.9928959), wk =   0.0025641
        k(  516) = (   0.0747179   1.6224846  -0.9928959), wk =   0.0025641
        k(  517) = (   0.1198495   1.6224846  -0.8274132), wk =   0.0025641
        k(  518) = (   0.1649812   1.6224846  -0.6619306), wk =   0.0025641
        k(  519) = (   0.2101128   1.6224846  -0.4964479), wk =   0.0025641
        k(  520) = (   0.2552444   1.6224846  -0.3309653), wk =   0.0025641
        k(  521) = (   0.3003761   1.6224846  -0.1654826), wk =   0.0025641
        k(  522) = (   0.3455077  -1.8027606   0.0000000), wk =   0.0025641
        k(  523) = (   0.3906393  -1.8027606   0.1654826), wk =   0.0025641
        k(  524) = (   0.4357710  -1.8027606   0.3309653), wk =   0.0025641
        k(  525) = (   0.4809026  -1.8027606   0.4964479), wk =   0.0025641
        k(  526) = (   0.5260342  -1.8027606   0.6619306), wk =   0.0025641
        k(  527) = (   0.5711659  -1.8027606   0.8274132), wk =   0.0025641
        k(  528) = (   0.6162975  -1.8027606   0.9928959), wk =   0.0025641
        k(  529) = (   0.0747179  -1.8027606  -0.9928959), wk =   0.0025641
        k(  530) = (   0.1198495  -1.8027606  -0.8274132), wk =   0.0025641
        k(  531) = (   0.1649812  -1.8027606  -0.6619306), wk =   0.0025641
        k(  532) = (   0.2101128  -1.8027606  -0.4964479), wk =   0.0025641
        k(  533) = (   0.2552444  -1.8027606  -0.3309653), wk =   0.0025641
        k(  534) = (   0.3003761  -1.8027606  -0.1654826), wk =   0.0025641
        k(  535) = (   0.3455077  -1.6224846   0.0000000), wk =   0.0025641
        k(  536) = (   0.3906393  -1.6224846   0.1654826), wk =   0.0025641
        k(  537) = (   0.4357710  -1.6224846   0.3309653), wk =   0.0025641
        k(  538) = (   0.4809026  -1.6224846   0.4964479), wk =   0.0025641
        k(  539) = (   0.5260342  -1.6224846   0.6619306), wk =   0.0025641
        k(  540) = (   0.5711659  -1.6224846   0.8274132), wk =   0.0025641
        k(  541) = (   0.6162975  -1.6224846   0.9928959), wk =   0.0025641
        k(  542) = (   0.0747179  -1.6224846  -0.9928959), wk =   0.0025641
        k(  543) = (   0.1198495  -1.6224846  -0.8274132), wk =   0.0025641
        k(  544) = (   0.1649812  -1.6224846  -0.6619306), wk =   0.0025641
        k(  545) = (   0.2101128  -1.6224846  -0.4964479), wk =   0.0025641
        k(  546) = (   0.2552444  -1.6224846  -0.3309653), wk =   0.0025641
        k(  547) = (   0.3003761  -1.6224846  -0.1654826), wk =   0.0025641
        k(  548) = (   0.3455077  -1.4422085   0.0000000), wk =   0.0025641
        k(  549) = (   0.3906393  -1.4422085   0.1654826), wk =   0.0025641
        k(  550) = (   0.4357710  -1.4422085   0.3309653), wk =   0.0025641
        k(  551) = (   0.4809026  -1.4422085   0.4964479), wk =   0.0025641
        k(  552) = (   0.5260342  -1.4422085   0.6619306), wk =   0.0025641
        k(  553) = (   0.5711659  -1.4422085   0.8274132), wk =   0.0025641
        k(  554) = (   0.6162975  -1.4422085   0.9928959), wk =   0.0025641
        k(  555) = (   0.0747179  -1.4422085  -0.9928959), wk =   0.0025641
        k(  556) = (   0.1198495  -1.4422085  -0.8274132), wk =   0.0025641
        k(  557) = (   0.1649812  -1.4422085  -0.6619306), wk =   0.0025641
        k(  558) = (   0.2101128  -1.4422085  -0.4964479), wk =   0.0025641
        k(  559) = (   0.2552444  -1.4422085  -0.3309653), wk =   0.0025641
        k(  560) = (   0.3003761  -1.4422085  -0.1654826), wk =   0.0025641
        k(  561) = (   0.3455077  -1.2619324   0.0000000), wk =   0.0025641
        k(  562) = (   0.3906393  -1.2619324   0.1654826), wk =   0.0025641
        k(  563) = (   0.4357710  -1.2619324   0.3309653), wk =   0.0025641
        k(  564) = (   0.4809026  -1.2619324   0.4964479), wk =   0.0025641
        k(  565) = (   0.5260342  -1.2619324   0.6619306), wk =   0.0025641
        k(  566) = (   0.5711659  -1.2619324   0.8274132), wk =   0.0025641
        k(  567) = (   0.6162975  -1.2619324   0.9928959), wk =   0.0025641
        k(  568) = (   0.0747179  -1.2619324  -0.9928959), wk =   0.0025641
        k(  569) = (   0.1198495  -1.2619324  -0.8274132), wk =   0.0025641
        k(  570) = (   0.1649812  -1.2619324  -0.6619306), wk =   0.0025641
        k(  571) = (   0.2101128  -1.2619324  -0.4964479), wk =   0.0025641
        k(  572) = (   0.2552444  -1.2619324  -0.3309653), wk =   0.0025641
        k(  573) = (   0.3003761  -1.2619324  -0.1654826), wk =   0.0025641
        k(  574) = (   0.3455077  -1.0816564   0.0000000), wk =   0.0025641
        k(  575) = (   0.3906393  -1.0816564   0.1654826), wk =   0.0025641
        k(  576) = (   0.4357710  -1.0816564   0.3309653), wk =   0.0025641
        k(  577) = (   0.4809026  -1.0816564   0.4964479), wk =   0.0025641
        k(  578) = (   0.5260342  -1.0816564   0.6619306), wk =   0.0025641
        k(  579) = (   0.5711659  -1.0816564   0.8274132), wk =   0.0025641
        k(  580) = (   0.6162975  -1.0816564   0.9928959), wk =   0.0025641
        k(  581) = (   0.0747179  -1.0816564  -0.9928959), wk =   0.0025641
        k(  582) = (   0.1198495  -1.0816564  -0.8274132), wk =   0.0025641
        k(  583) = (   0.1649812  -1.0816564  -0.6619306), wk =   0.0025641
        k(  584) = (   0.2101128  -1.0816564  -0.4964479), wk =   0.0025641
        k(  585) = (   0.2552444  -1.0816564  -0.3309653), wk =   0.0025641
        k(  586) = (   0.3003761  -1.0816564  -0.1654826), wk =   0.0025641
        k(  587) = (   0.3455077  -0.9013803   0.0000000), wk =   0.0025641
        k(  588) = (   0.3906393  -0.9013803   0.1654826), wk =   0.0025641
        k(  589) = (   0.4357710  -0.9013803   0.3309653), wk =   0.0025641
        k(  590) = (   0.4809026  -0.9013803   0.4964479), wk =   0.0025641
        k(  591) = (   0.5260342  -0.9013803   0.6619306), wk =   0.0025641
        k(  592) = (   0.5711659  -0.9013803   0.8274132), wk =   0.0025641
        k(  593) = (   0.6162975  -0.9013803   0.9928959), wk =   0.0025641
        k(  594) = (   0.0747179  -0.9013803  -0.9928959), wk =   0.0025641
        k(  595) = (   0.1198495  -0.9013803  -0.8274132), wk =   0.0025641
        k(  596) = (   0.1649812  -0.9013803  -0.6619306), wk =   0.0025641
        k(  597) = (   0.2101128  -0.9013803  -0.4964479), wk =   0.0025641
        k(  598) = (   0.2552444  -0.9013803  -0.3309653), wk =   0.0025641
        k(  599) = (   0.3003761  -0.9013803  -0.1654826), wk =   0.0025641
        k(  600) = (   0.3455077  -0.7211043   0.0000000), wk =   0.0025641
        k(  601) = (   0.3906393  -0.7211043   0.1654826), wk =   0.0025641
        k(  602) = (   0.4357710  -0.7211043   0.3309653), wk =   0.0025641
        k(  603) = (   0.4809026  -0.7211043   0.4964479), wk =   0.0025641
        k(  604) = (   0.5260342  -0.7211043   0.6619306), wk =   0.0025641
        k(  605) = (   0.5711659  -0.7211043   0.8274132), wk =   0.0025641
        k(  606) = (   0.6162975  -0.7211043   0.9928959), wk =   0.0025641
        k(  607) = (   0.0747179  -0.7211043  -0.9928959), wk =   0.0025641
        k(  608) = (   0.1198495  -0.7211043  -0.8274132), wk =   0.0025641
        k(  609) = (   0.1649812  -0.7211043  -0.6619306), wk =   0.0025641
        k(  610) = (   0.2101128  -0.7211043  -0.4964479), wk =   0.0025641
        k(  611) = (   0.2552444  -0.7211043  -0.3309653), wk =   0.0025641
        k(  612) = (   0.3003761  -0.7211043  -0.1654826), wk =   0.0025641
        k(  613) = (   0.3455077  -0.5408282   0.0000000), wk =   0.0025641
        k(  614) = (   0.3906393  -0.5408282   0.1654826), wk =   0.0025641
        k(  615) = (   0.4357710  -0.5408282   0.3309653), wk =   0.0025641
        k(  616) = (   0.4809026  -0.5408282   0.4964479), wk =   0.0025641
        k(  617) = (   0.5260342  -0.5408282   0.6619306), wk =   0.0025641
        k(  618) = (   0.5711659  -0.5408282   0.8274132), wk =   0.0025641
        k(  619) = (   0.6162975  -0.5408282   0.9928959), wk =   0.0025641
        k(  620) = (   0.0747179  -0.5408282  -0.9928959), wk =   0.0025641
        k(  621) = (   0.1198495  -0.5408282  -0.8274132), wk =   0.0025641
        k(  622) = (   0.1649812  -0.5408282  -0.6619306), wk =   0.0025641
        k(  623) = (   0.2101128  -0.5408282  -0.4964479), wk =   0.0025641
        k(  624) = (   0.2552444  -0.5408282  -0.3309653), wk =   0.0025641
        k(  625) = (   0.3003761  -0.5408282  -0.1654826), wk =   0.0025641
        k(  626) = (   0.3455077  -0.3605521   0.0000000), wk =   0.0025641
        k(  627) = (   0.3906393  -0.3605521   0.1654826), wk =   0.0025641
        k(  628) = (   0.4357710  -0.3605521   0.3309653), wk =   0.0025641
        k(  629) = (   0.4809026  -0.3605521   0.4964479), wk =   0.0025641
        k(  630) = (   0.5260342  -0.3605521   0.6619306), wk =   0.0025641
        k(  631) = (   0.5711659  -0.3605521   0.8274132), wk =   0.0025641
        k(  632) = (   0.6162975  -0.3605521   0.9928959), wk =   0.0025641
        k(  633) = (   0.0747179  -0.3605521  -0.9928959), wk =   0.0025641
        k(  634) = (   0.1198495  -0.3605521  -0.8274132), wk =   0.0025641
        k(  635) = (   0.1649812  -0.3605521  -0.6619306), wk =   0.0025641
        k(  636) = (   0.2101128  -0.3605521  -0.4964479), wk =   0.0025641
        k(  637) = (   0.2552444  -0.3605521  -0.3309653), wk =   0.0025641
        k(  638) = (   0.3003761  -0.3605521  -0.1654826), wk =   0.0025641
        k(  639) = (   0.3455077  -0.1802761   0.0000000), wk =   0.0025641
        k(  640) = (   0.3906393  -0.1802761   0.1654826), wk =   0.0025641
        k(  641) = (   0.4357710  -0.1802761   0.3309653), wk =   0.0025641
        k(  642) = (   0.4809026  -0.1802761   0.4964479), wk =   0.0025641
        k(  643) = (   0.5260342  -0.1802761   0.6619306), wk =   0.0025641
        k(  644) = (   0.5711659  -0.1802761   0.8274132), wk =   0.0025641
        k(  645) = (   0.6162975  -0.1802761   0.9928959), wk =   0.0025641
        k(  646) = (   0.0747179  -0.1802761  -0.9928959), wk =   0.0025641
        k(  647) = (   0.1198495  -0.1802761  -0.8274132), wk =   0.0025641
        k(  648) = (   0.1649812  -0.1802761  -0.6619306), wk =   0.0025641
        k(  649) = (   0.2101128  -0.1802761  -0.4964479), wk =   0.0025641
        k(  650) = (   0.2552444  -0.1802761  -0.3309653), wk =   0.0025641
        k(  651) = (   0.3003761  -0.1802761  -0.1654826), wk =   0.0025641
        k(  652) = (  -0.5182616   0.0000000   0.0000000), wk =   0.0012821
        k(  653) = (  -0.4731299   0.0000000   0.1654826), wk =   0.0025641
        k(  654) = (  -0.4279983   0.0000000   0.3309653), wk =   0.0025641
        k(  655) = (  -0.3828667   0.0000000   0.4964479), wk =   0.0025641
        k(  656) = (  -0.3377350   0.0000000   0.6619306), wk =   0.0025641
        k(  657) = (  -0.2926034   0.0000000   0.8274132), wk =   0.0025641
        k(  658) = (  -0.2474718   0.0000000   0.9928959), wk =   0.0025641
        k(  659) = (  -0.5182616   0.1802761   0.0000000), wk =   0.0025641
        k(  660) = (  -0.4731299   0.1802761   0.1654826), wk =   0.0025641
        k(  661) = (  -0.4279983   0.1802761   0.3309653), wk =   0.0025641
        k(  662) = (  -0.3828667   0.1802761   0.4964479), wk =   0.0025641
        k(  663) = (  -0.3377350   0.1802761   0.6619306), wk =   0.0025641
        k(  664) = (  -0.2926034   0.1802761   0.8274132), wk =   0.0025641
        k(  665) = (  -0.2474718   0.1802761   0.9928959), wk =   0.0025641
        k(  666) = (  -0.7890514   0.1802761  -0.9928959), wk =   0.0025641
        k(  667) = (  -0.7439197   0.1802761  -0.8274132), wk =   0.0025641
        k(  668) = (  -0.6987881   0.1802761  -0.6619306), wk =   0.0025641
        k(  669) = (  -0.6536565   0.1802761  -0.4964479), wk =   0.0025641
        k(  670) = (  -0.6085248   0.1802761  -0.3309653), wk =   0.0025641
        k(  671) = (  -0.5633932   0.1802761  -0.1654826), wk =   0.0025641
        k(  672) = (  -0.5182616   0.3605521   0.0000000), wk =   0.0025641
        k(  673) = (  -0.4731299   0.3605521   0.1654826), wk =   0.0025641
        k(  674) = (  -0.4279983   0.3605521   0.3309653), wk =   0.0025641
        k(  675) = (  -0.3828667   0.3605521   0.4964479), wk =   0.0025641
        k(  676) = (  -0.3377350   0.3605521   0.6619306), wk =   0.0025641
        k(  677) = (  -0.2926034   0.3605521   0.8274132), wk =   0.0025641
        k(  678) = (  -0.2474718   0.3605521   0.9928959), wk =   0.0025641
        k(  679) = (  -0.7890514   0.3605521  -0.9928959), wk =   0.0025641
        k(  680) = (  -0.7439197   0.3605521  -0.8274132), wk =   0.0025641
        k(  681) = (  -0.6987881   0.3605521  -0.6619306), wk =   0.0025641
        k(  682) = (  -0.6536565   0.3605521  -0.4964479), wk =   0.0025641
        k(  683) = (  -0.6085248   0.3605521  -0.3309653), wk =   0.0025641
        k(  684) = (  -0.5633932   0.3605521  -0.1654826), wk =   0.0025641
        k(  685) = (  -0.5182616   0.5408282   0.0000000), wk =   0.0025641
        k(  686) = (  -0.4731299   0.5408282   0.1654826), wk =   0.0025641
        k(  687) = (  -0.4279983   0.5408282   0.3309653), wk =   0.0025641
        k(  688) = (  -0.3828667   0.5408282   0.4964479), wk =   0.0025641
        k(  689) = (  -0.3377350   0.5408282   0.6619306), wk =   0.0025641
        k(  690) = (  -0.2926034   0.5408282   0.8274132), wk =   0.0025641
        k(  691) = (  -0.2474718   0.5408282   0.9928959), wk =   0.0025641
        k(  692) = (  -0.7890514   0.5408282  -0.9928959), wk =   0.0025641
        k(  693) = (  -0.7439197   0.5408282  -0.8274132), wk =   0.0025641
        k(  694) = (  -0.6987881   0.5408282  -0.6619306), wk =   0.0025641
        k(  695) = (  -0.6536565   0.5408282  -0.4964479), wk =   0.0025641
        k(  696) = (  -0.6085248   0.5408282  -0.3309653), wk =   0.0025641
        k(  697) = (  -0.5633932   0.5408282  -0.1654826), wk =   0.0025641
        k(  698) = (  -0.5182616   0.7211043   0.0000000), wk =   0.0025641
        k(  699) = (  -0.4731299   0.7211043   0.1654826), wk =   0.0025641
        k(  700) = (  -0.4279983   0.7211043   0.3309653), wk =   0.0025641
        k(  701) = (  -0.3828667   0.7211043   0.4964479), wk =   0.0025641
        k(  702) = (  -0.3377350   0.7211043   0.6619306), wk =   0.0025641
        k(  703) = (  -0.2926034   0.7211043   0.8274132), wk =   0.0025641
        k(  704) = (  -0.2474718   0.7211043   0.9928959), wk =   0.0025641
        k(  705) = (  -0.7890514   0.7211043  -0.9928959), wk =   0.0025641
        k(  706) = (  -0.7439197   0.7211043  -0.8274132), wk =   0.0025641
        k(  707) = (  -0.6987881   0.7211043  -0.6619306), wk =   0.0025641
        k(  708) = (  -0.6536565   0.7211043  -0.4964479), wk =   0.0025641
        k(  709) = (  -0.6085248   0.7211043  -0.3309653), wk =   0.0025641
        k(  710) = (  -0.5633932   0.7211043  -0.1654826), wk =   0.0025641
        k(  711) = (  -0.5182616   0.9013803   0.0000000), wk =   0.0025641
        k(  712) = (  -0.4731299   0.9013803   0.1654826), wk =   0.0025641
        k(  713) = (  -0.4279983   0.9013803   0.3309653), wk =   0.0025641
        k(  714) = (  -0.3828667   0.9013803   0.4964479), wk =   0.0025641
        k(  715) = (  -0.3377350   0.9013803   0.6619306), wk =   0.0025641
        k(  716) = (  -0.2926034   0.9013803   0.8274132), wk =   0.0025641
        k(  717) = (  -0.2474718   0.9013803   0.9928959), wk =   0.0025641
        k(  718) = (  -0.7890514   0.9013803  -0.9928959), wk =   0.0025641
        k(  719) = (  -0.7439197   0.9013803  -0.8274132), wk =   0.0025641
        k(  720) = (  -0.6987881   0.9013803  -0.6619306), wk =   0.0025641
        k(  721) = (  -0.6536565   0.9013803  -0.4964479), wk =   0.0025641
        k(  722) = (  -0.6085248   0.9013803  -0.3309653), wk =   0.0025641
        k(  723) = (  -0.5633932   0.9013803  -0.1654826), wk =   0.0025641
        k(  724) = (  -0.5182616   1.0816564   0.0000000), wk =   0.0025641
        k(  725) = (  -0.4731299   1.0816564   0.1654826), wk =   0.0025641
        k(  726) = (  -0.4279983   1.0816564   0.3309653), wk =   0.0025641
        k(  727) = (  -0.3828667   1.0816564   0.4964479), wk =   0.0025641
        k(  728) = (  -0.3377350   1.0816564   0.6619306), wk =   0.0025641
        k(  729) = (  -0.2926034   1.0816564   0.8274132), wk =   0.0025641
        k(  730) = (  -0.2474718   1.0816564   0.9928959), wk =   0.0025641
        k(  731) = (  -0.7890514   1.0816564  -0.9928959), wk =   0.0025641
        k(  732) = (  -0.7439197   1.0816564  -0.8274132), wk =   0.0025641
        k(  733) = (  -0.6987881   1.0816564  -0.6619306), wk =   0.0025641
        k(  734) = (  -0.6536565   1.0816564  -0.4964479), wk =   0.0025641
        k(  735) = (  -0.6085248   1.0816564  -0.3309653), wk =   0.0025641
        k(  736) = (  -0.5633932   1.0816564  -0.1654826), wk =   0.0025641
        k(  737) = (  -0.5182616   1.2619324   0.0000000), wk =   0.0025641
        k(  738) = (  -0.4731299   1.2619324   0.1654826), wk =   0.0025641
        k(  739) = (  -0.4279983   1.2619324   0.3309653), wk =   0.0025641
        k(  740) = (  -0.3828667   1.2619324   0.4964479), wk =   0.0025641
        k(  741) = (  -0.3377350   1.2619324   0.6619306), wk =   0.0025641
        k(  742) = (  -0.2926034   1.2619324   0.8274132), wk =   0.0025641
        k(  743) = (  -0.2474718   1.2619324   0.9928959), wk =   0.0025641
        k(  744) = (  -0.7890514   1.2619324  -0.9928959), wk =   0.0025641
        k(  745) = (  -0.7439197   1.2619324  -0.8274132), wk =   0.0025641
        k(  746) = (  -0.6987881   1.2619324  -0.6619306), wk =   0.0025641
        k(  747) = (  -0.6536565   1.2619324  -0.4964479), wk =   0.0025641
        k(  748) = (  -0.6085248   1.2619324  -0.3309653), wk =   0.0025641
        k(  749) = (  -0.5633932   1.2619324  -0.1654826), wk =   0.0025641
        k(  750) = (  -0.5182616   1.4422085   0.0000000), wk =   0.0025641
        k(  751) = (  -0.4731299   1.4422085   0.1654826), wk =   0.0025641
        k(  752) = (  -0.4279983   1.4422085   0.3309653), wk =   0.0025641
        k(  753) = (  -0.3828667   1.4422085   0.4964479), wk =   0.0025641
        k(  754) = (  -0.3377350   1.4422085   0.6619306), wk =   0.0025641
        k(  755) = (  -0.2926034   1.4422085   0.8274132), wk =   0.0025641
        k(  756) = (  -0.2474718   1.4422085   0.9928959), wk =   0.0025641
        k(  757) = (  -0.7890514   1.4422085  -0.9928959), wk =   0.0025641
        k(  758) = (  -0.7439197   1.4422085  -0.8274132), wk =   0.0025641
        k(  759) = (  -0.6987881   1.4422085  -0.6619306), wk =   0.0025641
        k(  760) = (  -0.6536565   1.4422085  -0.4964479), wk =   0.0025641
        k(  761) = (  -0.6085248   1.4422085  -0.3309653), wk =   0.0025641
        k(  762) = (  -0.5633932   1.4422085  -0.1654826), wk =   0.0025641
        k(  763) = (  -0.5182616   1.6224846   0.0000000), wk =   0.0025641
        k(  764) = (  -0.4731299   1.6224846   0.1654826), wk =   0.0025641
        k(  765) = (  -0.4279983   1.6224846   0.3309653), wk =   0.0025641
        k(  766) = (  -0.3828667   1.6224846   0.4964479), wk =   0.0025641
        k(  767) = (  -0.3377350   1.6224846   0.6619306), wk =   0.0025641
        k(  768) = (  -0.2926034   1.6224846   0.8274132), wk =   0.0025641
        k(  769) = (  -0.2474718   1.6224846   0.9928959), wk =   0.0025641
        k(  770) = (  -0.7890514   1.6224846  -0.9928959), wk =   0.0025641
        k(  771) = (  -0.7439197   1.6224846  -0.8274132), wk =   0.0025641
        k(  772) = (  -0.6987881   1.6224846  -0.6619306), wk =   0.0025641
        k(  773) = (  -0.6536565   1.6224846  -0.4964479), wk =   0.0025641
        k(  774) = (  -0.6085248   1.6224846  -0.3309653), wk =   0.0025641
        k(  775) = (  -0.5633932   1.6224846  -0.1654826), wk =   0.0025641
        k(  776) = (  -0.5182616  -1.8027606   0.0000000), wk =   0.0012821
        k(  777) = (  -0.4731299  -1.8027606   0.1654826), wk =   0.0025641
        k(  778) = (  -0.4279983  -1.8027606   0.3309653), wk =   0.0025641
        k(  779) = (  -0.3828667  -1.8027606   0.4964479), wk =   0.0025641
        k(  780) = (  -0.3377350  -1.8027606   0.6619306), wk =   0.0025641
        k(  781) = (  -0.2926034  -1.8027606   0.8274132), wk =   0.0025641
        k(  782) = (  -0.2474718  -1.8027606   0.9928959), wk =   0.0025641

                       cryst. coord.
        k(    1) = (   0.0000000   0.0000000   0.0000000), wk =   0.0012821
        k(    2) = (  -0.0000000   0.0000000   0.0769231), wk =   0.0025641
        k(    3) = (  -0.0000000   0.0000000   0.1538462), wk =   0.0025641
        k(    4) = (  -0.0000000   0.0000000   0.2307692), wk =   0.0025641
        k(    5) = (  -0.0000000   0.0000000   0.3076923), wk =   0.0025641
        k(    6) = (  -0.0000000   0.0000000   0.3846154), wk =   0.0025641
        k(    7) = (  -0.0000000   0.0000000   0.4615385), wk =   0.0025641
        k(    8) = (   0.0000000   0.0500000   0.0000000), wk =   0.0025641
        k(    9) = (  -0.0000000   0.0500000   0.0769231), wk =   0.0025641
        k(   10) = (  -0.0000000   0.0500000   0.1538462), wk =   0.0025641
        k(   11) = (  -0.0000000   0.0500000   0.2307692), wk =   0.0025641
        k(   12) = (  -0.0000000   0.0500000   0.3076923), wk =   0.0025641
        k(   13) = (  -0.0000000   0.0500000   0.3846154), wk =   0.0025641
        k(   14) = (  -0.0000000   0.0500000   0.4615385), wk =   0.0025641
        k(   15) = (   0.0000000   0.0500000  -0.4615385), wk =   0.0025641
        k(   16) = (   0.0000000   0.0500000  -0.3846154), wk =   0.0025641
        k(   17) = (   0.0000000   0.0500000  -0.3076923), wk =   0.0025641
        k(   18) = (   0.0000000   0.0500000  -0.2307692), wk =   0.0025641
        k(   19) = (   0.0000000   0.0500000  -0.1538462), wk =   0.0025641
        k(   20) = (   0.0000000   0.0500000  -0.0769231), wk =   0.0025641
        k(   21) = (   0.0000000   0.1000000   0.0000000), wk =   0.0025641
        k(   22) = (  -0.0000000   0.1000000   0.0769231), wk =   0.0025641
        k(   23) = (  -0.0000000   0.1000000   0.1538462), wk =   0.0025641
        k(   24) = (  -0.0000000   0.1000000   0.2307692), wk =   0.0025641
        k(   25) = (  -0.0000000   0.1000000   0.3076923), wk =   0.0025641
        k(   26) = (  -0.0000000   0.1000000   0.3846154), wk =   0.0025641
        k(   27) = (  -0.0000000   0.1000000   0.4615385), wk =   0.0025641
        k(   28) = (   0.0000000   0.1000000  -0.4615385), wk =   0.0025641
        k(   29) = (   0.0000000   0.1000000  -0.3846154), wk =   0.0025641
        k(   30) = (   0.0000000   0.1000000  -0.3076923), wk =   0.0025641
        k(   31) = (   0.0000000   0.1000000  -0.2307692), wk =   0.0025641
        k(   32) = (   0.0000000   0.1000000  -0.1538462), wk =   0.0025641
        k(   33) = (   0.0000000   0.1000000  -0.0769231), wk =   0.0025641
        k(   34) = (   0.0000000   0.1500000   0.0000000), wk =   0.0025641
        k(   35) = (  -0.0000000   0.1500000   0.0769231), wk =   0.0025641
        k(   36) = (  -0.0000000   0.1500000   0.1538462), wk =   0.0025641
        k(   37) = (  -0.0000000   0.1500000   0.2307692), wk =   0.0025641
        k(   38) = (  -0.0000000   0.1500000   0.3076923), wk =   0.0025641
        k(   39) = (  -0.0000000   0.1500000   0.3846154), wk =   0.0025641
        k(   40) = (  -0.0000000   0.1500000   0.4615385), wk =   0.0025641
        k(   41) = (   0.0000000   0.1500000  -0.4615385), wk =   0.0025641
        k(   42) = (   0.0000000   0.1500000  -0.3846154), wk =   0.0025641
        k(   43) = (   0.0000000   0.1500000  -0.3076923), wk =   0.0025641
        k(   44) = (   0.0000000   0.1500000  -0.2307692), wk =   0.0025641
        k(   45) = (   0.0000000   0.1500000  -0.1538462), wk =   0.0025641
        k(   46) = (   0.0000000   0.1500000  -0.0769231), wk =   0.0025641
        k(   47) = (   0.0000000   0.2000000   0.0000000), wk =   0.0025641
        k(   48) = (  -0.0000000   0.2000000   0.0769231), wk =   0.0025641
        k(   49) = (  -0.0000000   0.2000000   0.1538462), wk =   0.0025641
        k(   50) = (  -0.0000000   0.2000000   0.2307692), wk =   0.0025641
        k(   51) = (  -0.0000000   0.2000000   0.3076923), wk =   0.0025641
        k(   52) = (  -0.0000000   0.2000000   0.3846154), wk =   0.0025641
        k(   53) = (  -0.0000000   0.2000000   0.4615385), wk =   0.0025641
        k(   54) = (   0.0000000   0.2000000  -0.4615385), wk =   0.0025641
        k(   55) = (   0.0000000   0.2000000  -0.3846154), wk =   0.0025641
        k(   56) = (   0.0000000   0.2000000  -0.3076923), wk =   0.0025641
        k(   57) = (   0.0000000   0.2000000  -0.2307692), wk =   0.0025641
        k(   58) = (   0.0000000   0.2000000  -0.1538462), wk =   0.0025641
        k(   59) = (   0.0000000   0.2000000  -0.0769231), wk =   0.0025641
        k(   60) = (   0.0000000   0.2500000   0.0000000), wk =   0.0025641
        k(   61) = (  -0.0000000   0.2500000   0.0769231), wk =   0.0025641
        k(   62) = (  -0.0000000   0.2500000   0.1538462), wk =   0.0025641
        k(   63) = (  -0.0000000   0.2500000   0.2307692), wk =   0.0025641
        k(   64) = (  -0.0000000   0.2500000   0.3076923), wk =   0.0025641
        k(   65) = (  -0.0000000   0.2500000   0.3846154), wk =   0.0025641
        k(   66) = (  -0.0000000   0.2500000   0.4615385), wk =   0.0025641
        k(   67) = (   0.0000000   0.2500000  -0.4615385), wk =   0.0025641
        k(   68) = (   0.0000000   0.2500000  -0.3846154), wk =   0.0025641
        k(   69) = (   0.0000000   0.2500000  -0.3076923), wk =   0.0025641
        k(   70) = (   0.0000000   0.2500000  -0.2307692), wk =   0.0025641
        k(   71) = (   0.0000000   0.2500000  -0.1538462), wk =   0.0025641
        k(   72) = (   0.0000000   0.2500000  -0.0769231), wk =   0.0025641
        k(   73) = (   0.0000000   0.3000000   0.0000000), wk =   0.0025641
        k(   74) = (  -0.0000000   0.3000000   0.0769231), wk =   0.0025641
        k(   75) = (  -0.0000000   0.3000000   0.1538462), wk =   0.0025641
        k(   76) = (  -0.0000000   0.3000000   0.2307692), wk =   0.0025641
        k(   77) = (  -0.0000000   0.3000000   0.3076923), wk =   0.0025641
        k(   78) = (  -0.0000000   0.3000000   0.3846154), wk =   0.0025641
        k(   79) = (  -0.0000000   0.3000000   0.4615385), wk =   0.0025641
        k(   80) = (   0.0000000   0.3000000  -0.4615385), wk =   0.0025641
        k(   81) = (   0.0000000   0.3000000  -0.3846154), wk =   0.0025641
        k(   82) = (   0.0000000   0.3000000  -0.3076923), wk =   0.0025641
        k(   83) = (   0.0000000   0.3000000  -0.2307692), wk =   0.0025641
        k(   84) = (   0.0000000   0.3000000  -0.1538462), wk =   0.0025641
        k(   85) = (   0.0000000   0.3000000  -0.0769231), wk =   0.0025641
        k(   86) = (   0.0000000   0.3500000   0.0000000), wk =   0.0025641
        k(   87) = (  -0.0000000   0.3500000   0.0769231), wk =   0.0025641
        k(   88) = (  -0.0000000   0.3500000   0.1538462), wk =   0.0025641
        k(   89) = (  -0.0000000   0.3500000   0.2307692), wk =   0.0025641
        k(   90) = (  -0.0000000   0.3500000   0.3076923), wk =   0.0025641
        k(   91) = (  -0.0000000   0.3500000   0.3846154), wk =   0.0025641
        k(   92) = (  -0.0000000   0.3500000   0.4615385), wk =   0.0025641
        k(   93) = (   0.0000000   0.3500000  -0.4615385), wk =   0.0025641
        k(   94) = (   0.0000000   0.3500000  -0.3846154), wk =   0.0025641
        k(   95) = (   0.0000000   0.3500000  -0.3076923), wk =   0.0025641
        k(   96) = (   0.0000000   0.3500000  -0.2307692), wk =   0.0025641
        k(   97) = (   0.0000000   0.3500000  -0.1538462), wk =   0.0025641
        k(   98) = (   0.0000000   0.3500000  -0.0769231), wk =   0.0025641
        k(   99) = (   0.0000000   0.4000000   0.0000000), wk =   0.0025641
        k(  100) = (  -0.0000000   0.4000000   0.0769231), wk =   0.0025641
        k(  101) = (  -0.0000000   0.4000000   0.1538462), wk =   0.0025641
        k(  102) = (  -0.0000000   0.4000000   0.2307692), wk =   0.0025641
        k(  103) = (  -0.0000000   0.4000000   0.3076923), wk =   0.0025641
        k(  104) = (  -0.0000000   0.4000000   0.3846154), wk =   0.0025641
        k(  105) = (  -0.0000000   0.4000000   0.4615385), wk =   0.0025641
        k(  106) = (   0.0000000   0.4000000  -0.4615385), wk =   0.0025641
        k(  107) = (   0.0000000   0.4000000  -0.3846154), wk =   0.0025641
        k(  108) = (   0.0000000   0.4000000  -0.3076923), wk =   0.0025641
        k(  109) = (   0.0000000   0.4000000  -0.2307692), wk =   0.0025641
        k(  110) = (   0.0000000   0.4000000  -0.1538462), wk =   0.0025641
        k(  111) = (   0.0000000   0.4000000  -0.0769231), wk =   0.0025641
        k(  112) = (   0.0000000   0.4500000   0.0000000), wk =   0.0025641
        k(  113) = (  -0.0000000   0.4500000   0.0769231), wk =   0.0025641
        k(  114) = (  -0.0000000   0.4500000   0.1538462), wk =   0.0025641
        k(  115) = (  -0.0000000   0.4500000   0.2307692), wk =   0.0025641
        k(  116) = (  -0.0000000   0.4500000   0.3076923), wk =   0.0025641
        k(  117) = (  -0.0000000   0.4500000   0.3846154), wk =   0.0025641
        k(  118) = (  -0.0000000   0.4500000   0.4615385), wk =   0.0025641
        k(  119) = (   0.0000000   0.4500000  -0.4615385), wk =   0.0025641
        k(  120) = (   0.0000000   0.4500000  -0.3846154), wk =   0.0025641
        k(  121) = (   0.0000000   0.4500000  -0.3076923), wk =   0.0025641
        k(  122) = (   0.0000000   0.4500000  -0.2307692), wk =   0.0025641
        k(  123) = (   0.0000000   0.4500000  -0.1538462), wk =   0.0025641
        k(  124) = (   0.0000000   0.4500000  -0.0769231), wk =   0.0025641
        k(  125) = (   0.0000000  -0.5000000   0.0000000), wk =   0.0012821
        k(  126) = (  -0.0000000  -0.5000000   0.0769231), wk =   0.0025641
        k(  127) = (  -0.0000000  -0.5000000   0.1538462), wk =   0.0025641
        k(  128) = (  -0.0000000  -0.5000000   0.2307692), wk =   0.0025641
        k(  129) = (  -0.0000000  -0.5000000   0.3076923), wk =   0.0025641
        k(  130) = (  -0.0000000  -0.5000000   0.3846154), wk =   0.0025641
        k(  131) = (  -0.0000000  -0.5000000   0.4615385), wk =   0.0025641
        k(  132) = (   0.1666667   0.0000000   0.0000000), wk =   0.0025641
        k(  133) = (   0.1666667   0.0000000   0.0769231), wk =   0.0025641
        k(  134) = (   0.1666667   0.0000000   0.1538462), wk =   0.0025641
        k(  135) = (   0.1666667   0.0000000   0.2307692), wk =   0.0025641
        k(  136) = (   0.1666667   0.0000000   0.3076923), wk =   0.0025641
        k(  137) = (   0.1666667   0.0000000   0.3846154), wk =   0.0025641
        k(  138) = (   0.1666667   0.0000000   0.4615385), wk =   0.0025641
        k(  139) = (   0.1666667   0.0000000  -0.4615385), wk =   0.0025641
        k(  140) = (   0.1666667   0.0000000  -0.3846154), wk =   0.0025641
        k(  141) = (   0.1666667   0.0000000  -0.3076923), wk =   0.0025641
        k(  142) = (   0.1666667   0.0000000  -0.2307692), wk =   0.0025641
        k(  143) = (   0.1666667   0.0000000  -0.1538462), wk =   0.0025641
        k(  144) = (   0.1666667   0.0000000  -0.0769231), wk =   0.0025641
        k(  145) = (   0.1666667   0.0500000   0.0000000), wk =   0.0025641
        k(  146) = (   0.1666667   0.0500000   0.0769231), wk =   0.0025641
        k(  147) = (   0.1666667   0.0500000   0.1538462), wk =   0.0025641
        k(  148) = (   0.1666667   0.0500000   0.2307692), wk =   0.0025641
        k(  149) = (   0.1666667   0.0500000   0.3076923), wk =   0.0025641
        k(  150) = (   0.1666667   0.0500000   0.3846154), wk =   0.0025641
        k(  151) = (   0.1666667   0.0500000   0.4615385), wk =   0.0025641
        k(  152) = (   0.1666667   0.0500000  -0.4615385), wk =   0.0025641
        k(  153) = (   0.1666667   0.0500000  -0.3846154), wk =   0.0025641
        k(  154) = (   0.1666667   0.0500000  -0.3076923), wk =   0.0025641
[...]
    -0.0136

          k =-0.2475-1.8028 0.9929 ( 11238 PWs)   bands (ev):

    -3.5113  -3.5113  -2.9669  -2.9669  -1.9640  -1.9639  -1.5061  -1.5060
    -0.6543  -0.6543   0.7206   0.7206   1.0182   1.0182   2.1758   2.1758
     2.4565   2.4565   2.6053   2.6053   3.7118   3.7118   4.0095   4.0095
     4.1575   4.1575   4.7244   4.7244   4.9973   4.9974   6.1163   6.1163
     6.1254   6.1255   6.3803   6.3804   7.0024   7.0024   7.8188   7.8189
     8.0496

     occupation numbers 
     1.0000   1.0000   1.0000   1.0000   1.0000   1.0000   1.0000   1.0000
     1.0000   1.0000   1.0000   1.0000   1.0000   1.0000   1.0000   1.0000
     1.0000   1.0000   1.0000   1.0000   1.0000   1.0000   1.0000   1.0000
     1.0000   1.0000   1.0000   1.0000   1.0000   1.0000   1.0286   1.0286
     1.0293   1.0293   1.0287   1.0287   0.5016   0.5015  -0.0332  -0.0332
    -0.0167

     the Fermi energy is     7.0035 ev

!    total energy              =    -473.13209779 Ry
     Harris-Foulkes estimate   =    -473.13209779 Ry
     estimated scf accuracy    <          2.0E-13 Ry

     The total energy is the sum of the following terms:

     one-electron contribution =      38.44157184 Ry
     hartree contribution      =      13.01243918 Ry
     xc contribution           =     -90.50967767 Ry
     ewald contribution        =    -121.16382306 Ry
     one-center paw contrib.   =    -312.90989539 Ry
      -> PAW hartree energy AE =       0.90345098 Ry
      -> PAW hartree energy PS =      -0.90142742 Ry
      -> PAW xc energy AE      =     -32.67026059 Ry
      -> PAW xc energy PS      =       1.36820485 Ry
      -> total E_H with PAW    =      13.01446273 Ry
      -> total E_XC with PAW   =    -121.81173341 Ry
     smearing contrib. (-TS)   =      -0.00271269 Ry

     convergence has been achieved in  17 iterations

     Forces acting on atoms (cartesian axes, Ry/au):

     atom    1 type  1   force =     0.00000838    0.00000022    0.00001084
     atom    2 type  1   force =    -0.00031092   -0.00000005   -0.00005694
     atom    3 type  1   force =    -0.00074296    0.00000002   -0.00051707
     atom    4 type  1   force =     0.00074190    0.00000000    0.00051729
     atom    5 type  1   force =     0.00031410    0.00000007    0.00006096
     atom    6 type  2   force =    -0.00009795    0.00000091    0.00062341
     atom    7 type  2   force =    -0.00000135    0.00000014    0.00112934
     atom    8 type  2   force =    -0.00137563   -0.00000020   -0.00025388
     atom    9 type  2   force =     0.00137257    0.00000020    0.00025555
     atom   10 type  2   force =     0.00000224   -0.00000013   -0.00112688
     atom   11 type  2   force =     0.00009761   -0.00000099   -0.00062233
     atom   12 type  1   force =    -0.00000588   -0.00000022   -0.00001653
     atom   13 type  1   force =    -0.00029805    0.00000014   -0.00005717
     atom   14 type  1   force =    -0.00070069   -0.00000005   -0.00051454
     atom   15 type  1   force =     0.00069967    0.00000005    0.00051216
     atom   16 type  1   force =     0.00030154   -0.00000013    0.00006076
     atom   17 type  2   force =    -0.00013290   -0.00000084    0.00062506
     atom   18 type  2   force =     0.00001630    0.00000008    0.00112756
     atom   19 type  2   force =    -0.00136777    0.00000018   -0.00024835
     atom   20 type  2   force =     0.00136848   -0.00000020    0.00024610
     atom   21 type  2   force =    -0.00001996   -0.00000006   -0.00113114
     atom   22 type  2   force =     0.00013126    0.00000087   -0.00062420
     The non-local contrib.  to forces
     atom    1 type  1   force =     0.00003619    0.00000119    0.00004207
     atom    2 type  1   force =     0.01207897    0.00000010    0.01526382
     atom    3 type  1   force =     0.01354766   -0.00000009    0.00269129
     atom    4 type  1   force =    -0.01351589    0.00000015   -0.00266987
     atom    5 type  1   force =    -0.01205003   -0.00000002   -0.01522592
     atom    6 type  2   force =    -0.00545679    0.00000020   -0.06325634
     atom    7 type  2   force =     0.04027348   -0.00000027    0.02116934
     atom    8 type  2   force =    -0.01012251    0.00000025    0.02076670
     atom    9 type  2   force =     0.01011617   -0.00000025   -0.02077808
     atom   10 type  2   force =    -0.04026193    0.00000032   -0.02117260
     atom   11 type  2   force =     0.00544450   -0.00000021    0.06325655
     atom   12 type  1   force =     0.00000326   -0.00000107   -0.00002276
     atom   13 type  1   force =     0.01211870   -0.00000027    0.01527022
     atom   14 type  1   force =     0.01366542    0.00000000    0.00270506
     atom   15 type  1   force =    -0.01363413   -0.00000000   -0.00269689
     atom   16 type  1   force =    -0.01208934    0.00000033   -0.01522837
     atom   17 type  2   force =    -0.00550925   -0.00000032   -0.06325079
     atom   18 type  2   force =     0.04028209   -0.00000036    0.02119343
     atom   19 type  2   force =    -0.01012001   -0.00000064    0.02075593
     atom   20 type  2   force =     0.01011526    0.00000066   -0.02077195
     atom   21 type  2   force =    -0.04028182    0.00000035   -0.02120575
     atom   22 type  2   force =     0.00550124    0.00000026    0.06324640
     The ionic contribution  to forces
     atom    1 type  1   force =     0.00014196   -0.00000000    0.00010322
     atom    2 type  1   force =    -0.41197303    0.00000000   -0.39289377
     atom    3 type  1   force =    -0.29137545    0.00000000    0.27195681
     atom    4 type  1   force =     0.29142008   -0.00000000   -0.27184374
     atom    5 type  1   force =     0.41206817   -0.00000000    0.39286834
     atom    6 type  2   force =    -0.30998324   -0.00000000    1.18429774
     atom    7 type  2   force =    -1.08825069   -0.00000000   -1.39761984
     atom    8 type  2   force =    -0.09519893   -0.00000000    0.79154472
     atom    9 type  2   force =     0.09518563    0.00000000   -0.79165527
     atom   10 type  2   force =     1.08828868    0.00000000    1.39764224
     atom   11 type  2   force =     0.30995782    0.00000000   -1.18432232
     atom   12 type  1   force =     0.00002366    0.00000000   -0.00004515
     atom   13 type  1   force =    -0.41189964   -0.00000000   -0.39288570
     atom   14 type  1   force =    -0.29122027   -0.00000000    0.27206007
     atom   15 type  1   force =     0.29117478    0.00000000   -0.27194753
     atom   16 type  1   force =     0.41199283    0.00000000    0.39285511
     atom   17 type  2   force =    -0.31015448    0.00000000    1.18435574
     atom   18 type  2   force =    -1.08807658    0.00000000   -1.39790184
     atom   19 type  2   force =    -0.09518777    0.00000000    0.79165244
     atom   20 type  2   force =     0.09506400   -0.00000000   -0.79169582
     atom   21 type  2   force =     1.08798741   -0.00000000    1.39787638
     atom   22 type  2   force =     0.31001508   -0.00000000   -1.18440184
     The local contribution  to forces
     atom    1 type  1   force =    -0.00016114   -0.00000086   -0.00012609
     atom    2 type  1   force =     0.40101367   -0.00000014    0.37870177
     atom    3 type  1   force =     0.27832319    0.00000010   -0.27418236
     atom    4 type  1   force =    -0.27838886   -0.00000014    0.27405828
     atom    5 type  1   force =    -0.40112299    0.00000009   -0.37869851
     atom    6 type  2   force =     0.31447508    0.00000072   -1.12650971
     atom    7 type  2   force =     1.05183723    0.00000038    1.37925710
     atom    8 type  2   force =     0.10307470   -0.00000042   -0.81028064
     atom    9 type  2   force =    -0.10306965    0.00000042    0.81038727
     atom   10 type  2   force =    -1.05187659   -0.00000042   -1.37927751
     atom   11 type  2   force =    -0.31444873   -0.00000079    1.12653213
     atom   12 type  1   force =    -0.00002850    0.00000076    0.00005247
     atom   13 type  1   force =     0.40091799    0.00000038    0.37868794
     atom   14 type  1   force =     0.27810589   -0.00000005   -0.27429484
     atom   15 type  1   force =    -0.27808110    0.00000005    0.27418057
     atom   16 type  1   force =    -0.40102533   -0.00000042   -0.37868336
     atom   17 type  2   force =     0.31465813   -0.00000056   -1.12657106
     atom   18 type  2   force =     1.05167324    0.00000039    1.37951565
     atom   19 type  2   force =     0.10306931    0.00000076   -0.81037324
     atom   20 type  2   force =    -0.10295126   -0.00000079    0.81041309
     atom   21 type  2   force =    -1.05158001   -0.00000037   -1.37948649
     atom   22 type  2   force =    -0.31452309    0.00000064    1.12661873
     The core correction contribution to forces
     atom    1 type  1   force =    -0.00000452   -0.00000011   -0.00000462
     atom    2 type  1   force =    -0.00142638   -0.00000001   -0.00112502
     atom    3 type  1   force =    -0.00123417    0.00000001   -0.00097906
     atom    4 type  1   force =     0.00123058   -0.00000001    0.00097636
     atom    5 type  1   force =     0.00142299    0.00000000    0.00112080
     atom    6 type  2   force =     0.00087126   -0.00000002    0.00609549
     atom    7 type  2   force =    -0.00385714    0.00000003   -0.00167364
     atom    8 type  2   force =     0.00087529   -0.00000003   -0.00228081
     atom    9 type  2   force =    -0.00085555    0.00000003    0.00230526
     atom   10 type  2   force =     0.00385605   -0.00000003    0.00168485
     atom   11 type  2   force =    -0.00085203    0.00000002   -0.00608496
     atom   12 type  1   force =    -0.00000021    0.00000010    0.00000266
     atom   13 type  1   force =    -0.00143096    0.00000003   -0.00112589
     atom   14 type  1   force =    -0.00124754   -0.00000000   -0.00098108
     atom   15 type  1   force =     0.00124414    0.00000000    0.00097974
     atom   16 type  1   force =     0.00142744   -0.00000004    0.00112114
     atom   17 type  2   force =     0.00087691    0.00000003    0.00609494
     atom   18 type  2   force =    -0.00385823    0.00000004   -0.00167605
     atom   19 type  2   force =     0.00087486    0.00000007   -0.00227964
     atom   20 type  2   force =    -0.00085549   -0.00000007    0.00230442
     atom   21 type  2   force =     0.00385843   -0.00000004    0.00168859
     atom   22 type  2   force =    -0.00085800   -0.00000002   -0.00608378
     The Hubbard contrib.    to forces
     atom    1 type  1   force =     0.00000000    0.00000000    0.00000000
     atom    2 type  1   force =     0.00000000    0.00000000    0.00000000
     atom    3 type  1   force =     0.00000000    0.00000000    0.00000000
     atom    4 type  1   force =     0.00000000    0.00000000    0.00000000
     atom    5 type  1   force =     0.00000000    0.00000000    0.00000000
     atom    6 type  2   force =     0.00000000    0.00000000    0.00000000
     atom    7 type  2   force =     0.00000000    0.00000000    0.00000000
     atom    8 type  2   force =     0.00000000    0.00000000    0.00000000
     atom    9 type  2   force =     0.00000000    0.00000000    0.00000000
     atom   10 type  2   force =     0.00000000    0.00000000    0.00000000
     atom   11 type  2   force =     0.00000000    0.00000000    0.00000000
     atom   12 type  1   force =     0.00000000    0.00000000    0.00000000
     atom   13 type  1   force =     0.00000000    0.00000000    0.00000000
     atom   14 type  1   force =     0.00000000    0.00000000    0.00000000
     atom   15 type  1   force =     0.00000000    0.00000000    0.00000000
     atom   16 type  1   force =     0.00000000    0.00000000    0.00000000
     atom   17 type  2   force =     0.00000000    0.00000000    0.00000000
     atom   18 type  2   force =     0.00000000    0.00000000    0.00000000
     atom   19 type  2   force =     0.00000000    0.00000000    0.00000000
     atom   20 type  2   force =     0.00000000    0.00000000    0.00000000
     atom   21 type  2   force =     0.00000000    0.00000000    0.00000000
     atom   22 type  2   force =     0.00000000    0.00000000    0.00000000
     The SCF correction term to forces
     atom    1 type  1   force =    -0.00000000   -0.00000000   -0.00000000
     atom    2 type  1   force =    -0.00000005    0.00000000    0.00000001
     atom    3 type  1   force =    -0.00000009   -0.00000000   -0.00000001
     atom    4 type  1   force =     0.00000009    0.00000000    0.00000000
     atom    5 type  1   force =     0.00000005   -0.00000000   -0.00000000
     atom    6 type  2   force =    -0.00000015    0.00000000   -0.00000003
     atom    7 type  2   force =    -0.00000013   -0.00000000    0.00000012
     atom    8 type  2   force =    -0.00000007   -0.00000000   -0.00000010
     atom    9 type  2   force =     0.00000006    0.00000000    0.00000011
     atom   10 type  2   force =     0.00000012   -0.00000000   -0.00000011
     atom   11 type  2   force =     0.00000015   -0.00000001    0.00000002
     atom   12 type  1   force =     0.00000001    0.00000000   -0.00000000
     atom   13 type  1   force =    -0.00000004   -0.00000000    0.00000000
     atom   14 type  1   force =    -0.00000008   -0.00000000   -0.00000000
     atom   15 type  1   force =     0.00000008    0.00000000    0.00000001
     atom   16 type  1   force =     0.00000004    0.00000000   -0.00000001
     atom   17 type  2   force =    -0.00000013    0.00000000   -0.00000002
     atom   18 type  2   force =    -0.00000012    0.00000000    0.00000011
     atom   19 type  2   force =    -0.00000007    0.00000000   -0.00000010
     atom   20 type  2   force =     0.00000007   -0.00000000    0.00000010
     atom   21 type  2   force =     0.00000012   -0.00000000   -0.00000012
     atom   22 type  2   force =     0.00000013   -0.00000000    0.00000003

     Total force =     0.004244     Total SCF correction =     0.000001


     Computing stress (Cartesian axis) and pressure

          total   stress  (Ry/bohr**3)                   (kbar)     P=   19.98
   0.00021187  -0.00000000  -0.00017810         31.17     -0.00    -26.20
  -0.00000000   0.00008630   0.00000000         -0.00     12.69      0.00
  -0.00017810   0.00000000   0.00010925        -26.20      0.00     16.07

     kinetic stress (kbar)   1655.07     -0.00    -16.35
                               -0.00   1669.82      0.00
                              -16.35      0.00   1659.79

     local   stress (kbar)   -222.99     -0.00    242.44
                               -0.00   -352.49     -0.00
                              242.44     -0.00    292.27

     nonloc. stress (kbar)   1295.00      0.00    -11.07
                                0.00   1271.72     -0.00
                              -11.07     -0.00   1282.59

     hartree stress (kbar)    256.56      0.00   -101.11
                                0.00    395.43      0.00
                             -101.11      0.00     76.63

     exc-cor stress (kbar)   2033.48      0.00     -0.42
                                0.00   2032.40      0.00
                               -0.42      0.00   2032.67

     corecor stress (kbar)  -2846.12     -0.00      1.85
                               -0.00  -2843.01     -0.00
                                1.85     -0.00  -2844.41

     ewald   stress (kbar)  -2139.83      0.00   -141.55
                                0.00  -2161.18     -0.00
                             -141.55     -0.00  -2483.47

     hubbard stress (kbar)      0.00      0.00      0.00
                                0.00      0.00      0.00
                                0.00      0.00      0.00

     london  stress (kbar)      0.00      0.00      0.00
                                0.00      0.00      0.00
                                0.00      0.00      0.00

     DFT-D3  stress (kbar)      0.00      0.00      0.00
                                0.00      0.00      0.00
                                0.00      0.00      0.00

     XDM     stress (kbar)      0.00      0.00      0.00
                                0.00      0.00      0.00
                                0.00      0.00      0.00

     dft-nl  stress (kbar)      0.00      0.00      0.00
                                0.00      0.00      0.00
                                0.00      0.00      0.00

     TS-vdW  stress (kbar)      0.00      0.00      0.00
                                0.00      0.00      0.00
                                0.00      0.00      0.00



     Writing output data file aiida.save/
 
     init_run     :     22.27s CPU     22.64s WALL (       1 calls)
     electrons    :    805.02s CPU    817.20s WALL (       1 calls)
     forces       :      8.28s CPU      8.35s WALL (       1 calls)
     stress       :     60.23s CPU     60.33s WALL (       1 calls)

     Called by init_run:
     wfcinit      :     20.62s CPU     20.94s WALL (       1 calls)
     wfcinit:atom :      0.16s CPU      0.17s WALL (     196 calls)
     wfcinit:wfcr :     19.19s CPU     19.44s WALL (     196 calls)
     potinit      :      0.53s CPU      0.55s WALL (       1 calls)
     hinit0       :      0.98s CPU      0.99s WALL (       1 calls)

     Called by electrons:
     c_bands      :    722.01s CPU    731.97s WALL (      18 calls)
     sum_band     :     79.77s CPU     81.37s WALL (      18 calls)
     v_of_rho     :      1.18s CPU      1.28s WALL (      18 calls)
     v_h          :      0.08s CPU      0.08s WALL (      18 calls)
     v_xc         :      1.22s CPU      1.31s WALL (      20 calls)
     newd         :      0.82s CPU      1.29s WALL (      18 calls)
     PAW_pot      :      0.60s CPU      0.60s WALL (      18 calls)
     mix_rho      :      0.51s CPU      0.55s WALL (      18 calls)

     Called by c_bands:
     init_us_2    :     21.04s CPU     21.34s WALL (    7644 calls)
     cegterg      :    566.66s CPU    574.06s WALL (    3528 calls)

     Called by sum_band:
     sum_band:bec :      0.48s CPU      0.48s WALL (    3528 calls)
     addusdens    :      0.81s CPU      1.31s WALL (      18 calls)

     Called by *egterg:
     h_psi        :    387.83s CPU    393.85s WALL (   16224 calls)
     s_psi        :     54.72s CPU     54.87s WALL (   16224 calls)
     g_psi        :      2.67s CPU      2.69s WALL (   12500 calls)
     cdiaghg      :     66.38s CPU     67.45s WALL (   15832 calls)
     cegterg:over :     28.39s CPU     28.53s WALL (   12500 calls)
     cegterg:upda :     23.45s CPU     23.67s WALL (   12500 calls)
     cegterg:last :      9.27s CPU      9.31s WALL (    3894 calls)
     cdiaghg:chol :      4.29s CPU      4.32s WALL (   15832 calls)
     cdiaghg:inve :      0.85s CPU      0.87s WALL (   15832 calls)
     cdiaghg:para :      8.76s CPU      8.82s WALL (   31664 calls)

     Called by h_psi:
     h_psi:pot    :    385.85s CPU    391.85s WALL (   16224 calls)
     h_psi:calbec :     53.77s CPU     54.36s WALL (   16224 calls)
     vloc_psi     :    276.59s CPU    281.85s WALL (   16224 calls)
     add_vuspsi   :     55.34s CPU     55.53s WALL (   16224 calls)

     General routines
     calbec       :     76.01s CPU     76.82s WALL (   20732 calls)
     fft          :      0.95s CPU      1.02s WALL (     259 calls)
     ffts         :      0.20s CPU      0.21s WALL (     286 calls)
     fftw         :    293.85s CPU    299.30s WALL (  986958 calls)
     interpolate  :      0.10s CPU      0.10s WALL (      18 calls)
 
     Parallel routines
     fft_scatt_xy :     36.90s CPU     37.62s WALL (  987503 calls)
     fft_scatt_yz :    114.36s CPU    116.65s WALL (  987503 calls)

     PAW routines
     PAW_pot      :      0.60s CPU      0.60s WALL (      18 calls)
 
     PWSCF        :  15m19.03s CPU  15m50.13s WALL

 
   This run was terminated on:  14:28:12  22Feb2020            

=------------------------------------------------------------------------------=
   JOB DONE.
=------------------------------------------------------------------------------=
