begin
comment 22 atoms, species Mg10Si12
lattice     26.8935816190     0.0000000000    -9.7346427643
lattice      0.0000000000     7.7112803996     0.0000000000
lattice      0.0000000000     0.0000000000    13.1044346026
atom      0.0379995369     0.0000000000    12.9408672749   Mg  0.0 0.0   -9.79999926e-07  1.24999991e-07 -5.99999955e-08
atom      2.1347639876     3.8556373397     3.9668501948   Mg  0.0 0.0   -2.21664983e-04 -6.49999951e-08  1.04099992e-05
atom      4.2476852487     3.8556373397    10.5447971237   Mg  0.0 0.0   -3.15119976e-04 -4.99999962e-08 -6.12649954e-05
atom      9.2750903340     0.0000000000    -2.6349100824   Mg  0.0 0.0    3.15399976e-04  2.99999977e-08  6.12999954e-05
atom     11.3879200713     0.0000000000     3.9431912930   Mg  0.0 0.0    2.21599983e-04  7.99999940e-08 -1.07549992e-05
atom      1.5896711275     0.0000000000     8.0455767921   Si  0.0 0.0    2.68499980e-05 -3.99999970e-08  2.02919985e-04
atom      5.2159641300     0.0000000000     1.3432890633   Si  0.0 0.0   -5.99199955e-05  1.49999989e-08  5.26244960e-04
atom      5.6636871094     0.0000000000     6.0809584052   Si  0.0 0.0   -2.91004978e-04 -1.34999990e-07 -3.03849977e-04
atom      7.8588997055     3.8556373397     1.8290172998   Si  0.0 0.0    2.92369978e-04  9.99999925e-08  3.03809977e-04
atom      8.3066512861     3.8556373397     6.5666694810   Si  0.0 0.0    6.00099955e-05  1.99999985e-08 -5.26094960e-04
atom     11.9328870861     3.8556373397    -0.1356211080   Si  0.0 0.0   -2.67999980e-05  5.49999959e-08 -2.02759985e-04
atom     13.4847932065     3.8556373397     8.0735544731   Mg  0.0 0.0   -1.12499992e-06 -1.29999990e-07 -1.49999989e-08
atom     15.5815576572     0.0000000000    -0.9004654672   Mg  0.0 0.0   -2.21574983e-04 -9.99999925e-09  1.06599992e-05
atom     17.6944789184     0.0000000000     5.6774814618   Mg  0.0 0.0   -3.15429976e-04  1.04999992e-07 -6.13949954e-05
atom     22.7218811435     3.8556373397    -7.5022228842   Mg  0.0 0.0    3.15134976e-04 -7.99999940e-08  6.12099954e-05
atom     24.8347108808     3.8556373397    -0.9241243689   Mg  0.0 0.0    2.21814983e-04 -0.00000000e+00 -1.05249992e-05
atom     15.0364619370     3.8556373397     3.1782611302   Si  0.0 0.0    2.72099980e-05  4.49999966e-08  2.02639985e-04
atom     18.6627549395     3.8556373397    -3.5240237385   Si  0.0 0.0   -5.95499955e-05  7.99999940e-08  5.26219960e-04
atom     19.1104779189     3.8556373397     1.2136456034   Si  0.0 0.0   -2.92034978e-04  1.39999989e-07 -3.03639977e-04
atom     21.3056933751     0.0000000000    -3.0382983621   Si  0.0 0.0    2.91179978e-04 -1.09999992e-07  3.04074977e-04
atom     21.7534420956     0.0000000000     1.6993538191   Si  0.0 0.0    6.01349955e-05 -1.09999992e-07 -5.26109960e-04
atom     25.3796807558     0.0000000000    -5.0029339097   Si  0.0 0.0   -2.64899980e-05 -4.99999962e-08 -2.03014985e-04
energy -2.365795635660697e+02
charge 0.0000
end
