begin
comment uuid: d0dc4e30-e6d6-4620-8877-255d426671bb parent_uuid: a92eb12b-a1c1-421e-9fbe-b522f1045a85 trajectory_step: final_scf
lattice     27.1666811006    -0.0000000002    -9.2466198557
lattice      0.0000000001     7.6808516743     0.0000000000
lattice     -0.3466906905     0.0000000000    13.0644681860
atom     -0.3044045752    -0.0000001749    12.9018905238   Mg  0.0 0.0   -1.87404236e-11 -1.39464488e-12  1.55661585e-11
atom      2.0270319144     3.8404256622     3.9877031584   Mg  0.0 0.0    1.65560380e-06 -1.04081461e-12  7.59365473e-09
atom      4.0015470851     3.8404256622    10.6031597516   Mg  0.0 0.0    4.01088673e-07 -9.07586853e-13 -2.39156377e-07
atom      9.3196750033    -0.0000001753    -2.4871568098   Mg  0.0 0.0   -4.01105517e-07  9.25849733e-13  2.39164510e-07
atom     11.2941901725    -0.0000001753     4.1282997859   Mg  0.0 0.0   -1.65559806e-06  1.05248246e-12 -7.63710918e-09
atom      1.3937989898    -0.0000001749     8.0419203252   Si  0.0 0.0    6.50011468e-07 -1.39098824e-12 -8.37570769e-08
atom      5.1923907388    -0.0000001751     1.4427664452   Si  0.0 0.0    1.85886272e-07 -5.41659645e-13  5.33369955e-07
atom      5.4927774233    -0.0000001751     6.1424036288   Si  0.0 0.0   -1.07388353e-07 -3.12813040e-13 -3.80929601e-07
atom      7.8284446633     3.8404256620     1.9735993157   Si  0.0 0.0    1.07406050e-07  3.44216234e-13  3.80911662e-07
atom      8.1288313488     3.8404256620     6.6732364989   Si  0.0 0.0   -1.85891304e-07  5.73706330e-13 -5.33395868e-07
atom     11.9274230957     3.8404256618     0.0740826167   Si  0.0 0.0   -6.49988547e-07  1.39901346e-12  8.37438479e-08
atom     13.2789359747     3.8404256618     8.2785806035   Mg  0.0 0.0   -1.65572535e-11  1.39423139e-12 -1.93887526e-11
atom     15.6103724647    -0.0000001754    -0.6356067628   Mg  0.0 0.0    1.65560473e-06  1.05069563e-12  7.56564219e-09
atom     17.5848876371    -0.0000001754     5.9798498250   Mg  0.0 0.0    4.01077650e-07  9.12028273e-13 -2.39153931e-07
atom     22.9030155551     3.8404256621    -7.1104667472   Mg  0.0 0.0   -4.01115259e-07 -9.30181293e-13  2.39216637e-07
atom     24.8775307217     3.8404256621    -0.4950101511   Mg  0.0 0.0   -1.65559132e-06 -1.06264959e-12 -7.59239915e-09
atom     14.9771395418     3.8404256618     3.4186104039   Si  0.0 0.0    6.50002710e-07  1.39418141e-12 -8.37859716e-08
atom     18.7757312879     3.8404256619    -3.1805434824   Si  0.0 0.0    1.85892552e-07  5.01394330e-13  5.33376799e-07
atom     19.0761179733     3.8404256619     1.5190937008   Si  0.0 0.0   -1.07385829e-07  2.78350209e-13 -3.80921235e-07
atom     21.4117852133    -0.0000001752    -2.6497106203   Si  0.0 0.0    1.07408402e-07 -3.11652862e-13  3.80957145e-07
atom     21.7121719000    -0.0000001752     2.0499265629   Si  0.0 0.0   -1.85895441e-07 -5.31844351e-13 -5.33350774e-07
atom     25.5107636456    -0.0000001751    -4.5492273195   Si  0.0 0.0   -6.49987382e-07 -1.40138610e-12  8.37843116e-08
energy -2.365805095463648e+02
charge 0.0000
end
