begin
comment uuid: d0dc4e30-e6d6-4620-8877-255d426671bb parent_uuid: a92eb12b-a1c1-421e-9fbe-b522f1045a85 trajectory_step: final_scf
lattice     27.1666811006    -0.0000000002    -9.2466198557
lattice      0.0000000001     7.6808516743     0.0000000000
lattice     -0.3466906905     0.0000000000    13.0644681860
atom     -0.3044045752    -0.0000001749    12.9018905238   Mg  0.0 0.0   -1.86802842e-11 -1.39222243e-12  1.55007142e-11
atom      2.0270319144     3.8404256622     3.9877031584   Mg  0.0 0.0    1.65560379e-06 -1.04056632e-12  7.59365454e-09
atom      4.0015470851     3.8404256622    10.6031597516   Mg  0.0 0.0    4.01088690e-07 -9.07437609e-13 -2.39156395e-07
atom      9.3196750033    -0.0000001753    -2.4871568098   Mg  0.0 0.0   -4.01105526e-07  9.26115421e-13  2.39164456e-07
atom     11.2941901725    -0.0000001753     4.1282997859   Mg  0.0 0.0   -1.65559808e-06  1.05228349e-12 -7.63707778e-09
atom      1.3937989898    -0.0000001749     8.0419203252   Si  0.0 0.0    6.50011182e-07 -1.39173426e-12 -8.37570074e-08
atom      5.1923907388    -0.0000001751     1.4427664452   Si  0.0 0.0    1.85886304e-07 -5.43676864e-13  5.33369995e-07
atom      5.4927774233    -0.0000001751     6.1424036288   Si  0.0 0.0   -1.07388060e-07 -3.11528680e-13 -3.80929651e-07
atom      7.8284446633     3.8404256620     1.9735993157   Si  0.0 0.0    1.07405983e-07  3.45394805e-13  3.80911721e-07
atom      8.1288313488     3.8404256620     6.6732364989   Si  0.0 0.0   -1.85891380e-07  5.72211307e-13 -5.33395878e-07
atom     11.9274230957     3.8404256618     0.0740826167   Si  0.0 0.0   -6.49988444e-07  1.39936451e-12  8.37437990e-08
atom     13.2789359747     3.8404256618     8.2785806035   Mg  0.0 0.0   -1.65703921e-11  1.39368120e-12 -1.93585071e-11
atom     15.6103724647    -0.0000001754    -0.6356067628   Mg  0.0 0.0    1.65560471e-06  1.05066576e-12  7.56567986e-09
atom     17.5848876371    -0.0000001754     5.9798498250   Mg  0.0 0.0    4.01077653e-07  9.12330531e-13 -2.39153971e-07
atom     22.9030155551     3.8404256621    -7.1104667472   Mg  0.0 0.0   -4.01115255e-07 -9.30417709e-13  2.39216605e-07
atom     24.8775307217     3.8404256621    -0.4950101511   Mg  0.0 0.0   -1.65559132e-06 -1.06215733e-12 -7.59240136e-09
atom     14.9771395418     3.8404256618     3.4186104039   Si  0.0 0.0    6.50002754e-07  1.39447476e-12 -8.37860567e-08
atom     18.7757312879     3.8404256619    -3.1805434824   Si  0.0 0.0    1.85892457e-07  4.99436350e-13  5.33376791e-07
atom     19.0761179733     3.8404256619     1.5190937008   Si  0.0 0.0   -1.07385898e-07  2.79230558e-13 -3.80921182e-07
atom     21.4117852133    -0.0000001752    -2.6497106203   Si  0.0 0.0    1.07408692e-07 -3.10008754e-13  3.80957092e-07
atom     21.7121719000    -0.0000001752     2.0499265629   Si  0.0 0.0   -1.85895389e-07 -5.33899217e-13 -5.33350720e-07
atom     25.5107636456    -0.0000001751    -4.5492273195   Si  0.0 0.0   -6.49987603e-07 -1.40162441e-12  8.37844042e-08
energy -2.365805095463648e+02
charge 0.0000
end
