begin
comment uuid: d0dc4e30-e6d6-4620-8877-255d426671bb parent_uuid: a92eb12b-a1c1-421e-9fbe-b522f1045a85 trajectory_step: final_scf
lattice     27.1710257208    -0.0000000002    -9.2382998846
lattice      0.0000000001     7.7053715165     0.0000000000
lattice     -0.3554986002    -0.0000000000    13.0268709913
atom     -0.3131055425    -0.0000001755    12.8647354016   Mg  0.0 0.0   -2.38744636e-11 -8.86364747e-13 -1.50276838e-12
atom      2.0406424079     3.8526855827     4.0081130840   Mg  0.0 0.0    7.76380491e-07 -8.36800213e-13 -3.81227331e-08
atom      3.9847014935     3.8526855827    10.5561667618   Mg  0.0 0.0    5.69826476e-07 -7.53201512e-13 -5.57863570e-07
atom      9.3300988807    -0.0000001758    -2.4727168856   Mg  0.0 0.0   -5.69833692e-07  7.63869964e-13  5.57840959e-07
atom     11.2741579657    -0.0000001759     4.0753367915   Mg  0.0 0.0   -7.76371025e-07  8.44855912e-13  3.81268418e-08
atom      1.3906943390    -0.0000001755     8.0212989679   Si  0.0 0.0    6.80433700e-07 -7.64681331e-13  8.01345899e-07
atom      5.1888983661    -0.0000001757     1.4342849467   Si  0.0 0.0   -2.89113268e-07  4.78902633e-14  4.30436340e-07
atom      5.5031620400    -0.0000001757     6.1311217382   Si  0.0 0.0   -9.95681509e-07  1.27910237e-13 -3.81761143e-07
atom      7.8116383336     3.8526855826     1.9523281386   Si  0.0 0.0    9.95693571e-07 -1.05841635e-13  3.81748505e-07
atom      8.1259020081     3.8526855825     6.6491649296   Si  0.0 0.0    2.89110736e-07 -2.80264253e-14 -4.30432054e-07
atom     11.9241060341     3.8526855824     0.0621509074   Si  0.0 0.0   -6.80419903e-07  7.68947223e-13 -8.01358075e-07
atom     13.2724073177     3.8526855824     8.2455854648   Mg  0.0 0.0   -2.24717991e-11  8.85503931e-13 -2.73880800e-11
atom     15.6261552684    -0.0000001759    -0.6110368533   Mg  0.0 0.0    7.76380903e-07  8.38309278e-13 -3.81449202e-08
atom     17.5702143546    -0.0000001759     5.9370168213   Mg  0.0 0.0    5.69821664e-07  7.43591509e-13 -5.57867659e-07
atom     22.9156117418     3.8526855826    -7.0918668342   Mg  0.0 0.0   -5.69838057e-07 -7.54009067e-13  5.57874389e-07
atom     24.8596708255     3.8526855826    -0.5438131574   Mg  0.0 0.0   -7.76367065e-07 -8.46409003e-13  3.81591783e-08
atom     14.9762072006     3.8526855824     3.4021490306   Si  0.0 0.0    6.80427693e-07  7.75788121e-13  8.01323698e-07
atom     18.7744112256     3.8526855825    -3.1848649948   Si  0.0 0.0   -2.89108848e-07 -6.85958850e-14  4.30437200e-07
atom     19.0886749003     3.8526855825     1.5119717963   Si  0.0 0.0   -9.95680358e-07 -1.41778964e-13 -3.81759018e-07
atom     21.3971511938    -0.0000001758    -2.6668218089   Si  0.0 0.0    9.95695192e-07  1.20808478e-13  3.81777259e-07
atom     21.7114148691    -0.0000001758     2.0300149821   Si  0.0 0.0    2.89108256e-07  4.89886977e-14 -4.30403181e-07
atom     25.5096188940    -0.0000001757    -4.5569990409   Si  0.0 0.0   -6.80418612e-07 -7.79753426e-13 -8.01329025e-07
energy -2.365803406348205e+02
charge 0.0000
end
