begin
comment uuid: d0dc4e30-e6d6-4620-8877-255d426671bb parent_uuid: a92eb12b-a1c1-421e-9fbe-b522f1045a85 trajectory_step: final_scf
lattice     27.1710257208    -0.0000000002    -9.2382998846
lattice      0.0000000001     7.7053715165     0.0000000000
lattice     -0.3554986002    -0.0000000000    13.0268709913
atom     -0.3131055425    -0.0000001755    12.8647354016   Mg  0.0 0.0   -2.38276796e-11 -8.85340282e-13 -1.37603581e-12
atom      2.0406424079     3.8526855827     4.0081130840   Mg  0.0 0.0    7.76380485e-07 -8.36674988e-13 -3.81227569e-08
atom      3.9847014935     3.8526855827    10.5561667618   Mg  0.0 0.0    5.69826490e-07 -7.53035264e-13 -5.57863545e-07
atom      9.3300988807    -0.0000001758    -2.4727168856   Mg  0.0 0.0   -5.69833685e-07  7.63421516e-13  5.57840957e-07
atom     11.2741579657    -0.0000001759     4.0753367915   Mg  0.0 0.0   -7.76371032e-07  8.44191930e-13  3.81268405e-08
atom      1.3906943390    -0.0000001755     8.0212989679   Si  0.0 0.0    6.80433732e-07 -7.65085613e-13  8.01345843e-07
atom      5.1888983661    -0.0000001757     1.4342849467   Si  0.0 0.0   -2.89113315e-07  4.82478532e-14  4.30436320e-07
atom      5.5031620400    -0.0000001757     6.1311217382   Si  0.0 0.0   -9.95681551e-07  1.27968532e-13 -3.81761133e-07
atom      7.8116383336     3.8526855826     1.9523281386   Si  0.0 0.0    9.95693552e-07 -1.06565081e-13  3.81748503e-07
atom      8.1259020081     3.8526855825     6.6491649296   Si  0.0 0.0    2.89110757e-07 -2.87104383e-14 -4.30432034e-07
atom     11.9241060341     3.8526855824     0.0621509074   Si  0.0 0.0   -6.80419877e-07  7.69189071e-13 -8.01358110e-07
atom     13.2724073177     3.8526855824     8.2455854648   Mg  0.0 0.0   -2.24716405e-11  8.85949334e-13 -2.73363191e-11
atom     15.6261552684    -0.0000001759    -0.6110368533   Mg  0.0 0.0    7.76380893e-07  8.38278978e-13 -3.81449212e-08
atom     17.5702143546    -0.0000001759     5.9370168213   Mg  0.0 0.0    5.69821674e-07  7.43303090e-13 -5.57867658e-07
atom     22.9156117418     3.8526855826    -7.0918668342   Mg  0.0 0.0   -5.69838047e-07 -7.54114862e-13  5.57874412e-07
atom     24.8596708255     3.8526855826    -0.5438131574   Mg  0.0 0.0   -7.76367069e-07 -8.46499683e-13  3.81591556e-08
atom     14.9762072006     3.8526855824     3.4021490306   Si  0.0 0.0    6.80427726e-07  7.76177000e-13  8.01323653e-07
atom     18.7744112256     3.8526855825    -3.1848649948   Si  0.0 0.0   -2.89108826e-07 -6.99817199e-14  4.30437214e-07
atom     19.0886749003     3.8526855825     1.5119717963   Si  0.0 0.0   -9.95680381e-07 -1.42795872e-13 -3.81759012e-07
atom     21.3971511938    -0.0000001758    -2.6668218089   Si  0.0 0.0    9.95695154e-07  1.22064769e-13  3.81777262e-07
atom     21.7114148691    -0.0000001758     2.0300149821   Si  0.0 0.0    2.89108210e-07  4.99842861e-14 -4.30403193e-07
atom     25.5096188940    -0.0000001757    -4.5569990409   Si  0.0 0.0   -6.80418591e-07 -7.79885666e-13 -8.01329084e-07
energy -2.365803406348204e+02
charge 0.0000
end
