begin
comment uuid: d0dc4e30-e6d6-4620-8877-255d426671bb parent_uuid: a92eb12b-a1c1-421e-9fbe-b522f1045a85 trajectory_step: final_scf
lattice     27.1666811006    -0.0000000002    -9.2466198557
lattice      0.0000000001     7.6808516743     0.0000000000
lattice     -0.3466906905     0.0000000000    13.0644681860
atom     -0.3044045752    -0.0000001749    12.9018905238   Mg  0.0 0.0   -1.86968114e-11 -1.39362581e-12  1.54645666e-11
atom      2.0270319144     3.8404256622     3.9877031584   Mg  0.0 0.0    1.65560380e-06 -1.04035474e-12  7.59366792e-09
atom      4.0015470851     3.8404256622    10.6031597516   Mg  0.0 0.0    4.01088674e-07 -9.07339912e-13 -2.39156399e-07
atom      9.3196750033    -0.0000001753    -2.4871568098   Mg  0.0 0.0   -4.01105531e-07  9.25907057e-13  2.39164474e-07
atom     11.2941901725    -0.0000001753     4.1282997859   Mg  0.0 0.0   -1.65559806e-06  1.05191126e-12 -7.63707218e-09
atom      1.3937989898    -0.0000001749     8.0419203252   Si  0.0 0.0    6.50011324e-07 -1.39153138e-12 -8.37570118e-08
atom      5.1923907388    -0.0000001751     1.4427664452   Si  0.0 0.0    1.85886317e-07 -5.43287022e-13  5.33369983e-07
atom      5.4927774233    -0.0000001751     6.1424036288   Si  0.0 0.0   -1.07388228e-07 -3.13304491e-13 -3.80929628e-07
atom      7.8284446633     3.8404256620     1.9735993157   Si  0.0 0.0    1.07405955e-07  3.45355368e-13  3.80911701e-07
atom      8.1288313488     3.8404256620     6.6732364989   Si  0.0 0.0   -1.85891318e-07  5.74776668e-13 -5.33395879e-07
atom     11.9274230957     3.8404256618     0.0740826167   Si  0.0 0.0   -6.49988469e-07  1.39904204e-12  8.37438356e-08
atom     13.2789359746     3.8404256618     8.2785806035   Mg  0.0 0.0   -1.65712182e-11  1.39257156e-12 -1.94392858e-11
atom     15.6103724647    -0.0000001754    -0.6356067628   Mg  0.0 0.0    1.65560473e-06  1.05034288e-12  7.56568331e-09
atom     17.5848876371    -0.0000001754     5.9798498250   Mg  0.0 0.0    4.01077635e-07  9.11796979e-13 -2.39153965e-07
atom     22.9030155551     3.8404256621    -7.1104667472   Mg  0.0 0.0   -4.01115258e-07 -9.30029891e-13  2.39216614e-07
atom     24.8775307217     3.8404256621    -0.4950101511   Mg  0.0 0.0   -1.65559132e-06 -1.06198893e-12 -7.59238525e-09
atom     14.9771395418     3.8404256618     3.4186104039   Si  0.0 0.0    6.50002776e-07  1.39431376e-12 -8.37859860e-08
atom     18.7757312879     3.8404256619    -3.1805434824   Si  0.0 0.0    1.85892533e-07  5.02466023e-13  5.33376790e-07
atom     19.0761179733     3.8404256619     1.5190937008   Si  0.0 0.0   -1.07385927e-07  2.79485324e-13 -3.80921198e-07
atom     21.4117852133    -0.0000001752    -2.6497106203   Si  0.0 0.0    1.07408530e-07 -3.11959986e-13  3.80957112e-07
atom     21.7121719000    -0.0000001752     2.0499265629   Si  0.0 0.0   -1.85895387e-07 -5.33436373e-13 -5.33350741e-07
atom     25.5107636456    -0.0000001751    -4.5492273195   Si  0.0 0.0   -6.49987514e-07 -1.40165895e-12  8.37843774e-08
energy -2.365805095463648e+02
charge 0.0000
end
