begin
comment uuid: d0dc4e30-e6d6-4620-8877-255d426671bb parent_uuid: a92eb12b-a1c1-421e-9fbe-b522f1045a85 trajectory_step: final_scf
lattice     27.1478602356    -0.0000000002    -9.2947895787
lattice      0.0000000001     7.6811062844    -0.0000000000
lattice     -0.3645760273    -0.0000000000    13.0797538905
atom     -0.3221118906    -0.0000001744    12.9169336291   Mg  0.0 0.0       0.0000000305     0.0000000000    -0.0000000061
atom      2.0015568213     3.8405529715     3.9896573413   Mg  0.0 0.0      -0.0000014360    -0.0000000003     0.0000012610
atom      3.9487611415     3.8405529708    10.6174993728   Mg  0.0 0.0      -0.0000002004    -0.0000000002    -0.0000014183
atom      9.3455228748    -0.0000001789    -2.5107842572   Mg  0.0 0.0       0.0000002007     0.0000000002     0.0000014903
atom     11.2927243405    -0.0000001796     4.1170619980   Mg  0.0 0.0       0.0000014757     0.0000000003    -0.0000012788
atom      1.3856318023    -0.0000001791     8.0502437283   Si  0.0 0.0       0.0000010611     0.0000000003    -0.0000012011
atom      5.1971103789    -0.0000001803     1.4357170858   Si  0.0 0.0      -0.0000008901     0.0000000005    -0.0000016399
atom      5.4731276732    -0.0000001801     6.1345917217   Si  0.0 0.0      -0.0000010850     0.0000000005     0.0000005594
atom      7.8211550335     3.8405529720     1.9721266883   Si  0.0 0.0       0.0000010498    -0.0000000005    -0.0000005823
atom      8.0971727975     3.8405529721     6.6710011036   Si  0.0 0.0       0.0000008628    -0.0000000005     0.0000016280
atom     11.9086505545     3.8405529710     0.0564749189   Si  0.0 0.0      -0.0000010693    -0.0000000003     0.0000011871
atom     13.2518182040     3.8405529662     8.2695388690   Mg  0.0 0.0       0.0000000313    -0.0000000000    -0.0000000061
atom     15.5754869500    -0.0000001796    -0.6577374148   Mg  0.0 0.0      -0.0000014365     0.0000000003     0.0000012607
atom     17.5226912841    -0.0000001790     5.9701045907   Mg  0.0 0.0      -0.0000002010     0.0000000002    -0.0000014187
atom     22.9194530024     3.8405529707    -7.1581791008   Mg  0.0 0.0       0.0000002008    -0.0000000002     0.0000014905
atom     24.8666544487     3.8405529713    -0.5303328534   Mg  0.0 0.0       0.0000014758    -0.0000000003    -0.0000012781
atom     14.9595619238     3.8405529710     3.4028489581   Si  0.0 0.0       0.0000010615    -0.0000000003    -0.0000012010
atom     18.7710404816     3.8405529721    -3.2116777208   Si  0.0 0.0      -0.0000008896    -0.0000000005    -0.0000016396
atom     19.0470577877     3.8405529720     1.4871969117   Si  0.0 0.0      -0.0000010850    -0.0000000005     0.0000005598
atom     21.3950851561    -0.0000001802    -2.6752681548   Si  0.0 0.0       0.0000010492     0.0000000005    -0.0000005820
atom     21.6711029163    -0.0000001803     2.0236062624   Si  0.0 0.0       0.0000008632     0.0000000005     0.0000016285
atom     25.4825806809    -0.0000001793    -4.5909199038   Si  0.0 0.0      -0.0000010694     0.0000000003     0.0000011866
energy -236.579554562
charge 0.0000
end
