begin
comment uuid: d0dc4e30-e6d6-4620-8877-255d426671bb parent_uuid: a92eb12b-a1c1-421e-9fbe-b522f1045a85 trajectory_step: final_scf
lattice     27.1666811006    -0.0000000002    -9.2466198557
lattice      0.0000000001     7.6808516743     0.0000000000
lattice     -0.3466906905     0.0000000000    13.0644681860
atom     -0.3044045752    -0.0000001749    12.9018905238   Mg  0.0 0.0   -1.87074411e-11 -1.39374024e-12  1.55186491e-11
atom      2.0270319144     3.8404256622     3.9877031584   Mg  0.0 0.0    1.65560379e-06 -1.04021872e-12  7.59367254e-09
atom      4.0015470851     3.8404256622    10.6031597516   Mg  0.0 0.0    4.01088674e-07 -9.07429512e-13 -2.39156421e-07
atom      9.3196750033    -0.0000001753    -2.4871568098   Mg  0.0 0.0   -4.01105508e-07  9.25733406e-13  2.39164481e-07
atom     11.2941901725    -0.0000001753     4.1282997859   Mg  0.0 0.0   -1.65559807e-06  1.05235189e-12 -7.63709461e-09
atom      1.3937989898    -0.0000001749     8.0419203252   Si  0.0 0.0    6.50011375e-07 -1.39175592e-12 -8.37570392e-08
atom      5.1923907388    -0.0000001751     1.4427664452   Si  0.0 0.0    1.85886266e-07 -5.43104785e-13  5.33369979e-07
atom      5.4927774233    -0.0000001751     6.1424036288   Si  0.0 0.0   -1.07388228e-07 -3.13621330e-13 -3.80929600e-07
atom      7.8284446633     3.8404256620     1.9735993157   Si  0.0 0.0    1.07406175e-07  3.44934276e-13  3.80911663e-07
atom      8.1288313488     3.8404256620     6.6732364989   Si  0.0 0.0   -1.85891340e-07  5.75031934e-13 -5.33395878e-07
atom     11.9274230957     3.8404256618     0.0740826167   Si  0.0 0.0   -6.49988631e-07  1.39875674e-12  8.37438937e-08
atom     13.2789359747     3.8404256618     8.2785806035   Mg  0.0 0.0   -1.66134766e-11  1.39373461e-12 -1.94482456e-11
atom     15.6103724647    -0.0000001754    -0.6356067628   Mg  0.0 0.0    1.65560473e-06  1.05078827e-12  7.56565721e-09
atom     17.5848876371    -0.0000001754     5.9798498250   Mg  0.0 0.0    4.01077657e-07  9.11774428e-13 -2.39153960e-07
atom     22.9030155551     3.8404256621    -7.1104667472   Mg  0.0 0.0   -4.01115255e-07 -9.29836117e-13  2.39216596e-07
atom     24.8775307217     3.8404256621    -0.4950101511   Mg  0.0 0.0   -1.65559134e-06 -1.06153121e-12 -7.59237941e-09
atom     14.9771395418     3.8404256618     3.4186104039   Si  0.0 0.0    6.50002649e-07  1.39376464e-12 -8.37859225e-08
atom     18.7757312879     3.8404256619    -3.1805434824   Si  0.0 0.0    1.85892513e-07  5.02861668e-13  5.33376792e-07
atom     19.0761179733     3.8404256619     1.5190937008   Si  0.0 0.0   -1.07385717e-07  2.79625122e-13 -3.80921231e-07
atom     21.4117852133    -0.0000001752    -2.6497106203   Si  0.0 0.0    1.07408538e-07 -3.12924537e-13  3.80957136e-07
atom     21.7121719000    -0.0000001752     2.0499265629   Si  0.0 0.0   -1.85895447e-07 -5.33590745e-13 -5.33350747e-07
atom     25.5107636456    -0.0000001751    -4.5492273195   Si  0.0 0.0   -6.49987501e-07 -1.40188754e-12  8.37843316e-08
energy -2.365805095463648e+02
charge 0.0000
end
