begin
comment uuid: d0dc4e30-e6d6-4620-8877-255d426671bb parent_uuid: a92eb12b-a1c1-421e-9fbe-b522f1045a85 trajectory_step: final_scf
lattice     27.1710257208    -0.0000000002    -9.2382998846
lattice      0.0000000001     7.7053715165     0.0000000000
lattice     -0.3554986002    -0.0000000000    13.0268709913
atom     -0.3131055425    -0.0000001755    12.8647354016   Mg  0.0 0.0   -2.38151289e-11 -8.85477381e-13 -1.42186069e-12
atom      2.0406424079     3.8526855827     4.0081130840   Mg  0.0 0.0    7.76380487e-07 -8.36625332e-13 -3.81227500e-08
atom      3.9847014935     3.8526855827    10.5561667618   Mg  0.0 0.0    5.69826476e-07 -7.52742412e-13 -5.57863562e-07
atom      9.3300988807    -0.0000001758    -2.4727168856   Mg  0.0 0.0   -5.69833691e-07  7.63419482e-13  5.57840936e-07
atom     11.2741579657    -0.0000001759     4.0753367915   Mg  0.0 0.0   -7.76371030e-07  8.44685382e-13  3.81268700e-08
atom      1.3906943390    -0.0000001755     8.0212989679   Si  0.0 0.0    6.80433708e-07 -7.65145527e-13  8.01345867e-07
atom      5.1888983661    -0.0000001757     1.4342849467   Si  0.0 0.0   -2.89113332e-07  4.85561920e-14  4.30436320e-07
atom      5.5031620400    -0.0000001757     6.1311217382   Si  0.0 0.0   -9.95681538e-07  1.28419503e-13 -3.81761135e-07
atom      7.8116383336     3.8526855826     1.9523281386   Si  0.0 0.0    9.95693582e-07 -1.07213761e-13  3.81748511e-07
atom      8.1259020081     3.8526855825     6.6491649296   Si  0.0 0.0    2.89110803e-07 -2.91581111e-14 -4.30432018e-07
atom     11.9241060341     3.8526855824     0.0621509074   Si  0.0 0.0   -6.80419893e-07  7.69695164e-13 -8.01358071e-07
atom     13.2724073177     3.8526855824     8.2455854648   Mg  0.0 0.0   -2.25172670e-11  8.86322747e-13 -2.74576327e-11
atom     15.6261552684    -0.0000001759    -0.6110368533   Mg  0.0 0.0    7.76380901e-07  8.38102403e-13 -3.81448938e-08
atom     17.5702143546    -0.0000001759     5.9370168213   Mg  0.0 0.0    5.69821663e-07  7.43607101e-13 -5.57867684e-07
atom     22.9156117418     3.8526855826    -7.0918668342   Mg  0.0 0.0   -5.69838053e-07 -7.53979920e-13  5.57874398e-07
atom     24.8596708255     3.8526855826    -0.5438131574   Mg  0.0 0.0   -7.76367073e-07 -8.46927172e-13  3.81591648e-08
atom     14.9762072006     3.8526855824     3.4021490306   Si  0.0 0.0    6.80427707e-07  7.76194919e-13  8.01323701e-07
atom     18.7744112256     3.8526855825    -3.1848649948   Si  0.0 0.0   -2.89108783e-07 -7.04337680e-14  4.30437235e-07
atom     19.0886749003     3.8526855825     1.5119717963   Si  0.0 0.0   -9.95680351e-07 -1.42829066e-13 -3.81759013e-07
atom     21.3971511938    -0.0000001758    -2.6668218089   Si  0.0 0.0    9.95695164e-07  1.22377828e-13  3.81777272e-07
atom     21.7114148691    -0.0000001758     2.0300149821   Si  0.0 0.0    2.89108197e-07  4.96426171e-14 -4.30403202e-07
atom     25.5096188940    -0.0000001757    -4.5569990409   Si  0.0 0.0   -6.80418612e-07 -7.80282119e-13 -8.01329067e-07
energy -2.365803406348205e+02
charge 0.0000
end
