begin
comment uuid: d0dc4e30-e6d6-4620-8877-255d426671bb parent_uuid: a92eb12b-a1c1-421e-9fbe-b522f1045a85 trajectory_step: final_scf
lattice     27.2487643240    -0.0000000002    -9.2566376576
lattice      0.0000000001     7.6659795111     0.0000000000
lattice     -0.3464317981    -0.0000000000    13.0822658102
atom     -0.3040328706    -0.0000001747    12.9194703075   Mg  0.0 0.0    1.22073296e-11 -5.12716417e-13 -2.72076247e-12
atom      2.0722018301     3.8329895809     4.0739376015   Mg  0.0 0.0    1.87105512e-06 -2.20225577e-12  9.34919397e-08
atom      3.9961603221     3.8329895808    10.5929861905   Mg  0.0 0.0    1.26957257e-06 -1.53517847e-12  9.62359568e-08
atom      9.3665878971    -0.0000001749    -2.4646302093   Mg  0.0 0.0   -1.26959658e-06  1.54421354e-12 -9.62077501e-08
atom     11.2905463866    -0.0000001749     4.0544183825   Mg  0.0 0.0   -1.87103642e-06  2.21028166e-12 -9.35205311e-08
atom      1.3901074558    -0.0000001747     8.0620535071   Si  0.0 0.0   -3.16097370e-07  4.22064521e-13 -1.76638578e-07
atom      5.2112445103    -0.0000001748     1.4513114799   Si  0.0 0.0    7.60177890e-07  6.82157561e-12 -4.33665590e-07
atom      5.5107013328    -0.0000001748     6.1751859115   Si  0.0 0.0    1.55861695e-07  6.62611123e-12  5.54141439e-07
atom      7.8520468846     3.8329895808     1.9531700727   Si  0.0 0.0   -1.55890178e-07 -6.60724457e-12 -5.54184757e-07
atom      8.1515037072     3.8329895808     6.6770445037   Si  0.0 0.0   -7.60156912e-07 -6.80357643e-12  4.33661407e-07
atom     11.9726407608     3.8329895806     0.0663024751   Si  0.0 0.0    3.16098120e-07 -4.18676448e-13  1.76659770e-07
atom     13.3203492908     3.8329895806     8.2911514850   Mg  0.0 0.0    1.57515810e-11  5.12673135e-13 -2.97967936e-11
atom     15.6965839918    -0.0000001749    -0.5543812215   Mg  0.0 0.0    1.87105710e-06  2.21870985e-12  9.34695420e-08
atom     17.6205424845    -0.0000001749     5.9646673652   Mg  0.0 0.0    1.26956948e-06  1.54114188e-12  9.62258752e-08
atom     22.9909700597     3.8329895807    -7.0929490450   Mg  0.0 0.0   -1.26960011e-06 -1.55007843e-12 -9.61750695e-08
atom     24.9149285484     3.8329895807    -0.5739004536   Mg  0.0 0.0   -1.87103467e-06 -2.22632617e-12 -9.34886401e-08
atom     15.0144896188     3.8329895806     3.4337346841   Si  0.0 0.0   -3.16102340e-07 -4.18712434e-13 -1.76660927e-07
atom     18.8356266713     3.8329895807    -3.1770073472   Si  0.0 0.0    7.60182631e-07 -6.89357796e-12 -4.33668858e-07
atom     19.1350834946     3.8329895807     1.5468670841   Si  0.0 0.0    1.55862499e-07 -6.69174284e-12  5.54139964e-07
atom     21.4764290466    -0.0000001750    -2.6751487613   Si  0.0 0.0   -1.55889607e-07  6.67342271e-12 -5.54158892e-07
atom     21.7758858700    -0.0000001750     2.0487256697   Si  0.0 0.0   -7.60159249e-07  6.87466983e-12  4.33687900e-07
atom     25.5970229225    -0.0000001749    -4.5620163605   Si  0.0 0.0    3.16098363e-07  4.15490807e-13  1.76688315e-07
energy -2.365802026259521e+02
charge 0.0000
end
