begin
comment uuid: d0dc4e30-e6d6-4620-8877-255d426671bb parent_uuid: a92eb12b-a1c1-421e-9fbe-b522f1045a85 trajectory_step: final_scf
lattice     27.1808684172    -0.0000000002    -9.3226419174
lattice      0.0000000001     7.6728919576     0.0000000000
lattice     -0.3720490901     0.0000000000    13.0985240045
atom     -0.3294527165    -0.0000001749    12.9354493131   Mg  0.0 0.0       0.0000000002     0.0000000000     0.0000000000
atom      1.9996787073     3.8364458040     3.9958384419   Mg  0.0 0.0       0.0000002776    -0.0000000000     0.0000004807
atom      3.9483331224     3.8364458039    10.6327583625   Mg  0.0 0.0       0.0000003967    -0.0000000000    -0.0000004397
atom      9.3552447518    -0.0000001750    -2.5217046977   Mg  0.0 0.0      -0.0000003967     0.0000000000     0.0000004399
atom     11.3038991611    -0.0000001751     4.1152152334   Mg  0.0 0.0      -0.0000002775     0.0000000000    -0.0000004809
atom      1.3837721625    -0.0000001749     8.0597848776   Si  0.0 0.0      -0.0000008795     0.0000000000    -0.0000002828
atom      5.2009727951    -0.0000001749     1.4381526113   Si  0.0 0.0       0.0000010572     0.0000000000     0.0000013014
atom      5.4729050009    -0.0000001750     6.1407573289   Si  0.0 0.0       0.0000002997     0.0000000000    -0.0000003091
atom      7.8306728714     3.8364458039     1.9702963451   Si  0.0 0.0      -0.0000002999    -0.0000000000     0.0000003089
atom      8.1026050778     3.8364458039     6.6729010609   Si  0.0 0.0      -0.0000010573    -0.0000000000    -0.0000013014
atom     11.9198057073     3.8364458038     0.0512687927   Si  0.0 0.0       0.0000008795    -0.0000000000     0.0000002828
atom     13.2609814913     3.8364458038     8.2741283607   Mg  0.0 0.0       0.0000000002    -0.0000000000     0.0000000000
atom     15.5901129160    -0.0000001751    -0.6654825103   Mg  0.0 0.0       0.0000002776     0.0000000000     0.0000004807
atom     17.5387673318    -0.0000001751     5.9714374068   Mg  0.0 0.0       0.0000003967     0.0000000000    -0.0000004397
atom     22.9456789610     3.8364458038    -7.1830256628   Mg  0.0 0.0      -0.0000003967    -0.0000000000     0.0000004399
atom     24.8943333690     3.8364458038    -0.5461057331   Mg  0.0 0.0      -0.0000002775    -0.0000000000    -0.0000004808
atom     14.9742063724     3.8364458038     3.3984639248   Si  0.0 0.0      -0.0000008795    -0.0000000000    -0.0000002828
atom     18.7914070026     3.8364458038    -3.2231683456   Si  0.0 0.0       0.0000010572    -0.0000000000     0.0000013014
atom     19.0633392095     3.8364458038     1.4794363718   Si  0.0 0.0       0.0000002997    -0.0000000000    -0.0000003091
atom     21.4211070799    -0.0000001751    -2.6910246188   Si  0.0 0.0      -0.0000002999     0.0000000000     0.0000003090
atom     21.6930392874    -0.0000001751     2.0115800971   Si  0.0 0.0      -0.0000010573     0.0000000000    -0.0000013014
atom     25.5102399154    -0.0000001751    -4.6100521727   Si  0.0 0.0       0.0000008795     0.0000000000     0.0000002829
energy -236.579572518
charge 0.0000
end
