begin
comment uuid: d0dc4e30-e6d6-4620-8877-255d426671bb parent_uuid: a92eb12b-a1c1-421e-9fbe-b522f1045a85 trajectory_step: final_scf
lattice     27.2880203358    -0.0000000002    -9.1554530923
lattice      0.0000000001     7.6636076372     0.0000000000
lattice     -0.3217926767     0.0000000000    13.0121271627
atom     -0.2796203973    -0.0000001746    12.8502771832   Mg  0.0 0.0   -1.57042617e-11 -3.51668762e-13  3.78180250e-12
atom      2.0578682807     3.8318036440     3.9936790425   Mg  0.0 0.0   -9.68516332e-09 -4.59010901e-13  1.55268219e-06
atom      4.0259371457     3.8318036439    10.5541424571   Mg  0.0 0.0   -2.82890242e-07 -3.67021407e-13 -2.59179195e-07
atom      9.3806249039    -0.0000001748    -2.4434417951   Mg  0.0 0.0    2.82854466e-07  3.75364518e-13  2.59199356e-07
atom     11.3486937647    -0.0000001748     4.1170216249   Mg  0.0 0.0    9.70604388e-09  4.66470224e-13 -1.55271847e-06
atom      1.3941653288    -0.0000001746     8.0264894329   Si  0.0 0.0   -1.93900383e-06 -2.36448303e-13  1.46506017e-07
atom      5.1919231316    -0.0000001747     1.4396868047   Si  0.0 0.0   -1.08412442e-06 -1.63637667e-13 -5.84117737e-10
atom      5.5050890986    -0.0000001747     6.1632348302   Si  0.0 0.0   -5.90298529e-07 -5.39535033e-14 -1.36066750e-06
atom      7.9014729467     3.8318036439     1.9474658356   Si  0.0 0.0    5.90315249e-07  7.15174548e-14  1.36064711e-06
atom      8.2146389153     3.8318036438     6.6710138602   Si  0.0 0.0    1.08410988e-06  1.80216514e-13  5.91916735e-10
atom     12.0123967157     3.8318036438     0.0842112316   Si  0.0 0.0    1.93903121e-06  2.38403010e-13 -1.46516938e-07
atom     13.3643897702     3.8318036438     8.2725506442   Mg  0.0 0.0   -1.38733549e-11  3.51078990e-13 -2.59114980e-11
atom     15.7018784488    -0.0000001749    -0.5840474967   Mg  0.0 0.0   -9.68519339e-09  4.59721679e-13  1.55265525e-06
atom     17.6699473141    -0.0000001749     5.9764159143   Mg  0.0 0.0   -2.82893318e-07  3.65960101e-13 -2.59188217e-07
atom     23.0246350722     3.8318036438    -7.0211683485   Mg  0.0 0.0    2.82852140e-07 -3.74166113e-13  2.59234225e-07
atom     24.9927039317     3.8318036438    -0.4607049300   Mg  0.0 0.0    9.71067991e-09 -4.67191373e-13 -1.55268021e-06
atom     15.0381754979     3.8318036437     3.4487628932   Si  0.0 0.0   -1.93900924e-06  2.37431125e-13  1.46480631e-07
atom     18.8359332984     3.8318036438    -3.1380397394   Si  0.0 0.0   -1.08411896e-06  1.59703140e-13 -5.87634994e-10
atom     19.1490992662     3.8318036438     1.5855082857   Si  0.0 0.0   -5.90296771e-07  5.24043856e-14 -1.36066893e-06
atom     21.5454831145    -0.0000001748    -2.6302607168   Si  0.0 0.0    5.90316265e-07 -7.02659891e-14  1.36067848e-06
atom     21.8586490839    -0.0000001748     2.0932873078   Si  0.0 0.0    1.08410735e-06 -1.75508359e-13  6.22593854e-10
atom     25.6564068832    -0.0000001748    -4.4935153221   Si  0.0 0.0    1.93903196e-06 -2.39288346e-13 -1.46484430e-07
energy -2.365803380557514e+02
charge 0.0000
end
