begin
comment uuid: d0dc4e30-e6d6-4620-8877-255d426671bb parent_uuid: a92eb12b-a1c1-421e-9fbe-b522f1045a85 trajectory_step: final_scf
lattice     27.0857679533    -0.0000000002    -9.2479443661
lattice      0.0000000001     7.6900212029     0.0000000000
lattice     -0.3396944755     0.0000000000    13.0841075249
atom     -0.2976025728    -0.0000001752    12.9213031987   Mg  0.0 0.0       0.0000000004    -0.0000000000     0.0000000001
atom      2.0237874912     3.8450104263     4.0129426006   Mg  0.0 0.0       0.0000009981    -0.0000000000    -0.0000000079
atom      3.9665801731     3.8450104262    10.6044590233   Mg  0.0 0.0      -0.0000001109     0.0000000000    -0.0000005437
atom      9.3207931534    -0.0000001755    -2.4699323121   Mg  0.0 0.0       0.0000001106     0.0000000000     0.0000005435
atom     11.2635858364    -0.0000001755     4.1215841126   Mg  0.0 0.0      -0.0000009983     0.0000000000     0.0000000077
atom      1.3809533351    -0.0000001752     8.0697078216   Si  0.0 0.0       0.0000011422     0.0000000000     0.0000010691
atom      5.1545689485    -0.0000001752     1.4501713951   Si  0.0 0.0      -0.0000000927    -0.0000000000    -0.0000003135
atom      5.4934770574    -0.0000001752     6.1879932684   Si  0.0 0.0      -0.0000006531    -0.0000000000     0.0000002903
atom      7.7938962624     3.8450104260     1.9465334453   Si  0.0 0.0       0.0000006531     0.0000000000    -0.0000002905
atom      8.1328043695     3.8450104259     6.6843553099   Si  0.0 0.0       0.0000000927     0.0000000000     0.0000003137
atom     11.9064199802     3.8450104260     0.0648188779   Si  0.0 0.0      -0.0000011420    -0.0000000000    -0.0000010689
atom     13.2452814032     3.8450104259     8.2973310242   Mg  0.0 0.0       0.0000000003     0.0000000000     0.0000000001
atom     15.5666714678    -0.0000001755    -0.6110295737   Mg  0.0 0.0       0.0000009981     0.0000000000    -0.0000000079
atom     17.5094641508    -0.0000001755     5.9804868430   Mg  0.0 0.0      -0.0000001109    -0.0000000000    -0.0000005437
atom     22.8636771312     3.8450104261    -7.0939045051   Mg  0.0 0.0       0.0000001106    -0.0000000000     0.0000005436
atom     24.8064698116     3.8450104261    -0.5023880823   Mg  0.0 0.0      -0.0000009983    -0.0000000000     0.0000000077
atom     14.9238373135     3.8450104260     3.4457356462   Si  0.0 0.0       0.0000011422    -0.0000000000     0.0000010691
atom     18.6974529234     3.8450104259    -3.1738007865   Si  0.0 0.0      -0.0000000926     0.0000000000    -0.0000003135
atom     19.0363610339     3.8450104259     1.5640210860   Si  0.0 0.0      -0.0000006531     0.0000000000     0.0000002903
atom     21.3367802385    -0.0000001753    -2.6774387464   Si  0.0 0.0       0.0000006531    -0.0000000000    -0.0000002905
atom     21.6756883471    -0.0000001753     2.0603831186   Si  0.0 0.0       0.0000000927    -0.0000000000     0.0000003137
atom     25.4493039565    -0.0000001754    -4.5591533147   Si  0.0 0.0      -0.0000011420     0.0000000000    -0.0000010688
energy -236.579525762
charge 0.0000
end
