begin
comment Mg5Si6
lattice     27.1501890020     0.0000000000    -9.2688167381
lattice      0.0000000000     7.6813034751    -0.0000000000
lattice     -0.3544281134    -0.0000000000    13.0726803375
atom     -0.3120767353    -0.0000002483    12.9099775115   Mg  0.0 0.0       0.0000000454     0.0000000000     0.0000000210
atom      2.0057677804     3.8406514929     3.9871114136   Mg  0.0 0.0       0.0000007108    -0.0000000003    -0.0000022405
atom      3.9581315883     3.8406514922    10.6133820073   Mg  0.0 0.0       0.0000033881    -0.0000000002     0.0000000889
atom      9.3472408018    -0.0000002527    -2.5005217833   Mg  0.0 0.0      -0.0000033957     0.0000000002     0.0000000503
atom     11.2995989393    -0.0000002534     4.1257574693   Mg  0.0 0.0      -0.0000006647     0.0000000003     0.0000022031
atom      1.3909955445    -0.0000002518     8.0464341200   Si  0.0 0.0       0.0000020858     0.0000000003    -0.0000031861
atom      5.2013488124    -0.0000002527     1.4368335165   Si  0.0 0.0      -0.0000021315     0.0000000004    -0.0000019367
atom      5.4796809433    -0.0000002531     6.1347189157   Si  0.0 0.0      -0.0000003913     0.0000000004    -0.0000005361
atom      7.8256879108     3.8406514926     1.9781474965   Si  0.0 0.0       0.0000003275    -0.0000000004     0.0000005394
atom      8.1040207238     3.8406514922     6.6760336199   Si  0.0 0.0       0.0000020985    -0.0000000004     0.0000018638
atom     11.9143726455     3.8406514913     0.0664333004   Si  0.0 0.0      -0.0000020734    -0.0000000003     0.0000031316
atom     13.2630177565     3.8406514878     8.2755691863   Mg  0.0 0.0       0.0000000455    -0.0000000000     0.0000000210
atom     15.5808622806    -0.0000002534    -0.6472969059   Mg  0.0 0.0       0.0000007108     0.0000000003    -0.0000022409
atom     17.5332260963    -0.0000002527     5.9789736585   Mg  0.0 0.0       0.0000033880     0.0000000002     0.0000000888
atom     22.9223353041     3.8406514922    -7.1349302064   Mg  0.0 0.0      -0.0000033957    -0.0000000002     0.0000000506
atom     24.8746934340     3.8406514929    -0.5086509599   Mg  0.0 0.0      -0.0000006646    -0.0000000003     0.0000022032
atom     14.9660900534     3.8406514913     3.4120257795   Si  0.0 0.0       0.0000020859    -0.0000000003    -0.0000031847
atom     18.7764433044     3.8406514922    -3.1975748426   Si  0.0 0.0      -0.0000021315    -0.0000000004    -0.0000019366
atom     19.0547754385     3.8406514926     1.5003105588   Si  0.0 0.0      -0.0000003907    -0.0000000004    -0.0000005365
atom     21.4007824086    -0.0000002531    -2.6562609142   Si  0.0 0.0       0.0000003281     0.0000000004     0.0000005393
atom     21.6791152327    -0.0000002527     2.0416252088   Si  0.0 0.0       0.0000020983     0.0000000004     0.0000018640
atom     25.4894671476    -0.0000002518    -4.5679751322   Si  0.0 0.0      -0.0000020735     0.0000000003     0.0000031334
energy -236.57954401
charge 0.0000
end
