begin
comment 4 atoms, species Al4
lattice      7.6464259733    -0.3823212987    -0.0000000000
lattice     -0.3823212987     7.6464259733    -0.0000000000
lattice     -0.0000000000    -0.0000000000     7.6655899482
atom      0.0000000000     0.0000000000     0.0000000000   Al  0.0 0.0    2.26346439e-13  1.86809065e-13 -1.21561249e-13
atom     -0.1911606493     3.8232129867     3.8327949741   Al  0.0 0.0    1.25505589e-13 -6.61601109e-14  1.21886985e-13
atom      3.8232129867    -0.1911606493     3.8327949741   Al  0.0 0.0   -1.25237992e-13  6.62374058e-14  1.21440305e-13
atom      3.6320523373     3.6320523373    -0.0000000000   Al  0.0 0.0   -2.26464907e-13 -1.86757272e-13 -1.21616673e-13
energy -7.900251090480802e+01
charge 0.0000
end
begin
comment 4 atoms, species Al4
lattice      7.6464259733    -0.2973610101    -0.0000000000
lattice     -0.2973610101     7.6464259733    -0.0000000000
lattice     -0.0000000000    -0.0000000000     7.6580075279
atom      0.0000000000     0.0000000000     0.0000000000   Al  0.0 0.0    2.31877809e-13  4.25283744e-14 -1.64104094e-13
atom     -0.1486805050     3.8232129867     3.8290037640   Al  0.0 0.0    2.40493073e-13  8.42155717e-14  1.64204990e-13
atom      3.8232129867    -0.1486805050     3.8290037640   Al  0.0 0.0   -2.40504208e-13 -8.43907861e-14  1.64383456e-13
atom      3.6745324816     3.6745324816    -0.0000000000   Al  0.0 0.0   -2.31788771e-13 -4.24056656e-14 -1.64115540e-13
energy -7.900375447442995e+01
charge 0.0000
end
begin
comment 4 atoms, species Al4
lattice      7.6464259733    -0.2124007215    -0.0000000000
lattice     -0.2124007215     7.6464259733    -0.0000000000
lattice     -0.0000000000    -0.0000000000     7.6523305494
atom      0.0000000000     0.0000000000     0.0000000000   Al  0.0 0.0   -7.65595051e-14  2.07372311e-14  5.38203415e-14
atom     -0.1062003607     3.8232129867     3.8261652747   Al  0.0 0.0   -1.01544514e-13 -5.52931450e-14 -5.41607798e-14
atom      3.8232129867    -0.1062003607     3.8261652747   Al  0.0 0.0    1.01537634e-13  5.52787401e-14 -5.41131999e-14
atom      3.7170126259     3.7170126259    -0.0000000000   Al  0.0 0.0    7.65495356e-14 -2.07851126e-14  5.40220661e-14
energy -7.900465243070435e+01
charge 0.0000
end
begin
comment 4 atoms, species Al4
lattice      7.6464259733    -0.1274404329    -0.0000000000
lattice     -0.1274404329     7.6464259733    -0.0000000000
lattice     -0.0000000000    -0.0000000000     7.6485505707
atom      0.0000000000     0.0000000000     0.0000000000   Al  0.0 0.0   -1.34203477e-13  5.17940139e-14 -1.13471095e-13
atom     -0.0637202164     3.8232129867     3.8242752854   Al  0.0 0.0   -1.40379364e-13 -8.35423189e-14  1.13781744e-13
atom      3.8232129867    -0.0637202164     3.8242752854   Al  0.0 0.0    1.40297768e-13  8.35759003e-14  1.13812167e-13
atom      3.7594927702     3.7594927702    -0.0000000000   Al  0.0 0.0    1.34199929e-13 -5.19157888e-14 -1.13977899e-13
energy -7.900523813064464e+01
charge 0.0000
end
begin
comment 4 atoms, species Al4
lattice      7.6464259733    -0.0424801443    -0.0000000000
lattice     -0.0424801443     7.6464259733    -0.0000000000
lattice     -0.0000000000    -0.0000000000     7.6466619814
atom      0.0000000000     0.0000000000     0.0000000000   Al  0.0 0.0    1.47210206e-13 -1.92325736e-13  1.26674006e-13
atom     -0.0212400721     3.8232129867     3.8233309907   Al  0.0 0.0    1.64734197e-13  2.04445748e-13 -1.26886030e-13
atom      3.8232129867    -0.0212400721     3.8233309907   Al  0.0 0.0   -1.64828689e-13 -2.04445493e-13 -1.26513258e-13
atom      3.8019729145     3.8019729145    -0.0000000000   Al  0.0 0.0   -1.47182969e-13  1.92437199e-13  1.26836354e-13
energy -7.900552803775621e+01
charge 0.0000
end
begin
comment 4 atoms, species Al4
lattice      7.6464259733     0.0424801443    -0.0000000000
lattice      0.0424801443     7.6464259733    -0.0000000000
lattice     -0.0000000000    -0.0000000000     7.6466619814
atom      0.0000000000     0.0000000000     0.0000000000   Al  0.0 0.0    1.64886920e-13 -2.04537296e-13  1.26691622e-13
atom      0.0212400721     3.8232129867     3.8233309907   Al  0.0 0.0    1.47143256e-13  1.92329123e-13 -1.26933950e-13
atom      3.8232129867     0.0212400721     3.8233309907   Al  0.0 0.0   -1.47223893e-13 -1.92193822e-13 -1.26892469e-13
atom      3.8444530588     3.8444530588    -0.0000000000   Al  0.0 0.0   -1.64736388e-13  2.04645822e-13  1.26628879e-13
energy -7.900552803775621e+01
charge 0.0000
end
begin
comment 4 atoms, species Al4
lattice      7.6464259733     0.1274404329    -0.0000000000
lattice      0.1274404329     7.6464259733    -0.0000000000
lattice     -0.0000000000    -0.0000000000     7.6485505707
atom      0.0000000000     0.0000000000     0.0000000000   Al  0.0 0.0   -1.40347750e-13  8.33945177e-14 -1.13759535e-13
atom      0.0637202164     3.8232129867     3.8242752854   Al  0.0 0.0   -1.34104756e-13 -5.18870337e-14  1.14020258e-13
atom      3.8232129867     0.0637202164     3.8242752854   Al  0.0 0.0    1.34141940e-13  5.17289841e-14  1.13814573e-13
atom      3.8869332031     3.8869332031    -0.0000000000   Al  0.0 0.0    1.40293801e-13 -8.35261666e-14 -1.13947551e-13
energy -7.900523813064464e+01
charge 0.0000
end
begin
comment 4 atoms, species Al4
lattice      7.6464259733     0.2124007215    -0.0000000000
lattice      0.2124007215     7.6464259733    -0.0000000000
lattice     -0.0000000000    -0.0000000000     7.6523305494
atom      0.0000000000     0.0000000000     0.0000000000   Al  0.0 0.0   -1.01557609e-13  5.52203073e-14  5.39726401e-14
atom      0.1062003607     3.8232129867     3.8261652747   Al  0.0 0.0   -7.66597671e-14 -2.07823024e-14 -5.42893460e-14
atom      3.8232129867     0.1062003607     3.8261652747   Al  0.0 0.0    7.65739765e-14  2.09573664e-14 -5.40715940e-14
atom      3.9294133474     3.9294133474    -0.0000000000   Al  0.0 0.0    1.01537810e-13 -5.52255483e-14  5.39480894e-14
energy -7.900465243070435e+01
charge 0.0000
end
begin
comment 4 atoms, species Al4
lattice      7.6464259733     0.2973610101    -0.0000000000
lattice      0.2973610101     7.6464259733    -0.0000000000
lattice     -0.0000000000    -0.0000000000     7.6580075279
atom      0.0000000000     0.0000000000     0.0000000000   Al  0.0 0.0    2.40559990e-13 -8.42139400e-14 -1.64181363e-13
atom      0.1486805050     3.8232129867     3.8290037640   Al  0.0 0.0    2.31672533e-13 -4.25280776e-14  1.64491901e-13
atom      3.8232129867     0.1486805050     3.8290037640   Al  0.0 0.0   -2.31817161e-13  4.24142845e-14  1.64399146e-13
atom      3.9718934917     3.9718934917    -0.0000000000   Al  0.0 0.0   -2.40391862e-13  8.44127106e-14 -1.64148809e-13
energy -7.900375447442995e+01
charge 0.0000
end
begin
comment 4 atoms, species Al4
lattice      7.6464259733     0.3823212987    -0.0000000000
lattice      0.3823212987     7.6464259733    -0.0000000000
lattice     -0.0000000000    -0.0000000000     7.6655899482
atom      0.0000000000     0.0000000000     0.0000000000   Al  0.0 0.0    1.25494402e-13  6.60379708e-14 -1.21867437e-13
atom      0.1911606493     3.8232129867     3.8327949741   Al  0.0 0.0    2.26400738e-13 -1.86749334e-13  1.21646058e-13
atom      3.8232129867     0.1911606493     3.8327949741   Al  0.0 0.0   -2.26376281e-13  1.86837094e-13  1.21542779e-13
atom      4.0143736360     4.0143736360    -0.0000000000   Al  0.0 0.0   -1.25477582e-13 -6.61750756e-14 -1.21466285e-13
energy -7.900251090480802e+01
charge 0.0000
end
