
     Program PWSCF v.6.3 starts on 22Feb2020 at 11:12: 3 

     This program is part of the open-source Quantum ESPRESSO suite
     for quantum simulation of materials; please cite
         "P. Giannozzi et al., J. Phys.:Condens. Matter 21 395502 (2009);
         "P. Giannozzi et al., J. Phys.:Condens. Matter 29 465901 (2017);
          URL http://www.quantum-espresso.org", 
     in publications or presentations arising from this work. More details at
     http://www.quantum-espresso.org/quote

 *** WARNING: using old-style file format, will disappear from next version ***

     Parallel version (MPI & OpenMP), running on      36 processor cores
     Number of MPI processes:                36
     Threads/MPI process:                     1

     MPI processes distributed on     1 nodes
     K-points division:     npool     =       4
     R & G space division:  proc/nbgrp/npool/nimage =       9
     Reading input from aiida.in
Warning: card &IONS ignored
Warning: card   !PRESS_CONV_THR = 0.05                 ! JUST FOR VOLUME RELAXATIONS ignored
Warning: card / ignored

     Current dimensions of program PWSCF are:
     Max number of different atomic species (ntypx) = 10
     Max number of k-points (npk) =  40000
     Max angular momentum in pseudopotentials (lmaxx) =  3
               file Mg.pbe-n-kjpaw_psl.0.3.0.UPF: wavefunction(s)  3S renormalized

     Subspace diagonalization in iterative solution of the eigenvalue problem:
     one sub-group per band group will be used
     scalapack distributed-memory algorithm (size of sub-group:  2*  2 procs)

 
     Parallelization info
     --------------------
     sticks:   dense  smooth     PW     G-vecs:    dense   smooth      PW
     Min         781     313     91                40815    10333    1613
     Max         782     313     91                40816    10334    1614
     Sum        7035    2817    819               367339    93001   14525
 


     bravais-lattice index     =            0
     lattice parameter (alat)  =      28.6012  a.u.
     unit-cell volume          =    2717.6459 (a.u.)^3
     number of atoms/cell      =           22
     number of atomic types    =            2
     number of electrons       =        68.00
     number of Kohn-Sham states=           41
     kinetic-energy cutoff     =      40.0000  Ry
     charge density cutoff     =     400.0000  Ry
     convergence threshold     =      1.0E-12
     mixing beta               =       0.4000
     number of iterations used =            8  local-TF  mixing
     Exchange-correlation      = PBE ( 1  4  3  4 0 0)

     celldm(1)=  28.601187  celldm(2)=   0.000000  celldm(3)=   0.000000
     celldm(4)=   0.000000  celldm(5)=   0.000000  celldm(6)=   0.000000

     crystal axes: (cart. coord. in units of alat)
               a(1) = (   0.940296   0.000000  -0.340358 )  
               a(2) = (   0.000000   0.269883   0.000000 )  
               a(3) = (   0.000000   0.000000   0.457720 )  

     reciprocal axes: (cart. coord. in units 2 pi/alat)
               b(1) = (  1.063495  0.000000  0.000000 )  
               b(2) = (  0.000000  3.705305  0.000000 )  
               b(3) = (  0.790808  0.000000  2.184741 )  


     PseudoPot. # 1 for Mg read from file:
     /users/aglensk/Dropbox/Albert/scripts/dotfiles/scripts/potentials/quantum_espresso/pseudo_SSSPefV1.1_alalloy/Mg.pbe-n-kjpaw_psl.0.3.0.UPF
     MD5 check sum: 24ecedc7f3e3cbe212e682f4413594e4
     Pseudo is Projector augmented-wave + core cor, Zval =  2.0
     Generated using "atomic" code by A. Dal Corso v.5.0.99 svn rev. 10869
     Shape of augmentation charge: PSQ
     Using radial grid of 1129 points,  4 beta functions with: 
                l(1) =   0
                l(2) =   0
                l(3) =   1
                l(4) =   1
     Q(r) pseudized with 0 coefficients 


     PseudoPot. # 2 for Si read from file:
     /users/aglensk/Dropbox/Albert/scripts/dotfiles/scripts/potentials/quantum_espresso/pseudo_SSSPefV1.1_alalloy/Si.pbe-n-rrkjus_psl.1.0.0.UPF
     MD5 check sum: 0b0bb1205258b0d07b9f9672cf965d36
     Pseudo is Ultrasoft + core correction, Zval =  4.0
     Generated using "atomic" code by A. Dal Corso v.5.1
     Using radial grid of 1141 points,  6 beta functions with: 
                l(1) =   0
                l(2) =   0
                l(3) =   1
                l(4) =   1
                l(5) =   2
                l(6) =   2
     Q(r) pseudized with 0 coefficients 


     atomic species   valence    mass     pseudopotential
        Mg             2.00    24.30500     Mg( 1.00)
        Si             4.00    28.08500     Si( 1.00)

     No symmetry found


                                    s                        frac. trans.

      isym =  1     identity                                     

 cryst.   s( 1) = (     1          0          0      )
                  (     0          1          0      )
                  (     0          0          1      )

 cart.    s( 1) = (  1.0000000  0.0000000  0.0000000 )
                  (  0.0000000  1.0000000  0.0000000 )
                  (  0.0000000  0.0000000  1.0000000 )


   Cartesian axes

     site n.     atom                  positions (alat units)
         1           Mg  tau(   1) = (   0.0013287   0.2698481   0.4520016  )
         2           Mg  tau(   2) = (   0.0746628   0.1348667   0.1385222  )
         3           Mg  tau(   3) = (   0.1484744   0.1348614   0.3682453  )
         4           Mg  tau(   4) = (   0.3243298   0.2698289  -0.0921446  )
         5           Mg  tau(   5) = (   0.3981393   0.2698236   0.1375857  )
         6           Si  tau(   6) = (   0.0556050   0.2698182   0.2810162  )
         7           Si  tau(   7) = (   0.1823920   0.2698081   0.0468098  )
         8           Si  tau(   8) = (   0.1980616   0.2698158   0.2123434  )
         9           Si  tau(   9) = (   0.2747366   0.1348744   0.0637586  )
        10           Si  tau(  10) = (   0.2904067   0.1348820   0.2292918  )
        11           Si  tau(  11) = (   0.4171923   0.1348719  -0.0049137  )
        12           Mg  tau(  12) = (   0.4714768   0.1348423   0.2818228  )
        13           Mg  tau(  13) = (   0.5448109   0.2698236  -0.0316566  )
        14           Mg  tau(  14) = (   0.6186224   0.2698289   0.1980665  )
        15           Mg  tau(  15) = (   0.7944778   0.1348614  -0.2623233  )
        16           Mg  tau(  16) = (   0.8682873   0.1348667  -0.0325931  )
        17           Si  tau(  17) = (   0.5257530   0.1348719   0.1108374  )
        18           Si  tau(  18) = (   0.6525401   0.1348820  -0.1233690  )
        19           Si  tau(  19) = (   0.6682096   0.1348744   0.0421646  )
        20           Si  tau(  20) = (   0.7448846   0.2698158  -0.1064201  )
        21           Si  tau(  21) = (   0.7605547   0.2698081   0.0591131  )
        22           Si  tau(  22) = (   0.8873403   0.2698183  -0.1750925  )

   Crystallographic axes

     site n.     atom                  positions (cryst. coord.)
         1           Mg  tau(   1) = (  0.0014131  0.9998695  0.9885573  )
         2           Mg  tau(   2) = (  0.0794035  0.4997222  0.3616791  )
         3           Mg  tau(   3) = (  0.1579017  0.4997024  0.9219354  )
         4           Mg  tau(   4) = (  0.3449230  0.9997984  0.0551704  )
         5           Mg  tau(   5) = (  0.4234191  0.9997786  0.6154407  )
         6           Si  tau(   6) = (  0.0591356  0.9997588  0.6579205  )
         7           Si  tau(   7) = (  0.1939730  0.9997212  0.2465043  )
         8           Si  tau(   8) = (  0.2106375  0.9997496  0.6205440  )
         9           Si  tau(   9) = (  0.2921809  0.4997506  0.3565599  )
        10           Si  tau(  10) = (  0.3088460  0.4997790  0.7305992  )
        11           Si  tau(  11) = (  0.4436818  0.4997414  0.3191835  )
        12           Mg  tau(  12) = (  0.5014131  0.4996317  0.9885573  )
        13           Mg  tau(  13) = (  0.5794035  0.9997786  0.3616791  )
        14           Mg  tau(  14) = (  0.6579017  0.9997984  0.9219354  )
        15           Mg  tau(  15) = (  0.8449230  0.4997024  0.0551704  )
        16           Mg  tau(  16) = (  0.9234191  0.4997222  0.6154406  )
        17           Si  tau(  17) = (  0.5591356  0.4997414  0.6579205  )
        18           Si  tau(  18) = (  0.6939730  0.4997789  0.2465043  )
        19           Si  tau(  19) = (  0.7106375  0.4997506  0.6205440  )
        20           Si  tau(  20) = (  0.7921809  0.9997496  0.3565599  )
        21           Si  tau(  21) = (  0.8088460  0.9997212  0.7305992  )
        22           Si  tau(  22) = (  0.9436818  0.9997589  0.3191835  )

     number of k points=   782  Methfessel-Paxton smearing, width (Ry)=  0.0441
                       cart. coord. in units 2pi/alat
        k(    1) = (   0.0000000   0.0000000   0.0000000), wk =   0.0012821
        k(    2) = (   0.0608313   0.0000000   0.1680570), wk =   0.0025641
        k(    3) = (   0.1216627   0.0000000   0.3361140), wk =   0.0025641
        k(    4) = (   0.1824940   0.0000000   0.5041711), wk =   0.0025641
        k(    5) = (   0.2433254   0.0000000   0.6722281), wk =   0.0025641
        k(    6) = (   0.3041567   0.0000000   0.8402851), wk =   0.0025641
        k(    7) = (   0.3649881   0.0000000   1.0083421), wk =   0.0025641
        k(    8) = (   0.0000000   0.1852652   0.0000000), wk =   0.0025641
        k(    9) = (   0.0608313   0.1852652   0.1680570), wk =   0.0025641
        k(   10) = (   0.1216627   0.1852652   0.3361140), wk =   0.0025641
        k(   11) = (   0.1824940   0.1852652   0.5041711), wk =   0.0025641
        k(   12) = (   0.2433254   0.1852652   0.6722281), wk =   0.0025641
        k(   13) = (   0.3041567   0.1852652   0.8402851), wk =   0.0025641
        k(   14) = (   0.3649881   0.1852652   1.0083421), wk =   0.0025641
        k(   15) = (  -0.3649881   0.1852652  -1.0083421), wk =   0.0025641
        k(   16) = (  -0.3041567   0.1852652  -0.8402851), wk =   0.0025641
        k(   17) = (  -0.2433254   0.1852652  -0.6722281), wk =   0.0025641
        k(   18) = (  -0.1824940   0.1852652  -0.5041711), wk =   0.0025641
        k(   19) = (  -0.1216627   0.1852652  -0.3361140), wk =   0.0025641
        k(   20) = (  -0.0608313   0.1852652  -0.1680570), wk =   0.0025641
        k(   21) = (   0.0000000   0.3705305   0.0000000), wk =   0.0025641
        k(   22) = (   0.0608313   0.3705305   0.1680570), wk =   0.0025641
        k(   23) = (   0.1216627   0.3705305   0.3361140), wk =   0.0025641
        k(   24) = (   0.1824940   0.3705305   0.5041711), wk =   0.0025641
        k(   25) = (   0.2433254   0.3705305   0.6722281), wk =   0.0025641
        k(   26) = (   0.3041567   0.3705305   0.8402851), wk =   0.0025641
        k(   27) = (   0.3649881   0.3705305   1.0083421), wk =   0.0025641
        k(   28) = (  -0.3649881   0.3705305  -1.0083421), wk =   0.0025641
        k(   29) = (  -0.3041567   0.3705305  -0.8402851), wk =   0.0025641
        k(   30) = (  -0.2433254   0.3705305  -0.6722281), wk =   0.0025641
        k(   31) = (  -0.1824940   0.3705305  -0.5041711), wk =   0.0025641
        k(   32) = (  -0.1216627   0.3705305  -0.3361140), wk =   0.0025641
        k(   33) = (  -0.0608313   0.3705305  -0.1680570), wk =   0.0025641
        k(   34) = (   0.0000000   0.5557957   0.0000000), wk =   0.0025641
        k(   35) = (   0.0608313   0.5557957   0.1680570), wk =   0.0025641
        k(   36) = (   0.1216627   0.5557957   0.3361140), wk =   0.0025641
        k(   37) = (   0.1824940   0.5557957   0.5041711), wk =   0.0025641
        k(   38) = (   0.2433254   0.5557957   0.6722281), wk =   0.0025641
        k(   39) = (   0.3041567   0.5557957   0.8402851), wk =   0.0025641
        k(   40) = (   0.3649881   0.5557957   1.0083421), wk =   0.0025641
        k(   41) = (  -0.3649881   0.5557957  -1.0083421), wk =   0.0025641
        k(   42) = (  -0.3041567   0.5557957  -0.8402851), wk =   0.0025641
        k(   43) = (  -0.2433254   0.5557957  -0.6722281), wk =   0.0025641
        k(   44) = (  -0.1824940   0.5557957  -0.5041711), wk =   0.0025641
        k(   45) = (  -0.1216627   0.5557957  -0.3361140), wk =   0.0025641
        k(   46) = (  -0.0608313   0.5557957  -0.1680570), wk =   0.0025641
        k(   47) = (   0.0000000   0.7410609   0.0000000), wk =   0.0025641
        k(   48) = (   0.0608313   0.7410609   0.1680570), wk =   0.0025641
        k(   49) = (   0.1216627   0.7410609   0.3361140), wk =   0.0025641
        k(   50) = (   0.1824940   0.7410609   0.5041711), wk =   0.0025641
        k(   51) = (   0.2433254   0.7410609   0.6722281), wk =   0.0025641
        k(   52) = (   0.3041567   0.7410609   0.8402851), wk =   0.0025641
        k(   53) = (   0.3649881   0.7410609   1.0083421), wk =   0.0025641
        k(   54) = (  -0.3649881   0.7410609  -1.0083421), wk =   0.0025641
        k(   55) = (  -0.3041567   0.7410609  -0.8402851), wk =   0.0025641
        k(   56) = (  -0.2433254   0.7410609  -0.6722281), wk =   0.0025641
        k(   57) = (  -0.1824940   0.7410609  -0.5041711), wk =   0.0025641
        k(   58) = (  -0.1216627   0.7410609  -0.3361140), wk =   0.0025641
        k(   59) = (  -0.0608313   0.7410609  -0.1680570), wk =   0.0025641
        k(   60) = (   0.0000000   0.9263261   0.0000000), wk =   0.0025641
        k(   61) = (   0.0608313   0.9263261   0.1680570), wk =   0.0025641
        k(   62) = (   0.1216627   0.9263261   0.3361140), wk =   0.0025641
        k(   63) = (   0.1824940   0.9263261   0.5041711), wk =   0.0025641
        k(   64) = (   0.2433254   0.9263261   0.6722281), wk =   0.0025641
        k(   65) = (   0.3041567   0.9263261   0.8402851), wk =   0.0025641
        k(   66) = (   0.3649881   0.9263261   1.0083421), wk =   0.0025641
        k(   67) = (  -0.3649881   0.9263261  -1.0083421), wk =   0.0025641
        k(   68) = (  -0.3041567   0.9263261  -0.8402851), wk =   0.0025641
        k(   69) = (  -0.2433254   0.9263261  -0.6722281), wk =   0.0025641
        k(   70) = (  -0.1824940   0.9263261  -0.5041711), wk =   0.0025641
        k(   71) = (  -0.1216627   0.9263261  -0.3361140), wk =   0.0025641
        k(   72) = (  -0.0608313   0.9263261  -0.1680570), wk =   0.0025641
        k(   73) = (   0.0000000   1.1115914   0.0000000), wk =   0.0025641
        k(   74) = (   0.0608313   1.1115914   0.1680570), wk =   0.0025641
        k(   75) = (   0.1216627   1.1115914   0.3361140), wk =   0.0025641
        k(   76) = (   0.1824940   1.1115914   0.5041711), wk =   0.0025641
        k(   77) = (   0.2433254   1.1115914   0.6722281), wk =   0.0025641
        k(   78) = (   0.3041567   1.1115914   0.8402851), wk =   0.0025641
        k(   79) = (   0.3649881   1.1115914   1.0083421), wk =   0.0025641
        k(   80) = (  -0.3649881   1.1115914  -1.0083421), wk =   0.0025641
        k(   81) = (  -0.3041567   1.1115914  -0.8402851), wk =   0.0025641
        k(   82) = (  -0.2433254   1.1115914  -0.6722281), wk =   0.0025641
        k(   83) = (  -0.1824940   1.1115914  -0.5041711), wk =   0.0025641
        k(   84) = (  -0.1216627   1.1115914  -0.3361140), wk =   0.0025641
        k(   85) = (  -0.0608313   1.1115914  -0.1680570), wk =   0.0025641
        k(   86) = (   0.0000000   1.2968566   0.0000000), wk =   0.0025641
        k(   87) = (   0.0608313   1.2968566   0.1680570), wk =   0.0025641
        k(   88) = (   0.1216627   1.2968566   0.3361140), wk =   0.0025641
        k(   89) = (   0.1824940   1.2968566   0.5041711), wk =   0.0025641
        k(   90) = (   0.2433254   1.2968566   0.6722281), wk =   0.0025641
        k(   91) = (   0.3041567   1.2968566   0.8402851), wk =   0.0025641
        k(   92) = (   0.3649881   1.2968566   1.0083421), wk =   0.0025641
        k(   93) = (  -0.3649881   1.2968566  -1.0083421), wk =   0.0025641
        k(   94) = (  -0.3041567   1.2968566  -0.8402851), wk =   0.0025641
        k(   95) = (  -0.2433254   1.2968566  -0.6722281), wk =   0.0025641
        k(   96) = (  -0.1824940   1.2968566  -0.5041711), wk =   0.0025641
        k(   97) = (  -0.1216627   1.2968566  -0.3361140), wk =   0.0025641
        k(   98) = (  -0.0608313   1.2968566  -0.1680570), wk =   0.0025641
        k(   99) = (   0.0000000   1.4821218   0.0000000), wk =   0.0025641
        k(  100) = (   0.0608313   1.4821218   0.1680570), wk =   0.0025641
        k(  101) = (   0.1216627   1.4821218   0.3361140), wk =   0.0025641
        k(  102) = (   0.1824940   1.4821218   0.5041711), wk =   0.0025641
        k(  103) = (   0.2433254   1.4821218   0.6722281), wk =   0.0025641
        k(  104) = (   0.3041567   1.4821218   0.8402851), wk =   0.0025641
        k(  105) = (   0.3649881   1.4821218   1.0083421), wk =   0.0025641
        k(  106) = (  -0.3649881   1.4821218  -1.0083421), wk =   0.0025641
        k(  107) = (  -0.3041567   1.4821218  -0.8402851), wk =   0.0025641
        k(  108) = (  -0.2433254   1.4821218  -0.6722281), wk =   0.0025641
        k(  109) = (  -0.1824940   1.4821218  -0.5041711), wk =   0.0025641
        k(  110) = (  -0.1216627   1.4821218  -0.3361140), wk =   0.0025641
        k(  111) = (  -0.0608313   1.4821218  -0.1680570), wk =   0.0025641
        k(  112) = (   0.0000000   1.6673871   0.0000000), wk =   0.0025641
        k(  113) = (   0.0608313   1.6673871   0.1680570), wk =   0.0025641
        k(  114) = (   0.1216627   1.6673871   0.3361140), wk =   0.0025641
        k(  115) = (   0.1824940   1.6673871   0.5041711), wk =   0.0025641
        k(  116) = (   0.2433254   1.6673871   0.6722281), wk =   0.0025641
        k(  117) = (   0.3041567   1.6673871   0.8402851), wk =   0.0025641
        k(  118) = (   0.3649881   1.6673871   1.0083421), wk =   0.0025641
        k(  119) = (  -0.3649881   1.6673871  -1.0083421), wk =   0.0025641
        k(  120) = (  -0.3041567   1.6673871  -0.8402851), wk =   0.0025641
        k(  121) = (  -0.2433254   1.6673871  -0.6722281), wk =   0.0025641
        k(  122) = (  -0.1824940   1.6673871  -0.5041711), wk =   0.0025641
        k(  123) = (  -0.1216627   1.6673871  -0.3361140), wk =   0.0025641
        k(  124) = (  -0.0608313   1.6673871  -0.1680570), wk =   0.0025641
        k(  125) = (   0.0000000  -1.8526523   0.0000000), wk =   0.0012821
        k(  126) = (   0.0608313  -1.8526523   0.1680570), wk =   0.0025641
        k(  127) = (   0.1216627  -1.8526523   0.3361140), wk =   0.0025641
        k(  128) = (   0.1824940  -1.8526523   0.5041711), wk =   0.0025641
        k(  129) = (   0.2433254  -1.8526523   0.6722281), wk =   0.0025641
        k(  130) = (   0.3041567  -1.8526523   0.8402851), wk =   0.0025641
        k(  131) = (   0.3649881  -1.8526523   1.0083421), wk =   0.0025641
        k(  132) = (   0.1772491   0.0000000   0.0000000), wk =   0.0025641
        k(  133) = (   0.2380805   0.0000000   0.1680570), wk =   0.0025641
        k(  134) = (   0.2989118   0.0000000   0.3361140), wk =   0.0025641
        k(  135) = (   0.3597432   0.0000000   0.5041711), wk =   0.0025641
        k(  136) = (   0.4205745   0.0000000   0.6722281), wk =   0.0025641
        k(  137) = (   0.4814059   0.0000000   0.8402851), wk =   0.0025641
        k(  138) = (   0.5422372   0.0000000   1.0083421), wk =   0.0025641
        k(  139) = (  -0.1877389   0.0000000  -1.0083421), wk =   0.0025641
        k(  140) = (  -0.1269076   0.0000000  -0.8402851), wk =   0.0025641
        k(  141) = (  -0.0660763   0.0000000  -0.6722281), wk =   0.0025641
        k(  142) = (  -0.0052449   0.0000000  -0.5041711), wk =   0.0025641
        k(  143) = (   0.0555864   0.0000000  -0.3361140), wk =   0.0025641
        k(  144) = (   0.1164178   0.0000000  -0.1680570), wk =   0.0025641
        k(  145) = (   0.1772491   0.1852652   0.0000000), wk =   0.0025641
        k(  146) = (   0.2380805   0.1852652   0.1680570), wk =   0.0025641
        k(  147) = (   0.2989118   0.1852652   0.3361140), wk =   0.0025641
        k(  148) = (   0.3597432   0.1852652   0.5041711), wk =   0.0025641
        k(  149) = (   0.4205745   0.1852652   0.6722281), wk =   0.0025641
        k(  150) = (   0.4814059   0.1852652   0.8402851), wk =   0.0025641
        k(  151) = (   0.5422372   0.1852652   1.0083421), wk =   0.0025641
        k(  152) = (  -0.1877389   0.1852652  -1.0083421), wk =   0.0025641
        k(  153) = (  -0.1269076   0.1852652  -0.8402851), wk =   0.0025641
        k(  154) = (  -0.0660763   0.1852652  -0.6722281), wk =   0.0025641
        k(  155) = (  -0.0052449   0.1852652  -0.5041711), wk =   0.0025641
        k(  156) = (   0.0555864   0.1852652  -0.3361140), wk =   0.0025641
        k(  157) = (   0.1164178   0.1852652  -0.1680570), wk =   0.0025641
        k(  158) = (   0.1772491   0.3705305   0.0000000), wk =   0.0025641
        k(  159) = (   0.2380805   0.3705305   0.1680570), wk =   0.0025641
        k(  160) = (   0.2989118   0.3705305   0.3361140), wk =   0.0025641
        k(  161) = (   0.3597432   0.3705305   0.5041711), wk =   0.0025641
        k(  162) = (   0.4205745   0.3705305   0.6722281), wk =   0.0025641
        k(  163) = (   0.4814059   0.3705305   0.8402851), wk =   0.0025641
        k(  164) = (   0.5422372   0.3705305   1.0083421), wk =   0.0025641
        k(  165) = (  -0.1877389   0.3705305  -1.0083421), wk =   0.0025641
        k(  166) = (  -0.1269076   0.3705305  -0.8402851), wk =   0.0025641
        k(  167) = (  -0.0660763   0.3705305  -0.6722281), wk =   0.0025641
        k(  168) = (  -0.0052449   0.3705305  -0.5041711), wk =   0.0025641
        k(  169) = (   0.0555864   0.3705305  -0.3361140), wk =   0.0025641
        k(  170) = (   0.1164178   0.3705305  -0.1680570), wk =   0.0025641
        k(  171) = (   0.1772491   0.5557957   0.0000000), wk =   0.0025641
        k(  172) = (   0.2380805   0.5557957   0.1680570), wk =   0.0025641
        k(  173) = (   0.2989118   0.5557957   0.3361140), wk =   0.0025641
        k(  174) = (   0.3597432   0.5557957   0.5041711), wk =   0.0025641
        k(  175) = (   0.4205745   0.5557957   0.6722281), wk =   0.0025641
        k(  176) = (   0.4814059   0.5557957   0.8402851), wk =   0.0025641
        k(  177) = (   0.5422372   0.5557957   1.0083421), wk =   0.0025641
        k(  178) = (  -0.1877389   0.5557957  -1.0083421), wk =   0.0025641
        k(  179) = (  -0.1269076   0.5557957  -0.8402851), wk =   0.0025641
        k(  180) = (  -0.0660763   0.5557957  -0.6722281), wk =   0.0025641
        k(  181) = (  -0.0052449   0.5557957  -0.5041711), wk =   0.0025641
        k(  182) = (   0.0555864   0.5557957  -0.3361140), wk =   0.0025641
        k(  183) = (   0.1164178   0.5557957  -0.1680570), wk =   0.0025641
        k(  184) = (   0.1772491   0.7410609   0.0000000), wk =   0.0025641
        k(  185) = (   0.2380805   0.7410609   0.1680570), wk =   0.0025641
        k(  186) = (   0.2989118   0.7410609   0.3361140), wk =   0.0025641
        k(  187) = (   0.3597432   0.7410609   0.5041711), wk =   0.0025641
        k(  188) = (   0.4205745   0.7410609   0.6722281), wk =   0.0025641
        k(  189) = (   0.4814059   0.7410609   0.8402851), wk =   0.0025641
        k(  190) = (   0.5422372   0.7410609   1.0083421), wk =   0.0025641
        k(  191) = (  -0.1877389   0.7410609  -1.0083421), wk =   0.0025641
        k(  192) = (  -0.1269076   0.7410609  -0.8402851), wk =   0.0025641
        k(  193) = (  -0.0660763   0.7410609  -0.6722281), wk =   0.0025641
        k(  194) = (  -0.0052449   0.7410609  -0.5041711), wk =   0.0025641
        k(  195) = (   0.0555864   0.7410609  -0.3361140), wk =   0.0025641
        k(  196) = (   0.1164178   0.7410609  -0.1680570), wk =   0.0025641
        k(  197) = (   0.1772491   0.9263261   0.0000000), wk =   0.0025641
        k(  198) = (   0.2380805   0.9263261   0.1680570), wk =   0.0025641
        k(  199) = (   0.2989118   0.9263261   0.3361140), wk =   0.0025641
        k(  200) = (   0.3597432   0.9263261   0.5041711), wk =   0.0025641
        k(  201) = (   0.4205745   0.9263261   0.6722281), wk =   0.0025641
        k(  202) = (   0.4814059   0.9263261   0.8402851), wk =   0.0025641
        k(  203) = (   0.5422372   0.9263261   1.0083421), wk =   0.0025641
        k(  204) = (  -0.1877389   0.9263261  -1.0083421), wk =   0.0025641
        k(  205) = (  -0.1269076   0.9263261  -0.8402851), wk =   0.0025641
        k(  206) = (  -0.0660763   0.9263261  -0.6722281), wk =   0.0025641
        k(  207) = (  -0.0052449   0.9263261  -0.5041711), wk =   0.0025641
        k(  208) = (   0.0555864   0.9263261  -0.3361140), wk =   0.0025641
        k(  209) = (   0.1164178   0.9263261  -0.1680570), wk =   0.0025641
        k(  210) = (   0.1772491   1.1115914   0.0000000), wk =   0.0025641
        k(  211) = (   0.2380805   1.1115914   0.1680570), wk =   0.0025641
        k(  212) = (   0.2989118   1.1115914   0.3361140), wk =   0.0025641
        k(  213) = (   0.3597432   1.1115914   0.5041711), wk =   0.0025641
        k(  214) = (   0.4205745   1.1115914   0.6722281), wk =   0.0025641
        k(  215) = (   0.4814059   1.1115914   0.8402851), wk =   0.0025641
        k(  216) = (   0.5422372   1.1115914   1.0083421), wk =   0.0025641
        k(  217) = (  -0.1877389   1.1115914  -1.0083421), wk =   0.0025641
        k(  218) = (  -0.1269076   1.1115914  -0.8402851), wk =   0.0025641
        k(  219) = (  -0.0660763   1.1115914  -0.6722281), wk =   0.0025641
        k(  220) = (  -0.0052449   1.1115914  -0.5041711), wk =   0.0025641
        k(  221) = (   0.0555864   1.1115914  -0.3361140), wk =   0.0025641
        k(  222) = (   0.1164178   1.1115914  -0.1680570), wk =   0.0025641
        k(  223) = (   0.1772491   1.2968566   0.0000000), wk =   0.0025641
        k(  224) = (   0.2380805   1.2968566   0.1680570), wk =   0.0025641
        k(  225) = (   0.2989118   1.2968566   0.3361140), wk =   0.0025641
        k(  226) = (   0.3597432   1.2968566   0.5041711), wk =   0.0025641
        k(  227) = (   0.4205745   1.2968566   0.6722281), wk =   0.0025641
        k(  228) = (   0.4814059   1.2968566   0.8402851), wk =   0.0025641
        k(  229) = (   0.5422372   1.2968566   1.0083421), wk =   0.0025641
        k(  230) = (  -0.1877389   1.2968566  -1.0083421), wk =   0.0025641
        k(  231) = (  -0.1269076   1.2968566  -0.8402851), wk =   0.0025641
        k(  232) = (  -0.0660763   1.2968566  -0.6722281), wk =   0.0025641
        k(  233) = (  -0.0052449   1.2968566  -0.5041711), wk =   0.0025641
        k(  234) = (   0.0555864   1.2968566  -0.3361140), wk =   0.0025641
        k(  235) = (   0.1164178   1.2968566  -0.1680570), wk =   0.0025641
        k(  236) = (   0.1772491   1.4821218   0.0000000), wk =   0.0025641
        k(  237) = (   0.2380805   1.4821218   0.1680570), wk =   0.0025641
        k(  238) = (   0.2989118   1.4821218   0.3361140), wk =   0.0025641
        k(  239) = (   0.3597432   1.4821218   0.5041711), wk =   0.0025641
        k(  240) = (   0.4205745   1.4821218   0.6722281), wk =   0.0025641
        k(  241) = (   0.4814059   1.4821218   0.8402851), wk =   0.0025641
        k(  242) = (   0.5422372   1.4821218   1.0083421), wk =   0.0025641
        k(  243) = (  -0.1877389   1.4821218  -1.0083421), wk =   0.0025641
        k(  244) = (  -0.1269076   1.4821218  -0.8402851), wk =   0.0025641
        k(  245) = (  -0.0660763   1.4821218  -0.6722281), wk =   0.0025641
        k(  246) = (  -0.0052449   1.4821218  -0.5041711), wk =   0.0025641
        k(  247) = (   0.0555864   1.4821218  -0.3361140), wk =   0.0025641
        k(  248) = (   0.1164178   1.4821218  -0.1680570), wk =   0.0025641
        k(  249) = (   0.1772491   1.6673871   0.0000000), wk =   0.0025641
        k(  250) = (   0.2380805   1.6673871   0.1680570), wk =   0.0025641
        k(  251) = (   0.2989118   1.6673871   0.3361140), wk =   0.0025641
        k(  252) = (   0.3597432   1.6673871   0.5041711), wk =   0.0025641
        k(  253) = (   0.4205745   1.6673871   0.6722281), wk =   0.0025641
        k(  254) = (   0.4814059   1.6673871   0.8402851), wk =   0.0025641
        k(  255) = (   0.5422372   1.6673871   1.0083421), wk =   0.0025641
        k(  256) = (  -0.1877389   1.6673871  -1.0083421), wk =   0.0025641
        k(  257) = (  -0.1269076   1.6673871  -0.8402851), wk =   0.0025641
        k(  258) = (  -0.0660763   1.6673871  -0.6722281), wk =   0.0025641
        k(  259) = (  -0.0052449   1.6673871  -0.5041711), wk =   0.0025641
        k(  260) = (   0.0555864   1.6673871  -0.3361140), wk =   0.0025641
        k(  261) = (   0.1164178   1.6673871  -0.1680570), wk =   0.0025641
        k(  262) = (   0.1772491  -1.8526523   0.0000000), wk =   0.0025641
        k(  263) = (   0.2380805  -1.8526523   0.1680570), wk =   0.0025641
        k(  264) = (   0.2989118  -1.8526523   0.3361140), wk =   0.0025641
        k(  265) = (   0.3597432  -1.8526523   0.5041711), wk =   0.0025641
        k(  266) = (   0.4205745  -1.8526523   0.6722281), wk =   0.0025641
        k(  267) = (   0.4814059  -1.8526523   0.8402851), wk =   0.0025641
        k(  268) = (   0.5422372  -1.8526523   1.0083421), wk =   0.0025641
        k(  269) = (  -0.1877389  -1.8526523  -1.0083421), wk =   0.0025641
        k(  270) = (  -0.1269076  -1.8526523  -0.8402851), wk =   0.0025641
        k(  271) = (  -0.0660763  -1.8526523  -0.6722281), wk =   0.0025641
        k(  272) = (  -0.0052449  -1.8526523  -0.5041711), wk =   0.0025641
        k(  273) = (   0.0555864  -1.8526523  -0.3361140), wk =   0.0025641
        k(  274) = (   0.1164178  -1.8526523  -0.1680570), wk =   0.0025641
        k(  275) = (   0.1772491  -1.6673871   0.0000000), wk =   0.0025641
        k(  276) = (   0.2380805  -1.6673871   0.1680570), wk =   0.0025641
        k(  277) = (   0.2989118  -1.6673871   0.3361140), wk =   0.0025641
        k(  278) = (   0.3597432  -1.6673871   0.5041711), wk =   0.0025641
        k(  279) = (   0.4205745  -1.6673871   0.6722281), wk =   0.0025641
        k(  280) = (   0.4814059  -1.6673871   0.8402851), wk =   0.0025641
        k(  281) = (   0.5422372  -1.6673871   1.0083421), wk =   0.0025641
        k(  282) = (  -0.1877389  -1.6673871  -1.0083421), wk =   0.0025641
        k(  283) = (  -0.1269076  -1.6673871  -0.8402851), wk =   0.0025641
        k(  284) = (  -0.0660763  -1.6673871  -0.6722281), wk =   0.0025641
        k(  285) = (  -0.0052449  -1.6673871  -0.5041711), wk =   0.0025641
        k(  286) = (   0.0555864  -1.6673871  -0.3361140), wk =   0.0025641
        k(  287) = (   0.1164178  -1.6673871  -0.1680570), wk =   0.0025641
        k(  288) = (   0.1772491  -1.4821218   0.0000000), wk =   0.0025641
        k(  289) = (   0.2380805  -1.4821218   0.1680570), wk =   0.0025641
        k(  290) = (   0.2989118  -1.4821218   0.3361140), wk =   0.0025641
        k(  291) = (   0.3597432  -1.4821218   0.5041711), wk =   0.0025641
        k(  292) = (   0.4205745  -1.4821218   0.6722281), wk =   0.0025641
        k(  293) = (   0.4814059  -1.4821218   0.8402851), wk =   0.0025641
        k(  294) = (   0.5422372  -1.4821218   1.0083421), wk =   0.0025641
        k(  295) = (  -0.1877389  -1.4821218  -1.0083421), wk =   0.0025641
        k(  296) = (  -0.1269076  -1.4821218  -0.8402851), wk =   0.0025641
        k(  297) = (  -0.0660763  -1.4821218  -0.6722281), wk =   0.0025641
        k(  298) = (  -0.0052449  -1.4821218  -0.5041711), wk =   0.0025641
        k(  299) = (   0.0555864  -1.4821218  -0.3361140), wk =   0.0025641
        k(  300) = (   0.1164178  -1.4821218  -0.1680570), wk =   0.0025641
        k(  301) = (   0.1772491  -1.2968566   0.0000000), wk =   0.0025641
        k(  302) = (   0.2380805  -1.2968566   0.1680570), wk =   0.0025641
        k(  303) = (   0.2989118  -1.2968566   0.3361140), wk =   0.0025641
        k(  304) = (   0.3597432  -1.2968566   0.5041711), wk =   0.0025641
        k(  305) = (   0.4205745  -1.2968566   0.6722281), wk =   0.0025641
        k(  306) = (   0.4814059  -1.2968566   0.8402851), wk =   0.0025641
        k(  307) = (   0.5422372  -1.2968566   1.0083421), wk =   0.0025641
        k(  308) = (  -0.1877389  -1.2968566  -1.0083421), wk =   0.0025641
        k(  309) = (  -0.1269076  -1.2968566  -0.8402851), wk =   0.0025641
        k(  310) = (  -0.0660763  -1.2968566  -0.6722281), wk =   0.0025641
        k(  311) = (  -0.0052449  -1.2968566  -0.5041711), wk =   0.0025641
        k(  312) = (   0.0555864  -1.2968566  -0.3361140), wk =   0.0025641
        k(  313) = (   0.1164178  -1.2968566  -0.1680570), wk =   0.0025641
        k(  314) = (   0.1772491  -1.1115914   0.0000000), wk =   0.0025641
        k(  315) = (   0.2380805  -1.1115914   0.1680570), wk =   0.0025641
        k(  316) = (   0.2989118  -1.1115914   0.3361140), wk =   0.0025641
        k(  317) = (   0.3597432  -1.1115914   0.5041711), wk =   0.0025641
        k(  318) = (   0.4205745  -1.1115914   0.6722281), wk =   0.0025641
        k(  319) = (   0.4814059  -1.1115914   0.8402851), wk =   0.0025641
        k(  320) = (   0.5422372  -1.1115914   1.0083421), wk =   0.0025641
        k(  321) = (  -0.1877389  -1.1115914  -1.0083421), wk =   0.0025641
        k(  322) = (  -0.1269076  -1.1115914  -0.8402851), wk =   0.0025641
        k(  323) = (  -0.0660763  -1.1115914  -0.6722281), wk =   0.0025641
        k(  324) = (  -0.0052449  -1.1115914  -0.5041711), wk =   0.0025641
        k(  325) = (   0.0555864  -1.1115914  -0.3361140), wk =   0.0025641
        k(  326) = (   0.1164178  -1.1115914  -0.1680570), wk =   0.0025641
        k(  327) = (   0.1772491  -0.9263261   0.0000000), wk =   0.0025641
        k(  328) = (   0.2380805  -0.9263261   0.1680570), wk =   0.0025641
        k(  329) = (   0.2989118  -0.9263261   0.3361140), wk =   0.0025641
        k(  330) = (   0.3597432  -0.9263261   0.5041711), wk =   0.0025641
        k(  331) = (   0.4205745  -0.9263261   0.6722281), wk =   0.0025641
        k(  332) = (   0.4814059  -0.9263261   0.8402851), wk =   0.0025641
        k(  333) = (   0.5422372  -0.9263261   1.0083421), wk =   0.0025641
        k(  334) = (  -0.1877389  -0.9263261  -1.0083421), wk =   0.0025641
        k(  335) = (  -0.1269076  -0.9263261  -0.8402851), wk =   0.0025641
        k(  336) = (  -0.0660763  -0.9263261  -0.6722281), wk =   0.0025641
        k(  337) = (  -0.0052449  -0.9263261  -0.5041711), wk =   0.0025641
        k(  338) = (   0.0555864  -0.9263261  -0.3361140), wk =   0.0025641
        k(  339) = (   0.1164178  -0.9263261  -0.1680570), wk =   0.0025641
        k(  340) = (   0.1772491  -0.7410609   0.0000000), wk =   0.0025641
        k(  341) = (   0.2380805  -0.7410609   0.1680570), wk =   0.0025641
        k(  342) = (   0.2989118  -0.7410609   0.3361140), wk =   0.0025641
        k(  343) = (   0.3597432  -0.7410609   0.5041711), wk =   0.0025641
        k(  344) = (   0.4205745  -0.7410609   0.6722281), wk =   0.0025641
        k(  345) = (   0.4814059  -0.7410609   0.8402851), wk =   0.0025641
        k(  346) = (   0.5422372  -0.7410609   1.0083421), wk =   0.0025641
        k(  347) = (  -0.1877389  -0.7410609  -1.0083421), wk =   0.0025641
        k(  348) = (  -0.1269076  -0.7410609  -0.8402851), wk =   0.0025641
        k(  349) = (  -0.0660763  -0.7410609  -0.6722281), wk =   0.0025641
        k(  350) = (  -0.0052449  -0.7410609  -0.5041711), wk =   0.0025641
        k(  351) = (   0.0555864  -0.7410609  -0.3361140), wk =   0.0025641
        k(  352) = (   0.1164178  -0.7410609  -0.1680570), wk =   0.0025641
        k(  353) = (   0.1772491  -0.5557957   0.0000000), wk =   0.0025641
        k(  354) = (   0.2380805  -0.5557957   0.1680570), wk =   0.0025641
        k(  355) = (   0.2989118  -0.5557957   0.3361140), wk =   0.0025641
        k(  356) = (   0.3597432  -0.5557957   0.5041711), wk =   0.0025641
        k(  357) = (   0.4205745  -0.5557957   0.6722281), wk =   0.0025641
        k(  358) = (   0.4814059  -0.5557957   0.8402851), wk =   0.0025641
        k(  359) = (   0.5422372  -0.5557957   1.0083421), wk =   0.0025641
        k(  360) = (  -0.1877389  -0.5557957  -1.0083421), wk =   0.0025641
        k(  361) = (  -0.1269076  -0.5557957  -0.8402851), wk =   0.0025641
        k(  362) = (  -0.0660763  -0.5557957  -0.6722281), wk =   0.0025641
        k(  363) = (  -0.0052449  -0.5557957  -0.5041711), wk =   0.0025641
        k(  364) = (   0.0555864  -0.5557957  -0.3361140), wk =   0.0025641
        k(  365) = (   0.1164178  -0.5557957  -0.1680570), wk =   0.0025641
        k(  366) = (   0.1772491  -0.3705305   0.0000000), wk =   0.0025641
        k(  367) = (   0.2380805  -0.3705305   0.1680570), wk =   0.0025641
        k(  368) = (   0.2989118  -0.3705305   0.3361140), wk =   0.0025641
        k(  369) = (   0.3597432  -0.3705305   0.5041711), wk =   0.0025641
        k(  370) = (   0.4205745  -0.3705305   0.6722281), wk =   0.0025641
        k(  371) = (   0.4814059  -0.3705305   0.8402851), wk =   0.0025641
        k(  372) = (   0.5422372  -0.3705305   1.0083421), wk =   0.0025641
        k(  373) = (  -0.1877389  -0.3705305  -1.0083421), wk =   0.0025641
        k(  374) = (  -0.1269076  -0.3705305  -0.8402851), wk =   0.0025641
        k(  375) = (  -0.0660763  -0.3705305  -0.6722281), wk =   0.0025641
        k(  376) = (  -0.0052449  -0.3705305  -0.5041711), wk =   0.0025641
        k(  377) = (   0.0555864  -0.3705305  -0.3361140), wk =   0.0025641
        k(  378) = (   0.1164178  -0.3705305  -0.1680570), wk =   0.0025641
        k(  379) = (   0.1772491  -0.1852652   0.0000000), wk =   0.0025641
        k(  380) = (   0.2380805  -0.1852652   0.1680570), wk =   0.0025641
        k(  381) = (   0.2989118  -0.1852652   0.3361140), wk =   0.0025641
        k(  382) = (   0.3597432  -0.1852652   0.5041711), wk =   0.0025641
        k(  383) = (   0.4205745  -0.1852652   0.6722281), wk =   0.0025641
        k(  384) = (   0.4814059  -0.1852652   0.8402851), wk =   0.0025641
        k(  385) = (   0.5422372  -0.1852652   1.0083421), wk =   0.0025641
        k(  386) = (  -0.1877389  -0.1852652  -1.0083421), wk =   0.0025641
        k(  387) = (  -0.1269076  -0.1852652  -0.8402851), wk =   0.0025641
        k(  388) = (  -0.0660763  -0.1852652  -0.6722281), wk =   0.0025641
        k(  389) = (  -0.0052449  -0.1852652  -0.5041711), wk =   0.0025641
        k(  390) = (   0.0555864  -0.1852652  -0.3361140), wk =   0.0025641
        k(  391) = (   0.1164178  -0.1852652  -0.1680570), wk =   0.0025641
        k(  392) = (   0.3544983   0.0000000   0.0000000), wk =   0.0025641
        k(  393) = (   0.4153296   0.0000000   0.1680570), wk =   0.0025641
        k(  394) = (   0.4761610   0.0000000   0.3361140), wk =   0.0025641
        k(  395) = (   0.5369923   0.0000000   0.5041711), wk =   0.0025641
        k(  396) = (   0.5978237   0.0000000   0.6722281), wk =   0.0025641
        k(  397) = (   0.6586550   0.0000000   0.8402851), wk =   0.0025641
        k(  398) = (   0.7194863   0.0000000   1.0083421), wk =   0.0025641
        k(  399) = (  -0.0104898   0.0000000  -1.0083421), wk =   0.0025641
        k(  400) = (   0.0503415   0.0000000  -0.8402851), wk =   0.0025641
        k(  401) = (   0.1111729   0.0000000  -0.6722281), wk =   0.0025641
        k(  402) = (   0.1720042   0.0000000  -0.5041711), wk =   0.0025641
        k(  403) = (   0.2328356   0.0000000  -0.3361140), wk =   0.0025641
        k(  404) = (   0.2936669   0.0000000  -0.1680570), wk =   0.0025641
        k(  405) = (   0.3544983   0.1852652   0.0000000), wk =   0.0025641
        k(  406) = (   0.4153296   0.1852652   0.1680570), wk =   0.0025641
        k(  407) = (   0.4761610   0.1852652   0.3361140), wk =   0.0025641
        k(  408) = (   0.5369923   0.1852652   0.5041711), wk =   0.0025641
        k(  409) = (   0.5978237   0.1852652   0.6722281), wk =   0.0025641
        k(  410) = (   0.6586550   0.1852652   0.8402851), wk =   0.0025641
        k(  411) = (   0.7194863   0.1852652   1.0083421), wk =   0.0025641
        k(  412) = (  -0.0104898   0.1852652  -1.0083421), wk =   0.0025641
        k(  413) = (   0.0503415   0.1852652  -0.8402851), wk =   0.0025641
        k(  414) = (   0.1111729   0.1852652  -0.6722281), wk =   0.0025641
        k(  415) = (   0.1720042   0.1852652  -0.5041711), wk =   0.0025641
        k(  416) = (   0.2328356   0.1852652  -0.3361140), wk =   0.0025641
        k(  417) = (   0.2936669   0.1852652  -0.1680570), wk =   0.0025641
        k(  418) = (   0.3544983   0.3705305   0.0000000), wk =   0.0025641
        k(  419) = (   0.4153296   0.3705305   0.1680570), wk =   0.0025641
        k(  420) = (   0.4761610   0.3705305   0.3361140), wk =   0.0025641
        k(  421) = (   0.5369923   0.3705305   0.5041711), wk =   0.0025641
        k(  422) = (   0.5978237   0.3705305   0.6722281), wk =   0.0025641
        k(  423) = (   0.6586550   0.3705305   0.8402851), wk =   0.0025641
        k(  424) = (   0.7194863   0.3705305   1.0083421), wk =   0.0025641
        k(  425) = (  -0.0104898   0.3705305  -1.0083421), wk =   0.0025641
        k(  426) = (   0.0503415   0.3705305  -0.8402851), wk =   0.0025641
        k(  427) = (   0.1111729   0.3705305  -0.6722281), wk =   0.0025641
        k(  428) = (   0.1720042   0.3705305  -0.5041711), wk =   0.0025641
        k(  429) = (   0.2328356   0.3705305  -0.3361140), wk =   0.0025641
        k(  430) = (   0.2936669   0.3705305  -0.1680570), wk =   0.0025641
        k(  431) = (   0.3544983   0.5557957   0.0000000), wk =   0.0025641
        k(  432) = (   0.4153296   0.5557957   0.1680570), wk =   0.0025641
        k(  433) = (   0.4761610   0.5557957   0.3361140), wk =   0.0025641
        k(  434) = (   0.5369923   0.5557957   0.5041711), wk =   0.0025641
        k(  435) = (   0.5978237   0.5557957   0.6722281), wk =   0.0025641
        k(  436) = (   0.6586550   0.5557957   0.8402851), wk =   0.0025641
        k(  437) = (   0.7194863   0.5557957   1.0083421), wk =   0.0025641
        k(  438) = (  -0.0104898   0.5557957  -1.0083421), wk =   0.0025641
        k(  439) = (   0.0503415   0.5557957  -0.8402851), wk =   0.0025641
        k(  440) = (   0.1111729   0.5557957  -0.6722281), wk =   0.0025641
        k(  441) = (   0.1720042   0.5557957  -0.5041711), wk =   0.0025641
        k(  442) = (   0.2328356   0.5557957  -0.3361140), wk =   0.0025641
        k(  443) = (   0.2936669   0.5557957  -0.1680570), wk =   0.0025641
        k(  444) = (   0.3544983   0.7410609   0.0000000), wk =   0.0025641
        k(  445) = (   0.4153296   0.7410609   0.1680570), wk =   0.0025641
        k(  446) = (   0.4761610   0.7410609   0.3361140), wk =   0.0025641
        k(  447) = (   0.5369923   0.7410609   0.5041711), wk =   0.0025641
        k(  448) = (   0.5978237   0.7410609   0.6722281), wk =   0.0025641
        k(  449) = (   0.6586550   0.7410609   0.8402851), wk =   0.0025641
        k(  450) = (   0.7194863   0.7410609   1.0083421), wk =   0.0025641
        k(  451) = (  -0.0104898   0.7410609  -1.0083421), wk =   0.0025641
        k(  452) = (   0.0503415   0.7410609  -0.8402851), wk =   0.0025641
        k(  453) = (   0.1111729   0.7410609  -0.6722281), wk =   0.0025641
        k(  454) = (   0.1720042   0.7410609  -0.5041711), wk =   0.0025641
        k(  455) = (   0.2328356   0.7410609  -0.3361140), wk =   0.0025641
        k(  456) = (   0.2936669   0.7410609  -0.1680570), wk =   0.0025641
        k(  457) = (   0.3544983   0.9263261   0.0000000), wk =   0.0025641
        k(  458) = (   0.4153296   0.9263261   0.1680570), wk =   0.0025641
        k(  459) = (   0.4761610   0.9263261   0.3361140), wk =   0.0025641
        k(  460) = (   0.5369923   0.9263261   0.5041711), wk =   0.0025641
        k(  461) = (   0.5978237   0.9263261   0.6722281), wk =   0.0025641
        k(  462) = (   0.6586550   0.9263261   0.8402851), wk =   0.0025641
        k(  463) = (   0.7194863   0.9263261   1.0083421), wk =   0.0025641
        k(  464) = (  -0.0104898   0.9263261  -1.0083421), wk =   0.0025641
        k(  465) = (   0.0503415   0.9263261  -0.8402851), wk =   0.0025641
        k(  466) = (   0.1111729   0.9263261  -0.6722281), wk =   0.0025641
        k(  467) = (   0.1720042   0.9263261  -0.5041711), wk =   0.0025641
        k(  468) = (   0.2328356   0.9263261  -0.3361140), wk =   0.0025641
        k(  469) = (   0.2936669   0.9263261  -0.1680570), wk =   0.0025641
        k(  470) = (   0.3544983   1.1115914   0.0000000), wk =   0.0025641
        k(  471) = (   0.4153296   1.1115914   0.1680570), wk =   0.0025641
        k(  472) = (   0.4761610   1.1115914   0.3361140), wk =   0.0025641
        k(  473) = (   0.5369923   1.1115914   0.5041711), wk =   0.0025641
        k(  474) = (   0.5978237   1.1115914   0.6722281), wk =   0.0025641
        k(  475) = (   0.6586550   1.1115914   0.8402851), wk =   0.0025641
        k(  476) = (   0.7194863   1.1115914   1.0083421), wk =   0.0025641
        k(  477) = (  -0.0104898   1.1115914  -1.0083421), wk =   0.0025641
        k(  478) = (   0.0503415   1.1115914  -0.8402851), wk =   0.0025641
        k(  479) = (   0.1111729   1.1115914  -0.6722281), wk =   0.0025641
        k(  480) = (   0.1720042   1.1115914  -0.5041711), wk =   0.0025641
        k(  481) = (   0.2328356   1.1115914  -0.3361140), wk =   0.0025641
        k(  482) = (   0.2936669   1.1115914  -0.1680570), wk =   0.0025641
        k(  483) = (   0.3544983   1.2968566   0.0000000), wk =   0.0025641
        k(  484) = (   0.4153296   1.2968566   0.1680570), wk =   0.0025641
        k(  485) = (   0.4761610   1.2968566   0.3361140), wk =   0.0025641
        k(  486) = (   0.5369923   1.2968566   0.5041711), wk =   0.0025641
        k(  487) = (   0.5978237   1.2968566   0.6722281), wk =   0.0025641
        k(  488) = (   0.6586550   1.2968566   0.8402851), wk =   0.0025641
        k(  489) = (   0.7194863   1.2968566   1.0083421), wk =   0.0025641
        k(  490) = (  -0.0104898   1.2968566  -1.0083421), wk =   0.0025641
        k(  491) = (   0.0503415   1.2968566  -0.8402851), wk =   0.0025641
        k(  492) = (   0.1111729   1.2968566  -0.6722281), wk =   0.0025641
        k(  493) = (   0.1720042   1.2968566  -0.5041711), wk =   0.0025641
        k(  494) = (   0.2328356   1.2968566  -0.3361140), wk =   0.0025641
        k(  495) = (   0.2936669   1.2968566  -0.1680570), wk =   0.0025641
        k(  496) = (   0.3544983   1.4821218   0.0000000), wk =   0.0025641
        k(  497) = (   0.4153296   1.4821218   0.1680570), wk =   0.0025641
        k(  498) = (   0.4761610   1.4821218   0.3361140), wk =   0.0025641
        k(  499) = (   0.5369923   1.4821218   0.5041711), wk =   0.0025641
        k(  500) = (   0.5978237   1.4821218   0.6722281), wk =   0.0025641
        k(  501) = (   0.6586550   1.4821218   0.8402851), wk =   0.0025641
        k(  502) = (   0.7194863   1.4821218   1.0083421), wk =   0.0025641
        k(  503) = (  -0.0104898   1.4821218  -1.0083421), wk =   0.0025641
        k(  504) = (   0.0503415   1.4821218  -0.8402851), wk =   0.0025641
        k(  505) = (   0.1111729   1.4821218  -0.6722281), wk =   0.0025641
        k(  506) = (   0.1720042   1.4821218  -0.5041711), wk =   0.0025641
        k(  507) = (   0.2328356   1.4821218  -0.3361140), wk =   0.0025641
        k(  508) = (   0.2936669   1.4821218  -0.1680570), wk =   0.0025641
        k(  509) = (   0.3544983   1.6673871   0.0000000), wk =   0.0025641
        k(  510) = (   0.4153296   1.6673871   0.1680570), wk =   0.0025641
        k(  511) = (   0.4761610   1.6673871   0.3361140), wk =   0.0025641
        k(  512) = (   0.5369923   1.6673871   0.5041711), wk =   0.0025641
        k(  513) = (   0.5978237   1.6673871   0.6722281), wk =   0.0025641
        k(  514) = (   0.6586550   1.6673871   0.8402851), wk =   0.0025641
        k(  515) = (   0.7194863   1.6673871   1.0083421), wk =   0.0025641
        k(  516) = (  -0.0104898   1.6673871  -1.0083421), wk =   0.0025641
        k(  517) = (   0.0503415   1.6673871  -0.8402851), wk =   0.0025641
        k(  518) = (   0.1111729   1.6673871  -0.6722281), wk =   0.0025641
        k(  519) = (   0.1720042   1.6673871  -0.5041711), wk =   0.0025641
        k(  520) = (   0.2328356   1.6673871  -0.3361140), wk =   0.0025641
        k(  521) = (   0.2936669   1.6673871  -0.1680570), wk =   0.0025641
        k(  522) = (   0.3544983  -1.8526523   0.0000000), wk =   0.0025641
        k(  523) = (   0.4153296  -1.8526523   0.1680570), wk =   0.0025641
        k(  524) = (   0.4761610  -1.8526523   0.3361140), wk =   0.0025641
        k(  525) = (   0.5369923  -1.8526523   0.5041711), wk =   0.0025641
        k(  526) = (   0.5978237  -1.8526523   0.6722281), wk =   0.0025641
        k(  527) = (   0.6586550  -1.8526523   0.8402851), wk =   0.0025641
        k(  528) = (   0.7194863  -1.8526523   1.0083421), wk =   0.0025641
        k(  529) = (  -0.0104898  -1.8526523  -1.0083421), wk =   0.0025641
        k(  530) = (   0.0503415  -1.8526523  -0.8402851), wk =   0.0025641
        k(  531) = (   0.1111729  -1.8526523  -0.6722281), wk =   0.0025641
        k(  532) = (   0.1720042  -1.8526523  -0.5041711), wk =   0.0025641
        k(  533) = (   0.2328356  -1.8526523  -0.3361140), wk =   0.0025641
        k(  534) = (   0.2936669  -1.8526523  -0.1680570), wk =   0.0025641
        k(  535) = (   0.3544983  -1.6673871   0.0000000), wk =   0.0025641
        k(  536) = (   0.4153296  -1.6673871   0.1680570), wk =   0.0025641
        k(  537) = (   0.4761610  -1.6673871   0.3361140), wk =   0.0025641
        k(  538) = (   0.5369923  -1.6673871   0.5041711), wk =   0.0025641
        k(  539) = (   0.5978237  -1.6673871   0.6722281), wk =   0.0025641
        k(  540) = (   0.6586550  -1.6673871   0.8402851), wk =   0.0025641
        k(  541) = (   0.7194863  -1.6673871   1.0083421), wk =   0.0025641
        k(  542) = (  -0.0104898  -1.6673871  -1.0083421), wk =   0.0025641
        k(  543) = (   0.0503415  -1.6673871  -0.8402851), wk =   0.0025641
        k(  544) = (   0.1111729  -1.6673871  -0.6722281), wk =   0.0025641
        k(  545) = (   0.1720042  -1.6673871  -0.5041711), wk =   0.0025641
        k(  546) = (   0.2328356  -1.6673871  -0.3361140), wk =   0.0025641
        k(  547) = (   0.2936669  -1.6673871  -0.1680570), wk =   0.0025641
        k(  548) = (   0.3544983  -1.4821218   0.0000000), wk =   0.0025641
        k(  549) = (   0.4153296  -1.4821218   0.1680570), wk =   0.0025641
        k(  550) = (   0.4761610  -1.4821218   0.3361140), wk =   0.0025641
        k(  551) = (   0.5369923  -1.4821218   0.5041711), wk =   0.0025641
        k(  552) = (   0.5978237  -1.4821218   0.6722281), wk =   0.0025641
        k(  553) = (   0.6586550  -1.4821218   0.8402851), wk =   0.0025641
        k(  554) = (   0.7194863  -1.4821218   1.0083421), wk =   0.0025641
        k(  555) = (  -0.0104898  -1.4821218  -1.0083421), wk =   0.0025641
        k(  556) = (   0.0503415  -1.4821218  -0.8402851), wk =   0.0025641
        k(  557) = (   0.1111729  -1.4821218  -0.6722281), wk =   0.0025641
        k(  558) = (   0.1720042  -1.4821218  -0.5041711), wk =   0.0025641
        k(  559) = (   0.2328356  -1.4821218  -0.3361140), wk =   0.0025641
        k(  560) = (   0.2936669  -1.4821218  -0.1680570), wk =   0.0025641
        k(  561) = (   0.3544983  -1.2968566   0.0000000), wk =   0.0025641
        k(  562) = (   0.4153296  -1.2968566   0.1680570), wk =   0.0025641
        k(  563) = (   0.4761610  -1.2968566   0.3361140), wk =   0.0025641
        k(  564) = (   0.5369923  -1.2968566   0.5041711), wk =   0.0025641
        k(  565) = (   0.5978237  -1.2968566   0.6722281), wk =   0.0025641
        k(  566) = (   0.6586550  -1.2968566   0.8402851), wk =   0.0025641
        k(  567) = (   0.7194863  -1.2968566   1.0083421), wk =   0.0025641
        k(  568) = (  -0.0104898  -1.2968566  -1.0083421), wk =   0.0025641
        k(  569) = (   0.0503415  -1.2968566  -0.8402851), wk =   0.0025641
        k(  570) = (   0.1111729  -1.2968566  -0.6722281), wk =   0.0025641
        k(  571) = (   0.1720042  -1.2968566  -0.5041711), wk =   0.0025641
        k(  572) = (   0.2328356  -1.2968566  -0.3361140), wk =   0.0025641
        k(  573) = (   0.2936669  -1.2968566  -0.1680570), wk =   0.0025641
        k(  574) = (   0.3544983  -1.1115914   0.0000000), wk =   0.0025641
        k(  575) = (   0.4153296  -1.1115914   0.1680570), wk =   0.0025641
        k(  576) = (   0.4761610  -1.1115914   0.3361140), wk =   0.0025641
        k(  577) = (   0.5369923  -1.1115914   0.5041711), wk =   0.0025641
        k(  578) = (   0.5978237  -1.1115914   0.6722281), wk =   0.0025641
        k(  579) = (   0.6586550  -1.1115914   0.8402851), wk =   0.0025641
        k(  580) = (   0.7194863  -1.1115914   1.0083421), wk =   0.0025641
        k(  581) = (  -0.0104898  -1.1115914  -1.0083421), wk =   0.0025641
        k(  582) = (   0.0503415  -1.1115914  -0.8402851), wk =   0.0025641
        k(  583) = (   0.1111729  -1.1115914  -0.6722281), wk =   0.0025641
        k(  584) = (   0.1720042  -1.1115914  -0.5041711), wk =   0.0025641
        k(  585) = (   0.2328356  -1.1115914  -0.3361140), wk =   0.0025641
        k(  586) = (   0.2936669  -1.1115914  -0.1680570), wk =   0.0025641
        k(  587) = (   0.3544983  -0.9263261   0.0000000), wk =   0.0025641
        k(  588) = (   0.4153296  -0.9263261   0.1680570), wk =   0.0025641
        k(  589) = (   0.4761610  -0.9263261   0.3361140), wk =   0.0025641
        k(  590) = (   0.5369923  -0.9263261   0.5041711), wk =   0.0025641
        k(  591) = (   0.5978237  -0.9263261   0.6722281), wk =   0.0025641
        k(  592) = (   0.6586550  -0.9263261   0.8402851), wk =   0.0025641
        k(  593) = (   0.7194863  -0.9263261   1.0083421), wk =   0.0025641
        k(  594) = (  -0.0104898  -0.9263261  -1.0083421), wk =   0.0025641
        k(  595) = (   0.0503415  -0.9263261  -0.8402851), wk =   0.0025641
        k(  596) = (   0.1111729  -0.9263261  -0.6722281), wk =   0.0025641
        k(  597) = (   0.1720042  -0.9263261  -0.5041711), wk =   0.0025641
        k(  598) = (   0.2328356  -0.9263261  -0.3361140), wk =   0.0025641
        k(  599) = (   0.2936669  -0.9263261  -0.1680570), wk =   0.0025641
        k(  600) = (   0.3544983  -0.7410609   0.0000000), wk =   0.0025641
        k(  601) = (   0.4153296  -0.7410609   0.1680570), wk =   0.0025641
        k(  602) = (   0.4761610  -0.7410609   0.3361140), wk =   0.0025641
        k(  603) = (   0.5369923  -0.7410609   0.5041711), wk =   0.0025641
        k(  604) = (   0.5978237  -0.7410609   0.6722281), wk =   0.0025641
        k(  605) = (   0.6586550  -0.7410609   0.8402851), wk =   0.0025641
        k(  606) = (   0.7194863  -0.7410609   1.0083421), wk =   0.0025641
        k(  607) = (  -0.0104898  -0.7410609  -1.0083421), wk =   0.0025641
        k(  608) = (   0.0503415  -0.7410609  -0.8402851), wk =   0.0025641
        k(  609) = (   0.1111729  -0.7410609  -0.6722281), wk =   0.0025641
        k(  610) = (   0.1720042  -0.7410609  -0.5041711), wk =   0.0025641
        k(  611) = (   0.2328356  -0.7410609  -0.3361140), wk =   0.0025641
        k(  612) = (   0.2936669  -0.7410609  -0.1680570), wk =   0.0025641
        k(  613) = (   0.3544983  -0.5557957   0.0000000), wk =   0.0025641
        k(  614) = (   0.4153296  -0.5557957   0.1680570), wk =   0.0025641
        k(  615) = (   0.4761610  -0.5557957   0.3361140), wk =   0.0025641
        k(  616) = (   0.5369923  -0.5557957   0.5041711), wk =   0.0025641
        k(  617) = (   0.5978237  -0.5557957   0.6722281), wk =   0.0025641
        k(  618) = (   0.6586550  -0.5557957   0.8402851), wk =   0.0025641
        k(  619) = (   0.7194863  -0.5557957   1.0083421), wk =   0.0025641
        k(  620) = (  -0.0104898  -0.5557957  -1.0083421), wk =   0.0025641
        k(  621) = (   0.0503415  -0.5557957  -0.8402851), wk =   0.0025641
        k(  622) = (   0.1111729  -0.5557957  -0.6722281), wk =   0.0025641
        k(  623) = (   0.1720042  -0.5557957  -0.5041711), wk =   0.0025641
        k(  624) = (   0.2328356  -0.5557957  -0.3361140), wk =   0.0025641
        k(  625) = (   0.2936669  -0.5557957  -0.1680570), wk =   0.0025641
        k(  626) = (   0.3544983  -0.3705305   0.0000000), wk =   0.0025641
        k(  627) = (   0.4153296  -0.3705305   0.1680570), wk =   0.0025641
        k(  628) = (   0.4761610  -0.3705305   0.3361140), wk =   0.0025641
        k(  629) = (   0.5369923  -0.3705305   0.5041711), wk =   0.0025641
        k(  630) = (   0.5978237  -0.3705305   0.6722281), wk =   0.0025641
        k(  631) = (   0.6586550  -0.3705305   0.8402851), wk =   0.0025641
        k(  632) = (   0.7194863  -0.3705305   1.0083421), wk =   0.0025641
        k(  633) = (  -0.0104898  -0.3705305  -1.0083421), wk =   0.0025641
        k(  634) = (   0.0503415  -0.3705305  -0.8402851), wk =   0.0025641
        k(  635) = (   0.1111729  -0.3705305  -0.6722281), wk =   0.0025641
        k(  636) = (   0.1720042  -0.3705305  -0.5041711), wk =   0.0025641
        k(  637) = (   0.2328356  -0.3705305  -0.3361140), wk =   0.0025641
        k(  638) = (   0.2936669  -0.3705305  -0.1680570), wk =   0.0025641
        k(  639) = (   0.3544983  -0.1852652   0.0000000), wk =   0.0025641
        k(  640) = (   0.4153296  -0.1852652   0.1680570), wk =   0.0025641
        k(  641) = (   0.4761610  -0.1852652   0.3361140), wk =   0.0025641
        k(  642) = (   0.5369923  -0.1852652   0.5041711), wk =   0.0025641
        k(  643) = (   0.5978237  -0.1852652   0.6722281), wk =   0.0025641
        k(  644) = (   0.6586550  -0.1852652   0.8402851), wk =   0.0025641
        k(  645) = (   0.7194863  -0.1852652   1.0083421), wk =   0.0025641
        k(  646) = (  -0.0104898  -0.1852652  -1.0083421), wk =   0.0025641
        k(  647) = (   0.0503415  -0.1852652  -0.8402851), wk =   0.0025641
        k(  648) = (   0.1111729  -0.1852652  -0.6722281), wk =   0.0025641
        k(  649) = (   0.1720042  -0.1852652  -0.5041711), wk =   0.0025641
        k(  650) = (   0.2328356  -0.1852652  -0.3361140), wk =   0.0025641
        k(  651) = (   0.2936669  -0.1852652  -0.1680570), wk =   0.0025641
        k(  652) = (  -0.5317474   0.0000000   0.0000000), wk =   0.0012821
        k(  653) = (  -0.4709161   0.0000000   0.1680570), wk =   0.0025641
        k(  654) = (  -0.4100847   0.0000000   0.3361140), wk =   0.0025641
        k(  655) = (  -0.3492534   0.0000000   0.5041711), wk =   0.0025641
        k(  656) = (  -0.2884220   0.0000000   0.6722281), wk =   0.0025641
        k(  657) = (  -0.2275907   0.0000000   0.8402851), wk =   0.0025641
        k(  658) = (  -0.1667593   0.0000000   1.0083421), wk =   0.0025641
        k(  659) = (  -0.5317474   0.1852652   0.0000000), wk =   0.0025641
        k(  660) = (  -0.4709161   0.1852652   0.1680570), wk =   0.0025641
        k(  661) = (  -0.4100847   0.1852652   0.3361140), wk =   0.0025641
        k(  662) = (  -0.3492534   0.1852652   0.5041711), wk =   0.0025641
        k(  663) = (  -0.2884220   0.1852652   0.6722281), wk =   0.0025641
        k(  664) = (  -0.2275907   0.1852652   0.8402851), wk =   0.0025641
        k(  665) = (  -0.1667593   0.1852652   1.0083421), wk =   0.0025641
        k(  666) = (  -0.8967355   0.1852652  -1.0083421), wk =   0.0025641
        k(  667) = (  -0.8359041   0.1852652  -0.8402851), wk =   0.0025641
        k(  668) = (  -0.7750728   0.1852652  -0.6722281), wk =   0.0025641
        k(  669) = (  -0.7142414   0.1852652  -0.5041711), wk =   0.0025641
        k(  670) = (  -0.6534101   0.1852652  -0.3361140), wk =   0.0025641
        k(  671) = (  -0.5925787   0.1852652  -0.1680570), wk =   0.0025641
        k(  672) = (  -0.5317474   0.3705305   0.0000000), wk =   0.0025641
        k(  673) = (  -0.4709161   0.3705305   0.1680570), wk =   0.0025641
        k(  674) = (  -0.4100847   0.3705305   0.3361140), wk =   0.0025641
        k(  675) = (  -0.3492534   0.3705305   0.5041711), wk =   0.0025641
        k(  676) = (  -0.2884220   0.3705305   0.6722281), wk =   0.0025641
        k(  677) = (  -0.2275907   0.3705305   0.8402851), wk =   0.0025641
        k(  678) = (  -0.1667593   0.3705305   1.0083421), wk =   0.0025641
        k(  679) = (  -0.8967355   0.3705305  -1.0083421), wk =   0.0025641
        k(  680) = (  -0.8359041   0.3705305  -0.8402851), wk =   0.0025641
        k(  681) = (  -0.7750728   0.3705305  -0.6722281), wk =   0.0025641
        k(  682) = (  -0.7142414   0.3705305  -0.5041711), wk =   0.0025641
        k(  683) = (  -0.6534101   0.3705305  -0.3361140), wk =   0.0025641
        k(  684) = (  -0.5925787   0.3705305  -0.1680570), wk =   0.0025641
        k(  685) = (  -0.5317474   0.5557957   0.0000000), wk =   0.0025641
        k(  686) = (  -0.4709161   0.5557957   0.1680570), wk =   0.0025641
        k(  687) = (  -0.4100847   0.5557957   0.3361140), wk =   0.0025641
        k(  688) = (  -0.3492534   0.5557957   0.5041711), wk =   0.0025641
        k(  689) = (  -0.2884220   0.5557957   0.6722281), wk =   0.0025641
        k(  690) = (  -0.2275907   0.5557957   0.8402851), wk =   0.0025641
        k(  691) = (  -0.1667593   0.5557957   1.0083421), wk =   0.0025641
        k(  692) = (  -0.8967355   0.5557957  -1.0083421), wk =   0.0025641
        k(  693) = (  -0.8359041   0.5557957  -0.8402851), wk =   0.0025641
        k(  694) = (  -0.7750728   0.5557957  -0.6722281), wk =   0.0025641
        k(  695) = (  -0.7142414   0.5557957  -0.5041711), wk =   0.0025641
        k(  696) = (  -0.6534101   0.5557957  -0.3361140), wk =   0.0025641
        k(  697) = (  -0.5925787   0.5557957  -0.1680570), wk =   0.0025641
        k(  698) = (  -0.5317474   0.7410609   0.0000000), wk =   0.0025641
        k(  699) = (  -0.4709161   0.7410609   0.1680570), wk =   0.0025641
        k(  700) = (  -0.4100847   0.7410609   0.3361140), wk =   0.0025641
        k(  701) = (  -0.3492534   0.7410609   0.5041711), wk =   0.0025641
        k(  702) = (  -0.2884220   0.7410609   0.6722281), wk =   0.0025641
        k(  703) = (  -0.2275907   0.7410609   0.8402851), wk =   0.0025641
        k(  704) = (  -0.1667593   0.7410609   1.0083421), wk =   0.0025641
        k(  705) = (  -0.8967355   0.7410609  -1.0083421), wk =   0.0025641
        k(  706) = (  -0.8359041   0.7410609  -0.8402851), wk =   0.0025641
        k(  707) = (  -0.7750728   0.7410609  -0.6722281), wk =   0.0025641
        k(  708) = (  -0.7142414   0.7410609  -0.5041711), wk =   0.0025641
        k(  709) = (  -0.6534101   0.7410609  -0.3361140), wk =   0.0025641
        k(  710) = (  -0.5925787   0.7410609  -0.1680570), wk =   0.0025641
        k(  711) = (  -0.5317474   0.9263261   0.0000000), wk =   0.0025641
        k(  712) = (  -0.4709161   0.9263261   0.1680570), wk =   0.0025641
        k(  713) = (  -0.4100847   0.9263261   0.3361140), wk =   0.0025641
        k(  714) = (  -0.3492534   0.9263261   0.5041711), wk =   0.0025641
        k(  715) = (  -0.2884220   0.9263261   0.6722281), wk =   0.0025641
        k(  716) = (  -0.2275907   0.9263261   0.8402851), wk =   0.0025641
        k(  717) = (  -0.1667593   0.9263261   1.0083421), wk =   0.0025641
        k(  718) = (  -0.8967355   0.9263261  -1.0083421), wk =   0.0025641
        k(  719) = (  -0.8359041   0.9263261  -0.8402851), wk =   0.0025641
        k(  720) = (  -0.7750728   0.9263261  -0.6722281), wk =   0.0025641
        k(  721) = (  -0.7142414   0.9263261  -0.5041711), wk =   0.0025641
        k(  722) = (  -0.6534101   0.9263261  -0.3361140), wk =   0.0025641
        k(  723) = (  -0.5925787   0.9263261  -0.1680570), wk =   0.0025641
        k(  724) = (  -0.5317474   1.1115914   0.0000000), wk =   0.0025641
        k(  725) = (  -0.4709161   1.1115914   0.1680570), wk =   0.0025641
        k(  726) = (  -0.4100847   1.1115914   0.3361140), wk =   0.0025641
        k(  727) = (  -0.3492534   1.1115914   0.5041711), wk =   0.0025641
        k(  728) = (  -0.2884220   1.1115914   0.6722281), wk =   0.0025641
        k(  729) = (  -0.2275907   1.1115914   0.8402851), wk =   0.0025641
        k(  730) = (  -0.1667593   1.1115914   1.0083421), wk =   0.0025641
        k(  731) = (  -0.8967355   1.1115914  -1.0083421), wk =   0.0025641
        k(  732) = (  -0.8359041   1.1115914  -0.8402851), wk =   0.0025641
        k(  733) = (  -0.7750728   1.1115914  -0.6722281), wk =   0.0025641
        k(  734) = (  -0.7142414   1.1115914  -0.5041711), wk =   0.0025641
        k(  735) = (  -0.6534101   1.1115914  -0.3361140), wk =   0.0025641
        k(  736) = (  -0.5925787   1.1115914  -0.1680570), wk =   0.0025641
        k(  737) = (  -0.5317474   1.2968566   0.0000000), wk =   0.0025641
        k(  738) = (  -0.4709161   1.2968566   0.1680570), wk =   0.0025641
        k(  739) = (  -0.4100847   1.2968566   0.3361140), wk =   0.0025641
        k(  740) = (  -0.3492534   1.2968566   0.5041711), wk =   0.0025641
        k(  741) = (  -0.2884220   1.2968566   0.6722281), wk =   0.0025641
        k(  742) = (  -0.2275907   1.2968566   0.8402851), wk =   0.0025641
        k(  743) = (  -0.1667593   1.2968566   1.0083421), wk =   0.0025641
        k(  744) = (  -0.8967355   1.2968566  -1.0083421), wk =   0.0025641
        k(  745) = (  -0.8359041   1.2968566  -0.8402851), wk =   0.0025641
        k(  746) = (  -0.7750728   1.2968566  -0.6722281), wk =   0.0025641
        k(  747) = (  -0.7142414   1.2968566  -0.5041711), wk =   0.0025641
        k(  748) = (  -0.6534101   1.2968566  -0.3361140), wk =   0.0025641
        k(  749) = (  -0.5925787   1.2968566  -0.1680570), wk =   0.0025641
        k(  750) = (  -0.5317474   1.4821218   0.0000000), wk =   0.0025641
        k(  751) = (  -0.4709161   1.4821218   0.1680570), wk =   0.0025641
        k(  752) = (  -0.4100847   1.4821218   0.3361140), wk =   0.0025641
        k(  753) = (  -0.3492534   1.4821218   0.5041711), wk =   0.0025641
        k(  754) = (  -0.2884220   1.4821218   0.6722281), wk =   0.0025641
        k(  755) = (  -0.2275907   1.4821218   0.8402851), wk =   0.0025641
        k(  756) = (  -0.1667593   1.4821218   1.0083421), wk =   0.0025641
        k(  757) = (  -0.8967355   1.4821218  -1.0083421), wk =   0.0025641
        k(  758) = (  -0.8359041   1.4821218  -0.8402851), wk =   0.0025641
        k(  759) = (  -0.7750728   1.4821218  -0.6722281), wk =   0.0025641
        k(  760) = (  -0.7142414   1.4821218  -0.5041711), wk =   0.0025641
        k(  761) = (  -0.6534101   1.4821218  -0.3361140), wk =   0.0025641
        k(  762) = (  -0.5925787   1.4821218  -0.1680570), wk =   0.0025641
        k(  763) = (  -0.5317474   1.6673871   0.0000000), wk =   0.0025641
        k(  764) = (  -0.4709161   1.6673871   0.1680570), wk =   0.0025641
        k(  765) = (  -0.4100847   1.6673871   0.3361140), wk =   0.0025641
        k(  766) = (  -0.3492534   1.6673871   0.5041711), wk =   0.0025641
        k(  767) = (  -0.2884220   1.6673871   0.6722281), wk =   0.0025641
        k(  768) = (  -0.2275907   1.6673871   0.8402851), wk =   0.0025641
        k(  769) = (  -0.1667593   1.6673871   1.0083421), wk =   0.0025641
        k(  770) = (  -0.8967355   1.6673871  -1.0083421), wk =   0.0025641
        k(  771) = (  -0.8359041   1.6673871  -0.8402851), wk =   0.0025641
        k(  772) = (  -0.7750728   1.6673871  -0.6722281), wk =   0.0025641
        k(  773) = (  -0.7142414   1.6673871  -0.5041711), wk =   0.0025641
        k(  774) = (  -0.6534101   1.6673871  -0.3361140), wk =   0.0025641
        k(  775) = (  -0.5925787   1.6673871  -0.1680570), wk =   0.0025641
        k(  776) = (  -0.5317474  -1.8526523   0.0000000), wk =   0.0012821
        k(  777) = (  -0.4709161  -1.8526523   0.1680570), wk =   0.0025641
        k(  778) = (  -0.4100847  -1.8526523   0.3361140), wk =   0.0025641
        k(  779) = (  -0.3492534  -1.8526523   0.5041711), wk =   0.0025641
        k(  780) = (  -0.2884220  -1.8526523   0.6722281), wk =   0.0025641
        k(  781) = (  -0.2275907  -1.8526523   0.8402851), wk =   0.0025641
        k(  782) = (  -0.1667593  -1.8526523   1.0083421), wk =   0.0025641

                       cryst. coord.
        k(    1) = (   0.0000000   0.0000000   0.0000000), wk =   0.0012821
        k(    2) = (   0.0000000   0.0000000   0.0769231), wk =   0.0025641
        k(    3) = (   0.0000000   0.0000000   0.1538462), wk =   0.0025641
        k(    4) = (   0.0000000   0.0000000   0.2307692), wk =   0.0025641
        k(    5) = (   0.0000000   0.0000000   0.3076923), wk =   0.0025641
        k(    6) = (   0.0000000   0.0000000   0.3846154), wk =   0.0025641
        k(    7) = (   0.0000000   0.0000000   0.4615385), wk =   0.0025641
        k(    8) = (   0.0000000   0.0500000   0.0000000), wk =   0.0025641
        k(    9) = (   0.0000000   0.0500000   0.0769231), wk =   0.0025641
        k(   10) = (   0.0000000   0.0500000   0.1538462), wk =   0.0025641
        k(   11) = (   0.0000000   0.0500000   0.2307692), wk =   0.0025641
        k(   12) = (   0.0000000   0.0500000   0.3076923), wk =   0.0025641
        k(   13) = (   0.0000000   0.0500000   0.3846154), wk =   0.0025641
        k(   14) = (   0.0000000   0.0500000   0.4615385), wk =   0.0025641
        k(   15) = (  -0.0000000   0.0500000  -0.4615385), wk =   0.0025641
        k(   16) = (  -0.0000000   0.0500000  -0.3846154), wk =   0.0025641
        k(   17) = (  -0.0000000   0.0500000  -0.3076923), wk =   0.0025641
        k(   18) = (   0.0000000   0.0500000  -0.2307692), wk =   0.0025641
        k(   19) = (  -0.0000000   0.0500000  -0.1538462), wk =   0.0025641
        k(   20) = (  -0.0000000   0.0500000  -0.0769231), wk =   0.0025641
        k(   21) = (   0.0000000   0.1000000   0.0000000), wk =   0.0025641
        k(   22) = (   0.0000000   0.1000000   0.0769231), wk =   0.0025641
        k(   23) = (   0.0000000   0.1000000   0.1538462), wk =   0.0025641
        k(   24) = (   0.0000000   0.1000000   0.2307692), wk =   0.0025641
        k(   25) = (   0.0000000   0.1000000   0.3076923), wk =   0.0025641
        k(   26) = (   0.0000000   0.1000000   0.3846154), wk =   0.0025641
        k(   27) = (   0.0000000   0.1000000   0.4615385), wk =   0.0025641
        k(   28) = (  -0.0000000   0.1000000  -0.4615385), wk =   0.0025641
        k(   29) = (  -0.0000000   0.1000000  -0.3846154), wk =   0.0025641
        k(   30) = (  -0.0000000   0.1000000  -0.3076923), wk =   0.0025641
        k(   31) = (   0.0000000   0.1000000  -0.2307692), wk =   0.0025641
        k(   32) = (  -0.0000000   0.1000000  -0.1538462), wk =   0.0025641
        k(   33) = (  -0.0000000   0.1000000  -0.0769231), wk =   0.0025641
        k(   34) = (   0.0000000   0.1500000   0.0000000), wk =   0.0025641
        k(   35) = (   0.0000000   0.1500000   0.0769231), wk =   0.0025641
        k(   36) = (   0.0000000   0.1500000   0.1538462), wk =   0.0025641
        k(   37) = (   0.0000000   0.1500000   0.2307692), wk =   0.0025641
        k(   38) = (   0.0000000   0.1500000   0.3076923), wk =   0.0025641
        k(   39) = (   0.0000000   0.1500000   0.3846154), wk =   0.0025641
        k(   40) = (   0.0000000   0.1500000   0.4615385), wk =   0.0025641
        k(   41) = (  -0.0000000   0.1500000  -0.4615385), wk =   0.0025641
        k(   42) = (  -0.0000000   0.1500000  -0.3846154), wk =   0.0025641
        k(   43) = (  -0.0000000   0.1500000  -0.3076923), wk =   0.0025641
        k(   44) = (   0.0000000   0.1500000  -0.2307692), wk =   0.0025641
        k(   45) = (  -0.0000000   0.1500000  -0.1538462), wk =   0.0025641
        k(   46) = (  -0.0000000   0.1500000  -0.0769231), wk =   0.0025641
        k(   47) = (   0.0000000   0.2000000   0.0000000), wk =   0.0025641
        k(   48) = (   0.0000000   0.2000000   0.0769231), wk =   0.0025641
        k(   49) = (   0.0000000   0.2000000   0.1538462), wk =   0.0025641
        k(   50) = (   0.0000000   0.2000000   0.2307692), wk =   0.0025641
        k(   51) = (   0.0000000   0.2000000   0.3076923), wk =   0.0025641
        k(   52) = (   0.0000000   0.2000000   0.3846154), wk =   0.0025641
        k(   53) = (   0.0000000   0.2000000   0.4615385), wk =   0.0025641
        k(   54) = (  -0.0000000   0.2000000  -0.4615385), wk =   0.0025641
        k(   55) = (  -0.0000000   0.2000000  -0.3846154), wk =   0.0025641
        k(   56) = (  -0.0000000   0.2000000  -0.3076923), wk =   0.0025641
        k(   57) = (   0.0000000   0.2000000  -0.2307692), wk =   0.0025641
        k(   58) = (  -0.0000000   0.2000000  -0.1538462), wk =   0.0025641
        k(   59) = (  -0.0000000   0.2000000  -0.0769231), wk =   0.0025641
        k(   60) = (   0.0000000   0.2500000   0.0000000), wk =   0.0025641
        k(   61) = (   0.0000000   0.2500000   0.0769231), wk =   0.0025641
        k(   62) = (   0.0000000   0.2500000   0.1538462), wk =   0.0025641
        k(   63) = (   0.0000000   0.2500000   0.2307692), wk =   0.0025641
        k(   64) = (   0.0000000   0.2500000   0.3076923), wk =   0.0025641
        k(   65) = (   0.0000000   0.2500000   0.3846154), wk =   0.0025641
        k(   66) = (   0.0000000   0.2500000   0.4615385), wk =   0.0025641
        k(   67) = (  -0.0000000   0.2500000  -0.4615385), wk =   0.0025641
        k(   68) = (  -0.0000000   0.2500000  -0.3846154), wk =   0.0025641
        k(   69) = (  -0.0000000   0.2500000  -0.3076923), wk =   0.0025641
        k(   70) = (   0.0000000   0.2500000  -0.2307692), wk =   0.0025641
        k(   71) = (  -0.0000000   0.2500000  -0.1538462), wk =   0.0025641
        k(   72) = (  -0.0000000   0.2500000  -0.0769231), wk =   0.0025641
        k(   73) = (   0.0000000   0.3000000   0.0000000), wk =   0.0025641
        k(   74) = (   0.0000000   0.3000000   0.0769231), wk =   0.0025641
        k(   75) = (   0.0000000   0.3000000   0.1538462), wk =   0.0025641
        k(   76) = (   0.0000000   0.3000000   0.2307692), wk =   0.0025641
        k(   77) = (   0.0000000   0.3000000   0.3076923), wk =   0.0025641
        k(   78) = (   0.0000000   0.3000000   0.3846154), wk =   0.0025641
        k(   79) = (   0.0000000   0.3000000   0.4615385), wk =   0.0025641
        k(   80) = (  -0.0000000   0.3000000  -0.4615385), wk =   0.0025641
        k(   81) = (  -0.0000000   0.3000000  -0.3846154), wk =   0.0025641
        k(   82) = (  -0.0000000   0.3000000  -0.3076923), wk =   0.0025641
        k(   83) = (   0.0000000   0.3000000  -0.2307692), wk =   0.0025641
        k(   84) = (  -0.0000000   0.3000000  -0.1538462), wk =   0.0025641
        k(   85) = (  -0.0000000   0.3000000  -0.0769231), wk =   0.0025641
        k(   86) = (   0.0000000   0.3500000   0.0000000), wk =   0.0025641
        k(   87) = (   0.0000000   0.3500000   0.0769231), wk =   0.0025641
        k(   88) = (   0.0000000   0.3500000   0.1538462), wk =   0.0025641
        k(   89) = (   0.0000000   0.3500000   0.2307692), wk =   0.0025641
        k(   90) = (   0.0000000   0.3500000   0.3076923), wk =   0.0025641
        k(   91) = (   0.0000000   0.3500000   0.3846154), wk =   0.0025641
        k(   92) = (   0.0000000   0.3500000   0.4615385), wk =   0.0025641
        k(   93) = (  -0.0000000   0.3500000  -0.4615385), wk =   0.0025641
        k(   94) = (  -0.0000000   0.3500000  -0.3846154), wk =   0.0025641
        k(   95) = (  -0.0000000   0.3500000  -0.3076923), wk =   0.0025641
        k(   96) = (   0.0000000   0.3500000  -0.2307692), wk =   0.0025641
        k(   97) = (  -0.0000000   0.3500000  -0.1538462), wk =   0.0025641
        k(   98) = (  -0.0000000   0.3500000  -0.0769231), wk =   0.0025641
        k(   99) = (   0.0000000   0.4000000   0.0000000), wk =   0.0025641
        k(  100) = (   0.0000000   0.4000000   0.0769231), wk =   0.0025641
        k(  101) = (   0.0000000   0.4000000   0.1538462), wk =   0.0025641
        k(  102) = (   0.0000000   0.4000000   0.2307692), wk =   0.0025641
        k(  103) = (   0.0000000   0.4000000   0.3076923), wk =   0.0025641
        k(  104) = (   0.0000000   0.4000000   0.3846154), wk =   0.0025641
        k(  105) = (   0.0000000   0.4000000   0.4615385), wk =   0.0025641
        k(  106) = (  -0.0000000   0.4000000  -0.4615385), wk =   0.0025641
        k(  107) = (  -0.0000000   0.4000000  -0.3846154), wk =   0.0025641
        k(  108) = (  -0.0000000   0.4000000  -0.3076923), wk =   0.0025641
        k(  109) = (   0.0000000   0.4000000  -0.2307692), wk =   0.0025641
        k(  110) = (  -0.0000000   0.4000000  -0.1538462), wk =   0.0025641
        k(  111) = (  -0.0000000   0.4000000  -0.0769231), wk =   0.0025641
        k(  112) = (   0.0000000   0.4500000   0.0000000), wk =   0.0025641
        k(  113) = (   0.0000000   0.4500000   0.0769231), wk =   0.0025641
        k(  114) = (   0.0000000   0.4500000   0.1538462), wk =   0.0025641
        k(  115) = (   0.0000000   0.4500000   0.2307692), wk =   0.0025641
        k(  116) = (   0.0000000   0.4500000   0.3076923), wk =   0.0025641
        k(  117) = (   0.0000000   0.4500000   0.3846154), wk =   0.0025641
        k(  118) = (   0.0000000   0.4500000   0.4615385), wk =   0.0025641
        k(  119) = (  -0.0000000   0.4500000  -0.4615385), wk =   0.0025641
        k(  120) = (  -0.0000000   0.4500000  -0.3846154), wk =   0.0025641
        k(  121) = (  -0.0000000   0.4500000  -0.3076923), wk =   0.0025641
        k(  122) = (   0.0000000   0.4500000  -0.2307692), wk =   0.0025641
        k(  123) = (  -0.0000000   0.4500000  -0.1538462), wk =   0.0025641
        k(  124) = (  -0.0000000   0.4500000  -0.0769231), wk =   0.0025641
        k(  125) = (   0.0000000  -0.5000000   0.0000000), wk =   0.0012821
        k(  126) = (   0.0000000  -0.5000000   0.0769231), wk =   0.0025641
        k(  127) = (   0.0000000  -0.5000000   0.1538462), wk =   0.0025641
        k(  128) = (   0.0000000  -0.5000000   0.2307692), wk =   0.0025641
        k(  129) = (   0.0000000  -0.5000000   0.3076923), wk =   0.0025641
        k(  130) = (   0.0000000  -0.5000000   0.3846154), wk =   0.0025641
        k(  131) = (   0.0000000  -0.5000000   0.4615385), wk =   0.0025641
        k(  132) = (   0.1666667   0.0000000   0.0000000), wk =   0.0025641
        k(  133) = (   0.1666667   0.0000000   0.0769231), wk =   0.0025641
        k(  134) = (   0.1666667   0.0000000   0.1538462), wk =   0.0025641
        k(  135) = (   0.1666667   0.0000000   0.2307692), wk =   0.0025641
        k(  136) = (   0.1666667   0.0000000   0.3076923), wk =   0.0025641
        k(  137) = (   0.1666667   0.0000000   0.3846154), wk =   0.0025641
        k(  138) = (   0.1666667   0.0000000   0.4615385), wk =   0.0025641
        k(  139) = (   0.1666667   0.0000000  -0.4615385), wk =   0.0025641
        k(  140) = (   0.1666667   0.0000000  -0.3846154), wk =   0.0025641
        k(  141) = (   0.1666667   0.0000000  -0.3076923), wk =   0.0025641
        k(  142) = (   0.1666667   0.0000000  -0.2307692), wk =   0.0025641
        k(  143) = (   0.1666667   0.0000000  -0.1538462), wk =   0.0025641
        k(  144) = (   0.1666667   0.0000000  -0.0769231), wk =   0.0025641
        k(  145) = (   0.1666667   0.0500000   0.0000000), wk =   0.0025641
        k(  146) = (   0.1666667   0.0500000   0.0769231), wk =   0.0025641
        k(  147) = (   0.1666667   0.0500000   0.1538462), wk =   0.0025641
        k(  148) = (   0.1666667   0.0500000   0.2307692), wk =   0.0025641
        k(  149) = (   0.1666667   0.0500000   0.3076923), wk =   0.0025641
        k(  150) = (   0.1666667   0.0500000   0.3846154), wk =   0.0025641
        k(  151) = (   0.1666667   0.0500000   0.4615385), wk =   0.0025641
        k(  152) = (   0.1666667   0.0500000  -0.4615385), wk =   0.0025641
        k(  153) = (   0.1666667   0.0500000  -0.3846154), wk =   0.0025641
        k(  154) = (   0.1666667   0.0500000  -0.3076923), wk =   0.0025641
[...]
    -0.0106

          k =-0.1668-1.8527 1.0083 ( 11600 PWs)   bands (ev):

    -3.6583  -3.6583  -3.1054  -3.1054  -2.2164  -2.2164  -1.7102  -1.7102
    -0.7873  -0.7872   0.5539   0.5539   0.8481   0.8481   1.8678   1.8679
     2.2585   2.2585   2.3527   2.3527   3.4938   3.4939   3.7983   3.7985
     3.9400   3.9401   4.4557   4.4558   4.6405   4.6406   5.6420   5.6420
     5.7216   5.7217   6.0620   6.0620   6.8099   6.8099   7.5010   7.5011
     7.7536

     occupation numbers 
     1.0000   1.0000   1.0000   1.0000   1.0000   1.0000   1.0000   1.0000
     1.0000   1.0000   1.0000   1.0000   1.0000   1.0000   1.0000   1.0000
     1.0000   1.0000   1.0000   1.0000   1.0000   1.0000   1.0000   1.0000
     1.0000   1.0000   1.0000   1.0000   1.0000   1.0000   1.0165   1.0165
     1.0224   1.0224   1.0294   1.0294   0.3352   0.3351  -0.0334  -0.0334
    -0.0155

     the Fermi energy is     6.6904 ev

!    total energy              =    -473.15916784 Ry
     Harris-Foulkes estimate   =    -473.15916784 Ry
     estimated scf accuracy    <          6.2E-13 Ry

     The total energy is the sum of the following terms:

     one-electron contribution =      36.40615801 Ry
     hartree contribution      =      13.20678160 Ry
     xc contribution           =     -90.16200272 Ry
     ewald contribution        =    -119.73867501 Ry
     one-center paw contrib.   =    -312.87007734 Ry
      -> PAW hartree energy AE =       0.81574241 Ry
      -> PAW hartree energy PS =      -0.81388780 Ry
      -> PAW xc energy AE      =     -32.62058137 Ry
      -> PAW xc energy PS      =       1.32449303 Ry
      -> total E_H with PAW    =      13.20863622 Ry
      -> total E_XC with PAW   =    -121.45809106 Ry
     smearing contrib. (-TS)   =      -0.00135237 Ry

     convergence has been achieved in  27 iterations

     Forces acting on atoms (cartesian axes, Ry/au):

     atom    1 type  1   force =    -0.00000231   -0.00005213   -0.00000003
     atom    2 type  1   force =    -0.00044389    0.00002819    0.00002853
     atom    3 type  1   force =    -0.00065739    0.00003108   -0.00012366
     atom    4 type  1   force =     0.00065759   -0.00003076    0.00012234
     atom    5 type  1   force =     0.00044321   -0.00002791   -0.00003126
     atom    6 type  2   force =     0.00007441   -0.00002817    0.00041044
     atom    7 type  2   force =    -0.00008536    0.00002253    0.00104151
     atom    8 type  2   force =    -0.00059166    0.00001252   -0.00059734
     atom    9 type  2   force =     0.00059233   -0.00001293    0.00060069
     atom   10 type  2   force =     0.00008655   -0.00002289   -0.00104127
     atom   11 type  2   force =    -0.00007368    0.00002812   -0.00040970
     atom   12 type  1   force =    -0.00000238    0.00005252    0.00000006
     atom   13 type  1   force =    -0.00044398   -0.00002764    0.00002829
     atom   14 type  1   force =    -0.00065724   -0.00003058   -0.00012349
     atom   15 type  1   force =     0.00065774    0.00003095    0.00012251
     atom   16 type  1   force =     0.00044342    0.00002789   -0.00003153
     atom   17 type  2   force =     0.00007486    0.00002768    0.00041018
     atom   18 type  2   force =    -0.00008575   -0.00002333    0.00104284
     atom   19 type  2   force =    -0.00059139   -0.00001352   -0.00059874
     atom   20 type  2   force =     0.00059211    0.00001306    0.00059902
     atom   21 type  2   force =     0.00008618    0.00002310   -0.00103969
     atom   22 type  2   force =    -0.00007338   -0.00002779   -0.00040968
     The non-local contrib.  to forces
     atom    1 type  1   force =    -0.00001356   -0.00010209   -0.00000153
     atom    2 type  1   force =     0.00730100    0.00004939    0.01105348
     atom    3 type  1   force =     0.01701462    0.00006739    0.00324885
     atom    4 type  1   force =    -0.01702939   -0.00006802   -0.00325206
     atom    5 type  1   force =    -0.00731246   -0.00005014   -0.01106589
     atom    6 type  2   force =    -0.00005609   -0.00001970   -0.06317303
     atom    7 type  2   force =     0.04419986    0.00002646    0.01451432
     atom    8 type  2   force =    -0.01376867    0.00001475    0.02665916
     atom    9 type  2   force =     0.01376822   -0.00001442   -0.02665213
     atom   10 type  2   force =    -0.04419969   -0.00002586   -0.01451153
     atom   11 type  2   force =     0.00006010    0.00002050    0.06317363
     atom   12 type  1   force =    -0.00001377    0.00010171   -0.00000162
     atom   13 type  1   force =     0.00729973   -0.00004961    0.01105210
     atom   14 type  1   force =     0.01701416   -0.00006885    0.00324851
     atom   15 type  1   force =    -0.01702967    0.00006823   -0.00325224
     atom   16 type  1   force =    -0.00731344    0.00004889   -0.01106689
     atom   17 type  2   force =    -0.00005697    0.00002030   -0.06317152
     atom   18 type  2   force =     0.04419968   -0.00002642    0.01451458
     atom   19 type  2   force =    -0.01376928   -0.00001216    0.02665736
     atom   20 type  2   force =     0.01376766    0.00001246   -0.02665439
     atom   21 type  2   force =    -0.04419898    0.00002711   -0.01451127
     atom   22 type  2   force =     0.00005860   -0.00001958    0.06317494
     The ionic contribution  to forces
     atom    1 type  1   force =    -0.00003931    0.00002383   -0.00000878
     atom    2 type  1   force =    -0.41786436    0.00013893   -0.38893391
     atom    3 type  1   force =    -0.25453925    0.00014750    0.19881842
     atom    4 type  1   force =     0.25453849   -0.00014896   -0.19882167
     atom    5 type  1   force =     0.41783032   -0.00014109    0.38893870
     atom    6 type  2   force =    -0.24418528   -0.00017603    1.18034180
     atom    7 type  2   force =    -1.15993158    0.00005527   -1.24678105
     atom    8 type  2   force =    -0.09935419    0.00010935    0.73707401
     atom    9 type  2   force =     0.09937275   -0.00010868   -0.73706629
     atom   10 type  2   force =     1.15997202   -0.00005456    1.24677873
     atom   11 type  2   force =     0.24419895    0.00017766   -1.18033990
     atom   12 type  1   force =    -0.00003989   -0.00002270   -0.00000861
     atom   13 type  1   force =    -0.41786459   -0.00014122   -0.38893390
     atom   14 type  1   force =    -0.25453915   -0.00014908    0.19881849
     atom   15 type  1   force =     0.25453889    0.00014771   -0.19882179
     atom   16 type  1   force =     0.41783103    0.00013890    0.38893883
     atom   17 type  2   force =    -0.24418561    0.00017768    1.18034147
     atom   18 type  2   force =    -1.15993126   -0.00005377   -1.24678106
     atom   19 type  2   force =    -0.09935404   -0.00010851    0.73707396
     atom   20 type  2   force =     0.09937336    0.00010845   -0.73706640
     atom   21 type  2   force =     1.15997296    0.00005521    1.24677890
     atom   22 type  2   force =     0.24419976   -0.00017586   -1.18033995
     The local contribution  to forces
     atom    1 type  1   force =     0.00004704    0.00001549    0.00000985
     atom    2 type  1   force =     0.41110306   -0.00015442    0.37842955
     atom    3 type  1   force =     0.23877145   -0.00017610   -0.20162168
     atom    4 type  1   force =    -0.23876125    0.00017789    0.20162592
     atom    5 type  1   force =    -0.41106353    0.00015697   -0.37842665
     atom    6 type  2   force =     0.24415839    0.00016593   -1.12287723
     atom    7 type  2   force =     1.11991786   -0.00005533    1.23439942
     atom    8 type  2   force =     0.11111716   -0.00010917   -0.76137544
     atom    9 type  2   force =    -0.11113441    0.00010885    0.76136603
     atom   10 type  2   force =    -1.11995719    0.00005489   -1.23439918
     atom   11 type  2   force =    -0.24417317   -0.00016728    1.12287605
     atom   12 type  1   force =     0.00004774   -0.00001642    0.00000984
     atom   13 type  1   force =     0.41110436    0.00015687    0.37843054
     atom   14 type  1   force =     0.23877191    0.00017893   -0.20162128
     atom   15 type  1   force =    -0.23876126   -0.00017719    0.20162636
     atom   16 type  1   force =    -0.41106314   -0.00015423   -0.37842615
     atom   17 type  2   force =     0.24415994   -0.00016754   -1.12287851
     atom   18 type  2   force =     1.11991729    0.00005419    1.23440052
     atom   19 type  2   force =     0.11111780    0.00010608   -0.76137518
     atom   20 type  2   force =    -0.11113475   -0.00010570    0.76136649
     atom   21 type  2   force =    -1.11995914   -0.00005534   -1.23439802
     atom   22 type  2   force =    -0.24417236    0.00016603    1.12287497
     The core correction contribution to forces
     atom    1 type  1   force =     0.00000157    0.00001038    0.00000015
     atom    2 type  1   force =    -0.00098563   -0.00000599   -0.00052096
     atom    3 type  1   force =    -0.00190619   -0.00000798   -0.00056949
     atom    4 type  1   force =     0.00190782    0.00000806    0.00056983
     atom    5 type  1   force =     0.00098701    0.00000608    0.00052238
     atom    6 type  2   force =     0.00015542    0.00000135    0.00611886
     atom    7 type  2   force =    -0.00427366   -0.00000413   -0.00109182
     atom    8 type  2   force =     0.00141212   -0.00000266   -0.00295510
     atom    9 type  2   force =    -0.00141618    0.00000103    0.00295254
     atom   10 type  2   force =     0.00426970    0.00000237    0.00109079
     atom   11 type  2   force =    -0.00016147   -0.00000304   -0.00612002
     atom   12 type  1   force =     0.00000159   -0.00001034    0.00000016
     atom   13 type  1   force =    -0.00098551    0.00000603   -0.00052083
     atom   14 type  1   force =    -0.00190614    0.00000814   -0.00056945
     atom   15 type  1   force =     0.00190786   -0.00000807    0.00056985
     atom   16 type  1   force =     0.00098711   -0.00000594    0.00052247
     atom   17 type  2   force =     0.00015551   -0.00000303    0.00611870
     atom   18 type  2   force =    -0.00427365    0.00000239   -0.00109185
     atom   19 type  2   force =     0.00141218    0.00000081   -0.00295490
     atom   20 type  2   force =    -0.00141613   -0.00000244    0.00295279
     atom   21 type  2   force =     0.00426962   -0.00000416    0.00109076
     atom   22 type  2   force =    -0.00016131    0.00000134   -0.00612016
     The Hubbard contrib.    to forces
     atom    1 type  1   force =     0.00000000    0.00000000    0.00000000
     atom    2 type  1   force =     0.00000000    0.00000000    0.00000000
     atom    3 type  1   force =     0.00000000    0.00000000    0.00000000
     atom    4 type  1   force =     0.00000000    0.00000000    0.00000000
     atom    5 type  1   force =     0.00000000    0.00000000    0.00000000
     atom    6 type  2   force =     0.00000000    0.00000000    0.00000000
     atom    7 type  2   force =     0.00000000    0.00000000    0.00000000
     atom    8 type  2   force =     0.00000000    0.00000000    0.00000000
     atom    9 type  2   force =     0.00000000    0.00000000    0.00000000
     atom   10 type  2   force =     0.00000000    0.00000000    0.00000000
     atom   11 type  2   force =     0.00000000    0.00000000    0.00000000
     atom   12 type  1   force =     0.00000000    0.00000000    0.00000000
     atom   13 type  1   force =     0.00000000    0.00000000    0.00000000
     atom   14 type  1   force =     0.00000000    0.00000000    0.00000000
     atom   15 type  1   force =     0.00000000    0.00000000    0.00000000
     atom   16 type  1   force =     0.00000000    0.00000000    0.00000000
     atom   17 type  2   force =     0.00000000    0.00000000    0.00000000
     atom   18 type  2   force =     0.00000000    0.00000000    0.00000000
     atom   19 type  2   force =     0.00000000    0.00000000    0.00000000
     atom   20 type  2   force =     0.00000000    0.00000000    0.00000000
     atom   21 type  2   force =     0.00000000    0.00000000    0.00000000
     atom   22 type  2   force =     0.00000000    0.00000000    0.00000000
     The SCF correction term to forces
     atom    1 type  1   force =     0.00000000   -0.00000000   -0.00000000
     atom    2 type  1   force =     0.00000008    0.00000000    0.00000008
     atom    3 type  1   force =     0.00000003    0.00000000   -0.00000005
     atom    4 type  1   force =    -0.00000003   -0.00000000    0.00000005
     atom    5 type  1   force =    -0.00000009   -0.00000000   -0.00000008
     atom    6 type  2   force =     0.00000002    0.00000000   -0.00000025
     atom    7 type  2   force =     0.00000022   -0.00000001    0.00000035
     atom    8 type  2   force =    -0.00000002   -0.00000001   -0.00000026
     atom    9 type  2   force =     0.00000001    0.00000001    0.00000026
     atom   10 type  2   force =    -0.00000024    0.00000001   -0.00000036
     atom   11 type  2   force =    -0.00000003   -0.00000000    0.00000025
     atom   12 type  1   force =     0.00000000    0.00000000   -0.00000000
     atom   13 type  1   force =     0.00000009    0.00000000    0.00000008
     atom   14 type  1   force =     0.00000003    0.00000000   -0.00000005
     atom   15 type  1   force =    -0.00000003   -0.00000000    0.00000005
     atom   16 type  1   force =    -0.00000008   -0.00000000   -0.00000008
     atom   17 type  2   force =     0.00000004    0.00000000   -0.00000024
     atom   18 type  2   force =     0.00000024   -0.00000001    0.00000035
     atom   19 type  2   force =    -0.00000001   -0.00000001   -0.00000026
     atom   20 type  2   force =     0.00000001    0.00000001    0.00000026
     atom   21 type  2   force =    -0.00000023    0.00000001   -0.00000035
     atom   22 type  2   force =    -0.00000001   -0.00000000    0.00000025

     Total force =     0.003240     Total SCF correction =     0.000001


     Computing stress (Cartesian axis) and pressure

          total   stress  (Ry/bohr**3)                   (kbar)     P=   -4.09
  -0.00002860  -0.00000000  -0.00000856         -4.21     -0.00     -1.26
  -0.00000000  -0.00002880  -0.00000001         -0.00     -4.24     -0.00
  -0.00000856  -0.00000001  -0.00002606         -1.26     -0.00     -3.83

     kinetic stress (kbar)   1567.34     -0.00      0.13
                               -0.00   1589.80     -0.00
                                0.13     -0.00   1587.71

     local   stress (kbar)   -145.83     -0.00    279.20
                               -0.00   -380.32     -0.00
                              279.20     -0.00    181.39

     nonloc. stress (kbar)   1239.36      0.00      2.57
                                0.00   1223.91      0.00
                                2.57      0.00   1224.46

     hartree stress (kbar)    215.66     -0.00   -125.36
                               -0.00    385.69     -0.00
                             -125.36     -0.00    113.53

     exc-cor stress (kbar)   1970.07      0.00      0.09
                                0.00   1969.41      0.00
                                0.09      0.00   1969.45

     corecor stress (kbar)  -2748.71      0.00     -0.39
                                0.00  -2746.85     -0.00
                               -0.39     -0.00  -2746.95

     ewald   stress (kbar)  -2102.11     -0.00   -157.50
                               -0.00  -2045.88     -0.00
                             -157.50     -0.00  -2333.42

     hubbard stress (kbar)      0.00      0.00      0.00
                                0.00      0.00      0.00
                                0.00      0.00      0.00

     london  stress (kbar)      0.00      0.00      0.00
                                0.00      0.00      0.00
                                0.00      0.00      0.00

     DFT-D3  stress (kbar)      0.00      0.00      0.00
                                0.00      0.00      0.00
                                0.00      0.00      0.00

     XDM     stress (kbar)      0.00      0.00      0.00
                                0.00      0.00      0.00
                                0.00      0.00      0.00

     dft-nl  stress (kbar)      0.00      0.00      0.00
                                0.00      0.00      0.00
                                0.00      0.00      0.00

     TS-vdW  stress (kbar)      0.00      0.00      0.00
                                0.00      0.00      0.00
                                0.00      0.00      0.00



     Writing output data file aiida.save/
 
     init_run     :     22.70s CPU     23.08s WALL (       1 calls)
     electrons    :   1143.08s CPU   1158.80s WALL (       1 calls)
     forces       :      9.06s CPU      9.10s WALL (       1 calls)
     stress       :     67.33s CPU     68.89s WALL (       1 calls)

     Called by init_run:
     wfcinit      :     20.95s CPU     21.27s WALL (       1 calls)
     wfcinit:atom :      0.17s CPU      0.18s WALL (     196 calls)
     wfcinit:wfcr :     19.45s CPU     19.69s WALL (     196 calls)
     potinit      :      0.59s CPU      0.60s WALL (       1 calls)
     hinit0       :      1.01s CPU      1.03s WALL (       1 calls)

     Called by electrons:
     c_bands      :   1009.03s CPU   1021.19s WALL (      28 calls)
     sum_band     :    127.91s CPU    130.47s WALL (      28 calls)
     v_of_rho     :      2.59s CPU      2.72s WALL (      28 calls)
     v_h          :      0.19s CPU      0.19s WALL (      28 calls)
     v_xc         :      2.54s CPU      2.67s WALL (      30 calls)
     newd         :      1.42s CPU      2.20s WALL (      28 calls)
     PAW_pot      :      0.91s CPU      0.93s WALL (      28 calls)
     mix_rho      :      0.94s CPU      1.00s WALL (      28 calls)

     Called by c_bands:
     init_us_2    :     36.74s CPU     37.26s WALL (   11564 calls)
     cegterg      :    786.15s CPU    796.50s WALL (    5488 calls)

     Called by sum_band:
     sum_band:bec :      0.77s CPU      0.77s WALL (    5488 calls)
     addusdens    :      1.42s CPU      2.15s WALL (      28 calls)

     Called by *egterg:
     h_psi        :    548.14s CPU    556.74s WALL (   21236 calls)
     s_psi        :     77.81s CPU     78.03s WALL (   21236 calls)
     g_psi        :      3.58s CPU      3.61s WALL (   15552 calls)
     cdiaghg      :     76.79s CPU     77.91s WALL (   20844 calls)
     cegterg:over :     36.56s CPU     36.76s WALL (   15552 calls)
     cegterg:upda :     30.20s CPU     30.49s WALL (   15552 calls)
     cegterg:last :     13.28s CPU     13.40s WALL (    5878 calls)
     cdiaghg:chol :      4.75s CPU      4.79s WALL (   20844 calls)
     cdiaghg:inve :      1.02s CPU      1.03s WALL (   20844 calls)
     cdiaghg:para :      9.72s CPU      9.78s WALL (   41688 calls)

     Called by h_psi:
     h_psi:pot    :    545.29s CPU    553.87s WALL (   21236 calls)
     h_psi:calbec :     76.65s CPU     77.59s WALL (   21236 calls)
     vloc_psi     :    389.96s CPU    397.37s WALL (   21236 calls)
     add_vuspsi   :     78.48s CPU     78.75s WALL (   21236 calls)

     General routines
     calbec       :    151.73s CPU    154.52s WALL (   27704 calls)
     fft          :      2.14s CPU      2.25s WALL (     389 calls)
     ffts         :      0.30s CPU      0.32s WALL (     434 calls)
     fftw         :    422.77s CPU    430.56s WALL ( 1385320 calls)
     interpolate  :      0.22s CPU      0.23s WALL (      28 calls)
 
     Parallel routines
     fft_scatt_xy :     54.00s CPU     55.08s WALL ( 1386143 calls)
     fft_scatt_yz :    164.31s CPU    167.61s WALL ( 1386143 calls)

     PAW routines
     PAW_pot      :      0.91s CPU      0.93s WALL (      28 calls)
 
     PWSCF        :  21m 6.65s CPU  21m39.27s WALL

 
   This run was terminated on:  11:33:43  22Feb2020            

=------------------------------------------------------------------------------=
   JOB DONE.
=------------------------------------------------------------------------------=
