
     Program PWSCF v.6.3 starts on 22Feb2020 at  7:28:47 

     This program is part of the open-source Quantum ESPRESSO suite
     for quantum simulation of materials; please cite
         "P. Giannozzi et al., J. Phys.:Condens. Matter 21 395502 (2009);
         "P. Giannozzi et al., J. Phys.:Condens. Matter 29 465901 (2017);
          URL http://www.quantum-espresso.org", 
     in publications or presentations arising from this work. More details at
     http://www.quantum-espresso.org/quote

 *** WARNING: using old-style file format, will disappear from next version ***

     Parallel version (MPI & OpenMP), running on      36 processor cores
     Number of MPI processes:                36
     Threads/MPI process:                     1

     MPI processes distributed on     1 nodes
     K-points division:     npool     =       4
     R & G space division:  proc/nbgrp/npool/nimage =       9
     Reading input from aiida.in
Warning: card &IONS ignored
Warning: card   !PRESS_CONV_THR = 0.05                 ! JUST FOR VOLUME RELAXATIONS ignored
Warning: card / ignored

     Current dimensions of program PWSCF are:
     Max number of different atomic species (ntypx) = 10
     Max number of k-points (npk) =  40000
     Max angular momentum in pseudopotentials (lmaxx) =  3
               file Al.pbe-n-kjpaw_psl.1.0.0.UPF: wavefunction(s)  3S 3P renormalized

     Subspace diagonalization in iterative solution of the eigenvalue problem:
     one sub-group per band group will be used
     scalapack distributed-memory algorithm (size of sub-group:  2*  2 procs)

     Found symmetry operation: I + (  0.5000  0.5000  0.0000)
     This is a supercell, fractional translations are disabled
 
     Parallelization info
     --------------------
     sticks:   dense  smooth     PW     G-vecs:    dense   smooth      PW
     Min         209      83     25                 6783     1721     289
     Max         209      84     27                 6785     1726     289
     Sum        1881     749    233                61049    15499    2601
 


     bravais-lattice index     =            0
     lattice parameter (alat)  =       7.6667  a.u.
     unit-cell volume          =     450.6319 (a.u.)^3
     number of atoms/cell      =            4
     number of atomic types    =            1
     number of electrons       =        12.00
     number of Kohn-Sham states=           10
     kinetic-energy cutoff     =      40.0000  Ry
     charge density cutoff     =     400.0000  Ry
     convergence threshold     =      1.0E-12
     mixing beta               =       0.4000
     number of iterations used =            8  local-TF  mixing
     Exchange-correlation      = SLA PW PBX PBC ( 1  4  3  4 0 0)

     celldm(1)=   7.666686  celldm(2)=   0.000000  celldm(3)=   0.000000
     celldm(4)=   0.000000  celldm(5)=   0.000000  celldm(6)=   0.000000

     crystal axes: (cart. coord. in units of alat)
               a(1) = (   0.999999   0.001000   0.000000 )  
               a(2) = (   0.001000   0.999999   0.000000 )  
               a(3) = (   0.000000   0.000000   0.999999 )  

     reciprocal axes: (cart. coord. in units 2 pi/alat)
               b(1) = (  1.000002 -0.001000  0.000000 )  
               b(2) = ( -0.001000  1.000002  0.000000 )  
               b(3) = (  0.000000  0.000000  1.000001 )  


     PseudoPot. # 1 for Al read from file:
     /users/aglensk/Dropbox/Albert/scripts/dotfiles/scripts/potentials/quantum_espresso/pseudo_SSSPefV1.1_alalloy/Al.pbe-n-kjpaw_psl.1.0.0.UPF
     MD5 check sum: cfc449ca30b5f3223ec38ddd88ac046d
     Pseudo is Projector augmented-wave + core cor, Zval =  3.0
     Generated using "atomic" code by A. Dal Corso v.5.1
     Shape of augmentation charge: PSQ
     Using radial grid of 1135 points,  6 beta functions with: 
                l(1) =   0
                l(2) =   0
                l(3) =   1
                l(4) =   1
                l(5) =   2
                l(6) =   2
     Q(r) pseudized with 0 coefficients 


     atomic species   valence    mass     pseudopotential
        Al             3.00    26.98154     Al( 1.00)

     No symmetry found


                                    s                        frac. trans.

      isym =  1     identity                                     

 cryst.   s( 1) = (     1          0          0      )
                  (     0          1          0      )
                  (     0          0          1      )

 cart.    s( 1) = (  1.0000000 -0.0000000  0.0000000 )
                  ( -0.0000000  1.0000000  0.0000000 )
                  (  0.0000000  0.0000000  1.0000000 )


   Cartesian axes

     site n.     atom                  positions (alat units)
         1           Al  tau(   1) = (   1.0007485   1.0007485   0.0000000  )
         2           Al  tau(   2) = (   0.5002467   0.5002467   0.0000000  )
         3           Al  tau(   3) = (   0.5007483   1.0002469   0.4999956  )
         4           Al  tau(   4) = (   1.0002469   0.5007483   0.4999956  )

   Crystallographic axes

     site n.     atom                  positions (cryst. coord.)
         1           Al  tau(   1) = (  0.9997492  0.9997492  0.0000000  )
         2           Al  tau(   2) = (  0.4997471  0.4997471  0.0000000  )
         3           Al  tau(   3) = (  0.4997488  0.9997477  0.4999958  )
         4           Al  tau(   4) = (  0.9997477  0.4997488  0.4999958  )

     number of k points=  4004  Methfessel-Paxton smearing, width (Ry)=  0.0441
                       cart. coord. in units 2pi/alat
        k(    1) = (   0.0000000   0.0000000   0.0000000), wk =   0.0002500
        k(    2) = (   0.0000000   0.0000000   0.0500000), wk =   0.0005000
        k(    3) = (   0.0000000   0.0000000   0.1000001), wk =   0.0005000
        k(    4) = (   0.0000000   0.0000000   0.1500001), wk =   0.0005000
        k(    5) = (   0.0000000   0.0000000   0.2000001), wk =   0.0005000
        k(    6) = (   0.0000000   0.0000000   0.2500001), wk =   0.0005000
        k(    7) = (   0.0000000   0.0000000   0.3000002), wk =   0.0005000
        k(    8) = (   0.0000000   0.0000000   0.3500002), wk =   0.0005000
        k(    9) = (   0.0000000   0.0000000   0.4000002), wk =   0.0005000
        k(   10) = (   0.0000000   0.0000000   0.4500002), wk =   0.0005000
        k(   11) = (   0.0000000   0.0000000  -0.5000003), wk =   0.0002500
        k(   12) = (  -0.0000500   0.0500001   0.0000000), wk =   0.0005000
        k(   13) = (  -0.0000500   0.0500001   0.0500000), wk =   0.0005000
        k(   14) = (  -0.0000500   0.0500001   0.1000001), wk =   0.0005000
        k(   15) = (  -0.0000500   0.0500001   0.1500001), wk =   0.0005000
        k(   16) = (  -0.0000500   0.0500001   0.2000001), wk =   0.0005000
        k(   17) = (  -0.0000500   0.0500001   0.2500001), wk =   0.0005000
        k(   18) = (  -0.0000500   0.0500001   0.3000002), wk =   0.0005000
        k(   19) = (  -0.0000500   0.0500001   0.3500002), wk =   0.0005000
        k(   20) = (  -0.0000500   0.0500001   0.4000002), wk =   0.0005000
        k(   21) = (  -0.0000500   0.0500001   0.4500002), wk =   0.0005000
        k(   22) = (  -0.0000500   0.0500001  -0.5000003), wk =   0.0005000
        k(   23) = (  -0.0000500   0.0500001  -0.4500002), wk =   0.0005000
        k(   24) = (  -0.0000500   0.0500001  -0.4000002), wk =   0.0005000
        k(   25) = (  -0.0000500   0.0500001  -0.3500002), wk =   0.0005000
        k(   26) = (  -0.0000500   0.0500001  -0.3000002), wk =   0.0005000
        k(   27) = (  -0.0000500   0.0500001  -0.2500001), wk =   0.0005000
        k(   28) = (  -0.0000500   0.0500001  -0.2000001), wk =   0.0005000
        k(   29) = (  -0.0000500   0.0500001  -0.1500001), wk =   0.0005000
        k(   30) = (  -0.0000500   0.0500001  -0.1000001), wk =   0.0005000
        k(   31) = (  -0.0000500   0.0500001  -0.0500000), wk =   0.0005000
        k(   32) = (  -0.0001000   0.1000002   0.0000000), wk =   0.0005000
        k(   33) = (  -0.0001000   0.1000002   0.0500000), wk =   0.0005000
        k(   34) = (  -0.0001000   0.1000002   0.1000001), wk =   0.0005000
        k(   35) = (  -0.0001000   0.1000002   0.1500001), wk =   0.0005000
        k(   36) = (  -0.0001000   0.1000002   0.2000001), wk =   0.0005000
        k(   37) = (  -0.0001000   0.1000002   0.2500001), wk =   0.0005000
        k(   38) = (  -0.0001000   0.1000002   0.3000002), wk =   0.0005000
        k(   39) = (  -0.0001000   0.1000002   0.3500002), wk =   0.0005000
        k(   40) = (  -0.0001000   0.1000002   0.4000002), wk =   0.0005000
        k(   41) = (  -0.0001000   0.1000002   0.4500002), wk =   0.0005000
        k(   42) = (  -0.0001000   0.1000002  -0.5000003), wk =   0.0005000
        k(   43) = (  -0.0001000   0.1000002  -0.4500002), wk =   0.0005000
        k(   44) = (  -0.0001000   0.1000002  -0.4000002), wk =   0.0005000
        k(   45) = (  -0.0001000   0.1000002  -0.3500002), wk =   0.0005000
        k(   46) = (  -0.0001000   0.1000002  -0.3000002), wk =   0.0005000
        k(   47) = (  -0.0001000   0.1000002  -0.2500001), wk =   0.0005000
        k(   48) = (  -0.0001000   0.1000002  -0.2000001), wk =   0.0005000
        k(   49) = (  -0.0001000   0.1000002  -0.1500001), wk =   0.0005000
        k(   50) = (  -0.0001000   0.1000002  -0.1000001), wk =   0.0005000
        k(   51) = (  -0.0001000   0.1000002  -0.0500000), wk =   0.0005000
        k(   52) = (  -0.0001500   0.1500002   0.0000000), wk =   0.0005000
        k(   53) = (  -0.0001500   0.1500002   0.0500000), wk =   0.0005000
        k(   54) = (  -0.0001500   0.1500002   0.1000001), wk =   0.0005000
        k(   55) = (  -0.0001500   0.1500002   0.1500001), wk =   0.0005000
        k(   56) = (  -0.0001500   0.1500002   0.2000001), wk =   0.0005000
        k(   57) = (  -0.0001500   0.1500002   0.2500001), wk =   0.0005000
        k(   58) = (  -0.0001500   0.1500002   0.3000002), wk =   0.0005000
        k(   59) = (  -0.0001500   0.1500002   0.3500002), wk =   0.0005000
        k(   60) = (  -0.0001500   0.1500002   0.4000002), wk =   0.0005000
        k(   61) = (  -0.0001500   0.1500002   0.4500002), wk =   0.0005000
        k(   62) = (  -0.0001500   0.1500002  -0.5000003), wk =   0.0005000
        k(   63) = (  -0.0001500   0.1500002  -0.4500002), wk =   0.0005000
        k(   64) = (  -0.0001500   0.1500002  -0.4000002), wk =   0.0005000
        k(   65) = (  -0.0001500   0.1500002  -0.3500002), wk =   0.0005000
        k(   66) = (  -0.0001500   0.1500002  -0.3000002), wk =   0.0005000
        k(   67) = (  -0.0001500   0.1500002  -0.2500001), wk =   0.0005000
        k(   68) = (  -0.0001500   0.1500002  -0.2000001), wk =   0.0005000
        k(   69) = (  -0.0001500   0.1500002  -0.1500001), wk =   0.0005000
        k(   70) = (  -0.0001500   0.1500002  -0.1000001), wk =   0.0005000
        k(   71) = (  -0.0001500   0.1500002  -0.0500000), wk =   0.0005000
        k(   72) = (  -0.0002000   0.2000003   0.0000000), wk =   0.0005000
        k(   73) = (  -0.0002000   0.2000003   0.0500000), wk =   0.0005000
        k(   74) = (  -0.0002000   0.2000003   0.1000001), wk =   0.0005000
        k(   75) = (  -0.0002000   0.2000003   0.1500001), wk =   0.0005000
        k(   76) = (  -0.0002000   0.2000003   0.2000001), wk =   0.0005000
        k(   77) = (  -0.0002000   0.2000003   0.2500001), wk =   0.0005000
        k(   78) = (  -0.0002000   0.2000003   0.3000002), wk =   0.0005000
        k(   79) = (  -0.0002000   0.2000003   0.3500002), wk =   0.0005000
        k(   80) = (  -0.0002000   0.2000003   0.4000002), wk =   0.0005000
        k(   81) = (  -0.0002000   0.2000003   0.4500002), wk =   0.0005000
        k(   82) = (  -0.0002000   0.2000003  -0.5000003), wk =   0.0005000
        k(   83) = (  -0.0002000   0.2000003  -0.4500002), wk =   0.0005000
        k(   84) = (  -0.0002000   0.2000003  -0.4000002), wk =   0.0005000
        k(   85) = (  -0.0002000   0.2000003  -0.3500002), wk =   0.0005000
        k(   86) = (  -0.0002000   0.2000003  -0.3000002), wk =   0.0005000
        k(   87) = (  -0.0002000   0.2000003  -0.2500001), wk =   0.0005000
        k(   88) = (  -0.0002000   0.2000003  -0.2000001), wk =   0.0005000
        k(   89) = (  -0.0002000   0.2000003  -0.1500001), wk =   0.0005000
        k(   90) = (  -0.0002000   0.2000003  -0.1000001), wk =   0.0005000
        k(   91) = (  -0.0002000   0.2000003  -0.0500000), wk =   0.0005000
        k(   92) = (  -0.0002500   0.2500004   0.0000000), wk =   0.0005000
        k(   93) = (  -0.0002500   0.2500004   0.0500000), wk =   0.0005000
        k(   94) = (  -0.0002500   0.2500004   0.1000001), wk =   0.0005000
        k(   95) = (  -0.0002500   0.2500004   0.1500001), wk =   0.0005000
        k(   96) = (  -0.0002500   0.2500004   0.2000001), wk =   0.0005000
        k(   97) = (  -0.0002500   0.2500004   0.2500001), wk =   0.0005000
        k(   98) = (  -0.0002500   0.2500004   0.3000002), wk =   0.0005000
        k(   99) = (  -0.0002500   0.2500004   0.3500002), wk =   0.0005000
        k(  100) = (  -0.0002500   0.2500004   0.4000002), wk =   0.0005000
        k(  101) = (  -0.0002500   0.2500004   0.4500002), wk =   0.0005000
        k(  102) = (  -0.0002500   0.2500004  -0.5000003), wk =   0.0005000
        k(  103) = (  -0.0002500   0.2500004  -0.4500002), wk =   0.0005000
        k(  104) = (  -0.0002500   0.2500004  -0.4000002), wk =   0.0005000
        k(  105) = (  -0.0002500   0.2500004  -0.3500002), wk =   0.0005000
        k(  106) = (  -0.0002500   0.2500004  -0.3000002), wk =   0.0005000
        k(  107) = (  -0.0002500   0.2500004  -0.2500001), wk =   0.0005000
        k(  108) = (  -0.0002500   0.2500004  -0.2000001), wk =   0.0005000
        k(  109) = (  -0.0002500   0.2500004  -0.1500001), wk =   0.0005000
        k(  110) = (  -0.0002500   0.2500004  -0.1000001), wk =   0.0005000
        k(  111) = (  -0.0002500   0.2500004  -0.0500000), wk =   0.0005000
        k(  112) = (  -0.0003000   0.3000005   0.0000000), wk =   0.0005000
        k(  113) = (  -0.0003000   0.3000005   0.0500000), wk =   0.0005000
        k(  114) = (  -0.0003000   0.3000005   0.1000001), wk =   0.0005000
        k(  115) = (  -0.0003000   0.3000005   0.1500001), wk =   0.0005000
        k(  116) = (  -0.0003000   0.3000005   0.2000001), wk =   0.0005000
        k(  117) = (  -0.0003000   0.3000005   0.2500001), wk =   0.0005000
        k(  118) = (  -0.0003000   0.3000005   0.3000002), wk =   0.0005000
        k(  119) = (  -0.0003000   0.3000005   0.3500002), wk =   0.0005000
        k(  120) = (  -0.0003000   0.3000005   0.4000002), wk =   0.0005000
        k(  121) = (  -0.0003000   0.3000005   0.4500002), wk =   0.0005000
        k(  122) = (  -0.0003000   0.3000005  -0.5000003), wk =   0.0005000
        k(  123) = (  -0.0003000   0.3000005  -0.4500002), wk =   0.0005000
        k(  124) = (  -0.0003000   0.3000005  -0.4000002), wk =   0.0005000
        k(  125) = (  -0.0003000   0.3000005  -0.3500002), wk =   0.0005000
        k(  126) = (  -0.0003000   0.3000005  -0.3000002), wk =   0.0005000
        k(  127) = (  -0.0003000   0.3000005  -0.2500001), wk =   0.0005000
        k(  128) = (  -0.0003000   0.3000005  -0.2000001), wk =   0.0005000
        k(  129) = (  -0.0003000   0.3000005  -0.1500001), wk =   0.0005000
        k(  130) = (  -0.0003000   0.3000005  -0.1000001), wk =   0.0005000
        k(  131) = (  -0.0003000   0.3000005  -0.0500000), wk =   0.0005000
        k(  132) = (  -0.0003500   0.3500005   0.0000000), wk =   0.0005000
        k(  133) = (  -0.0003500   0.3500005   0.0500000), wk =   0.0005000
        k(  134) = (  -0.0003500   0.3500005   0.1000001), wk =   0.0005000
        k(  135) = (  -0.0003500   0.3500005   0.1500001), wk =   0.0005000
        k(  136) = (  -0.0003500   0.3500005   0.2000001), wk =   0.0005000
        k(  137) = (  -0.0003500   0.3500005   0.2500001), wk =   0.0005000
        k(  138) = (  -0.0003500   0.3500005   0.3000002), wk =   0.0005000
        k(  139) = (  -0.0003500   0.3500005   0.3500002), wk =   0.0005000
        k(  140) = (  -0.0003500   0.3500005   0.4000002), wk =   0.0005000
        k(  141) = (  -0.0003500   0.3500005   0.4500002), wk =   0.0005000
        k(  142) = (  -0.0003500   0.3500005  -0.5000003), wk =   0.0005000
        k(  143) = (  -0.0003500   0.3500005  -0.4500002), wk =   0.0005000
        k(  144) = (  -0.0003500   0.3500005  -0.4000002), wk =   0.0005000
        k(  145) = (  -0.0003500   0.3500005  -0.3500002), wk =   0.0005000
        k(  146) = (  -0.0003500   0.3500005  -0.3000002), wk =   0.0005000
        k(  147) = (  -0.0003500   0.3500005  -0.2500001), wk =   0.0005000
        k(  148) = (  -0.0003500   0.3500005  -0.2000001), wk =   0.0005000
        k(  149) = (  -0.0003500   0.3500005  -0.1500001), wk =   0.0005000
        k(  150) = (  -0.0003500   0.3500005  -0.1000001), wk =   0.0005000
        k(  151) = (  -0.0003500   0.3500005  -0.0500000), wk =   0.0005000
        k(  152) = (  -0.0004000   0.4000006   0.0000000), wk =   0.0005000
        k(  153) = (  -0.0004000   0.4000006   0.0500000), wk =   0.0005000
        k(  154) = (  -0.0004000   0.4000006   0.1000001), wk =   0.0005000
        k(  155) = (  -0.0004000   0.4000006   0.1500001), wk =   0.0005000
        k(  156) = (  -0.0004000   0.4000006   0.2000001), wk =   0.0005000
        k(  157) = (  -0.0004000   0.4000006   0.2500001), wk =   0.0005000
        k(  158) = (  -0.0004000   0.4000006   0.3000002), wk =   0.0005000
        k(  159) = (  -0.0004000   0.4000006   0.3500002), wk =   0.0005000
        k(  160) = (  -0.0004000   0.4000006   0.4000002), wk =   0.0005000
        k(  161) = (  -0.0004000   0.4000006   0.4500002), wk =   0.0005000
        k(  162) = (  -0.0004000   0.4000006  -0.5000003), wk =   0.0005000
        k(  163) = (  -0.0004000   0.4000006  -0.4500002), wk =   0.0005000
        k(  164) = (  -0.0004000   0.4000006  -0.4000002), wk =   0.0005000
        k(  165) = (  -0.0004000   0.4000006  -0.3500002), wk =   0.0005000
        k(  166) = (  -0.0004000   0.4000006  -0.3000002), wk =   0.0005000
        k(  167) = (  -0.0004000   0.4000006  -0.2500001), wk =   0.0005000
        k(  168) = (  -0.0004000   0.4000006  -0.2000001), wk =   0.0005000
        k(  169) = (  -0.0004000   0.4000006  -0.1500001), wk =   0.0005000
        k(  170) = (  -0.0004000   0.4000006  -0.1000001), wk =   0.0005000
        k(  171) = (  -0.0004000   0.4000006  -0.0500000), wk =   0.0005000
        k(  172) = (  -0.0004500   0.4500007   0.0000000), wk =   0.0005000
        k(  173) = (  -0.0004500   0.4500007   0.0500000), wk =   0.0005000
        k(  174) = (  -0.0004500   0.4500007   0.1000001), wk =   0.0005000
        k(  175) = (  -0.0004500   0.4500007   0.1500001), wk =   0.0005000
        k(  176) = (  -0.0004500   0.4500007   0.2000001), wk =   0.0005000
        k(  177) = (  -0.0004500   0.4500007   0.2500001), wk =   0.0005000
        k(  178) = (  -0.0004500   0.4500007   0.3000002), wk =   0.0005000
        k(  179) = (  -0.0004500   0.4500007   0.3500002), wk =   0.0005000
        k(  180) = (  -0.0004500   0.4500007   0.4000002), wk =   0.0005000
        k(  181) = (  -0.0004500   0.4500007   0.4500002), wk =   0.0005000
        k(  182) = (  -0.0004500   0.4500007  -0.5000003), wk =   0.0005000
        k(  183) = (  -0.0004500   0.4500007  -0.4500002), wk =   0.0005000
        k(  184) = (  -0.0004500   0.4500007  -0.4000002), wk =   0.0005000
        k(  185) = (  -0.0004500   0.4500007  -0.3500002), wk =   0.0005000
        k(  186) = (  -0.0004500   0.4500007  -0.3000002), wk =   0.0005000
        k(  187) = (  -0.0004500   0.4500007  -0.2500001), wk =   0.0005000
        k(  188) = (  -0.0004500   0.4500007  -0.2000001), wk =   0.0005000
        k(  189) = (  -0.0004500   0.4500007  -0.1500001), wk =   0.0005000
        k(  190) = (  -0.0004500   0.4500007  -0.1000001), wk =   0.0005000
        k(  191) = (  -0.0004500   0.4500007  -0.0500000), wk =   0.0005000
        k(  192) = (   0.0005000  -0.5000008   0.0000000), wk =   0.0002500
        k(  193) = (   0.0005000  -0.5000008   0.0500000), wk =   0.0005000
        k(  194) = (   0.0005000  -0.5000008   0.1000001), wk =   0.0005000
        k(  195) = (   0.0005000  -0.5000008   0.1500001), wk =   0.0005000
        k(  196) = (   0.0005000  -0.5000008   0.2000001), wk =   0.0005000
        k(  197) = (   0.0005000  -0.5000008   0.2500001), wk =   0.0005000
        k(  198) = (   0.0005000  -0.5000008   0.3000002), wk =   0.0005000
        k(  199) = (   0.0005000  -0.5000008   0.3500002), wk =   0.0005000
        k(  200) = (   0.0005000  -0.5000008   0.4000002), wk =   0.0005000
        k(  201) = (   0.0005000  -0.5000008   0.4500002), wk =   0.0005000
        k(  202) = (   0.0005000  -0.5000008  -0.5000003), wk =   0.0002500
        k(  203) = (   0.0500001  -0.0000500   0.0000000), wk =   0.0005000
        k(  204) = (   0.0500001  -0.0000500   0.0500000), wk =   0.0005000
        k(  205) = (   0.0500001  -0.0000500   0.1000001), wk =   0.0005000
        k(  206) = (   0.0500001  -0.0000500   0.1500001), wk =   0.0005000
        k(  207) = (   0.0500001  -0.0000500   0.2000001), wk =   0.0005000
        k(  208) = (   0.0500001  -0.0000500   0.2500001), wk =   0.0005000
        k(  209) = (   0.0500001  -0.0000500   0.3000002), wk =   0.0005000
        k(  210) = (   0.0500001  -0.0000500   0.3500002), wk =   0.0005000
        k(  211) = (   0.0500001  -0.0000500   0.4000002), wk =   0.0005000
        k(  212) = (   0.0500001  -0.0000500   0.4500002), wk =   0.0005000
        k(  213) = (   0.0500001  -0.0000500  -0.5000003), wk =   0.0005000
        k(  214) = (   0.0500001  -0.0000500  -0.4500002), wk =   0.0005000
        k(  215) = (   0.0500001  -0.0000500  -0.4000002), wk =   0.0005000
        k(  216) = (   0.0500001  -0.0000500  -0.3500002), wk =   0.0005000
        k(  217) = (   0.0500001  -0.0000500  -0.3000002), wk =   0.0005000
        k(  218) = (   0.0500001  -0.0000500  -0.2500001), wk =   0.0005000
        k(  219) = (   0.0500001  -0.0000500  -0.2000001), wk =   0.0005000
        k(  220) = (   0.0500001  -0.0000500  -0.1500001), wk =   0.0005000
        k(  221) = (   0.0500001  -0.0000500  -0.1000001), wk =   0.0005000
        k(  222) = (   0.0500001  -0.0000500  -0.0500000), wk =   0.0005000
        k(  223) = (   0.0499501   0.0499501   0.0000000), wk =   0.0005000
        k(  224) = (   0.0499501   0.0499501   0.0500000), wk =   0.0005000
        k(  225) = (   0.0499501   0.0499501   0.1000001), wk =   0.0005000
        k(  226) = (   0.0499501   0.0499501   0.1500001), wk =   0.0005000
        k(  227) = (   0.0499501   0.0499501   0.2000001), wk =   0.0005000
        k(  228) = (   0.0499501   0.0499501   0.2500001), wk =   0.0005000
        k(  229) = (   0.0499501   0.0499501   0.3000002), wk =   0.0005000
        k(  230) = (   0.0499501   0.0499501   0.3500002), wk =   0.0005000
        k(  231) = (   0.0499501   0.0499501   0.4000002), wk =   0.0005000
        k(  232) = (   0.0499501   0.0499501   0.4500002), wk =   0.0005000
        k(  233) = (   0.0499501   0.0499501  -0.5000003), wk =   0.0005000
        k(  234) = (   0.0499501   0.0499501  -0.4500002), wk =   0.0005000
        k(  235) = (   0.0499501   0.0499501  -0.4000002), wk =   0.0005000
        k(  236) = (   0.0499501   0.0499501  -0.3500002), wk =   0.0005000
        k(  237) = (   0.0499501   0.0499501  -0.3000002), wk =   0.0005000
        k(  238) = (   0.0499501   0.0499501  -0.2500001), wk =   0.0005000
        k(  239) = (   0.0499501   0.0499501  -0.2000001), wk =   0.0005000
        k(  240) = (   0.0499501   0.0499501  -0.1500001), wk =   0.0005000
        k(  241) = (   0.0499501   0.0499501  -0.1000001), wk =   0.0005000
        k(  242) = (   0.0499501   0.0499501  -0.0500000), wk =   0.0005000
        k(  243) = (   0.0499001   0.0999501   0.0000000), wk =   0.0005000
        k(  244) = (   0.0499001   0.0999501   0.0500000), wk =   0.0005000
        k(  245) = (   0.0499001   0.0999501   0.1000001), wk =   0.0005000
        k(  246) = (   0.0499001   0.0999501   0.1500001), wk =   0.0005000
        k(  247) = (   0.0499001   0.0999501   0.2000001), wk =   0.0005000
        k(  248) = (   0.0499001   0.0999501   0.2500001), wk =   0.0005000
        k(  249) = (   0.0499001   0.0999501   0.3000002), wk =   0.0005000
        k(  250) = (   0.0499001   0.0999501   0.3500002), wk =   0.0005000
        k(  251) = (   0.0499001   0.0999501   0.4000002), wk =   0.0005000
        k(  252) = (   0.0499001   0.0999501   0.4500002), wk =   0.0005000
        k(  253) = (   0.0499001   0.0999501  -0.5000003), wk =   0.0005000
        k(  254) = (   0.0499001   0.0999501  -0.4500002), wk =   0.0005000
        k(  255) = (   0.0499001   0.0999501  -0.4000002), wk =   0.0005000
        k(  256) = (   0.0499001   0.0999501  -0.3500002), wk =   0.0005000
        k(  257) = (   0.0499001   0.0999501  -0.3000002), wk =   0.0005000
        k(  258) = (   0.0499001   0.0999501  -0.2500001), wk =   0.0005000
        k(  259) = (   0.0499001   0.0999501  -0.2000001), wk =   0.0005000
        k(  260) = (   0.0499001   0.0999501  -0.1500001), wk =   0.0005000
        k(  261) = (   0.0499001   0.0999501  -0.1000001), wk =   0.0005000
        k(  262) = (   0.0499001   0.0999501  -0.0500000), wk =   0.0005000
        k(  263) = (   0.0498501   0.1499502   0.0000000), wk =   0.0005000
        k(  264) = (   0.0498501   0.1499502   0.0500000), wk =   0.0005000
        k(  265) = (   0.0498501   0.1499502   0.1000001), wk =   0.0005000
        k(  266) = (   0.0498501   0.1499502   0.1500001), wk =   0.0005000
        k(  267) = (   0.0498501   0.1499502   0.2000001), wk =   0.0005000
        k(  268) = (   0.0498501   0.1499502   0.2500001), wk =   0.0005000
        k(  269) = (   0.0498501   0.1499502   0.3000002), wk =   0.0005000
        k(  270) = (   0.0498501   0.1499502   0.3500002), wk =   0.0005000
        k(  271) = (   0.0498501   0.1499502   0.4000002), wk =   0.0005000
        k(  272) = (   0.0498501   0.1499502   0.4500002), wk =   0.0005000
        k(  273) = (   0.0498501   0.1499502  -0.5000003), wk =   0.0005000
        k(  274) = (   0.0498501   0.1499502  -0.4500002), wk =   0.0005000
        k(  275) = (   0.0498501   0.1499502  -0.4000002), wk =   0.0005000
        k(  276) = (   0.0498501   0.1499502  -0.3500002), wk =   0.0005000
        k(  277) = (   0.0498501   0.1499502  -0.3000002), wk =   0.0005000
        k(  278) = (   0.0498501   0.1499502  -0.2500001), wk =   0.0005000
        k(  279) = (   0.0498501   0.1499502  -0.2000001), wk =   0.0005000
        k(  280) = (   0.0498501   0.1499502  -0.1500001), wk =   0.0005000
        k(  281) = (   0.0498501   0.1499502  -0.1000001), wk =   0.0005000
        k(  282) = (   0.0498501   0.1499502  -0.0500000), wk =   0.0005000
        k(  283) = (   0.0498001   0.1999503   0.0000000), wk =   0.0005000
        k(  284) = (   0.0498001   0.1999503   0.0500000), wk =   0.0005000
        k(  285) = (   0.0498001   0.1999503   0.1000001), wk =   0.0005000
        k(  286) = (   0.0498001   0.1999503   0.1500001), wk =   0.0005000
        k(  287) = (   0.0498001   0.1999503   0.2000001), wk =   0.0005000
        k(  288) = (   0.0498001   0.1999503   0.2500001), wk =   0.0005000
        k(  289) = (   0.0498001   0.1999503   0.3000002), wk =   0.0005000
        k(  290) = (   0.0498001   0.1999503   0.3500002), wk =   0.0005000
        k(  291) = (   0.0498001   0.1999503   0.4000002), wk =   0.0005000
        k(  292) = (   0.0498001   0.1999503   0.4500002), wk =   0.0005000
        k(  293) = (   0.0498001   0.1999503  -0.5000003), wk =   0.0005000
        k(  294) = (   0.0498001   0.1999503  -0.4500002), wk =   0.0005000
        k(  295) = (   0.0498001   0.1999503  -0.4000002), wk =   0.0005000
        k(  296) = (   0.0498001   0.1999503  -0.3500002), wk =   0.0005000
        k(  297) = (   0.0498001   0.1999503  -0.3000002), wk =   0.0005000
        k(  298) = (   0.0498001   0.1999503  -0.2500001), wk =   0.0005000
        k(  299) = (   0.0498001   0.1999503  -0.2000001), wk =   0.0005000
        k(  300) = (   0.0498001   0.1999503  -0.1500001), wk =   0.0005000
        k(  301) = (   0.0498001   0.1999503  -0.1000001), wk =   0.0005000
        k(  302) = (   0.0498001   0.1999503  -0.0500000), wk =   0.0005000
        k(  303) = (   0.0497501   0.2499504   0.0000000), wk =   0.0005000
        k(  304) = (   0.0497501   0.2499504   0.0500000), wk =   0.0005000
        k(  305) = (   0.0497501   0.2499504   0.1000001), wk =   0.0005000
        k(  306) = (   0.0497501   0.2499504   0.1500001), wk =   0.0005000
        k(  307) = (   0.0497501   0.2499504   0.2000001), wk =   0.0005000
        k(  308) = (   0.0497501   0.2499504   0.2500001), wk =   0.0005000
        k(  309) = (   0.0497501   0.2499504   0.3000002), wk =   0.0005000
        k(  310) = (   0.0497501   0.2499504   0.3500002), wk =   0.0005000
        k(  311) = (   0.0497501   0.2499504   0.4000002), wk =   0.0005000
        k(  312) = (   0.0497501   0.2499504   0.4500002), wk =   0.0005000
        k(  313) = (   0.0497501   0.2499504  -0.5000003), wk =   0.0005000
        k(  314) = (   0.0497501   0.2499504  -0.4500002), wk =   0.0005000
        k(  315) = (   0.0497501   0.2499504  -0.4000002), wk =   0.0005000
        k(  316) = (   0.0497501   0.2499504  -0.3500002), wk =   0.0005000
        k(  317) = (   0.0497501   0.2499504  -0.3000002), wk =   0.0005000
        k(  318) = (   0.0497501   0.2499504  -0.2500001), wk =   0.0005000
        k(  319) = (   0.0497501   0.2499504  -0.2000001), wk =   0.0005000
        k(  320) = (   0.0497501   0.2499504  -0.1500001), wk =   0.0005000
        k(  321) = (   0.0497501   0.2499504  -0.1000001), wk =   0.0005000
        k(  322) = (   0.0497501   0.2499504  -0.0500000), wk =   0.0005000
        k(  323) = (   0.0497001   0.2999504   0.0000000), wk =   0.0005000
        k(  324) = (   0.0497001   0.2999504   0.0500000), wk =   0.0005000
        k(  325) = (   0.0497001   0.2999504   0.1000001), wk =   0.0005000
        k(  326) = (   0.0497001   0.2999504   0.1500001), wk =   0.0005000
        k(  327) = (   0.0497001   0.2999504   0.2000001), wk =   0.0005000
        k(  328) = (   0.0497001   0.2999504   0.2500001), wk =   0.0005000
        k(  329) = (   0.0497001   0.2999504   0.3000002), wk =   0.0005000
        k(  330) = (   0.0497001   0.2999504   0.3500002), wk =   0.0005000
        k(  331) = (   0.0497001   0.2999504   0.4000002), wk =   0.0005000
        k(  332) = (   0.0497001   0.2999504   0.4500002), wk =   0.0005000
        k(  333) = (   0.0497001   0.2999504  -0.5000003), wk =   0.0005000
        k(  334) = (   0.0497001   0.2999504  -0.4500002), wk =   0.0005000
        k(  335) = (   0.0497001   0.2999504  -0.4000002), wk =   0.0005000
        k(  336) = (   0.0497001   0.2999504  -0.3500002), wk =   0.0005000
        k(  337) = (   0.0497001   0.2999504  -0.3000002), wk =   0.0005000
        k(  338) = (   0.0497001   0.2999504  -0.2500001), wk =   0.0005000
        k(  339) = (   0.0497001   0.2999504  -0.2000001), wk =   0.0005000
        k(  340) = (   0.0497001   0.2999504  -0.1500001), wk =   0.0005000
        k(  341) = (   0.0497001   0.2999504  -0.1000001), wk =   0.0005000
        k(  342) = (   0.0497001   0.2999504  -0.0500000), wk =   0.0005000
        k(  343) = (   0.0496501   0.3499505   0.0000000), wk =   0.0005000
        k(  344) = (   0.0496501   0.3499505   0.0500000), wk =   0.0005000
        k(  345) = (   0.0496501   0.3499505   0.1000001), wk =   0.0005000
        k(  346) = (   0.0496501   0.3499505   0.1500001), wk =   0.0005000
        k(  347) = (   0.0496501   0.3499505   0.2000001), wk =   0.0005000
        k(  348) = (   0.0496501   0.3499505   0.2500001), wk =   0.0005000
        k(  349) = (   0.0496501   0.3499505   0.3000002), wk =   0.0005000
        k(  350) = (   0.0496501   0.3499505   0.3500002), wk =   0.0005000
        k(  351) = (   0.0496501   0.3499505   0.4000002), wk =   0.0005000
        k(  352) = (   0.0496501   0.3499505   0.4500002), wk =   0.0005000
        k(  353) = (   0.0496501   0.3499505  -0.5000003), wk =   0.0005000
        k(  354) = (   0.0496501   0.3499505  -0.4500002), wk =   0.0005000
        k(  355) = (   0.0496501   0.3499505  -0.4000002), wk =   0.0005000
        k(  356) = (   0.0496501   0.3499505  -0.3500002), wk =   0.0005000
        k(  357) = (   0.0496501   0.3499505  -0.3000002), wk =   0.0005000
        k(  358) = (   0.0496501   0.3499505  -0.2500001), wk =   0.0005000
        k(  359) = (   0.0496501   0.3499505  -0.2000001), wk =   0.0005000
        k(  360) = (   0.0496501   0.3499505  -0.1500001), wk =   0.0005000
        k(  361) = (   0.0496501   0.3499505  -0.1000001), wk =   0.0005000
        k(  362) = (   0.0496501   0.3499505  -0.0500000), wk =   0.0005000
        k(  363) = (   0.0496001   0.3999506   0.0000000), wk =   0.0005000
        k(  364) = (   0.0496001   0.3999506   0.0500000), wk =   0.0005000
        k(  365) = (   0.0496001   0.3999506   0.1000001), wk =   0.0005000
        k(  366) = (   0.0496001   0.3999506   0.1500001), wk =   0.0005000
        k(  367) = (   0.0496001   0.3999506   0.2000001), wk =   0.0005000
        k(  368) = (   0.0496001   0.3999506   0.2500001), wk =   0.0005000
        k(  369) = (   0.0496001   0.3999506   0.3000002), wk =   0.0005000
        k(  370) = (   0.0496001   0.3999506   0.3500002), wk =   0.0005000
        k(  371) = (   0.0496001   0.3999506   0.4000002), wk =   0.0005000
        k(  372) = (   0.0496001   0.3999506   0.4500002), wk =   0.0005000
        k(  373) = (   0.0496001   0.3999506  -0.5000003), wk =   0.0005000
        k(  374) = (   0.0496001   0.3999506  -0.4500002), wk =   0.0005000
        k(  375) = (   0.0496001   0.3999506  -0.4000002), wk =   0.0005000
        k(  376) = (   0.0496001   0.3999506  -0.3500002), wk =   0.0005000
        k(  377) = (   0.0496001   0.3999506  -0.3000002), wk =   0.0005000
        k(  378) = (   0.0496001   0.3999506  -0.2500001), wk =   0.0005000
        k(  379) = (   0.0496001   0.3999506  -0.2000001), wk =   0.0005000
        k(  380) = (   0.0496001   0.3999506  -0.1500001), wk =   0.0005000
        k(  381) = (   0.0496001   0.3999506  -0.1000001), wk =   0.0005000
        k(  382) = (   0.0496001   0.3999506  -0.0500000), wk =   0.0005000
        k(  383) = (   0.0495501   0.4499507   0.0000000), wk =   0.0005000
        k(  384) = (   0.0495501   0.4499507   0.0500000), wk =   0.0005000
        k(  385) = (   0.0495501   0.4499507   0.1000001), wk =   0.0005000
        k(  386) = (   0.0495501   0.4499507   0.1500001), wk =   0.0005000
        k(  387) = (   0.0495501   0.4499507   0.2000001), wk =   0.0005000
        k(  388) = (   0.0495501   0.4499507   0.2500001), wk =   0.0005000
        k(  389) = (   0.0495501   0.4499507   0.3000002), wk =   0.0005000
        k(  390) = (   0.0495501   0.4499507   0.3500002), wk =   0.0005000
        k(  391) = (   0.0495501   0.4499507   0.4000002), wk =   0.0005000
        k(  392) = (   0.0495501   0.4499507   0.4500002), wk =   0.0005000
        k(  393) = (   0.0495501   0.4499507  -0.5000003), wk =   0.0005000
        k(  394) = (   0.0495501   0.4499507  -0.4500002), wk =   0.0005000
        k(  395) = (   0.0495501   0.4499507  -0.4000002), wk =   0.0005000
        k(  396) = (   0.0495501   0.4499507  -0.3500002), wk =   0.0005000
        k(  397) = (   0.0495501   0.4499507  -0.3000002), wk =   0.0005000
        k(  398) = (   0.0495501   0.4499507  -0.2500001), wk =   0.0005000
        k(  399) = (   0.0495501   0.4499507  -0.2000001), wk =   0.0005000
        k(  400) = (   0.0495501   0.4499507  -0.1500001), wk =   0.0005000
        k(  401) = (   0.0495501   0.4499507  -0.1000001), wk =   0.0005000
        k(  402) = (   0.0495501   0.4499507  -0.0500000), wk =   0.0005000
        k(  403) = (   0.0505001  -0.5000508   0.0000000), wk =   0.0005000
        k(  404) = (   0.0505001  -0.5000508   0.0500000), wk =   0.0005000
        k(  405) = (   0.0505001  -0.5000508   0.1000001), wk =   0.0005000
        k(  406) = (   0.0505001  -0.5000508   0.1500001), wk =   0.0005000
        k(  407) = (   0.0505001  -0.5000508   0.2000001), wk =   0.0005000
        k(  408) = (   0.0505001  -0.5000508   0.2500001), wk =   0.0005000
        k(  409) = (   0.0505001  -0.5000508   0.3000002), wk =   0.0005000
        k(  410) = (   0.0505001  -0.5000508   0.3500002), wk =   0.0005000
        k(  411) = (   0.0505001  -0.5000508   0.4000002), wk =   0.0005000
        k(  412) = (   0.0505001  -0.5000508   0.4500002), wk =   0.0005000
        k(  413) = (   0.0505001  -0.5000508  -0.5000003), wk =   0.0005000
        k(  414) = (   0.0505001  -0.5000508  -0.4500002), wk =   0.0005000
        k(  415) = (   0.0505001  -0.5000508  -0.4000002), wk =   0.0005000
        k(  416) = (   0.0505001  -0.5000508  -0.3500002), wk =   0.0005000
        k(  417) = (   0.0505001  -0.5000508  -0.3000002), wk =   0.0005000
        k(  418) = (   0.0505001  -0.5000508  -0.2500001), wk =   0.0005000
        k(  419) = (   0.0505001  -0.5000508  -0.2000001), wk =   0.0005000
        k(  420) = (   0.0505001  -0.5000508  -0.1500001), wk =   0.0005000
        k(  421) = (   0.0505001  -0.5000508  -0.1000001), wk =   0.0005000
        k(  422) = (   0.0505001  -0.5000508  -0.0500000), wk =   0.0005000
        k(  423) = (   0.0504501  -0.4500507   0.0000000), wk =   0.0005000
        k(  424) = (   0.0504501  -0.4500507   0.0500000), wk =   0.0005000
        k(  425) = (   0.0504501  -0.4500507   0.1000001), wk =   0.0005000
        k(  426) = (   0.0504501  -0.4500507   0.1500001), wk =   0.0005000
        k(  427) = (   0.0504501  -0.4500507   0.2000001), wk =   0.0005000
        k(  428) = (   0.0504501  -0.4500507   0.2500001), wk =   0.0005000
        k(  429) = (   0.0504501  -0.4500507   0.3000002), wk =   0.0005000
        k(  430) = (   0.0504501  -0.4500507   0.3500002), wk =   0.0005000
        k(  431) = (   0.0504501  -0.4500507   0.4000002), wk =   0.0005000
        k(  432) = (   0.0504501  -0.4500507   0.4500002), wk =   0.0005000
        k(  433) = (   0.0504501  -0.4500507  -0.5000003), wk =   0.0005000
        k(  434) = (   0.0504501  -0.4500507  -0.4500002), wk =   0.0005000
        k(  435) = (   0.0504501  -0.4500507  -0.4000002), wk =   0.0005000
        k(  436) = (   0.0504501  -0.4500507  -0.3500002), wk =   0.0005000
        k(  437) = (   0.0504501  -0.4500507  -0.3000002), wk =   0.0005000
        k(  438) = (   0.0504501  -0.4500507  -0.2500001), wk =   0.0005000
        k(  439) = (   0.0504501  -0.4500507  -0.2000001), wk =   0.0005000
        k(  440) = (   0.0504501  -0.4500507  -0.1500001), wk =   0.0005000
        k(  441) = (   0.0504501  -0.4500507  -0.1000001), wk =   0.0005000
        k(  442) = (   0.0504501  -0.4500507  -0.0500000), wk =   0.0005000
        k(  443) = (   0.0504001  -0.4000506   0.0000000), wk =   0.0005000
        k(  444) = (   0.0504001  -0.4000506   0.0500000), wk =   0.0005000
        k(  445) = (   0.0504001  -0.4000506   0.1000001), wk =   0.0005000
        k(  446) = (   0.0504001  -0.4000506   0.1500001), wk =   0.0005000
        k(  447) = (   0.0504001  -0.4000506   0.2000001), wk =   0.0005000
        k(  448) = (   0.0504001  -0.4000506   0.2500001), wk =   0.0005000
        k(  449) = (   0.0504001  -0.4000506   0.3000002), wk =   0.0005000
        k(  450) = (   0.0504001  -0.4000506   0.3500002), wk =   0.0005000
        k(  451) = (   0.0504001  -0.4000506   0.4000002), wk =   0.0005000
        k(  452) = (   0.0504001  -0.4000506   0.4500002), wk =   0.0005000
        k(  453) = (   0.0504001  -0.4000506  -0.5000003), wk =   0.0005000
        k(  454) = (   0.0504001  -0.4000506  -0.4500002), wk =   0.0005000
        k(  455) = (   0.0504001  -0.4000506  -0.4000002), wk =   0.0005000
        k(  456) = (   0.0504001  -0.4000506  -0.3500002), wk =   0.0005000
        k(  457) = (   0.0504001  -0.4000506  -0.3000002), wk =   0.0005000
        k(  458) = (   0.0504001  -0.4000506  -0.2500001), wk =   0.0005000
        k(  459) = (   0.0504001  -0.4000506  -0.2000001), wk =   0.0005000
        k(  460) = (   0.0504001  -0.4000506  -0.1500001), wk =   0.0005000
        k(  461) = (   0.0504001  -0.4000506  -0.1000001), wk =   0.0005000
        k(  462) = (   0.0504001  -0.4000506  -0.0500000), wk =   0.0005000
        k(  463) = (   0.0503501  -0.3500505   0.0000000), wk =   0.0005000
        k(  464) = (   0.0503501  -0.3500505   0.0500000), wk =   0.0005000
        k(  465) = (   0.0503501  -0.3500505   0.1000001), wk =   0.0005000
        k(  466) = (   0.0503501  -0.3500505   0.1500001), wk =   0.0005000
        k(  467) = (   0.0503501  -0.3500505   0.2000001), wk =   0.0005000
        k(  468) = (   0.0503501  -0.3500505   0.2500001), wk =   0.0005000
        k(  469) = (   0.0503501  -0.3500505   0.3000002), wk =   0.0005000
        k(  470) = (   0.0503501  -0.3500505   0.3500002), wk =   0.0005000
        k(  471) = (   0.0503501  -0.3500505   0.4000002), wk =   0.0005000
        k(  472) = (   0.0503501  -0.3500505   0.4500002), wk =   0.0005000
        k(  473) = (   0.0503501  -0.3500505  -0.5000003), wk =   0.0005000
        k(  474) = (   0.0503501  -0.3500505  -0.4500002), wk =   0.0005000
        k(  475) = (   0.0503501  -0.3500505  -0.4000002), wk =   0.0005000
        k(  476) = (   0.0503501  -0.3500505  -0.3500002), wk =   0.0005000
        k(  477) = (   0.0503501  -0.3500505  -0.3000002), wk =   0.0005000
        k(  478) = (   0.0503501  -0.3500505  -0.2500001), wk =   0.0005000
        k(  479) = (   0.0503501  -0.3500505  -0.2000001), wk =   0.0005000
        k(  480) = (   0.0503501  -0.3500505  -0.1500001), wk =   0.0005000
        k(  481) = (   0.0503501  -0.3500505  -0.1000001), wk =   0.0005000
        k(  482) = (   0.0503501  -0.3500505  -0.0500000), wk =   0.0005000
        k(  483) = (   0.0503001  -0.3000505   0.0000000), wk =   0.0005000
        k(  484) = (   0.0503001  -0.3000505   0.0500000), wk =   0.0005000
        k(  485) = (   0.0503001  -0.3000505   0.1000001), wk =   0.0005000
        k(  486) = (   0.0503001  -0.3000505   0.1500001), wk =   0.0005000
        k(  487) = (   0.0503001  -0.3000505   0.2000001), wk =   0.0005000
        k(  488) = (   0.0503001  -0.3000505   0.2500001), wk =   0.0005000
        k(  489) = (   0.0503001  -0.3000505   0.3000002), wk =   0.0005000
        k(  490) = (   0.0503001  -0.3000505   0.3500002), wk =   0.0005000
        k(  491) = (   0.0503001  -0.3000505   0.4000002), wk =   0.0005000
        k(  492) = (   0.0503001  -0.3000505   0.4500002), wk =   0.0005000
        k(  493) = (   0.0503001  -0.3000505  -0.5000003), wk =   0.0005000
        k(  494) = (   0.0503001  -0.3000505  -0.4500002), wk =   0.0005000
        k(  495) = (   0.0503001  -0.3000505  -0.4000002), wk =   0.0005000
        k(  496) = (   0.0503001  -0.3000505  -0.3500002), wk =   0.0005000
        k(  497) = (   0.0503001  -0.3000505  -0.3000002), wk =   0.0005000
        k(  498) = (   0.0503001  -0.3000505  -0.2500001), wk =   0.0005000
        k(  499) = (   0.0503001  -0.3000505  -0.2000001), wk =   0.0005000
        k(  500) = (   0.0503001  -0.3000505  -0.1500001), wk =   0.0005000
        k(  501) = (   0.0503001  -0.3000505  -0.1000001), wk =   0.0005000
        k(  502) = (   0.0503001  -0.3000505  -0.0500000), wk =   0.0005000
        k(  503) = (   0.0502501  -0.2500504   0.0000000), wk =   0.0005000
        k(  504) = (   0.0502501  -0.2500504   0.0500000), wk =   0.0005000
        k(  505) = (   0.0502501  -0.2500504   0.1000001), wk =   0.0005000
        k(  506) = (   0.0502501  -0.2500504   0.1500001), wk =   0.0005000
        k(  507) = (   0.0502501  -0.2500504   0.2000001), wk =   0.0005000
        k(  508) = (   0.0502501  -0.2500504   0.2500001), wk =   0.0005000
        k(  509) = (   0.0502501  -0.2500504   0.3000002), wk =   0.0005000
        k(  510) = (   0.0502501  -0.2500504   0.3500002), wk =   0.0005000
        k(  511) = (   0.0502501  -0.2500504   0.4000002), wk =   0.0005000
        k(  512) = (   0.0502501  -0.2500504   0.4500002), wk =   0.0005000
        k(  513) = (   0.0502501  -0.2500504  -0.5000003), wk =   0.0005000
        k(  514) = (   0.0502501  -0.2500504  -0.4500002), wk =   0.0005000
        k(  515) = (   0.0502501  -0.2500504  -0.4000002), wk =   0.0005000
        k(  516) = (   0.0502501  -0.2500504  -0.3500002), wk =   0.0005000
        k(  517) = (   0.0502501  -0.2500504  -0.3000002), wk =   0.0005000
        k(  518) = (   0.0502501  -0.2500504  -0.2500001), wk =   0.0005000
        k(  519) = (   0.0502501  -0.2500504  -0.2000001), wk =   0.0005000
        k(  520) = (   0.0502501  -0.2500504  -0.1500001), wk =   0.0005000
        k(  521) = (   0.0502501  -0.2500504  -0.1000001), wk =   0.0005000
        k(  522) = (   0.0502501  -0.2500504  -0.0500000), wk =   0.0005000
        k(  523) = (   0.0502001  -0.2000503   0.0000000), wk =   0.0005000
        k(  524) = (   0.0502001  -0.2000503   0.0500000), wk =   0.0005000
        k(  525) = (   0.0502001  -0.2000503   0.1000001), wk =   0.0005000
        k(  526) = (   0.0502001  -0.2000503   0.1500001), wk =   0.0005000
        k(  527) = (   0.0502001  -0.2000503   0.2000001), wk =   0.0005000
        k(  528) = (   0.0502001  -0.2000503   0.2500001), wk =   0.0005000
        k(  529) = (   0.0502001  -0.2000503   0.3000002), wk =   0.0005000
        k(  530) = (   0.0502001  -0.2000503   0.3500002), wk =   0.0005000
        k(  531) = (   0.0502001  -0.2000503   0.4000002), wk =   0.0005000
        k(  532) = (   0.0502001  -0.2000503   0.4500002), wk =   0.0005000
        k(  533) = (   0.0502001  -0.2000503  -0.5000003), wk =   0.0005000
        k(  534) = (   0.0502001  -0.2000503  -0.4500002), wk =   0.0005000
        k(  535) = (   0.0502001  -0.2000503  -0.4000002), wk =   0.0005000
        k(  536) = (   0.0502001  -0.2000503  -0.3500002), wk =   0.0005000
        k(  537) = (   0.0502001  -0.2000503  -0.3000002), wk =   0.0005000
        k(  538) = (   0.0502001  -0.2000503  -0.2500001), wk =   0.0005000
        k(  539) = (   0.0502001  -0.2000503  -0.2000001), wk =   0.0005000
        k(  540) = (   0.0502001  -0.2000503  -0.1500001), wk =   0.0005000
        k(  541) = (   0.0502001  -0.2000503  -0.1000001), wk =   0.0005000
        k(  542) = (   0.0502001  -0.2000503  -0.0500000), wk =   0.0005000
        k(  543) = (   0.0501501  -0.1500502   0.0000000), wk =   0.0005000
        k(  544) = (   0.0501501  -0.1500502   0.0500000), wk =   0.0005000
        k(  545) = (   0.0501501  -0.1500502   0.1000001), wk =   0.0005000
        k(  546) = (   0.0501501  -0.1500502   0.1500001), wk =   0.0005000
        k(  547) = (   0.0501501  -0.1500502   0.2000001), wk =   0.0005000
        k(  548) = (   0.0501501  -0.1500502   0.2500001), wk =   0.0005000
        k(  549) = (   0.0501501  -0.1500502   0.3000002), wk =   0.0005000
        k(  550) = (   0.0501501  -0.1500502   0.3500002), wk =   0.0005000
        k(  551) = (   0.0501501  -0.1500502   0.4000002), wk =   0.0005000
        k(  552) = (   0.0501501  -0.1500502   0.4500002), wk =   0.0005000
        k(  553) = (   0.0501501  -0.1500502  -0.5000003), wk =   0.0005000
        k(  554) = (   0.0501501  -0.1500502  -0.4500002), wk =   0.0005000
        k(  555) = (   0.0501501  -0.1500502  -0.4000002), wk =   0.0005000
        k(  556) = (   0.0501501  -0.1500502  -0.3500002), wk =   0.0005000
        k(  557) = (   0.0501501  -0.1500502  -0.3000002), wk =   0.0005000
        k(  558) = (   0.0501501  -0.1500502  -0.2500001), wk =   0.0005000
        k(  559) = (   0.0501501  -0.1500502  -0.2000001), wk =   0.0005000
        k(  560) = (   0.0501501  -0.1500502  -0.1500001), wk =   0.0005000
        k(  561) = (   0.0501501  -0.1500502  -0.1000001), wk =   0.0005000
        k(  562) = (   0.0501501  -0.1500502  -0.0500000), wk =   0.0005000
        k(  563) = (   0.0501001  -0.1000502   0.0000000), wk =   0.0005000
        k(  564) = (   0.0501001  -0.1000502   0.0500000), wk =   0.0005000
        k(  565) = (   0.0501001  -0.1000502   0.1000001), wk =   0.0005000
        k(  566) = (   0.0501001  -0.1000502   0.1500001), wk =   0.0005000
        k(  567) = (   0.0501001  -0.1000502   0.2000001), wk =   0.0005000
        k(  568) = (   0.0501001  -0.1000502   0.2500001), wk =   0.0005000
        k(  569) = (   0.0501001  -0.1000502   0.3000002), wk =   0.0005000
        k(  570) = (   0.0501001  -0.1000502   0.3500002), wk =   0.0005000
        k(  571) = (   0.0501001  -0.1000502   0.4000002), wk =   0.0005000
        k(  572) = (   0.0501001  -0.1000502   0.4500002), wk =   0.0005000
        k(  573) = (   0.0501001  -0.1000502  -0.5000003), wk =   0.0005000
        k(  574) = (   0.0501001  -0.1000502  -0.4500002), wk =   0.0005000
        k(  575) = (   0.0501001  -0.1000502  -0.4000002), wk =   0.0005000
        k(  576) = (   0.0501001  -0.1000502  -0.3500002), wk =   0.0005000
        k(  577) = (   0.0501001  -0.1000502  -0.3000002), wk =   0.0005000
        k(  578) = (   0.0501001  -0.1000502  -0.2500001), wk =   0.0005000
        k(  579) = (   0.0501001  -0.1000502  -0.2000001), wk =   0.0005000
        k(  580) = (   0.0501001  -0.1000502  -0.1500001), wk =   0.0005000
        k(  581) = (   0.0501001  -0.1000502  -0.1000001), wk =   0.0005000
        k(  582) = (   0.0501001  -0.1000502  -0.0500000), wk =   0.0005000
        k(  583) = (   0.0500501  -0.0500501   0.0000000), wk =   0.0005000
        k(  584) = (   0.0500501  -0.0500501   0.0500000), wk =   0.0005000
        k(  585) = (   0.0500501  -0.0500501   0.1000001), wk =   0.0005000
        k(  586) = (   0.0500501  -0.0500501   0.1500001), wk =   0.0005000
        k(  587) = (   0.0500501  -0.0500501   0.2000001), wk =   0.0005000
        k(  588) = (   0.0500501  -0.0500501   0.2500001), wk =   0.0005000
        k(  589) = (   0.0500501  -0.0500501   0.3000002), wk =   0.0005000
        k(  590) = (   0.0500501  -0.0500501   0.3500002), wk =   0.0005000
        k(  591) = (   0.0500501  -0.0500501   0.4000002), wk =   0.0005000
        k(  592) = (   0.0500501  -0.0500501   0.4500002), wk =   0.0005000
        k(  593) = (   0.0500501  -0.0500501  -0.5000003), wk =   0.0005000
        k(  594) = (   0.0500501  -0.0500501  -0.4500002), wk =   0.0005000
        k(  595) = (   0.0500501  -0.0500501  -0.4000002), wk =   0.0005000
        k(  596) = (   0.0500501  -0.0500501  -0.3500002), wk =   0.0005000
        k(  597) = (   0.0500501  -0.0500501  -0.3000002), wk =   0.0005000
        k(  598) = (   0.0500501  -0.0500501  -0.2500001), wk =   0.0005000
        k(  599) = (   0.0500501  -0.0500501  -0.2000001), wk =   0.0005000
        k(  600) = (   0.0500501  -0.0500501  -0.1500001), wk =   0.0005000
        k(  601) = (   0.0500501  -0.0500501  -0.1000001), wk =   0.0005000
        k(  602) = (   0.0500501  -0.0500501  -0.0500000), wk =   0.0005000
        k(  603) = (   0.1000002  -0.0001000   0.0000000), wk =   0.0005000
        k(  604) = (   0.1000002  -0.0001000   0.0500000), wk =   0.0005000
        k(  605) = (   0.1000002  -0.0001000   0.1000001), wk =   0.0005000
        k(  606) = (   0.1000002  -0.0001000   0.1500001), wk =   0.0005000
        k(  607) = (   0.1000002  -0.0001000   0.2000001), wk =   0.0005000
        k(  608) = (   0.1000002  -0.0001000   0.2500001), wk =   0.0005000
        k(  609) = (   0.1000002  -0.0001000   0.3000002), wk =   0.0005000
        k(  610) = (   0.1000002  -0.0001000   0.3500002), wk =   0.0005000
        k(  611) = (   0.1000002  -0.0001000   0.4000002), wk =   0.0005000
        k(  612) = (   0.1000002  -0.0001000   0.4500002), wk =   0.0005000
        k(  613) = (   0.1000002  -0.0001000  -0.5000003), wk =   0.0005000
        k(  614) = (   0.1000002  -0.0001000  -0.4500002), wk =   0.0005000
        k(  615) = (   0.1000002  -0.0001000  -0.4000002), wk =   0.0005000
        k(  616) = (   0.1000002  -0.0001000  -0.3500002), wk =   0.0005000
        k(  617) = (   0.1000002  -0.0001000  -0.3000002), wk =   0.0005000
        k(  618) = (   0.1000002  -0.0001000  -0.2500001), wk =   0.0005000
        k(  619) = (   0.1000002  -0.0001000  -0.2000001), wk =   0.0005000
        k(  620) = (   0.1000002  -0.0001000  -0.1500001), wk =   0.0005000
        k(  621) = (   0.1000002  -0.0001000  -0.1000001), wk =   0.0005000
        k(  622) = (   0.1000002  -0.0001000  -0.0500000), wk =   0.0005000
        k(  623) = (   0.0999501   0.0499001   0.0000000), wk =   0.0005000
        k(  624) = (   0.0999501   0.0499001   0.0500000), wk =   0.0005000
        k(  625) = (   0.0999501   0.0499001   0.1000001), wk =   0.0005000
        k(  626) = (   0.0999501   0.0499001   0.1500001), wk =   0.0005000
        k(  627) = (   0.0999501   0.0499001   0.2000001), wk =   0.0005000
        k(  628) = (   0.0999501   0.0499001   0.2500001), wk =   0.0005000
        k(  629) = (   0.0999501   0.0499001   0.3000002), wk =   0.0005000
        k(  630) = (   0.0999501   0.0499001   0.3500002), wk =   0.0005000
        k(  631) = (   0.0999501   0.0499001   0.4000002), wk =   0.0005000
        k(  632) = (   0.0999501   0.0499001   0.4500002), wk =   0.0005000
        k(  633) = (   0.0999501   0.0499001  -0.5000003), wk =   0.0005000
        k(  634) = (   0.0999501   0.0499001  -0.4500002), wk =   0.0005000
        k(  635) = (   0.0999501   0.0499001  -0.4000002), wk =   0.0005000
        k(  636) = (   0.0999501   0.0499001  -0.3500002), wk =   0.0005000
        k(  637) = (   0.0999501   0.0499001  -0.3000002), wk =   0.0005000
        k(  638) = (   0.0999501   0.0499001  -0.2500001), wk =   0.0005000
        k(  639) = (   0.0999501   0.0499001  -0.2000001), wk =   0.0005000
        k(  640) = (   0.0999501   0.0499001  -0.1500001), wk =   0.0005000
        k(  641) = (   0.0999501   0.0499001  -0.1000001), wk =   0.0005000
        k(  642) = (   0.0999501   0.0499001  -0.0500000), wk =   0.0005000
        k(  643) = (   0.0999001   0.0999001   0.0000000), wk =   0.0005000
        k(  644) = (   0.0999001   0.0999001   0.0500000), wk =   0.0005000
        k(  645) = (   0.0999001   0.0999001   0.1000001), wk =   0.0005000
        k(  646) = (   0.0999001   0.0999001   0.1500001), wk =   0.0005000
        k(  647) = (   0.0999001   0.0999001   0.2000001), wk =   0.0005000
        k(  648) = (   0.0999001   0.0999001   0.2500001), wk =   0.0005000
        k(  649) = (   0.0999001   0.0999001   0.3000002), wk =   0.0005000
        k(  650) = (   0.0999001   0.0999001   0.3500002), wk =   0.0005000
        k(  651) = (   0.0999001   0.0999001   0.4000002), wk =   0.0005000
        k(  652) = (   0.0999001   0.0999001   0.4500002), wk =   0.0005000
        k(  653) = (   0.0999001   0.0999001  -0.5000003), wk =   0.0005000
        k(  654) = (   0.0999001   0.0999001  -0.4500002), wk =   0.0005000
        k(  655) = (   0.0999001   0.0999001  -0.4000002), wk =   0.0005000
        k(  656) = (   0.0999001   0.0999001  -0.3500002), wk =   0.0005000
        k(  657) = (   0.0999001   0.0999001  -0.3000002), wk =   0.0005000
        k(  658) = (   0.0999001   0.0999001  -0.2500001), wk =   0.0005000
        k(  659) = (   0.0999001   0.0999001  -0.2000001), wk =   0.0005000
        k(  660) = (   0.0999001   0.0999001  -0.1500001), wk =   0.0005000
        k(  661) = (   0.0999001   0.0999001  -0.1000001), wk =   0.0005000
        k(  662) = (   0.0999001   0.0999001  -0.0500000), wk =   0.0005000
        k(  663) = (   0.0998501   0.1499002   0.0000000), wk =   0.0005000
        k(  664) = (   0.0998501   0.1499002   0.0500000), wk =   0.0005000
        k(  665) = (   0.0998501   0.1499002   0.1000001), wk =   0.0005000
        k(  666) = (   0.0998501   0.1499002   0.1500001), wk =   0.0005000
        k(  667) = (   0.0998501   0.1499002   0.2000001), wk =   0.0005000
        k(  668) = (   0.0998501   0.1499002   0.2500001), wk =   0.0005000
        k(  669) = (   0.0998501   0.1499002   0.3000002), wk =   0.0005000
        k(  670) = (   0.0998501   0.1499002   0.3500002), wk =   0.0005000
        k(  671) = (   0.0998501   0.1499002   0.4000002), wk =   0.0005000
        k(  672) = (   0.0998501   0.1499002   0.4500002), wk =   0.0005000
        k(  673) = (   0.0998501   0.1499002  -0.5000003), wk =   0.0005000
        k(  674) = (   0.0998501   0.1499002  -0.4500002), wk =   0.0005000
        k(  675) = (   0.0998501   0.1499002  -0.4000002), wk =   0.0005000
        k(  676) = (   0.0998501   0.1499002  -0.3500002), wk =   0.0005000
        k(  677) = (   0.0998501   0.1499002  -0.3000002), wk =   0.0005000
        k(  678) = (   0.0998501   0.1499002  -0.2500001), wk =   0.0005000
        k(  679) = (   0.0998501   0.1499002  -0.2000001), wk =   0.0005000
        k(  680) = (   0.0998501   0.1499002  -0.1500001), wk =   0.0005000
        k(  681) = (   0.0998501   0.1499002  -0.1000001), wk =   0.0005000
        k(  682) = (   0.0998501   0.1499002  -0.0500000), wk =   0.0005000
        k(  683) = (   0.0998001   0.1999003   0.0000000), wk =   0.0005000
        k(  684) = (   0.0998001   0.1999003   0.0500000), wk =   0.0005000
        k(  685) = (   0.0998001   0.1999003   0.1000001), wk =   0.0005000
        k(  686) = (   0.0998001   0.1999003   0.1500001), wk =   0.0005000
        k(  687) = (   0.0998001   0.1999003   0.2000001), wk =   0.0005000
        k(  688) = (   0.0998001   0.1999003   0.2500001), wk =   0.0005000
        k(  689) = (   0.0998001   0.1999003   0.3000002), wk =   0.0005000
        k(  690) = (   0.0998001   0.1999003   0.3500002), wk =   0.0005000
        k(  691) = (   0.0998001   0.1999003   0.4000002), wk =   0.0005000
        k(  692) = (   0.0998001   0.1999003   0.4500002), wk =   0.0005000
        k(  693) = (   0.0998001   0.1999003  -0.5000003), wk =   0.0005000
        k(  694) = (   0.0998001   0.1999003  -0.4500002), wk =   0.0005000
        k(  695) = (   0.0998001   0.1999003  -0.4000002), wk =   0.0005000
        k(  696) = (   0.0998001   0.1999003  -0.3500002), wk =   0.0005000
        k(  697) = (   0.0998001   0.1999003  -0.3000002), wk =   0.0005000
        k(  698) = (   0.0998001   0.1999003  -0.2500001), wk =   0.0005000
        k(  699) = (   0.0998001   0.1999003  -0.2000001), wk =   0.0005000
        k(  700) = (   0.0998001   0.1999003  -0.1500001), wk =   0.0005000
        k(  701) = (   0.0998001   0.1999003  -0.1000001), wk =   0.0005000
        k(  702) = (   0.0998001   0.1999003  -0.0500000), wk =   0.0005000
        k(  703) = (   0.0997501   0.2499004   0.0000000), wk =   0.0005000
        k(  704) = (   0.0997501   0.2499004   0.0500000), wk =   0.0005000
        k(  705) = (   0.0997501   0.2499004   0.1000001), wk =   0.0005000
        k(  706) = (   0.0997501   0.2499004   0.1500001), wk =   0.0005000
        k(  707) = (   0.0997501   0.2499004   0.2000001), wk =   0.0005000
        k(  708) = (   0.0997501   0.2499004   0.2500001), wk =   0.0005000
        k(  709) = (   0.0997501   0.2499004   0.3000002), wk =   0.0005000
        k(  710) = (   0.0997501   0.2499004   0.3500002), wk =   0.0005000
        k(  711) = (   0.0997501   0.2499004   0.4000002), wk =   0.0005000
        k(  712) = (   0.0997501   0.2499004   0.4500002), wk =   0.0005000
        k(  713) = (   0.0997501   0.2499004  -0.5000003), wk =   0.0005000
        k(  714) = (   0.0997501   0.2499004  -0.4500002), wk =   0.0005000
        k(  715) = (   0.0997501   0.2499004  -0.4000002), wk =   0.0005000
        k(  716) = (   0.0997501   0.2499004  -0.3500002), wk =   0.0005000
        k(  717) = (   0.0997501   0.2499004  -0.3000002), wk =   0.0005000
        k(  718) = (   0.0997501   0.2499004  -0.2500001), wk =   0.0005000
        k(  719) = (   0.0997501   0.2499004  -0.2000001), wk =   0.0005000
        k(  720) = (   0.0997501   0.2499004  -0.1500001), wk =   0.0005000
        k(  721) = (   0.0997501   0.2499004  -0.1000001), wk =   0.0005000
        k(  722) = (   0.0997501   0.2499004  -0.0500000), wk =   0.0005000
        k(  723) = (   0.0997001   0.2999004   0.0000000), wk =   0.0005000
        k(  724) = (   0.0997001   0.2999004   0.0500000), wk =   0.0005000
        k(  725) = (   0.0997001   0.2999004   0.1000001), wk =   0.0005000
        k(  726) = (   0.0997001   0.2999004   0.1500001), wk =   0.0005000
        k(  727) = (   0.0997001   0.2999004   0.2000001), wk =   0.0005000
        k(  728) = (   0.0997001   0.2999004   0.2500001), wk =   0.0005000
        k(  729) = (   0.0997001   0.2999004   0.3000002), wk =   0.0005000
        k(  730) = (   0.0997001   0.2999004   0.3500002), wk =   0.0005000
        k(  731) = (   0.0997001   0.2999004   0.4000002), wk =   0.0005000
        k(  732) = (   0.0997001   0.2999004   0.4500002), wk =   0.0005000
        k(  733) = (   0.0997001   0.2999004  -0.5000003), wk =   0.0005000
        k(  734) = (   0.0997001   0.2999004  -0.4500002), wk =   0.0005000
        k(  735) = (   0.0997001   0.2999004  -0.4000002), wk =   0.0005000
        k(  736) = (   0.0997001   0.2999004  -0.3500002), wk =   0.0005000
        k(  737) = (   0.0997001   0.2999004  -0.3000002), wk =   0.0005000
        k(  738) = (   0.0997001   0.2999004  -0.2500001), wk =   0.0005000
        k(  739) = (   0.0997001   0.2999004  -0.2000001), wk =   0.0005000
        k(  740) = (   0.0997001   0.2999004  -0.1500001), wk =   0.0005000
        k(  741) = (   0.0997001   0.2999004  -0.1000001), wk =   0.0005000
        k(  742) = (   0.0997001   0.2999004  -0.0500000), wk =   0.0005000
        k(  743) = (   0.0996501   0.3499005   0.0000000), wk =   0.0005000
        k(  744) = (   0.0996501   0.3499005   0.0500000), wk =   0.0005000
        k(  745) = (   0.0996501   0.3499005   0.1000001), wk =   0.0005000
        k(  746) = (   0.0996501   0.3499005   0.1500001), wk =   0.0005000
        k(  747) = (   0.0996501   0.3499005   0.2000001), wk =   0.0005000
        k(  748) = (   0.0996501   0.3499005   0.2500001), wk =   0.0005000
        k(  749) = (   0.0996501   0.3499005   0.3000002), wk =   0.0005000
        k(  750) = (   0.0996501   0.3499005   0.3500002), wk =   0.0005000
        k(  751) = (   0.0996501   0.3499005   0.4000002), wk =   0.0005000
        k(  752) = (   0.0996501   0.3499005   0.4500002), wk =   0.0005000
        k(  753) = (   0.0996501   0.3499005  -0.5000003), wk =   0.0005000
        k(  754) = (   0.0996501   0.3499005  -0.4500002), wk =   0.0005000
        k(  755) = (   0.0996501   0.3499005  -0.4000002), wk =   0.0005000
        k(  756) = (   0.0996501   0.3499005  -0.3500002), wk =   0.0005000
        k(  757) = (   0.0996501   0.3499005  -0.3000002), wk =   0.0005000
        k(  758) = (   0.0996501   0.3499005  -0.2500001), wk =   0.0005000
        k(  759) = (   0.0996501   0.3499005  -0.2000001), wk =   0.0005000
        k(  760) = (   0.0996501   0.3499005  -0.1500001), wk =   0.0005000
        k(  761) = (   0.0996501   0.3499005  -0.1000001), wk =   0.0005000
        k(  762) = (   0.0996501   0.3499005  -0.0500000), wk =   0.0005000
        k(  763) = (   0.0996001   0.3999006   0.0000000), wk =   0.0005000
        k(  764) = (   0.0996001   0.3999006   0.0500000), wk =   0.0005000
        k(  765) = (   0.0996001   0.3999006   0.1000001), wk =   0.0005000
        k(  766) = (   0.0996001   0.3999006   0.1500001), wk =   0.0005000
        k(  767) = (   0.0996001   0.3999006   0.2000001), wk =   0.0005000
        k(  768) = (   0.0996001   0.3999006   0.2500001), wk =   0.0005000
        k(  769) = (   0.0996001   0.3999006   0.3000002), wk =   0.0005000
        k(  770) = (   0.0996001   0.3999006   0.3500002), wk =   0.0005000
        k(  771) = (   0.0996001   0.3999006   0.4000002), wk =   0.0005000
        k(  772) = (   0.0996001   0.3999006   0.4500002), wk =   0.0005000
        k(  773) = (   0.0996001   0.3999006  -0.5000003), wk =   0.0005000
        k(  774) = (   0.0996001   0.3999006  -0.4500002), wk =   0.0005000
        k(  775) = (   0.0996001   0.3999006  -0.4000002), wk =   0.0005000
        k(  776) = (   0.0996001   0.3999006  -0.3500002), wk =   0.0005000
        k(  777) = (   0.0996001   0.3999006  -0.3000002), wk =   0.0005000
        k(  778) = (   0.0996001   0.3999006  -0.2500001), wk =   0.0005000
        k(  779) = (   0.0996001   0.3999006  -0.2000001), wk =   0.0005000
        k(  780) = (   0.0996001   0.3999006  -0.1500001), wk =   0.0005000
        k(  781) = (   0.0996001   0.3999006  -0.1000001), wk =   0.0005000
        k(  782) = (   0.0996001   0.3999006  -0.0500000), wk =   0.0005000
        k(  783) = (   0.0995501   0.4499007   0.0000000), wk =   0.0005000
        k(  784) = (   0.0995501   0.4499007   0.0500000), wk =   0.0005000
        k(  785) = (   0.0995501   0.4499007   0.1000001), wk =   0.0005000
        k(  786) = (   0.0995501   0.4499007   0.1500001), wk =   0.0005000
        k(  787) = (   0.0995501   0.4499007   0.2000001), wk =   0.0005000
        k(  788) = (   0.0995501   0.4499007   0.2500001), wk =   0.0005000
        k(  789) = (   0.0995501   0.4499007   0.3000002), wk =   0.0005000
        k(  790) = (   0.0995501   0.4499007   0.3500002), wk =   0.0005000
        k(  791) = (   0.0995501   0.4499007   0.4000002), wk =   0.0005000
        k(  792) = (   0.0995501   0.4499007   0.4500002), wk =   0.0005000
        k(  793) = (   0.0995501   0.4499007  -0.5000003), wk =   0.0005000
        k(  794) = (   0.0995501   0.4499007  -0.4500002), wk =   0.0005000
        k(  795) = (   0.0995501   0.4499007  -0.4000002), wk =   0.0005000
        k(  796) = (   0.0995501   0.4499007  -0.3500002), wk =   0.0005000
        k(  797) = (   0.0995501   0.4499007  -0.3000002), wk =   0.0005000
        k(  798) = (   0.0995501   0.4499007  -0.2500001), wk =   0.0005000
        k(  799) = (   0.0995501   0.4499007  -0.2000001), wk =   0.0005000
        k(  800) = (   0.0995501   0.4499007  -0.1500001), wk =   0.0005000
        k(  801) = (   0.0995501   0.4499007  -0.1000001), wk =   0.0005000
        k(  802) = (   0.0995501   0.4499007  -0.0500000), wk =   0.0005000
        k(  803) = (   0.1005002  -0.5001008   0.0000000), wk =   0.0005000
        k(  804) = (   0.1005002  -0.5001008   0.0500000), wk =   0.0005000
        k(  805) = (   0.1005002  -0.5001008   0.1000001), wk =   0.0005000
        k(  806) = (   0.1005002  -0.5001008   0.1500001), wk =   0.0005000
        k(  807) = (   0.1005002  -0.5001008   0.2000001), wk =   0.0005000
        k(  808) = (   0.1005002  -0.5001008   0.2500001), wk =   0.0005000
        k(  809) = (   0.1005002  -0.5001008   0.3000002), wk =   0.0005000
        k(  810) = (   0.1005002  -0.5001008   0.3500002), wk =   0.0005000
        k(  811) = (   0.1005002  -0.5001008   0.4000002), wk =   0.0005000
        k(  812) = (   0.1005002  -0.5001008   0.4500002), wk =   0.0005000
        k(  813) = (   0.1005002  -0.5001008  -0.5000003), wk =   0.0005000
        k(  814) = (   0.1005002  -0.5001008  -0.4500002), wk =   0.0005000
        k(  815) = (   0.1005002  -0.5001008  -0.4000002), wk =   0.0005000
        k(  816) = (   0.1005002  -0.5001008  -0.3500002), wk =   0.0005000
        k(  817) = (   0.1005002  -0.5001008  -0.3000002), wk =   0.0005000
        k(  818) = (   0.1005002  -0.5001008  -0.2500001), wk =   0.0005000
        k(  819) = (   0.1005002  -0.5001008  -0.2000001), wk =   0.0005000
        k(  820) = (   0.1005002  -0.5001008  -0.1500001), wk =   0.0005000
        k(  821) = (   0.1005002  -0.5001008  -0.1000001), wk =   0.0005000
        k(  822) = (   0.1005002  -0.5001008  -0.0500000), wk =   0.0005000
        k(  823) = (   0.1004502  -0.4501007   0.0000000), wk =   0.0005000
        k(  824) = (   0.1004502  -0.4501007   0.0500000), wk =   0.0005000
        k(  825) = (   0.1004502  -0.4501007   0.1000001), wk =   0.0005000
        k(  826) = (   0.1004502  -0.4501007   0.1500001), wk =   0.0005000
        k(  827) = (   0.1004502  -0.4501007   0.2000001), wk =   0.0005000
        k(  828) = (   0.1004502  -0.4501007   0.2500001), wk =   0.0005000
        k(  829) = (   0.1004502  -0.4501007   0.3000002), wk =   0.0005000
        k(  830) = (   0.1004502  -0.4501007   0.3500002), wk =   0.0005000
        k(  831) = (   0.1004502  -0.4501007   0.4000002), wk =   0.0005000
        k(  832) = (   0.1004502  -0.4501007   0.4500002), wk =   0.0005000
        k(  833) = (   0.1004502  -0.4501007  -0.5000003), wk =   0.0005000
        k(  834) = (   0.1004502  -0.4501007  -0.4500002), wk =   0.0005000
        k(  835) = (   0.1004502  -0.4501007  -0.4000002), wk =   0.0005000
        k(  836) = (   0.1004502  -0.4501007  -0.3500002), wk =   0.0005000
        k(  837) = (   0.1004502  -0.4501007  -0.3000002), wk =   0.0005000
        k(  838) = (   0.1004502  -0.4501007  -0.2500001), wk =   0.0005000
        k(  839) = (   0.1004502  -0.4501007  -0.2000001), wk =   0.0005000
        k(  840) = (   0.1004502  -0.4501007  -0.1500001), wk =   0.0005000
        k(  841) = (   0.1004502  -0.4501007  -0.1000001), wk =   0.0005000
        k(  842) = (   0.1004502  -0.4501007  -0.0500000), wk =   0.0005000
        k(  843) = (   0.1004002  -0.4001006   0.0000000), wk =   0.0005000
        k(  844) = (   0.1004002  -0.4001006   0.0500000), wk =   0.0005000
        k(  845) = (   0.1004002  -0.4001006   0.1000001), wk =   0.0005000
        k(  846) = (   0.1004002  -0.4001006   0.1500001), wk =   0.0005000
        k(  847) = (   0.1004002  -0.4001006   0.2000001), wk =   0.0005000
        k(  848) = (   0.1004002  -0.4001006   0.2500001), wk =   0.0005000
        k(  849) = (   0.1004002  -0.4001006   0.3000002), wk =   0.0005000
        k(  850) = (   0.1004002  -0.4001006   0.3500002), wk =   0.0005000
        k(  851) = (   0.1004002  -0.4001006   0.4000002), wk =   0.0005000
        k(  852) = (   0.1004002  -0.4001006   0.4500002), wk =   0.0005000
        k(  853) = (   0.1004002  -0.4001006  -0.5000003), wk =   0.0005000
        k(  854) = (   0.1004002  -0.4001006  -0.4500002), wk =   0.0005000
        k(  855) = (   0.1004002  -0.4001006  -0.4000002), wk =   0.0005000
        k(  856) = (   0.1004002  -0.4001006  -0.3500002), wk =   0.0005000
        k(  857) = (   0.1004002  -0.4001006  -0.3000002), wk =   0.0005000
        k(  858) = (   0.1004002  -0.4001006  -0.2500001), wk =   0.0005000
        k(  859) = (   0.1004002  -0.4001006  -0.2000001), wk =   0.0005000
        k(  860) = (   0.1004002  -0.4001006  -0.1500001), wk =   0.0005000
        k(  861) = (   0.1004002  -0.4001006  -0.1000001), wk =   0.0005000
        k(  862) = (   0.1004002  -0.4001006  -0.0500000), wk =   0.0005000
        k(  863) = (   0.1003502  -0.3501005   0.0000000), wk =   0.0005000
        k(  864) = (   0.1003502  -0.3501005   0.0500000), wk =   0.0005000
        k(  865) = (   0.1003502  -0.3501005   0.1000001), wk =   0.0005000
        k(  866) = (   0.1003502  -0.3501005   0.1500001), wk =   0.0005000
        k(  867) = (   0.1003502  -0.3501005   0.2000001), wk =   0.0005000
        k(  868) = (   0.1003502  -0.3501005   0.2500001), wk =   0.0005000
        k(  869) = (   0.1003502  -0.3501005   0.3000002), wk =   0.0005000
        k(  870) = (   0.1003502  -0.3501005   0.3500002), wk =   0.0005000
        k(  871) = (   0.1003502  -0.3501005   0.4000002), wk =   0.0005000
        k(  872) = (   0.1003502  -0.3501005   0.4500002), wk =   0.0005000
        k(  873) = (   0.1003502  -0.3501005  -0.5000003), wk =   0.0005000
        k(  874) = (   0.1003502  -0.3501005  -0.4500002), wk =   0.0005000
        k(  875) = (   0.1003502  -0.3501005  -0.4000002), wk =   0.0005000
        k(  876) = (   0.1003502  -0.3501005  -0.3500002), wk =   0.0005000
        k(  877) = (   0.1003502  -0.3501005  -0.3000002), wk =   0.0005000
        k(  878) = (   0.1003502  -0.3501005  -0.2500001), wk =   0.0005000
        k(  879) = (   0.1003502  -0.3501005  -0.2000001), wk =   0.0005000
        k(  880) = (   0.1003502  -0.3501005  -0.1500001), wk =   0.0005000
        k(  881) = (   0.1003502  -0.3501005  -0.1000001), wk =   0.0005000
        k(  882) = (   0.1003502  -0.3501005  -0.0500000), wk =   0.0005000
        k(  883) = (   0.1003002  -0.3001005   0.0000000), wk =   0.0005000
        k(  884) = (   0.1003002  -0.3001005   0.0500000), wk =   0.0005000
        k(  885) = (   0.1003002  -0.3001005   0.1000001), wk =   0.0005000
        k(  886) = (   0.1003002  -0.3001005   0.1500001), wk =   0.0005000
        k(  887) = (   0.1003002  -0.3001005   0.2000001), wk =   0.0005000
        k(  888) = (   0.1003002  -0.3001005   0.2500001), wk =   0.0005000
        k(  889) = (   0.1003002  -0.3001005   0.3000002), wk =   0.0005000
        k(  890) = (   0.1003002  -0.3001005   0.3500002), wk =   0.0005000
        k(  891) = (   0.1003002  -0.3001005   0.4000002), wk =   0.0005000
        k(  892) = (   0.1003002  -0.3001005   0.4500002), wk =   0.0005000
        k(  893) = (   0.1003002  -0.3001005  -0.5000003), wk =   0.0005000
        k(  894) = (   0.1003002  -0.3001005  -0.4500002), wk =   0.0005000
        k(  895) = (   0.1003002  -0.3001005  -0.4000002), wk =   0.0005000
        k(  896) = (   0.1003002  -0.3001005  -0.3500002), wk =   0.0005000
        k(  897) = (   0.1003002  -0.3001005  -0.3000002), wk =   0.0005000
        k(  898) = (   0.1003002  -0.3001005  -0.2500001), wk =   0.0005000
        k(  899) = (   0.1003002  -0.3001005  -0.2000001), wk =   0.0005000
        k(  900) = (   0.1003002  -0.3001005  -0.1500001), wk =   0.0005000
        k(  901) = (   0.1003002  -0.3001005  -0.1000001), wk =   0.0005000
        k(  902) = (   0.1003002  -0.3001005  -0.0500000), wk =   0.0005000
        k(  903) = (   0.1002502  -0.2501004   0.0000000), wk =   0.0005000
        k(  904) = (   0.1002502  -0.2501004   0.0500000), wk =   0.0005000
        k(  905) = (   0.1002502  -0.2501004   0.1000001), wk =   0.0005000
        k(  906) = (   0.1002502  -0.2501004   0.1500001), wk =   0.0005000
        k(  907) = (   0.1002502  -0.2501004   0.2000001), wk =   0.0005000
        k(  908) = (   0.1002502  -0.2501004   0.2500001), wk =   0.0005000
        k(  909) = (   0.1002502  -0.2501004   0.3000002), wk =   0.0005000
        k(  910) = (   0.1002502  -0.2501004   0.3500002), wk =   0.0005000
        k(  911) = (   0.1002502  -0.2501004   0.4000002), wk =   0.0005000
        k(  912) = (   0.1002502  -0.2501004   0.4500002), wk =   0.0005000
        k(  913) = (   0.1002502  -0.2501004  -0.5000003), wk =   0.0005000
        k(  914) = (   0.1002502  -0.2501004  -0.4500002), wk =   0.0005000
        k(  915) = (   0.1002502  -0.2501004  -0.4000002), wk =   0.0005000
        k(  916) = (   0.1002502  -0.2501004  -0.3500002), wk =   0.0005000
        k(  917) = (   0.1002502  -0.2501004  -0.3000002), wk =   0.0005000
        k(  918) = (   0.1002502  -0.2501004  -0.2500001), wk =   0.0005000
        k(  919) = (   0.1002502  -0.2501004  -0.2000001), wk =   0.0005000
        k(  920) = (   0.1002502  -0.2501004  -0.1500001), wk =   0.0005000
        k(  921) = (   0.1002502  -0.2501004  -0.1000001), wk =   0.0005000
        k(  922) = (   0.1002502  -0.2501004  -0.0500000), wk =   0.0005000
        k(  923) = (   0.1002002  -0.2001003   0.0000000), wk =   0.0005000
        k(  924) = (   0.1002002  -0.2001003   0.0500000), wk =   0.0005000
        k(  925) = (   0.1002002  -0.2001003   0.1000001), wk =   0.0005000
        k(  926) = (   0.1002002  -0.2001003   0.1500001), wk =   0.0005000
        k(  927) = (   0.1002002  -0.2001003   0.2000001), wk =   0.0005000
        k(  928) = (   0.1002002  -0.2001003   0.2500001), wk =   0.0005000
        k(  929) = (   0.1002002  -0.2001003   0.3000002), wk =   0.0005000
        k(  930) = (   0.1002002  -0.2001003   0.3500002), wk =   0.0005000
        k(  931) = (   0.1002002  -0.2001003   0.4000002), wk =   0.0005000
        k(  932) = (   0.1002002  -0.2001003   0.4500002), wk =   0.0005000
        k(  933) = (   0.1002002  -0.2001003  -0.5000003), wk =   0.0005000
        k(  934) = (   0.1002002  -0.2001003  -0.4500002), wk =   0.0005000
        k(  935) = (   0.1002002  -0.2001003  -0.4000002), wk =   0.0005000
        k(  936) = (   0.1002002  -0.2001003  -0.3500002), wk =   0.0005000
        k(  937) = (   0.1002002  -0.2001003  -0.3000002), wk =   0.0005000
        k(  938) = (   0.1002002  -0.2001003  -0.2500001), wk =   0.0005000
        k(  939) = (   0.1002002  -0.2001003  -0.2000001), wk =   0.0005000
        k(  940) = (   0.1002002  -0.2001003  -0.1500001), wk =   0.0005000
        k(  941) = (   0.1002002  -0.2001003  -0.1000001), wk =   0.0005000
        k(  942) = (   0.1002002  -0.2001003  -0.0500000), wk =   0.0005000
        k(  943) = (   0.1001502  -0.1501002   0.0000000), wk =   0.0005000
        k(  944) = (   0.1001502  -0.1501002   0.0500000), wk =   0.0005000
        k(  945) = (   0.1001502  -0.1501002   0.1000001), wk =   0.0005000
        k(  946) = (   0.1001502  -0.1501002   0.1500001), wk =   0.0005000
        k(  947) = (   0.1001502  -0.1501002   0.2000001), wk =   0.0005000
        k(  948) = (   0.1001502  -0.1501002   0.2500001), wk =   0.0005000
        k(  949) = (   0.1001502  -0.1501002   0.3000002), wk =   0.0005000
        k(  950) = (   0.1001502  -0.1501002   0.3500002), wk =   0.0005000
        k(  951) = (   0.1001502  -0.1501002   0.4000002), wk =   0.0005000
        k(  952) = (   0.1001502  -0.1501002   0.4500002), wk =   0.0005000
        k(  953) = (   0.1001502  -0.1501002  -0.5000003), wk =   0.0005000
        k(  954) = (   0.1001502  -0.1501002  -0.4500002), wk =   0.0005000
        k(  955) = (   0.1001502  -0.1501002  -0.4000002), wk =   0.0005000
        k(  956) = (   0.1001502  -0.1501002  -0.3500002), wk =   0.0005000
        k(  957) = (   0.1001502  -0.1501002  -0.3000002), wk =   0.0005000
        k(  958) = (   0.1001502  -0.1501002  -0.2500001), wk =   0.0005000
        k(  959) = (   0.1001502  -0.1501002  -0.2000001), wk =   0.0005000
        k(  960) = (   0.1001502  -0.1501002  -0.1500001), wk =   0.0005000
        k(  961) = (   0.1001502  -0.1501002  -0.1000001), wk =   0.0005000
        k(  962) = (   0.1001502  -0.1501002  -0.0500000), wk =   0.0005000
        k(  963) = (   0.1001002  -0.1001002   0.0000000), wk =   0.0005000
        k(  964) = (   0.1001002  -0.1001002   0.0500000), wk =   0.0005000
        k(  965) = (   0.1001002  -0.1001002   0.1000001), wk =   0.0005000
        k(  966) = (   0.1001002  -0.1001002   0.1500001), wk =   0.0005000
        k(  967) = (   0.1001002  -0.1001002   0.2000001), wk =   0.0005000
        k(  968) = (   0.1001002  -0.1001002   0.2500001), wk =   0.0005000
        k(  969) = (   0.1001002  -0.1001002   0.3000002), wk =   0.0005000
        k(  970) = (   0.1001002  -0.1001002   0.3500002), wk =   0.0005000
        k(  971) = (   0.1001002  -0.1001002   0.4000002), wk =   0.0005000
        k(  972) = (   0.1001002  -0.1001002   0.4500002), wk =   0.0005000
        k(  973) = (   0.1001002  -0.1001002  -0.5000003), wk =   0.0005000
        k(  974) = (   0.1001002  -0.1001002  -0.4500002), wk =   0.0005000
        k(  975) = (   0.1001002  -0.1001002  -0.4000002), wk =   0.0005000
        k(  976) = (   0.1001002  -0.1001002  -0.3500002), wk =   0.0005000
        k(  977) = (   0.1001002  -0.1001002  -0.3000002), wk =   0.0005000
        k(  978) = (   0.1001002  -0.1001002  -0.2500001), wk =   0.0005000
        k(  979) = (   0.1001002  -0.1001002  -0.2000001), wk =   0.0005000
[...]

     1.1516   1.1654   2.8802   2.9002   4.6102   4.6250   6.3043   6.3251
    14.7277  14.7416

     occupation numbers 
     1.0000   1.0000   1.0000   1.0000   1.0000   1.0000   1.0013   1.0015
    -0.0000  -0.0000

          k =-0.5004 0.4005-0.2500 (  1922 PWs)   bands (ev):

     0.9113   0.9252   2.6439   2.6642   5.2224   5.2369   6.9119   6.9326
    13.7204  13.7346

     occupation numbers 
     1.0000   1.0000   1.0000   1.0000   1.0000   1.0000   1.0292   1.0306
    -0.0000  -0.0000

          k =-0.5004 0.4005-0.2000 (  1928 PWs)   bands (ev):

     0.7144   0.7284   2.4498   2.4702   5.8711   5.8854   7.5548   7.5755
    12.7419  12.7563

     occupation numbers 
     1.0000   1.0000   1.0000   1.0000   1.0000   1.0000   0.8061   0.7831
    -0.0000  -0.0000

          k =-0.5004 0.4005-0.1500 (  1929 PWs)   bands (ev):

     0.5611   0.5751   2.2985   2.3189   6.5506   6.5648   8.2277   8.2483
    11.8027  11.8173

     occupation numbers 
     1.0000   1.0000   1.0000   1.0000   1.0064   1.0069   0.0307   0.0202
    -0.0000  -0.0000

          k =-0.5004 0.4005-0.1000 (  1939 PWs)   bands (ev):

     0.4515   0.4655   2.1902   2.2107   7.2468   7.2608   8.9165   8.9370
    10.9195  10.9343

     occupation numbers 
     1.0000   1.0000   1.0000   1.0000   1.0125   1.0084  -0.0117  -0.0106
    -0.0000  -0.0000

          k =-0.5004 0.4005-0.0500 (  1938 PWs)   bands (ev):

     0.3857   0.3997   2.1252   2.1458   7.9087   7.9224   9.5700   9.5902
    10.1450  10.1600

     occupation numbers 
     1.0000   1.0000   1.0000   1.0000   0.3373   0.3194  -0.0001  -0.0001
    -0.0000  -0.0000

          k =-0.5005 0.4505 0.0000 (  1940 PWs)   bands (ev):

     0.7353   0.7510   1.6057   1.6247   8.6233   8.6383   9.4509   9.4692
    10.1007  10.1176

     occupation numbers 
     1.0000   1.0000   1.0000   1.0000  -0.0322  -0.0313  -0.0003  -0.0003
    -0.0000  -0.0000

          k =-0.5005 0.4505 0.0500 (  1943 PWs)   bands (ev):

     0.7572   0.7728   1.6275   1.6464   8.2621   8.2775   9.0930   9.1116
    10.4993  10.5159

     occupation numbers 
     1.0000   1.0000   1.0000   1.0000   0.0138   0.0072  -0.0044  -0.0040
    -0.0000  -0.0000

          k =-0.5005 0.4505 0.1000 (  1936 PWs)   bands (ev):

     0.8228   0.8385   1.6927   1.7116   7.6026   7.6182   8.4378   8.4566
    11.2710  11.2872

     occupation numbers 
     1.0000   1.0000   1.0000   1.0000   0.7516   0.7327  -0.0315  -0.0331
    -0.0000  -0.0000

          k =-0.5005 0.4505 0.1500 (  1936 PWs)   bands (ev):

     0.9322   0.9478   1.8014   1.8203   6.9080   6.9238   7.7470   7.7660
    12.1514  12.1675

     occupation numbers 
     1.0000   1.0000   1.0000   1.0000   1.0289   1.0300   0.5617   0.5350
    -0.0000  -0.0000

          k =-0.5005 0.4505 0.2000 (  1928 PWs)   bands (ev):

     1.0851   1.1007   1.9533   1.9722   6.2299   6.2458   7.0723   7.0914
    13.0875  13.1033

     occupation numbers 
     1.0000   1.0000   1.0000   1.0000   1.0007   1.0008   1.0353   1.0349
    -0.0000  -0.0000

          k =-0.5005 0.4505 0.2500 (  1923 PWs)   bands (ev):

     1.2814   1.2970   2.1484   2.1672   5.5822   5.5983   6.4276   6.4468
    14.0623  14.0778

     occupation numbers 
     1.0000   1.0000   1.0000   1.0000   1.0000   1.0000   1.0030   1.0034
    -0.0000  -0.0000

          k =-0.5005 0.4505 0.3000 (  1921 PWs)   bands (ev):

     1.5211   1.5366   2.3863   2.4049   4.9705   4.9867   5.8184   5.8377
    15.0652  15.0802

     occupation numbers 
     1.0000   1.0000   1.0000   1.0000   1.0000   1.0000   1.0000   1.0000
    -0.0000  -0.0000

          k =-0.5005 0.4505 0.3500 (  1919 PWs)   bands (ev):

     1.8037   1.8191   2.6664   2.6848   4.3977   4.4141   5.2473   5.2667
    16.0838  16.0978

     occupation numbers 
     1.0000   1.0000   1.0000   1.0000   1.0000   1.0000   1.0000   1.0000
    -0.0000  -0.0000

          k =-0.5005 0.4505 0.4000 (  1907 PWs)   bands (ev):

     2.1289   2.1442   2.9861   3.0037   3.8675   3.8848   4.7160   4.7356
    17.0963  17.1085

     occupation numbers 
     1.0000   1.0000   1.0000   1.0000   1.0000   1.0000   1.0000   1.0000
    -0.0000  -0.0000

          k =-0.5005 0.4505 0.4500 (  1898 PWs)   bands (ev):

     2.4960   2.5110   3.2735   3.2839   3.4528   3.4773   4.2260   4.2458
    18.0280  18.0420

     occupation numbers 
     1.0000   1.0000   1.0000   1.0000   1.0000   1.0000   1.0000   1.0000
    -0.0000  -0.0000

          k =-0.5005 0.4505-0.5000 (  1904 PWs)   bands (ev):

     2.9022   2.9023   2.9166   2.9166   3.7801   3.7802   3.8006   3.8007
    18.3390  18.3431

     occupation numbers 
     1.0000   1.0000   1.0000   1.0000   1.0000   1.0000   1.0000   1.0000
    -0.0000  -0.0000

          k =-0.5005 0.4505-0.4500 (  1898 PWs)   bands (ev):

     2.4960   2.5110   3.2735   3.2839   3.4528   3.4773   4.2260   4.2458
    18.0260  18.0416

     occupation numbers 
     1.0000   1.0000   1.0000   1.0000   1.0000   1.0000   1.0000   1.0000
    -0.0000  -0.0000

          k =-0.5005 0.4505-0.4000 (  1907 PWs)   bands (ev):

     2.1289   2.1442   2.9861   3.0037   3.8675   3.8848   4.7160   4.7356
    17.0963  17.1085

     occupation numbers 
     1.0000   1.0000   1.0000   1.0000   1.0000   1.0000   1.0000   1.0000
    -0.0000  -0.0000

          k =-0.5005 0.4505-0.3500 (  1919 PWs)   bands (ev):

     1.8037   1.8191   2.6664   2.6848   4.3977   4.4141   5.2473   5.2667
    16.0838  16.0978

     occupation numbers 
     1.0000   1.0000   1.0000   1.0000   1.0000   1.0000   1.0000   1.0000
    -0.0000  -0.0000

          k =-0.5005 0.4505-0.3000 (  1921 PWs)   bands (ev):

     1.5211   1.5366   2.3863   2.4049   4.9705   4.9867   5.8184   5.8377
    15.0652  15.0802

     occupation numbers 
     1.0000   1.0000   1.0000   1.0000   1.0000   1.0000   1.0000   1.0000
    -0.0000  -0.0000

          k =-0.5005 0.4505-0.2500 (  1923 PWs)   bands (ev):

     1.2814   1.2970   2.1484   2.1672   5.5822   5.5983   6.4276   6.4468
    14.0623  14.0778

     occupation numbers 
     1.0000   1.0000   1.0000   1.0000   1.0000   1.0000   1.0030   1.0034
    -0.0000  -0.0000

          k =-0.5005 0.4505-0.2000 (  1928 PWs)   bands (ev):

     1.0851   1.1007   1.9533   1.9722   6.2299   6.2458   7.0723   7.0914
    13.0875  13.1033

     occupation numbers 
     1.0000   1.0000   1.0000   1.0000   1.0007   1.0008   1.0353   1.0349
    -0.0000  -0.0000

          k =-0.5005 0.4505-0.1500 (  1936 PWs)   bands (ev):

     0.9322   0.9478   1.8014   1.8203   6.9080   6.9238   7.7470   7.7660
    12.1514  12.1675

     occupation numbers 
     1.0000   1.0000   1.0000   1.0000   1.0289   1.0300   0.5617   0.5350
    -0.0000  -0.0000

          k =-0.5005 0.4505-0.1000 (  1936 PWs)   bands (ev):

     0.8228   0.8385   1.6927   1.7116   7.6026   7.6182   8.4378   8.4566
    11.2710  11.2872

     occupation numbers 
     1.0000   1.0000   1.0000   1.0000   0.7516   0.7327  -0.0315  -0.0331
    -0.0000  -0.0000

          k =-0.5005 0.4505-0.0500 (  1943 PWs)   bands (ev):

     0.7572   0.7728   1.6275   1.6464   8.2621   8.2775   9.0930   9.1116
    10.4993  10.5159

     occupation numbers 
     1.0000   1.0000   1.0000   1.0000   0.0138   0.0072  -0.0044  -0.0040
    -0.0000  -0.0000

          k =-0.4995-0.4995 0.0000 (  1948 PWs)   bands (ev):

     1.1494   1.1494   1.1667   1.1667   9.0163   9.0163   9.0329   9.0329
    10.4980  10.5066

     occupation numbers 
     1.0000   1.0000   1.0000   1.0000  -0.0070  -0.0070  -0.0063  -0.0063
    -0.0000  -0.0000

          k =-0.4995-0.4995 0.0500 (  1940 PWs)   bands (ev):

     1.1713   1.1713   1.1886   1.1886   8.6570   8.6570   8.6739   8.6739
    10.8955  10.8985

     occupation numbers 
     1.0000   1.0000   1.0000   1.0000  -0.0301  -0.0301  -0.0289  -0.0289
    -0.0000  -0.0000

          k =-0.4995-0.4995 0.1000 (  1936 PWs)   bands (ev):

     1.2367   1.2367   1.2540   1.2540   7.9996   7.9996   8.0169   8.0169
    11.6608  11.6611

     occupation numbers 
     1.0000   1.0000   1.0000   1.0000   0.2243   0.2243   0.2049   0.2049
    -0.0000  -0.0000

          k =-0.4995-0.4995 0.1500 (  1932 PWs)   bands (ev):

     1.3457   1.3457   1.3630   1.3630   7.3070   7.3070   7.3244   7.3244
    12.5377  12.5528

     occupation numbers 
     1.0000   1.0000   1.0000   1.0000   0.9917   0.9917   0.9841   0.9841
    -0.0000  -0.0000

          k =-0.4995-0.4995 0.2000 (  1928 PWs)   bands (ev):

     1.4982   1.4982   1.5154   1.5154   6.6305   6.6305   6.6480   6.6480
    13.4693  13.4806

     occupation numbers 
     1.0000   1.0000   1.0000   1.0000   1.0098   1.0098   1.0107   1.0107
    -0.0000  -0.0000

          k =-0.4995-0.4995 0.2500 (  1924 PWs)   bands (ev):

     1.6940   1.6940   1.7112   1.7112   5.9842   5.9842   6.0018   6.0018
    14.4379  14.4471

     occupation numbers 
     1.0000   1.0000   1.0000   1.0000   1.0001   1.0001   1.0001   1.0001
    -0.0000  -0.0000

          k =-0.4995-0.4995 0.3000 (  1924 PWs)   bands (ev):

     1.9329   1.9329   1.9500   1.9500   5.3735   5.3735   5.3913   5.3913
    15.4325  15.4463

     occupation numbers 
     1.0000   1.0000   1.0000   1.0000   1.0000   1.0000   1.0000   1.0000
    -0.0000  -0.0000

          k =-0.4995-0.4995 0.3500 (  1920 PWs)   bands (ev):

     2.2145   2.2145   2.2315   2.2315   4.8013   4.8013   4.8192   4.8192
    16.4437  16.4503

     occupation numbers 
     1.0000   1.0000   1.0000   1.0000   1.0000   1.0000   1.0000   1.0000
    -0.0000  -0.0000

          k =-0.4995-0.4995 0.4000 (  1908 PWs)   bands (ev):

     2.5382   2.5382   2.5549   2.5549   4.2694   4.2694   4.2875   4.2875
    17.4346  17.4398

     occupation numbers 
     1.0000   1.0000   1.0000   1.0000   1.0000   1.0000   1.0000   1.0000
    -0.0000  -0.0000

          k =-0.4995-0.4995 0.4500 (  1904 PWs)   bands (ev):

     2.9014   2.9015   2.9174   2.9174   3.7809   3.7809   3.7998   3.7998
    18.3608  18.3626

     occupation numbers 
     1.0000   1.0000   1.0000   1.0000   1.0000   1.0000   1.0000   1.0000
    -0.0000  -0.0000

          k =-0.4995-0.4995-0.5000 (  1904 PWs)   bands (ev):

     3.2319   3.2319   3.2423   3.2423   3.4087   3.4087   3.4332   3.4332
    19.0576  19.0670

     occupation numbers 
     1.0000   1.0000   1.0000   1.0000   1.0000   1.0000   1.0000   1.0000
    -0.0000  -0.0000

     the Fermi energy is     7.7908 ev

!    total energy              =    -158.01089860 Ry
     Harris-Foulkes estimate   =    -158.01089860 Ry
     estimated scf accuracy    <          8.3E-13 Ry

     total all-electron energy =     -1942.582025 Ry

     The total energy is the sum of the following terms:

     one-electron contribution =      12.54565300 Ry
     hartree contribution      =       0.02314670 Ry
     xc contribution           =     -10.33748740 Ry
     ewald contribution        =     -21.52887270 Ry
     one-center paw contrib.   =    -138.71328999 Ry
      -> PAW hartree energy AE =       1.34423869 Ry
      -> PAW hartree energy PS =      -1.33962604 Ry
      -> PAW xc energy AE      =     -36.55809130 Ry
      -> PAW xc energy PS      =       1.87515631 Ry
      -> total E_H with PAW    =       0.02775935 Ry
      -> total E_XC with PAW   =     -45.02042239 Ry
     smearing contrib. (-TS)   =      -0.00004821 Ry

     convergence has been achieved in  11 iterations

     Forces acting on atoms (cartesian axes, Ry/au):

     atom    1 type  1   force =    -0.00000075   -0.00000076   -0.00000316
     atom    2 type  1   force =     0.00000078    0.00000079   -0.00000316
     atom    3 type  1   force =    -0.00000011    0.00000007    0.00000316
     atom    4 type  1   force =     0.00000007   -0.00000010    0.00000316
     The non-local contrib.  to forces
     atom    1 type  1   force =    -0.00000127   -0.00000126   -0.00000410
     atom    2 type  1   force =     0.00000136    0.00000132   -0.00000410
     atom    3 type  1   force =    -0.00000046    0.00000043    0.00000409
     atom    4 type  1   force =     0.00000041   -0.00000048    0.00000409
     The ionic contribution  to forces
     atom    1 type  1   force =    -0.00000421   -0.00000421   -0.00002179
     atom    2 type  1   force =     0.00000437    0.00000437   -0.00002179
     atom    3 type  1   force =     0.00000035   -0.00000051    0.00002179
     atom    4 type  1   force =    -0.00000051    0.00000035    0.00002179
     The local contribution  to forces
     atom    1 type  1   force =     0.00000460    0.00000452    0.00002220
     atom    2 type  1   force =    -0.00000479   -0.00000470    0.00002220
     atom    3 type  1   force =    -0.00000005    0.00000014   -0.00002219
     atom    4 type  1   force =     0.00000023    0.00000003   -0.00002220
     The core correction contribution to forces
     atom    1 type  1   force =     0.00000015    0.00000015    0.00000050
     atom    2 type  1   force =    -0.00000016   -0.00000015    0.00000050
     atom    3 type  1   force =     0.00000005   -0.00000005   -0.00000050
     atom    4 type  1   force =    -0.00000004    0.00000005   -0.00000050
     The Hubbard contrib.    to forces
     atom    1 type  1   force =     0.00000000    0.00000000    0.00000000
     atom    2 type  1   force =     0.00000000    0.00000000    0.00000000
     atom    3 type  1   force =     0.00000000    0.00000000    0.00000000
     atom    4 type  1   force =     0.00000000    0.00000000    0.00000000
     The SCF correction term to forces
     atom    1 type  1   force =    -0.00000001    0.00000005    0.00000002
     atom    2 type  1   force =     0.00000001   -0.00000005    0.00000002
     atom    3 type  1   force =     0.00000001    0.00000006   -0.00000003
     atom    4 type  1   force =    -0.00000001   -0.00000005   -0.00000002

     Total force =     0.000007     Total SCF correction =     0.000000


     Computing stress (Cartesian axis) and pressure

          total   stress  (Ry/bohr**3)                   (kbar)     P=  -10.04
  -0.00006827  -0.00000427  -0.00000000        -10.04     -0.63     -0.00
  -0.00000427  -0.00006827   0.00000000         -0.63    -10.04      0.00
  -0.00000000   0.00000000  -0.00006830         -0.00      0.00    -10.05

     kinetic stress (kbar)   1434.99      0.14     -0.00
                                0.14   1434.99     -0.00
                               -0.00     -0.00   1434.99

     local   stress (kbar)    627.64      2.68     -0.00
                                2.68    627.64      0.00
                               -0.00      0.00    627.65

     nonloc. stress (kbar)   1037.75     -0.60     -0.00
                               -0.60   1037.75     -0.00
                               -0.00     -0.00   1037.75

     hartree stress (kbar)      2.52     -0.02      0.00
                               -0.02      2.52      0.00
                                0.00      0.00      2.52

     exc-cor stress (kbar)    501.05     -0.02     -0.00
                               -0.02    501.05     -0.00
                               -0.00     -0.00    501.05

     corecor stress (kbar)  -1271.35      0.10      0.00
                                0.10  -1271.35      0.00
                                0.00      0.00  -1271.35

     ewald   stress (kbar)  -2342.64     -2.91     -0.00
                               -2.91  -2342.64     -0.00
                               -0.00     -0.00  -2342.65

     hubbard stress (kbar)      0.00      0.00      0.00
                                0.00      0.00      0.00
                                0.00      0.00      0.00

     london  stress (kbar)      0.00      0.00      0.00
                                0.00      0.00      0.00
                                0.00      0.00      0.00

     DFT-D3  stress (kbar)      0.00      0.00      0.00
                                0.00      0.00      0.00
                                0.00      0.00      0.00

     XDM     stress (kbar)      0.00      0.00      0.00
                                0.00      0.00      0.00
                                0.00      0.00      0.00

     dft-nl  stress (kbar)      0.00      0.00      0.00
                                0.00      0.00      0.00
                                0.00      0.00      0.00

     TS-vdW  stress (kbar)      0.00      0.00      0.00
                                0.00      0.00      0.00
                                0.00      0.00      0.00



     Writing output data file aiida.save/
 
     init_run     :      3.74s CPU      3.99s WALL (       1 calls)
     electrons    :    119.59s CPU    126.21s WALL (       1 calls)
     forces       :      0.84s CPU      0.85s WALL (       1 calls)
     stress       :      2.04s CPU      2.04s WALL (       1 calls)

     Called by init_run:
     wfcinit      :      3.51s CPU      3.71s WALL (       1 calls)
     wfcinit:atom :      0.04s CPU      0.04s WALL (    1001 calls)
     wfcinit:wfcr :      3.23s CPU      3.42s WALL (    1001 calls)
     potinit      :      0.08s CPU      0.09s WALL (       1 calls)
     hinit0       :      0.09s CPU      0.11s WALL (       1 calls)

     Called by electrons:
     c_bands      :    107.25s CPU    113.19s WALL (      12 calls)
     sum_band     :     11.44s CPU     12.06s WALL (      12 calls)
     v_of_rho     :      0.11s CPU      0.11s WALL (      12 calls)
     v_h          :      0.01s CPU      0.01s WALL (      12 calls)
     v_xc         :      0.11s CPU      0.12s WALL (      14 calls)
     newd         :      0.09s CPU      0.09s WALL (      12 calls)
     PAW_pot      :      0.65s CPU      0.68s WALL (      12 calls)
     mix_rho      :      0.04s CPU      0.04s WALL (      12 calls)

     Called by c_bands:
     init_us_2    :      2.26s CPU      2.37s WALL (   27027 calls)
     cegterg      :     82.87s CPU     86.19s WALL (   12012 calls)

     Called by sum_band:
     sum_band:bec :      0.16s CPU      0.17s WALL (   12012 calls)
     addusdens    :      0.08s CPU      0.10s WALL (      12 calls)

     Called by *egterg:
     h_psi        :     49.36s CPU     51.37s WALL (   39684 calls)
     s_psi        :      2.09s CPU      2.20s WALL (   39684 calls)
     g_psi        :      0.36s CPU      0.37s WALL (   26671 calls)
     cdiaghg      :     25.44s CPU     26.48s WALL (   37682 calls)
     cegterg:over :      3.55s CPU      3.71s WALL (   26671 calls)
     cegterg:upda :      1.90s CPU      1.99s WALL (   26671 calls)
     cegterg:last :      0.58s CPU      0.61s WALL (   12086 calls)
     cdiaghg:chol :      1.72s CPU      1.82s WALL (   37682 calls)
     cdiaghg:inve :      0.73s CPU      0.77s WALL (   37682 calls)
     cdiaghg:para :      2.84s CPU      2.95s WALL (   75364 calls)

     Called by h_psi:
     h_psi:pot    :     49.15s CPU     51.14s WALL (   39684 calls)
     h_psi:calbec :      3.40s CPU      3.56s WALL (   39684 calls)
     vloc_psi     :     43.34s CPU     45.07s WALL (   39684 calls)
     add_vuspsi   :      2.17s CPU      2.28s WALL (   39684 calls)

     General routines
     calbec       :      4.87s CPU      5.10s WALL (   56701 calls)
     fft          :      0.10s CPU      0.11s WALL (     181 calls)
     ffts         :      0.02s CPU      0.02s WALL (     146 calls)
     fftw         :     47.32s CPU     49.32s WALL (  753222 calls)
     interpolate  :      0.01s CPU      0.01s WALL (      12 calls)
 
     Parallel routines
     fft_scatt_xy :      5.65s CPU      5.92s WALL (  753549 calls)
     fft_scatt_yz :     27.95s CPU     29.32s WALL (  753549 calls)

     PAW routines
     PAW_pot      :      0.65s CPU      0.68s WALL (      12 calls)
 
     PWSCF        :   2m19.30s CPU   3m14.67s WALL

 
   This run was terminated on:   7:32: 1  22Feb2020            

=------------------------------------------------------------------------------=
   JOB DONE.
=------------------------------------------------------------------------------=
