begin
comment 4 atoms, species Al4
lattice      7.6666783013     0.0076666860     0.0000000000
lattice      0.0076666860     7.6666783013     0.0000000000
lattice      0.0000000000     0.0000000000     7.6666783013
atom      7.6724244824     7.6724244824     0.0000000000   Al  0.0 0.0   -3.74999972e-07 -3.79999971e-07 -1.57999988e-06
atom      3.8352343554     3.8352343554     0.0000000000   Al  0.0 0.0    3.89999971e-07  3.94999970e-07 -1.57999988e-06
atom      3.8390799651     7.6685788727     3.8333092506   Al  0.0 0.0   -5.49999959e-08  3.49999974e-08  1.57999988e-06
atom      7.6685788727     3.8390799651     3.8333092506   Al  0.0 0.0    3.49999974e-08 -4.99999962e-08  1.57999988e-06
energy -7.900544303213972e+01
charge 0.0000
end
