begin
comment uuid: 4e672bb6-2289-4a60-a482-27927b560cef
lattice      7.7107468946     0.0000000000     0.0000000000
lattice      0.0000000000     7.7107468946     0.0000000000
lattice      0.0000000000     0.0000000000     7.7107468946
atom      0.0000000000     3.8553740000     3.8553740000   Al  0.0 0.0       0.0076160514     0.0014964044     0.0016134056
atom      4.1320580000     0.1871600000     3.8422850000   Al  0.0 0.0      -0.0111331299    -0.0034614853     0.0022906711
atom      3.9456360000     4.0590450000     7.5999080000   Al  0.0 0.0      -0.0016075235    -0.0088087325     0.0036828188
atom      0.1045250000     7.6333320000     0.1212260000   Mg  0.0 0.0       0.0051246021     0.0107738134    -0.0075868955
energy -76.0579197122
charge 0.0000
end
begin
comment uuid: 67631fab-debb-4c1e-9c0f-3bad006d5f3a
lattice      7.5109068973     0.0000000000     0.0000000000
lattice      0.0000000000     7.5109068973     0.0000000000
lattice      0.0000000000     0.0000000000     7.5109068973
atom      0.0000000000     0.0000000000     0.0000000000   Mg  0.0 0.0      -0.0000000397    -0.0000000397    -0.0000000397
atom      3.7554530000     3.7554530000     0.0000000000   Mg  0.0 0.0       0.0000000397     0.0000000397    -0.0000000397
atom      3.7554530000     0.0000000000     3.7554530000   Mg  0.0 0.0       0.0000000397    -0.0000000397     0.0000000397
atom      0.0000000000     3.7554530000     3.7554530000   Mg  0.0 0.0      -0.0000000397     0.0000000397     0.0000000397
energy -67.1603794256
charge 0.0000
end
