begin
comment 108 atoms, species Al107Mg
lattice     22.9589491391     0.0000000000    -0.0000000000
lattice      0.0000000000    22.9589491391    -0.0000000000
lattice     -0.0000000000    -0.0000000000    22.9589491391
atom     -0.0000000000    -0.0000000000    -0.0000000000   Mg  0.0 0.0   -1.00663515e-12 -1.00393851e-12 -9.78962736e-13
atom     -0.0000000000     3.8651515753     3.8651515753   Al  0.0 0.0   -7.87917918e-13 -9.66892333e-07 -9.66892320e-07
atom      3.8651515753    -0.0000000000     3.8651515753   Al  0.0 0.0   -9.66892324e-07 -7.70727774e-13 -9.66892335e-07
atom      3.8651515753     3.8651515753    -0.0000000000   Al  0.0 0.0   -9.66892321e-07 -9.66892319e-07 -7.81170686e-13
atom     -0.0000000000    -0.0000000000     7.6479524630   Al  0.0 0.0   -8.06317257e-13 -8.01661018e-13 -5.00085745e-07
atom     -0.0000000000     3.8208063313    11.4794745696   Al  0.0 0.0   -8.03823566e-13 -5.67222431e-07  1.04557112e-13
atom      3.8208063313    -0.0000000000    11.4794745696   Al  0.0 0.0   -5.67222418e-07 -7.87767899e-13  8.84216258e-14
atom      3.8304652399     3.8304652399     7.6638753214   Al  0.0 0.0    9.65147355e-08  9.65147353e-08 -1.99670678e-07
atom     -0.0000000000    -0.0000000000    15.3109966761   Al  0.0 0.0   -8.06215782e-13 -8.01717692e-13  5.00085764e-07
atom     -0.0000000000     3.8651515753    19.0937975638   Al  0.0 0.0   -7.86436816e-13 -9.66892403e-07  9.66893057e-07
atom      3.8651515753    -0.0000000000    19.0937975638   Al  0.0 0.0   -9.66892387e-07 -7.69594567e-13  9.66893038e-07
atom      3.8304652399     3.8304652399    15.2950738177   Al  0.0 0.0    9.65147362e-08  9.65147357e-08  1.99670658e-07
atom     -0.0000000000     7.6479524630    -0.0000000000   Al  0.0 0.0   -8.06265440e-13 -5.00085757e-07 -7.83878171e-13
atom     -0.0000000000    11.4794745696     3.8208063313   Al  0.0 0.0   -8.04184126e-13  9.30375395e-14 -5.67222414e-07
atom      3.8304652399     7.6638753214     3.8304652399   Al  0.0 0.0    9.65147361e-08 -1.99670659e-07  9.65147234e-08
atom      3.8208063313    11.4794745696    -0.0000000000   Al  0.0 0.0   -5.67222417e-07  1.04701911e-13 -7.98986455e-13
atom     -0.0000000000     7.6591067877     7.6591067877   Al  0.0 0.0   -8.03873224e-13  1.12057929e-07  1.12057939e-07
atom     -0.0000000000    11.4794745696    11.4794745696   Al  0.0 0.0   -8.06120785e-13  9.77491890e-14  1.09873521e-13
atom      3.8259039862     7.6538775805    11.4794745696   Al  0.0 0.0    2.76366583e-07  3.71251842e-07  8.99318048e-14
atom      3.8259039862    11.4794745696     7.6538775805   Al  0.0 0.0    2.76366584e-07  1.06349213e-13  3.71251823e-07
atom     -0.0000000000     7.6591067877    15.2998423514   Al  0.0 0.0   -8.02940519e-13  1.12057944e-07 -1.12057946e-07
atom     -0.0000000000    11.4794745696    19.1381428078   Al  0.0 0.0   -8.03996289e-13  9.25929628e-14  5.67223129e-07
atom      3.8304652399     7.6638753214    19.1284838992   Al  0.0 0.0    9.65147383e-08 -1.99670674e-07 -9.65140353e-08
atom      3.8259039862    11.4794745696    15.3050715586   Al  0.0 0.0    2.76366584e-07  1.03201138e-13 -3.71251854e-07
atom     -0.0000000000    15.3109966761    -0.0000000000   Al  0.0 0.0   -8.06375551e-13  5.00085756e-07 -7.85472974e-13
atom     -0.0000000000    19.0937975638     3.8651515753   Al  0.0 0.0   -7.84977305e-13  9.66893044e-07 -9.66892385e-07
atom      3.8304652399    15.2950738177     3.8304652399   Al  0.0 0.0    9.65147352e-08  1.99670678e-07  9.65147228e-08
atom      3.8651515753    19.0937975638    -0.0000000000   Al  0.0 0.0   -9.66892393e-07  9.66893058e-07 -7.78147599e-13
atom     -0.0000000000    15.2998423514     7.6591067877   Al  0.0 0.0   -8.03903450e-13 -1.12057955e-07  1.12057956e-07
atom     -0.0000000000    19.1381428078    11.4794745696   Al  0.0 0.0   -8.05054219e-13  5.67223116e-07  1.03527750e-13
atom      3.8259039862    15.3050715586    11.4794745696   Al  0.0 0.0    2.76366583e-07 -3.71251836e-07  8.70714864e-14
atom      3.8304652399    19.1284838992     7.6638753214   Al  0.0 0.0    9.65147365e-08 -9.65140200e-08 -1.99670693e-07
atom     -0.0000000000    15.2998423514    15.2998423514   Al  0.0 0.0   -8.06120785e-13 -1.12057970e-07 -1.12057961e-07
atom     -0.0000000000    19.0937975638    19.0937975638   Al  0.0 0.0   -7.89105390e-13  9.66893115e-07  9.66893128e-07
atom      3.8304652399    15.2950738177    19.1284838992   Al  0.0 0.0    9.65147354e-08  1.99670692e-07 -9.65140327e-08
atom      3.8304652399    19.1284838992    15.2950738177   Al  0.0 0.0    9.65147362e-08 -9.65140172e-08  1.99670673e-07
atom      7.6479524630    -0.0000000000    -0.0000000000   Al  0.0 0.0   -5.00085751e-07 -7.96709339e-13 -7.89976506e-13
atom      7.6638753214     3.8304652399     3.8304652399   Al  0.0 0.0   -1.99670664e-07  9.65147297e-08  9.65147330e-08
atom     11.4794745696    -0.0000000000     3.8208063313   Al  0.0 0.0    9.92422664e-14 -7.94137754e-13 -5.67222420e-07
atom     11.4794745696     3.8208063313    -0.0000000000   Al  0.0 0.0    9.86076436e-14 -5.67222424e-07 -7.90952812e-13
atom      7.6591067877    -0.0000000000     7.6591067877   Al  0.0 0.0    1.12057937e-07 -7.95579858e-13  1.12057935e-07
atom      7.6538775805     3.8259039862    11.4794745696   Al  0.0 0.0    3.71251836e-07  2.76366576e-07  9.87944703e-14
atom     11.4794745696    -0.0000000000    11.4794745696   Al  0.0 0.0    1.05414186e-13 -7.97999142e-13  1.01553880e-13
atom     11.4794745696     3.8259039862     7.6538775805   Al  0.0 0.0    9.97638095e-14  2.76366577e-07  3.71251831e-07
atom      7.6591067877    -0.0000000000    15.2998423514   Al  0.0 0.0    1.12057950e-07 -7.93527239e-13 -1.12057951e-07
atom      7.6638753214     3.8304652399    19.1284838992   Al  0.0 0.0   -1.99670681e-07  9.65147309e-08 -9.65140280e-08
atom     11.4794745696    -0.0000000000    19.1381428078   Al  0.0 0.0    9.95754670e-14 -7.93966895e-13  5.67223121e-07
atom     11.4794745696     3.8259039862    15.3050715586   Al  0.0 0.0    9.83363130e-14  2.76366577e-07 -3.71251847e-07
atom      7.6591067877     7.6591067877    -0.0000000000   Al  0.0 0.0    1.12057935e-07  1.12057935e-07 -7.89622753e-13
atom      7.6538775805    11.4794745696     3.8259039862   Al  0.0 0.0    3.71251835e-07  9.85523382e-14  2.76366581e-07
atom     11.4794745696     7.6538775805     3.8259039862   Al  0.0 0.0    9.96865226e-14  3.71251835e-07  2.76366581e-07
atom     11.4794745696    11.4794745696    -0.0000000000   Al  0.0 0.0    1.03341406e-13  1.02338856e-13 -7.94356236e-13
atom      7.6538856055     7.6538856055     7.6538856055   Al  0.0 0.0    1.59491919e-07  1.59491918e-07  1.59491916e-07
atom      7.6509158329    11.4794745696    11.4794745696   Al  0.0 0.0    2.27571900e-07  9.72849121e-14  9.86524168e-14
atom     11.4794745696     7.6509158329    11.4794745696   Al  0.0 0.0    9.84720963e-14  2.27571899e-07  9.73679349e-14
atom     11.4794745696    11.4794745696     7.6509158329   Al  0.0 0.0    9.90807095e-14  9.93833272e-14  2.27571897e-07
atom      7.6538856055     7.6538856055    15.3050635336   Al  0.0 0.0    1.59491919e-07  1.59491918e-07 -1.59491921e-07
atom      7.6538775805    11.4794745696    19.1330451529   Al  0.0 0.0    3.71251841e-07  9.80759452e-14 -2.76365876e-07
atom     11.4794745696     7.6538775805    19.1330451529   Al  0.0 0.0    9.80153244e-14  3.71251840e-07 -2.76365876e-07
atom     11.4794745696    11.4794745696    15.3080333062   Al  0.0 0.0    9.84026022e-14  9.81710241e-14 -2.27571901e-07
atom      7.6591067877    15.2998423514    -0.0000000000   Al  0.0 0.0    1.12057950e-07 -1.12057952e-07 -7.88883609e-13
atom      7.6638753214    19.1284838992     3.8304652399   Al  0.0 0.0   -1.99670681e-07 -9.65140276e-08  9.65147366e-08
atom     11.4794745696    15.3050715586     3.8259039862   Al  0.0 0.0    9.84746265e-14 -3.71251842e-07  2.76366582e-07
atom     11.4794745696    19.1381428078    -0.0000000000   Al  0.0 0.0    9.87736535e-14  5.67223124e-07 -7.90256711e-13
atom      7.6538856055    15.3050635336     7.6538856055   Al  0.0 0.0    1.59491920e-07 -1.59491919e-07  1.59491916e-07
atom      7.6538775805    19.1330451529    11.4794745696   Al  0.0 0.0    3.71251841e-07 -2.76365875e-07  9.78287509e-14
atom     11.4794745696    15.3080333062    11.4794745696   Al  0.0 0.0    1.00308023e-13 -2.27571897e-07  9.56355607e-14
atom     11.4794745696    19.1330451529     7.6538775805   Al  0.0 0.0    1.00441310e-13 -2.76365876e-07  3.71251839e-07
atom      7.6538856055    15.3050635336    15.3050635336   Al  0.0 0.0    1.59491921e-07 -1.59491922e-07 -1.59491922e-07
atom      7.6638753214    19.1284838992    19.1284838992   Al  0.0 0.0   -1.99670695e-07 -9.65140285e-08 -9.65140278e-08
atom     11.4794745696    15.3050715586    19.1330451529   Al  0.0 0.0    9.95264501e-14 -3.71251848e-07 -2.76365877e-07
atom     11.4794745696    19.1330451529    15.3050715586   Al  0.0 0.0    1.01260328e-13 -2.76365875e-07 -3.71251852e-07
atom     15.3109966761    -0.0000000000    -0.0000000000   Al  0.0 0.0    5.00085762e-07 -7.94878921e-13 -7.91561578e-13
atom     15.2950738177     3.8304652399     3.8304652399   Al  0.0 0.0    1.99670675e-07  9.65147290e-08  9.65147303e-08
atom     19.0937975638    -0.0000000000     3.8651515753   Al  0.0 0.0    9.66893051e-07 -7.76290947e-13 -9.66892392e-07
atom     19.0937975638     3.8651515753    -0.0000000000   Al  0.0 0.0    9.66893050e-07 -9.66892395e-07 -7.69356540e-13
atom     15.2998423514    -0.0000000000     7.6591067877   Al  0.0 0.0   -1.12057949e-07 -7.94423167e-13  1.12057949e-07
atom     15.3050715586     3.8259039862    11.4794745696   Al  0.0 0.0   -3.71251842e-07  2.76366575e-07  9.58553328e-14
atom     19.1381428078    -0.0000000000    11.4794745696   Al  0.0 0.0    5.67223121e-07 -7.96464478e-13  9.84813945e-14
atom     19.1284838992     3.8304652399     7.6638753214   Al  0.0 0.0   -9.65140258e-08  9.65147289e-08 -1.99670685e-07
atom     15.2998423514    -0.0000000000    15.2998423514   Al  0.0 0.0   -1.12057963e-07 -7.95585839e-13 -1.12057969e-07
atom     15.2950738177     3.8304652399    19.1284838992   Al  0.0 0.0    1.99670688e-07  9.65147287e-08 -9.65140259e-08
atom     19.0937975638    -0.0000000000    19.0937975638   Al  0.0 0.0    9.66893118e-07 -7.80444401e-13  9.66893119e-07
atom     19.1284838992     3.8304652399    15.2950738177   Al  0.0 0.0   -9.65140241e-08  9.65147281e-08  1.99670683e-07
atom     15.2998423514     7.6591067877    -0.0000000000   Al  0.0 0.0   -1.12057948e-07  1.12057950e-07 -7.89057682e-13
atom     15.3050715586    11.4794745696     3.8259039862   Al  0.0 0.0   -3.71251842e-07  9.79747161e-14  2.76366579e-07
atom     19.1284838992     7.6638753214     3.8304652399   Al  0.0 0.0   -9.65140251e-08 -1.99670684e-07  9.65147343e-08
atom     19.1381428078    11.4794745696    -0.0000000000   Al  0.0 0.0    5.67223123e-07  9.78571747e-14 -7.89797895e-13
atom     15.3050635336     7.6538856055     7.6538856055   Al  0.0 0.0   -1.59491919e-07  1.59491918e-07  1.59491915e-07
atom     15.3080333062    11.4794745696    11.4794745696   Al  0.0 0.0   -2.27571897e-07  9.98469275e-14  9.67230752e-14
atom     19.1330451529     7.6538775805    11.4794745696   Al  0.0 0.0   -2.76365875e-07  3.71251839e-07  9.95714710e-14
atom     19.1330451529    11.4794745696     7.6538775805   Al  0.0 0.0   -2.76365875e-07  9.98689868e-14  3.71251838e-07
atom     15.3050635336     7.6538856055    15.3050635336   Al  0.0 0.0   -1.59491920e-07  1.59491920e-07 -1.59491924e-07
atom     15.3050715586    11.4794745696    19.1330451529   Al  0.0 0.0   -3.71251846e-07  9.99616302e-14 -2.76365875e-07
atom     19.1284838992     7.6638753214    19.1284838992   Al  0.0 0.0   -9.65140262e-08 -1.99670696e-07 -9.65140259e-08
atom     19.1330451529    11.4794745696    15.3050715586   Al  0.0 0.0   -2.76365875e-07  9.95886658e-14 -3.71251850e-07
atom     15.2998423514    15.2998423514    -0.0000000000   Al  0.0 0.0   -1.12057962e-07 -1.12057966e-07 -7.90914411e-13
atom     15.2950738177    19.1284838992     3.8304652399   Al  0.0 0.0    1.99670689e-07 -9.65140243e-08  9.65147341e-08
atom     19.1284838992    15.2950738177     3.8304652399   Al  0.0 0.0   -9.65140240e-08  1.99670687e-07  9.65147336e-08
atom     19.0937975638    19.0937975638    -0.0000000000   Al  0.0 0.0    9.66893120e-07  9.66893117e-07 -7.71721879e-13
atom     15.3050635336    15.3050635336     7.6538856055   Al  0.0 0.0   -1.59491919e-07 -1.59491918e-07  1.59491918e-07
atom     15.3050715586    19.1330451529    11.4794745696   Al  0.0 0.0   -3.71251846e-07 -2.76365875e-07  9.78824665e-14
atom     19.1330451529    15.3050715586    11.4794745696   Al  0.0 0.0   -2.76365876e-07 -3.71251846e-07  9.91557494e-14
atom     19.1284838992    19.1284838992     7.6638753214   Al  0.0 0.0   -9.65140272e-08 -9.65140291e-08 -1.99670696e-07
atom     15.3050635336    15.3050635336    15.3050635336   Al  0.0 0.0   -1.59491919e-07 -1.59491920e-07 -1.59491926e-07
atom     15.2950738177    19.1284838992    19.1284838992   Al  0.0 0.0    1.99670706e-07 -9.65140253e-08 -9.65140290e-08
atom     19.1284838992    15.2950738177    19.1284838992   Al  0.0 0.0   -9.65140251e-08  1.99670703e-07 -9.65140255e-08
atom     19.1284838992    19.1284838992    15.2950738177   Al  0.0 0.0   -9.65140270e-08 -9.65140271e-08  1.99670700e-07
energy -2.130201875463382e+03
charge 0.0000
end
