begin
comment 2 atoms, species Al2
lattice      5.4062739372     0.0000000000     0.0000000000
lattice     -2.7031369686     4.6819705694    -0.0000000000
lattice      0.0000000000    -0.0000000000     8.9317319994
atom      0.0000000000     3.1213137129     6.6987989995   Al  0.0 0.0    1.23421525e-14  1.36850754e-14 -1.76374515e-13
atom      2.7031369686     1.5606568565     2.2329329998   Al  0.0 0.0   -1.23785863e-14 -1.37377020e-14  1.76314376e-13
energy -3.950121080527303e+01
charge 0.0000
end
