begin
comment 8 atoms, species Al8
lattice     11.3426729468    -0.0000000000     0.0000000000
lattice     -0.0000000000    11.3426729468     0.0000000000
lattice      0.0000000000     0.0000000000    11.3426729468
atom      0.0000000000     0.0000000000     0.0000000000   Al  0.0 0.0   -2.43811757e-13 -2.43277192e-13 -2.43486990e-13
atom      0.0000000000     5.6713364734     5.6713364734   Al  0.0 0.0   -2.43872210e-13 -2.70672610e-14 -2.65059950e-14
atom      5.6713364734     5.6713364734     0.0000000000   Al  0.0 0.0   -2.65530216e-14 -2.69464666e-14 -2.43863816e-13
atom      5.6713364734     0.0000000000     5.6713364734   Al  0.0 0.0   -2.65530890e-14 -2.43283473e-13 -2.64712753e-14
atom      8.5070047101     2.8356682367     8.5070047101   Al  0.0 0.0    2.42430106e-13  2.78156214e-14  2.41629870e-13
atom      2.8356682367     2.8356682367     2.8356682367   Al  0.0 0.0    2.80934292e-14  2.79909971e-14  2.85983304e-14
atom      2.8356682367     8.5070047101     8.5070047101   Al  0.0 0.0    2.78807637e-14  2.42446917e-13  2.41734267e-13
atom      8.5070047101     8.5070047101     2.8356682367   Al  0.0 0.0    2.42430511e-13  2.42383991e-13  2.85042203e-14
energy -1.577264355148480e+02
charge 0.0000
end
