begin
comment 256 atoms, species Al255Mg
lattice     30.5757687160     0.0000000000     0.0000000000
lattice      0.0000000000    30.5757687160     0.0000000000
lattice      0.0000000000     0.0000000000    30.5757687160
atom      0.0000000000    -0.0000000000    -0.0000000000   Mg  0.0 0.0   -3.54082569e-16 -3.60559689e-16  3.75133209e-16
atom      0.0000000000     3.8657306818     3.8657306818   Al  0.0 0.0    2.07267845e-16 -5.63110982e-07 -5.63110982e-07
atom      3.8657306818    -0.0000000000     3.8657306818   Al  0.0 0.0   -5.63110982e-07  4.42603211e-16 -5.63110982e-07
atom      3.8657306818     3.8657306818     0.0000000000   Al  0.0 0.0   -5.63110982e-07 -5.63110982e-07 -9.11857072e-17
atom      0.0000000000    -0.0000000000     7.6394397360   Al  0.0 0.0    1.14429123e-16  2.41542606e-16  1.07563860e-07
atom      0.0000000000     3.8208682953    11.4702058766   Al  0.0 0.0    2.20222085e-16 -5.32132509e-08 -9.33426012e-07
atom      3.8208682953    -0.0000000000    11.4702058766   Al  0.0 0.0   -5.32132508e-08  9.57804144e-16 -9.33426012e-07
atom      3.8299176338     3.8299176338     7.6582919198   Al  0.0 0.0   -1.17592789e-07 -1.17592789e-07  8.10236374e-07
atom     -0.0000000000    -0.0000000000    15.2878843580   Al  0.0 0.0    6.80097617e-16  3.60559689e-16  8.83047382e-16
atom      0.0000000000     3.8208682953    19.1055628394   Al  0.0 0.0    2.22381125e-16 -5.32132516e-08  9.33426012e-07
atom      3.8208682953    -0.0000000000    19.1055628394   Al  0.0 0.0   -5.32132508e-08  6.20724015e-17  9.33426012e-07
atom      3.8218944136     3.8218944136    15.2878843580   Al  0.0 0.0    2.37079631e-07  2.37079630e-07  3.32492168e-16
atom      0.0000000000    -0.0000000000    22.9363289800   Al  0.0 0.0    7.03847057e-16  1.35749643e-16 -1.07563860e-07
atom      0.0000000000     3.8657306818    26.7100380343   Al  0.0 0.0   -1.68405124e-16 -5.63110982e-07  5.63110982e-07
atom      3.8657306818    -0.0000000000    26.7100380343   Al  0.0 0.0   -5.63110982e-07 -2.45590806e-16  5.63110982e-07
atom      3.8299176338     3.8299176338    22.9174767963   Al  0.0 0.0   -1.17592789e-07 -1.17592790e-07 -8.10236375e-07
atom      0.0000000000     7.6394397360     0.0000000000   Al  0.0 0.0   -3.15219848e-16  1.07563861e-07 -7.15182018e-17
atom      0.0000000000    11.4702058766     3.8208682953   Al  0.0 0.0   -2.63402886e-16 -9.33426013e-07 -5.32132515e-08
atom      3.8299176338     7.6582919198     3.8299176338   Al  0.0 0.0   -1.17592790e-07  8.10236374e-07 -1.17592789e-07
atom      3.8208682953    11.4702058766     0.0000000000   Al  0.0 0.0   -5.32132515e-08 -9.33426013e-07  7.60935112e-17
atom      0.0000000000     7.6545857352     7.6545857352   Al  0.0 0.0    2.05108805e-16 -2.81151331e-07 -2.81151331e-07
atom      0.0000000000    11.4673910293    11.4673910293   Al  0.0 0.0   -1.44655684e-16  1.54870214e-07  1.54870213e-07
atom      3.8236381987     7.6466008016    11.4702483164   Al  0.0 0.0   -2.11275949e-07 -2.72356269e-07  1.57023239e-08
atom      3.8236381987    11.4702483164     7.6466008016   Al  0.0 0.0   -2.11275949e-07  1.57023240e-08 -2.72356269e-07
atom     -0.0000000000     7.6425584769    15.2878843580   Al  0.0 0.0    6.82256657e-16  1.43506088e-07  4.24082695e-16
atom      0.0000000000    11.4673910293    19.1083776867   Al  0.0 0.0    3.71354889e-16  1.54870214e-07 -1.54870214e-07
atom      3.8236381987     7.6466008016    19.1055203996   Al  0.0 0.0   -2.11275949e-07 -2.72356269e-07 -1.57023241e-08
atom      3.8216236255    11.4667768179    15.2878843580   Al  0.0 0.0   -1.74342332e-06  1.14602040e-08  1.02024868e-15
atom      0.0000000000     7.6545857352    22.9211829808   Al  0.0 0.0   -6.67143376e-16 -2.81151331e-07  2.81151331e-07
atom      0.0000000000    11.4702058766    26.7549004208   Al  0.0 0.0   -8.65775061e-16 -9.33426012e-07  5.32132515e-08
atom      3.8299176338     7.6582919198    26.7458510822   Al  0.0 0.0   -1.17592789e-07  8.10236374e-07  1.17592789e-07
atom      3.8236381987    11.4702483164    22.9291679145   Al  0.0 0.0   -2.11275950e-07  1.57023247e-08  2.72356268e-07
atom      0.0000000000    15.2878843580     0.0000000000   Al  0.0 0.0   -7.10324177e-16 -3.90343478e-16 -8.77174329e-16
atom      0.0000000000    19.1055628394     3.8208682953   Al  0.0 0.0    8.42025621e-17  9.33426011e-07 -5.32132512e-08
atom      3.8218944136    15.2878843580     3.8218944136   Al  0.0 0.0    2.37079631e-07  1.15173612e-15  2.37079631e-07
atom      3.8208682953    19.1055628394    -0.0000000000   Al  0.0 0.0   -5.32132514e-08  9.33426012e-07 -2.38262272e-16
atom      0.0000000000    15.2878843580     7.6425584769   Al  0.0 0.0   -1.48973764e-16  4.30610418e-16  1.43506088e-07
atom      0.0000000000    19.1083776867    11.4673910293   Al  0.0 0.0    3.67036809e-16 -1.54870213e-07  1.54870213e-07
atom      3.8216236255    15.2878843580    11.4667768179   Al  0.0 0.0   -1.74342332e-06  5.83750454e-16  1.14602037e-08
atom      3.8236381987    19.1055203996     7.6466008016   Al  0.0 0.0   -2.11275950e-07 -1.57023250e-08 -2.72356269e-07
atom      0.0000000000    15.2878843580    15.2878843580   Al  0.0 0.0    2.80675207e-17 -1.79200324e-16  4.03596062e-16
atom      0.0000000000    19.1083776867    19.1083776867   Al  0.0 0.0    9.28387223e-16 -1.54870213e-07 -1.54870213e-07
atom      3.8216236255    15.2878843580    19.1089918982   Al  0.0 0.0   -1.74342332e-06 -4.80116532e-16 -1.14602036e-08
atom      3.8216236255    19.1089918982    15.2878843580   Al  0.0 0.0   -1.74342332e-06 -1.14602032e-08 -9.41026479e-17
atom      0.0000000000    15.2878843580    22.9332102391   Al  0.0 0.0    3.84309129e-16 -4.63029754e-16 -1.43506088e-07
atom      0.0000000000    19.1055628394    26.7549004208   Al  0.0 0.0    2.48289606e-16  9.33426013e-07  5.32132513e-08
atom      3.8218944136    15.2878843580    26.7538743025   Al  0.0 0.0    2.37079630e-07  4.30458611e-17 -2.37079630e-07
atom      3.8236381987    19.1055203996    22.9291679145   Al  0.0 0.0   -2.11275950e-07 -1.57023237e-08  2.72356268e-07
atom      0.0000000000    22.9363289800    -0.0000000000   Al  0.0 0.0   -3.30333128e-16 -1.07563861e-07 -9.74536704e-16
atom      0.0000000000    26.7100380343     3.8657306818   Al  0.0 0.0   -5.74304654e-16  5.63110982e-07 -5.63110983e-07
atom      3.8299176338    22.9174767963     3.8299176338   Al  0.0 0.0   -1.17592789e-07 -8.10236374e-07 -1.17592789e-07
atom      3.8657306818    26.7100380343     0.0000000000   Al  0.0 0.0   -5.63110982e-07  5.63110983e-07 -1.03930791e-15
atom      0.0000000000    22.9211829808     7.6545857352   Al  0.0 0.0    5.00897292e-16  2.81151331e-07 -2.81151330e-07
atom      0.0000000000    26.7549004208    11.4702058766   Al  0.0 0.0    5.80781774e-16  5.32132506e-08 -9.33426012e-07
atom      3.8236381987    22.9291679145    11.4702483164   Al  0.0 0.0   -2.11275949e-07  2.72356269e-07  1.57023245e-08
atom      3.8299176338    26.7458510822     7.6582919198   Al  0.0 0.0   -1.17592789e-07  1.17592789e-07  8.10236374e-07
atom      0.0000000000    22.9332102391    15.2878843580   Al  0.0 0.0    1.06224771e-15 -1.43506088e-07  8.72775074e-16
atom      0.0000000000    26.7549004208    19.1055628394   Al  0.0 0.0    7.53504979e-16  5.32132506e-08  9.33426012e-07
atom      3.8236381987    22.9291679145    19.1055203996   Al  0.0 0.0   -2.11275951e-07  2.72356269e-07 -1.57023241e-08
atom      3.8218944136    26.7538743025    15.2878843580   Al  0.0 0.0    2.37079631e-07 -2.37079631e-07  8.06536400e-16
atom      0.0000000000    22.9211829808    22.9211829808   Al  0.0 0.0    8.63616021e-16  2.81151330e-07  2.81151330e-07
atom      0.0000000000    26.7100380343    26.7100380343   Al  0.0 0.0    5.39760013e-16  5.63110983e-07  5.63110982e-07
atom      3.8299176338    22.9174767963    26.7458510822   Al  0.0 0.0   -1.17592790e-07 -8.10236374e-07  1.17592789e-07
atom      3.8299176338    26.7458510822    22.9174767963   Al  0.0 0.0   -1.17592790e-07  1.17592789e-07 -8.10236375e-07
atom      7.6394397360    -0.0000000000     0.0000000000   Al  0.0 0.0    1.07563861e-07 -1.76847308e-16 -7.66100784e-16
atom      7.6582919198     3.8299176338     3.8299176338   Al  0.0 0.0    8.10236374e-07 -1.17592790e-07 -1.17592789e-07
atom     11.4702058766    -0.0000000000     3.8208682953   Al  0.0 0.0   -9.33426012e-07  4.44486046e-16 -5.32132517e-08
atom     11.4702058766     3.8208682953    -0.0000000000   Al  0.0 0.0   -9.33426012e-07 -5.32132509e-08 -3.38643008e-16
atom      7.6545857352    -0.0000000000     7.6545857352   Al  0.0 0.0   -2.81151331e-07  8.52319013e-16 -2.81151331e-07
atom      7.6466008016     3.8236381987    11.4702483164   Al  0.0 0.0   -2.72356270e-07 -2.11275950e-07  1.57023238e-08
atom     11.4673910293     0.0000000000    11.4673910293   Al  0.0 0.0    1.54870213e-07  2.12600084e-16  1.54870213e-07
atom     11.4702483164     3.8236381987     7.6466008016   Al  0.0 0.0    1.57023238e-08 -2.11275950e-07 -2.72356269e-07
atom      7.6425584769    -0.0000000000    15.2878843580   Al  0.0 0.0    1.43506087e-07  6.72574712e-16  7.18650397e-16
atom      7.6466008016     3.8236381987    19.1055203996   Al  0.0 0.0   -2.72356269e-07 -2.11275950e-07 -1.57023238e-08
atom     11.4673910293    -0.0000000000    19.1083776867   Al  0.0 0.0    1.54870214e-07  5.96563429e-16 -1.54870213e-07
atom     11.4667768179     3.8216236255    15.2878843580   Al  0.0 0.0    1.14602038e-08 -1.74342332e-06  1.13047326e-15
atom      7.6545857352    -0.0000000000    22.9211829808   Al  0.0 0.0   -2.81151331e-07  4.92488843e-16  2.81151330e-07
atom      7.6582919198     3.8299176338    26.7458510822   Al  0.0 0.0    8.10236375e-07 -1.17592790e-07  1.17592790e-07
atom     11.4702058766    -0.0000000000    26.7549004208   Al  0.0 0.0   -9.33426013e-07 -2.02663017e-17  5.32132519e-08
atom     11.4702483164     3.8236381987    22.9291679145   Al  0.0 0.0    1.57023242e-08 -2.11275949e-07  2.72356268e-07
atom      7.6545857352     7.6545857352     0.0000000000   Al  0.0 0.0   -2.81151331e-07 -2.81151331e-07  1.96902766e-16
atom      7.6466008016    11.4702483164     3.8236381987   Al  0.0 0.0   -2.72356269e-07  1.57023242e-08 -2.11275949e-07
atom     11.4702483164     7.6466008016     3.8236381987   Al  0.0 0.0    1.57023246e-08 -2.72356269e-07 -2.11275950e-07
atom     11.4673910293    11.4673910293     0.0000000000   Al  0.0 0.0    1.54870214e-07  1.54870213e-07  2.53217288e-16
atom      7.6493604060     7.6493604060     7.6493604060   Al  0.0 0.0    6.87447322e-07  6.87447323e-07  6.87447323e-07
atom      7.6446325752    11.4673536878    11.4673536878   Al  0.0 0.0   -2.67421116e-07  2.23655594e-07  2.23655594e-07
atom     11.4673536878     7.6446325752    11.4673536878   Al  0.0 0.0    2.23655594e-07 -2.67421117e-07  2.23655594e-07
atom     11.4673536878    11.4673536878     7.6446325752   Al  0.0 0.0    2.23655594e-07  2.23655595e-07 -2.67421117e-07
atom      7.6447865218     7.6447865218    15.2878843580   Al  0.0 0.0   -2.85701879e-07 -2.85701879e-07  2.48708131e-16
atom      7.6446325752    11.4673536878    19.1084150282   Al  0.0 0.0   -2.67421117e-07  2.23655593e-07 -2.23655593e-07
atom     11.4673536878     7.6446325752    19.1084150282   Al  0.0 0.0    2.23655595e-07 -2.67421117e-07 -2.23655593e-07
atom     11.4660344680    11.4660344680    15.2878843580   Al  0.0 0.0   -3.07537051e-08 -3.07537053e-08  4.70146916e-16
atom      7.6493604060     7.6493604060    22.9264083101   Al  0.0 0.0    6.87447324e-07  6.87447323e-07 -6.87447324e-07
atom      7.6466008016    11.4702483164    26.7521305173   Al  0.0 0.0   -2.72356269e-07  1.57023237e-08  2.11275949e-07
atom     11.4702483164     7.6466008016    26.7521305173   Al  0.0 0.0    1.57023255e-08 -2.72356269e-07  2.11275949e-07
atom     11.4673536878    11.4673536878    22.9311361408   Al  0.0 0.0    2.23655595e-07  2.23655593e-07  2.67421117e-07
atom      7.6425584769    15.2878843580     0.0000000000   Al  0.0 0.0    1.43506088e-07  9.90278299e-16  3.92549167e-16
atom      7.6466008016    19.1055203996     3.8236381987   Al  0.0 0.0   -2.72356269e-07 -1.57023253e-08 -2.11275950e-07
atom     11.4667768179    15.2878843580     3.8216236255   Al  0.0 0.0    1.14602038e-08  1.68529522e-16 -1.74342332e-06
atom     11.4673910293    19.1083776867    -0.0000000000   Al  0.0 0.0    1.54870213e-07 -1.54870213e-07  7.41948632e-17
atom      7.6447865218    15.2878843580     7.6447865218   Al  0.0 0.0   -2.85701878e-07  3.21477690e-16 -2.85701879e-07
atom      7.6446325752    19.1084150282    11.4673536878   Al  0.0 0.0   -2.67421116e-07 -2.23655593e-07  2.23655594e-07
atom     11.4660344680    15.2878843580    11.4660344680   Al  0.0 0.0   -3.07537045e-08  1.10879990e-15 -3.07537052e-08
atom     11.4673536878    19.1084150282     7.6446325752   Al  0.0 0.0    2.23655594e-07 -2.23655595e-07 -2.67421116e-07
atom      7.6434375902    15.2878843580    15.2878843580   Al  0.0 0.0   -8.63418766e-07  4.96224995e-16 -4.29249949e-16
atom      7.6446325752    19.1084150282    19.1084150282   Al  0.0 0.0   -2.67421117e-07 -2.23655594e-07 -2.23655594e-07
atom     11.4660344680    15.2878843580    19.1097342480   Al  0.0 0.0   -3.07537042e-08  5.75761584e-16  3.07537047e-08
atom     11.4660344680    19.1097342480    15.2878843580   Al  0.0 0.0   -3.07537046e-08  3.07537052e-08 -6.36753195e-16
atom      7.6447865218    15.2878843580    22.9309821942   Al  0.0 0.0   -2.85701879e-07 -5.20240098e-16  2.85701877e-07
atom      7.6466008016    19.1055203996    26.7521305173   Al  0.0 0.0   -2.72356269e-07 -1.57023238e-08  2.11275950e-07
atom     11.4667768179    15.2878843580    26.7541450905   Al  0.0 0.0    1.14602045e-08 -6.37914107e-16  1.74342332e-06
atom     11.4673536878    19.1084150282    22.9311361408   Al  0.0 0.0    2.23655595e-07 -2.23655593e-07  2.67421116e-07
atom      7.6545857352    22.9211829808    -0.0000000000   Al  0.0 0.0   -2.81151331e-07  2.81151330e-07 -4.87884016e-16
atom      7.6582919198    26.7458510822     3.8299176338   Al  0.0 0.0    8.10236374e-07  1.17592790e-07 -1.17592789e-07
atom     11.4702483164    22.9291679145     3.8236381987   Al  0.0 0.0    1.57023252e-08  2.72356269e-07 -2.11275950e-07
atom     11.4702058766    26.7549004208     0.0000000000   Al  0.0 0.0   -9.33426012e-07  5.32132519e-08 -1.22854737e-15
atom      7.6493604060    22.9264083101     7.6493604060   Al  0.0 0.0    6.87447322e-07 -6.87447323e-07  6.87447324e-07
atom      7.6466008016    26.7521305173    11.4702483164   Al  0.0 0.0   -2.72356269e-07  2.11275949e-07  1.57023246e-08
atom     11.4673536878    22.9311361408    11.4673536878   Al  0.0 0.0    2.23655594e-07  2.67421116e-07  2.23655594e-07
atom     11.4702483164    26.7521305173     7.6466008016   Al  0.0 0.0    1.57023243e-08  2.11275949e-07 -2.72356269e-07
atom      7.6447865218    22.9309821942    15.2878843580   Al  0.0 0.0   -2.85701879e-07  2.85701879e-07 -2.86002174e-16
atom      7.6466008016    26.7521305173    19.1055203996   Al  0.0 0.0   -2.72356269e-07  2.11275950e-07 -1.57023235e-08
atom     11.4673536878    22.9311361408    19.1084150282   Al  0.0 0.0    2.23655594e-07  2.67421116e-07 -2.23655594e-07
atom     11.4667768179    26.7541450905    15.2878843580   Al  0.0 0.0    1.14602039e-08  1.74342332e-06  2.95644393e-17
atom      7.6493604060    22.9264083101    22.9264083101   Al  0.0 0.0    6.87447323e-07 -6.87447322e-07 -6.87447324e-07
atom      7.6582919198    26.7458510822    26.7458510822   Al  0.0 0.0    8.10236375e-07  1.17592790e-07  1.17592790e-07
atom     11.4702483164    22.9291679145    26.7521305173   Al  0.0 0.0    1.57023248e-08  2.72356269e-07  2.11275949e-07
atom     11.4702483164    26.7521305173    22.9291679145   Al  0.0 0.0    1.57023244e-08  2.11275949e-07  2.72356269e-07
atom     15.2878843580    -0.0000000000    -0.0000000000   Al  0.0 0.0   -3.00363797e-16  6.03262199e-17  4.08094598e-17
atom     15.2878843580     3.8218944136     3.8218944136   Al  0.0 0.0   -3.28068666e-16  2.37079631e-07  2.37079630e-07
atom     19.1055628394    -0.0000000000     3.8208682953   Al  0.0 0.0    9.33426012e-07  3.20596364e-16 -5.32132512e-08
atom     19.1055628394     3.8208682953    -0.0000000000   Al  0.0 0.0    9.33426012e-07 -5.32132506e-08  1.53540639e-16
atom     15.2878843580     0.0000000000     7.6425584769   Al  0.0 0.0   -1.21867690e-17  1.25475227e-16  1.43506088e-07
atom     15.2878843580     3.8216236255    11.4667768179   Al  0.0 0.0    1.23872182e-15 -1.74342332e-06  1.14602049e-08
atom     19.1083776867    -0.0000000000    11.4673910293   Al  0.0 0.0   -1.54870213e-07  2.23066178e-16  1.54870214e-07
atom     19.1055203996     3.8236381987     7.6466008016   Al  0.0 0.0   -1.57023239e-08 -2.11275949e-07 -2.72356269e-07
atom     15.2878843580    -0.0000000000    15.2878843580   Al  0.0 0.0    4.96085838e-16  6.67482835e-16  6.33201880e-16
atom     15.2878843580     3.8216236255    19.1089918982   Al  0.0 0.0    7.48198041e-16 -1.74342332e-06 -1.14602036e-08
atom     19.1083776867    -0.0000000000    19.1083776867   Al  0.0 0.0   -1.54870213e-07  1.61331126e-16 -1.54870214e-07
atom     19.1089918982     3.8216236255    15.2878843580   Al  0.0 0.0   -1.14602047e-08 -1.74342332e-06  5.09492348e-17
atom     15.2878843580    -0.0000000000    22.9332102391   Al  0.0 0.0    9.01095607e-16  4.85773470e-16 -1.43506089e-07
atom     15.2878843580     3.8218944136    26.7538743025   Al  0.0 0.0   -1.46772555e-16  2.37079631e-07 -2.37079631e-07
atom     19.1055628394    -0.0000000000    26.7549004208   Al  0.0 0.0    9.33426012e-07  5.47278702e-16  5.32132508e-08
atom     19.1055203996     3.8236381987    22.9291679145   Al  0.0 0.0   -1.57023244e-08 -2.11275950e-07  2.72356269e-07
atom     15.2878843580     7.6425584769     0.0000000000   Al  0.0 0.0    2.89184861e-16  1.43506088e-07 -1.40415616e-16
atom     15.2878843580    11.4667768179     3.8216236255   Al  0.0 0.0    1.05783685e-15  1.14602036e-08 -1.74342332e-06
atom     19.1055203996     7.6466008016     3.8236381987   Al  0.0 0.0   -1.57023240e-08 -2.72356268e-07 -2.11275950e-07
atom     19.1083776867    11.4673910293     0.0000000000   Al  0.0 0.0   -1.54870213e-07  1.54870212e-07  4.38565553e-16
atom     15.2878843580     7.6447865218     7.6447865218   Al  0.0 0.0    1.13581531e-15 -2.85701878e-07 -2.85701879e-07
atom     15.2878843580    11.4660344680    11.4660344680   Al  0.0 0.0    3.34278015e-16 -3.07537043e-08 -3.07537051e-08
atom     19.1084150282     7.6446325752    11.4673536878   Al  0.0 0.0   -2.23655594e-07 -2.67421117e-07  2.23655595e-07
atom     19.1084150282    11.4673536878     7.6446325752   Al  0.0 0.0   -2.23655594e-07  2.23655594e-07 -2.67421117e-07
atom     15.2878843580     7.6434375902    15.2878843580   Al  0.0 0.0    5.81488101e-16 -8.63418766e-07  4.84685838e-16
atom     15.2878843580    11.4660344680    19.1097342480   Al  0.0 0.0    3.49003343e-16 -3.07537046e-08  3.07537063e-08
atom     19.1084150282     7.6446325752    19.1084150282   Al  0.0 0.0   -2.23655594e-07 -2.67421117e-07 -2.23655593e-07
atom     19.1097342480    11.4660344680    15.2878843580   Al  0.0 0.0    3.07537057e-08 -3.07537045e-08  3.96461946e-16
atom     15.2878843580     7.6447865218    22.9309821942   Al  0.0 0.0   -5.19080458e-16 -2.85701878e-07  2.85701878e-07
atom     15.2878843580    11.4667768179    26.7541450905   Al  0.0 0.0   -1.83822020e-16  1.14602026e-08  1.74342332e-06
atom     19.1055203996     7.6466008016    26.7521305173   Al  0.0 0.0   -1.57023246e-08 -2.72356269e-07  2.11275950e-07
atom     19.1084150282    11.4673536878    22.9311361408   Al  0.0 0.0   -2.23655594e-07  2.23655594e-07  2.67421116e-07
atom     15.2878843580    15.2878843580     0.0000000000   Al  0.0 0.0   -1.60523785e-16 -6.12985039e-16  6.85166564e-16
atom     15.2878843580    19.1089918982     3.8216236255   Al  0.0 0.0    7.31345300e-16 -1.14602039e-08 -1.74342332e-06
atom     19.1089918982    15.2878843580     3.8216236255   Al  0.0 0.0   -1.14602039e-08 -2.46467916e-16 -1.74342332e-06
atom     19.1083776867    19.1083776867    -0.0000000000   Al  0.0 0.0   -1.54870212e-07 -1.54870213e-07  1.20650911e-15
atom     15.2878843580    15.2878843580     7.6434375902   Al  0.0 0.0   -1.96902766e-16  3.99093494e-16 -8.63418766e-07
atom     15.2878843580    19.1097342480    11.4660344680   Al  0.0 0.0    2.36398018e-16  3.07537052e-08 -3.07537048e-08
atom     19.1097342480    15.2878843580    11.4660344680   Al  0.0 0.0    3.07537053e-08  7.00142533e-16 -3.07537049e-08
atom     19.1084150282    19.1084150282     7.6446325752   Al  0.0 0.0   -2.23655594e-07 -2.23655595e-07 -2.67421116e-07
atom     15.2878843580    15.2878843580    15.2878843580   Al  0.0 0.0    8.91936554e-16  5.87298955e-16 -5.08925057e-16
atom     15.2878843580    19.1097342480    19.1097342480   Al  0.0 0.0    1.95401559e-16  3.07537043e-08  3.07537058e-08
atom     19.1097342480    15.2878843580    19.1097342480   Al  0.0 0.0    3.07537042e-08 -1.08126160e-15  3.07537049e-08
atom     19.1097342480    19.1097342480    15.2878843580   Al  0.0 0.0    3.07537051e-08  3.07537052e-08 -1.75947768e-15
atom     15.2878843580    15.2878843580    22.9323311259   Al  0.0 0.0    3.88315161e-16 -5.23263598e-16  8.63418765e-07
atom     15.2878843580    19.1089918982    26.7541450905   Al  0.0 0.0   -2.60054688e-16 -1.14602026e-08  1.74342332e-06
atom     19.1089918982    15.2878843580    26.7541450905   Al  0.0 0.0   -1.14602025e-08 -6.69958141e-16  1.74342332e-06
atom     19.1084150282    19.1084150282    22.9311361408   Al  0.0 0.0   -2.23655595e-07 -2.23655594e-07  2.67421115e-07
atom     15.2878843580    22.9332102391    -0.0000000000   Al  0.0 0.0   -1.25080528e-15 -1.43506088e-07  1.56485468e-16
atom     15.2878843580    26.7538743025     3.8218944136   Al  0.0 0.0   -1.47101471e-16 -2.37079631e-07  2.37079630e-07
atom     19.1055203996    22.9291679145     3.8236381987   Al  0.0 0.0   -1.57023250e-08  2.72356269e-07 -2.11275949e-07
atom     19.1055628394    26.7549004208    -0.0000000000   Al  0.0 0.0    9.33426011e-07  5.32132511e-08  9.91872278e-17
atom     15.2878843580    22.9309821942     7.6447865218   Al  0.0 0.0   -5.53254014e-18  2.85701878e-07 -2.85701878e-07
atom     15.2878843580    26.7541450905    11.4667768179   Al  0.0 0.0    2.73571881e-16  1.74342332e-06  1.14602047e-08
atom     19.1084150282    22.9311361408    11.4673536878   Al  0.0 0.0   -2.23655594e-07  2.67421116e-07  2.23655594e-07
atom     19.1055203996    26.7521305173     7.6466008016   Al  0.0 0.0   -1.57023239e-08  2.11275950e-07 -2.72356269e-07
atom     15.2878843580    22.9323311259    15.2878843580   Al  0.0 0.0   -1.74342484e-16  8.63418766e-07 -9.29326088e-16
atom     15.2878843580    26.7541450905    19.1089918982   Al  0.0 0.0    1.02400908e-15  1.74342332e-06 -1.14602038e-08
atom     19.1084150282    22.9311361408    19.1084150282   Al  0.0 0.0   -2.23655594e-07  2.67421117e-07 -2.23655594e-07
atom     19.1089918982    26.7541450905    15.2878843580   Al  0.0 0.0   -1.14602034e-08  1.74342332e-06  4.00463151e-17
atom     15.2878843580    22.9309821942    22.9309821942   Al  0.0 0.0   -1.34358075e-16  2.85701879e-07  2.85701879e-07
atom     15.2878843580    26.7538743025    26.7538743025   Al  0.0 0.0   -4.16332079e-16 -2.37079631e-07 -2.37079631e-07
atom     19.1055203996    22.9291679145    26.7521305173   Al  0.0 0.0   -1.57023250e-08  2.72356268e-07  2.11275949e-07
atom     19.1055203996    26.7521305173    22.9291679145   Al  0.0 0.0   -1.57023245e-08  2.11275950e-07  2.72356268e-07
atom     22.9363289800    -0.0000000000    -0.0000000000   Al  0.0 0.0   -1.07563860e-07  4.80116532e-16  4.07923630e-16
atom     22.9174767963     3.8299176338     3.8299176338   Al  0.0 0.0   -8.10236375e-07 -1.17592789e-07 -1.17592789e-07
atom     26.7100380343     0.0000000000     3.8657306818   Al  0.0 0.0    5.63110983e-07  1.05253203e-16 -5.63110983e-07
atom     26.7100380343     3.8657306818    -0.0000000000   Al  0.0 0.0    5.63110983e-07 -5.63110983e-07 -1.83518405e-16
atom     22.9211829808     0.0000000000     7.6545857352   Al  0.0 0.0    2.81151330e-07  2.88771607e-17 -2.81151331e-07
atom     22.9291679145     3.8236381987    11.4702483164   Al  0.0 0.0    2.72356268e-07 -2.11275950e-07  1.57023247e-08
atom     26.7549004208    -0.0000000000    11.4702058766   Al  0.0 0.0    5.32132513e-08  5.60270894e-16 -9.33426012e-07
atom     26.7458510822     3.8299176338     7.6582919198   Al  0.0 0.0    1.17592789e-07 -1.17592789e-07  8.10236374e-07
atom     22.9332102391    -0.0000000000    15.2878843580   Al  0.0 0.0   -1.43506089e-07 -1.80819604e-17  1.18298527e-15
atom     22.9291679145     3.8236381987    19.1055203996   Al  0.0 0.0    2.72356269e-07 -2.11275951e-07 -1.57023243e-08
atom     26.7549004208    -0.0000000000    19.1055628394   Al  0.0 0.0    5.32132500e-08  7.09784417e-17  9.33426012e-07
atom     26.7538743025     3.8218944136    15.2878843580   Al  0.0 0.0   -2.37079631e-07  2.37079630e-07  4.11567010e-16
atom     22.9211829808     0.0000000000    22.9211829808   Al  0.0 0.0    2.81151331e-07 -2.32636566e-16  2.81151330e-07
atom     22.9174767963     3.8299176338    26.7458510822   Al  0.0 0.0   -8.10236375e-07 -1.17592789e-07  1.17592789e-07
atom     26.7100380343     0.0000000000    26.7100380343   Al  0.0 0.0    5.63110982e-07  1.42496644e-16  5.63110982e-07
atom     26.7458510822     3.8299176338    22.9174767963   Al  0.0 0.0    1.17592789e-07 -1.17592789e-07 -8.10236375e-07
atom     22.9211829808     7.6545857352    -0.0000000000   Al  0.0 0.0    2.81151330e-07 -2.81151330e-07 -1.20661664e-16
atom     22.9291679145    11.4702483164     3.8236381987   Al  0.0 0.0    2.72356269e-07  1.57023245e-08 -2.11275950e-07
atom     26.7458510822     7.6582919198     3.8299176338   Al  0.0 0.0    1.17592789e-07  8.10236375e-07 -1.17592789e-07
atom     26.7549004208    11.4702058766     0.0000000000   Al  0.0 0.0    5.32132514e-08 -9.33426012e-07  1.15348138e-16
atom     22.9264083101     7.6493604060     7.6493604060   Al  0.0 0.0   -6.87447323e-07  6.87447323e-07  6.87447323e-07
atom     22.9311361408    11.4673536878    11.4673536878   Al  0.0 0.0    2.67421116e-07  2.23655594e-07  2.23655595e-07
atom     26.7521305173     7.6466008016    11.4702483164   Al  0.0 0.0    2.11275949e-07 -2.72356269e-07  1.57023244e-08
atom     26.7521305173    11.4702483164     7.6466008016   Al  0.0 0.0    2.11275950e-07  1.57023246e-08 -2.72356269e-07
atom     22.9309821942     7.6447865218    15.2878843580   Al  0.0 0.0    2.85701878e-07 -2.85701878e-07 -1.59979808e-16
atom     22.9311361408    11.4673536878    19.1084150282   Al  0.0 0.0    2.67421117e-07  2.23655594e-07 -2.23655594e-07
atom     26.7521305173     7.6466008016    19.1055203996   Al  0.0 0.0    2.11275949e-07 -2.72356268e-07 -1.57023241e-08
atom     26.7541450905    11.4667768179    15.2878843580   Al  0.0 0.0    1.74342332e-06  1.14602041e-08  5.62193789e-17
atom     22.9264083101     7.6493604060    22.9264083101   Al  0.0 0.0   -6.87447323e-07  6.87447323e-07 -6.87447323e-07
atom     22.9291679145    11.4702483164    26.7521305173   Al  0.0 0.0    2.72356268e-07  1.57023241e-08  2.11275950e-07
atom     26.7458510822     7.6582919198    26.7458510822   Al  0.0 0.0    1.17592790e-07  8.10236375e-07  1.17592789e-07
atom     26.7521305173    11.4702483164    22.9291679145   Al  0.0 0.0    2.11275949e-07  1.57023244e-08  2.72356268e-07
atom     22.9332102391    15.2878843580     0.0000000000   Al  0.0 0.0   -1.43506087e-07 -3.49241596e-17  7.09114989e-16
atom     22.9291679145    19.1055203996     3.8236381987   Al  0.0 0.0    2.72356269e-07 -1.57023245e-08 -2.11275950e-07
atom     26.7538743025    15.2878843580     3.8218944136   Al  0.0 0.0   -2.37079631e-07 -3.95745295e-16  2.37079630e-07
atom     26.7549004208    19.1055628394    -0.0000000000   Al  0.0 0.0    5.32132510e-08  9.33426012e-07 -2.05590857e-16
atom     22.9309821942    15.2878843580     7.6447865218   Al  0.0 0.0    2.85701878e-07 -1.74958148e-17 -2.85701878e-07
atom     22.9311361408    19.1084150282    11.4673536878   Al  0.0 0.0    2.67421115e-07 -2.23655594e-07  2.23655594e-07
atom     26.7541450905    15.2878843580    11.4667768179   Al  0.0 0.0    1.74342332e-06 -4.72829772e-16  1.14602041e-08
atom     26.7521305173    19.1055203996     7.6466008016   Al  0.0 0.0    2.11275950e-07 -1.57023247e-08 -2.72356269e-07
atom     22.9323311259    15.2878843580    15.2878843580   Al  0.0 0.0    8.63418765e-07 -1.09421162e-15  5.35606391e-17
atom     22.9311361408    19.1084150282    19.1084150282   Al  0.0 0.0    2.67421116e-07 -2.23655594e-07 -2.23655594e-07
atom     26.7541450905    15.2878843580    19.1089918982   Al  0.0 0.0    1.74342332e-06 -1.14537075e-15 -1.14602041e-08
atom     26.7541450905    19.1089918982    15.2878843580   Al  0.0 0.0    1.74342332e-06 -1.14602045e-08  6.82886948e-16
atom     22.9309821942    15.2878843580    22.9309821942   Al  0.0 0.0    2.85701878e-07 -1.24576189e-15  2.85701878e-07
atom     22.9291679145    19.1055203996    26.7521305173   Al  0.0 0.0    2.72356268e-07 -1.57023256e-08  2.11275950e-07
atom     26.7538743025    15.2878843580    26.7538743025   Al  0.0 0.0   -2.37079631e-07 -5.48219065e-16 -2.37079630e-07
atom     26.7521305173    19.1055203996    22.9291679145   Al  0.0 0.0    2.11275950e-07 -1.57023248e-08  2.72356269e-07
atom     22.9211829808    22.9211829808    -0.0000000000   Al  0.0 0.0    2.81151331e-07  2.81151330e-07  4.83245453e-16
atom     22.9174767963    26.7458510822     3.8299176338   Al  0.0 0.0   -8.10236373e-07  1.17592789e-07 -1.17592790e-07
atom     26.7458510822    22.9174767963     3.8299176338   Al  0.0 0.0    1.17592789e-07 -8.10236374e-07 -1.17592790e-07
atom     26.7100380343    26.7100380343    -0.0000000000   Al  0.0 0.0    5.63110982e-07  5.63110982e-07  6.81177137e-16
atom     22.9264083101    22.9264083101     7.6493604060   Al  0.0 0.0   -6.87447324e-07 -6.87447324e-07  6.87447323e-07
atom     22.9291679145    26.7521305173    11.4702483164   Al  0.0 0.0    2.72356267e-07  2.11275950e-07  1.57023250e-08