begin
comment 108 atoms, species Al107Si
lattice     22.9236428352     0.0000000000    -0.0000000000
lattice      0.0000000000    22.9236428352    -0.0000000000
lattice     -0.0000000000    -0.0000000000    22.9236428352
atom      0.0000000000     0.0000000000     0.0000000000   Si  0.0 0.0   -6.62708708e-13 -6.62225083e-13 -6.67848303e-13
atom      0.0000000000     3.7958450957     3.7958450957   Al  0.0 0.0   -1.08277154e-12  2.61242958e-08  2.61242786e-08
atom      3.7958450957     0.0000000000     3.7958450957   Al  0.0 0.0    2.61243026e-08 -1.08464161e-12  2.61242694e-08
atom      3.7958450957     3.7958450957     0.0000000000   Al  0.0 0.0    2.61242902e-08  2.61242905e-08 -1.08069058e-12
atom     -0.0000000000    -0.0000000000     7.6317530335   Al  0.0 0.0    1.03265806e-12  1.03055138e-12 -8.22377031e-07
atom     -0.0000000000     3.8166801468    11.4618214176   Al  0.0 0.0    1.10853321e-12  1.50689187e-06  4.80454346e-14
atom      3.8166801468    -0.0000000000    11.4618214176   Al  0.0 0.0    1.50689186e-06  1.10605733e-12  5.97147171e-14
atom      3.8178592355     3.8178592355     7.6365178482   Al  0.0 0.0   -7.04061126e-07 -7.04061118e-07 -6.96366487e-08
atom     -0.0000000000    -0.0000000000    15.2918898016   Al  0.0 0.0    1.03212046e-12  1.02691556e-12  8.22376985e-07
atom      0.0000000000     3.7958450957    19.1277977395   Al  0.0 0.0   -1.08484638e-12  2.61238049e-08 -2.61237290e-08
atom      3.7958450957     0.0000000000    19.1277977395   Al  0.0 0.0    2.61237957e-08 -1.07873021e-12 -2.61237390e-08
atom      3.8178592355     3.8178592355    15.2871249870   Al  0.0 0.0   -7.04061108e-07 -7.04061113e-07  6.96366806e-08
atom     -0.0000000000     7.6317530335    -0.0000000000   Al  0.0 0.0    1.03267749e-12 -8.22377054e-07  1.02524767e-12
atom     -0.0000000000    11.4618214176     3.8166801468   Al  0.0 0.0    1.10751414e-12  4.49411609e-14  1.50689187e-06
atom      3.8178592355     7.6365178482     3.8178592355   Al  0.0 0.0   -7.04061126e-07 -6.96366548e-08 -7.04061128e-07
atom      3.8166801468    11.4618214176    -0.0000000000   Al  0.0 0.0    1.50689187e-06  4.69863453e-14  1.08902947e-12
atom     -0.0000000000     7.6332729029     7.6332729029   Al  0.0 0.0    1.08258586e-12 -9.03955906e-08 -9.03955880e-08
atom     -0.0000000000    11.4618214176    11.4618214176   Al  0.0 0.0    1.12497861e-12  2.74240930e-14  3.02274107e-14
atom      3.8183357621     7.6391417728    11.4618214176   Al  0.0 0.0   -1.85468105e-07 -4.20410542e-07  2.95259470e-14
atom      3.8183357621    11.4618214176     7.6391417728   Al  0.0 0.0   -1.85468107e-07  2.62310547e-14 -4.20410536e-07
atom     -0.0000000000     7.6332729029    15.2903699323   Al  0.0 0.0    1.08262904e-12 -9.03955589e-08  9.03954618e-08
atom     -0.0000000000    11.4618214176    19.1069626884   Al  0.0 0.0    1.10773436e-12  4.82210126e-14 -1.50689297e-06
atom      3.8178592355     7.6365178482    19.1057835997   Al  0.0 0.0   -7.04061087e-07 -6.96372695e-08  7.04060604e-07
atom      3.8183357621    11.4618214176    15.2845010624   Al  0.0 0.0   -1.85468120e-07  3.06975688e-14  4.20410502e-07
atom     -0.0000000000    15.2918898016    -0.0000000000   Al  0.0 0.0    1.03351304e-12  8.22376964e-07  1.01903552e-12
atom      0.0000000000    19.1277977395     3.7958450957   Al  0.0 0.0   -1.08487660e-12 -2.61237200e-08  2.61237970e-08
atom      3.8178592355    15.2871249870     3.8178592355   Al  0.0 0.0   -7.04061100e-07  6.96366812e-08 -7.04061117e-07
atom      3.7958450957    19.1277977395     0.0000000000   Al  0.0 0.0    2.61238082e-08 -2.61237194e-08 -1.08281899e-12
atom     -0.0000000000    15.2903699323     7.6332729029   Al  0.0 0.0    1.08136385e-12  9.03954540e-08 -9.03955449e-08
atom     -0.0000000000    19.1069626884    11.4618214176   Al  0.0 0.0    1.10686643e-12 -1.50689297e-06  4.54490106e-14
atom      3.8183357621    15.2845010624    11.4618214176   Al  0.0 0.0   -1.85468123e-07  4.20410497e-07  3.63532009e-14
atom      3.8178592355    19.1057835997     7.6365178482   Al  0.0 0.0   -7.04061092e-07  7.04060604e-07 -6.96372662e-08
atom     -0.0000000000    15.2903699323    15.2903699323   Al  0.0 0.0    1.08314074e-12  9.03954258e-08  9.03954345e-08
atom      0.0000000000    19.1277977395    19.1277977395   Al  0.0 0.0   -1.08341925e-12 -2.61232323e-08 -2.61232445e-08
atom      3.8178592355    15.2871249870    19.1057835997   Al  0.0 0.0   -7.04061082e-07  6.96372885e-08  7.04060586e-07
atom      3.8178592355    19.1057835997    15.2871249870   Al  0.0 0.0   -7.04061070e-07  7.04060594e-07  6.96373004e-08
atom      7.6317530335    -0.0000000000    -0.0000000000   Al  0.0 0.0   -8.22377053e-07  1.03034932e-12  9.92215147e-13
atom      7.6365178482     3.8178592355     3.8178592355   Al  0.0 0.0   -6.96366529e-08 -7.04061132e-07 -7.04061134e-07
atom     11.4618214176    -0.0000000000     3.8166801468   Al  0.0 0.0    4.59329024e-14  1.39988924e-12  1.50689213e-06
atom     11.4618214176     3.8166801468    -0.0000000000   Al  0.0 0.0    4.54780197e-14  1.50689187e-06  1.08508559e-12
atom      7.6332729029    -0.0000000000     7.6332729029   Al  0.0 0.0   -9.03955809e-08  1.07136054e-12 -9.03955980e-08
atom      7.6391417728     3.8183357621    11.4618214176   Al  0.0 0.0   -4.20410543e-07 -1.85468102e-07  3.46485336e-14
atom     11.4618214176    -0.0000000000    11.4618214176   Al  0.0 0.0    2.78831926e-14  1.12253343e-12  4.63506870e-14
atom     11.4618214176     3.8183357621     7.6391417728   Al  0.0 0.0    2.64096478e-14 -1.85468099e-07 -4.20410541e-07
atom      7.6332729029    -0.0000000000    15.2903699323   Al  0.0 0.0   -9.03955681e-08  1.08891714e-12  9.03954521e-08
atom      7.6365178482     3.8178592355    19.1057835997   Al  0.0 0.0   -6.96372736e-08 -7.04061079e-07  7.04060598e-07
atom     11.4618214176    -0.0000000000    19.1069626884   Al  0.0 0.0    4.71831216e-14  8.12506386e-13 -1.50689271e-06
atom     11.4618214176     3.8183357621    15.2845010624   Al  0.0 0.0    2.77160020e-14 -1.85468125e-07  4.20410500e-07
atom      7.6332729029     7.6332729029    -0.0000000000   Al  0.0 0.0   -9.03955901e-08 -9.03955910e-08  1.06470802e-12
atom      7.6391417728    11.4618214176     3.8183357621   Al  0.0 0.0   -4.20410538e-07  3.66204145e-14 -1.85468109e-07
atom     11.4618214176     7.6391417728     3.8183357621   Al  0.0 0.0    2.69703235e-14 -4.20410542e-07 -1.85468105e-07
atom     11.4618214176    11.4618214176    -0.0000000000   Al  0.0 0.0    2.63905538e-14  2.65064789e-14  1.10546385e-12
atom      7.6409061700     7.6409061700     7.6409061700   Al  0.0 0.0   -1.58189763e-07 -1.58189761e-07 -1.58189753e-07
atom      7.6420841140    11.4618214176    11.4618214176   Al  0.0 0.0    5.10953871e-07  1.42062817e-14  2.42085020e-14
atom     11.4618214176     7.6420841140    11.4618214176   Al  0.0 0.0    1.49641717e-14  5.10953872e-07  1.44904604e-14
atom     11.4618214176    11.4618214176     7.6420841140   Al  0.0 0.0    1.43245561e-14  1.01147711e-14  5.10953876e-07
atom      7.6409061700     7.6409061700    15.2827366652   Al  0.0 0.0   -1.58189747e-07 -1.58189749e-07  1.58189682e-07
atom      7.6391417728    11.4618214176    19.1053070731   Al  0.0 0.0   -4.20410530e-07  1.89841250e-14  1.85467012e-07
atom     11.4618214176     7.6391417728    19.1053070731   Al  0.0 0.0    2.80572653e-14 -4.20410526e-07  1.85467017e-07
atom     11.4618214176    11.4618214176    15.2815587211   Al  0.0 0.0    1.48936655e-14  1.93902386e-14 -5.10953910e-07
atom      7.6332729029    15.2903699323    -0.0000000000   Al  0.0 0.0   -9.03955579e-08  9.03954588e-08  1.03245356e-12
atom      7.6365178482    19.1057835997     3.8178592355   Al  0.0 0.0   -6.96375656e-08  7.04060605e-07 -7.04060834e-07
atom     11.4618214176    15.2845010624     3.8183357621   Al  0.0 0.0    2.66499760e-14  4.20410205e-07 -1.85467862e-07
atom     11.4618214176    19.1069626884    -0.0000000000   Al  0.0 0.0    4.60292496e-14 -1.50689297e-06 -8.50408331e-13
atom      7.6409061700    15.2827366652     7.6409061700   Al  0.0 0.0   -1.58189740e-07  1.58189684e-07 -1.58189762e-07
atom      7.6391417728    19.1053070731    11.4618214176   Al  0.0 0.0   -4.20410526e-07  1.85467015e-07  4.25130172e-14
atom     11.4618214176    15.2815587211    11.4618214176   Al  0.0 0.0    1.53600182e-14 -5.10953915e-07  3.15559634e-14
atom     11.4618214176    19.1053070731     7.6391417728   Al  0.0 0.0    2.75944210e-14  1.85467014e-07 -4.20410463e-07
atom      7.6409061700    15.2827366652    15.2827366652   Al  0.0 0.0   -1.58189747e-07  1.58189654e-07  1.58189651e-07
atom      7.6365178482    19.1057835997    19.1057835997   Al  0.0 0.0   -6.96376008e-08  7.04060570e-07  7.04060827e-07
atom     11.4618214176    15.2845010624    19.1053070731   Al  0.0 0.0    2.73101025e-14  4.20410771e-07  1.85467294e-07
atom     11.4618214176    19.1053070731    15.2845010624   Al  0.0 0.0    2.81823546e-14  1.85467033e-07  4.20410543e-07
atom     15.2918898016    -0.0000000000    -0.0000000000   Al  0.0 0.0    8.22376965e-07  1.03079708e-12  9.91542264e-13
atom     15.2871249870     3.8178592355     3.8178592355   Al  0.0 0.0    6.96366728e-08 -7.04061118e-07 -7.04061120e-07
atom     19.1277977395     0.0000000000     3.7958450957   Al  0.0 0.0   -2.61237287e-08 -1.08565431e-12  2.61237844e-08
atom     19.1277977395     3.7958450957     0.0000000000   Al  0.0 0.0   -2.61237164e-08  2.61238054e-08 -1.08144062e-12
atom     15.2903699323    -0.0000000000     7.6332729029   Al  0.0 0.0    9.03954483e-08  1.07030331e-12 -9.03955620e-08
atom     15.2845010624     3.8183357621    11.4618214176   Al  0.0 0.0    4.20410497e-07 -1.85468122e-07  3.71237079e-14
atom     19.1069626884    -0.0000000000    11.4618214176   Al  0.0 0.0   -1.50689297e-06  1.10489946e-12  6.15012226e-14
atom     19.1057835997     3.8178592355     7.6365178482   Al  0.0 0.0    7.04060608e-07 -7.04061083e-07 -6.96372672e-08
atom     15.2903699323    -0.0000000000    15.2903699323   Al  0.0 0.0    9.03954364e-08  1.08956189e-12  9.03954172e-08
atom     15.2871249870     3.8178592355    19.1057835997   Al  0.0 0.0    6.96372953e-08 -7.04061064e-07  7.04060582e-07
atom     19.1277977395     0.0000000000    19.1277977395   Al  0.0 0.0   -2.61232245e-08 -1.07793684e-12 -2.61232553e-08
atom     19.1057835997     3.8178592355    15.2871249870   Al  0.0 0.0    7.04060589e-07 -7.04061078e-07  6.96373011e-08
atom     15.2903699323     7.6332729029    -0.0000000000   Al  0.0 0.0    9.03954572e-08 -9.03955563e-08  1.06396173e-12
atom     15.2845010624    11.4618214176     3.8183357621   Al  0.0 0.0    4.20410493e-07  3.74246440e-14 -1.85468126e-07
atom     19.1057835997     7.6365178482     3.8178592355   Al  0.0 0.0    7.04060608e-07 -6.96372742e-08 -7.04061090e-07
atom     19.1069626884    11.4618214176    -0.0000000000   Al  0.0 0.0   -1.50689297e-06  4.70494097e-14  1.08943458e-12
atom     15.2827366652     7.6409061700     7.6409061700   Al  0.0 0.0    1.58189677e-07 -1.58189748e-07 -1.58189741e-07
atom     15.2815587211    11.4618214176    11.4618214176   Al  0.0 0.0   -5.10953915e-07  1.52773052e-14  2.56774488e-14
atom     19.1053070731     7.6391417728    11.4618214176   Al  0.0 0.0    1.85467014e-07 -4.20410525e-07  3.03306139e-14
atom     19.1053070731    11.4618214176     7.6391417728   Al  0.0 0.0    1.85467017e-07  2.71263422e-14 -4.20410520e-07
atom     15.2827366652     7.6409061700    15.2827366652   Al  0.0 0.0    1.58189661e-07 -1.58189737e-07  1.58189672e-07
atom     15.2845010624    11.4618214176    19.1053070731   Al  0.0 0.0    4.20410485e-07  1.82211418e-14  1.85467029e-07
atom     19.1057835997     7.6365178482    19.1057835997   Al  0.0 0.0    7.04060568e-07 -6.96378899e-08  7.04060567e-07
atom     19.1053070731    11.4618214176    15.2845010624   Al  0.0 0.0    1.85467028e-07  3.07708923e-14  4.20410487e-07
atom     15.2903699323    15.2903699323    -0.0000000000   Al  0.0 0.0    9.03954249e-08  9.03954238e-08  1.03373113e-12
atom     15.2871249870    19.1057835997     3.8178592355   Al  0.0 0.0    6.96375873e-08  7.04060590e-07 -7.04060819e-07
atom     19.1057835997    15.2871249870     3.8178592355   Al  0.0 0.0    7.04060582e-07  6.96372999e-08 -7.04061079e-07
atom     19.1277977395    19.1277977395     0.0000000000   Al  0.0 0.0   -2.61232350e-08 -2.61232344e-08 -1.08163198e-12
atom     15.2827366652    15.2827366652     7.6409061700   Al  0.0 0.0    1.58189656e-07  1.58189672e-07 -1.58189749e-07
atom     15.2845010624    19.1053070731    11.4618214176   Al  0.0 0.0    4.20410482e-07  1.85467033e-07  4.31429055e-14
atom     19.1053070731    15.2845010624    11.4618214176   Al  0.0 0.0    1.85467032e-07  4.20410480e-07  3.64097881e-14
atom     19.1057835997    19.1057835997     7.6365178482   Al  0.0 0.0    7.04060573e-07  7.04060566e-07 -6.96378842e-08
atom     15.2827366652    15.2827366652    15.2827366652   Al  0.0 0.0    1.58189661e-07  1.58189642e-07  1.58189638e-07
atom     15.2871249870    19.1057835997    19.1057835997   Al  0.0 0.0    6.96376213e-08  7.04060556e-07  7.04060812e-07
atom     19.1057835997    15.2871249870    19.1057835997   Al  0.0 0.0    7.04060563e-07  6.96379062e-08  7.04060549e-07
atom     19.1057835997    19.1057835997    15.2871249870   Al  0.0 0.0    7.04060551e-07  7.04060558e-07  6.96379182e-08
energy -2.119090761229711e+03
charge 0.0000
end
