begin
comment 8 atoms, species Al8
lattice     11.3426729468    -0.0000000000     0.0000000000
lattice     -0.0000000000    11.3426729468     0.0000000000
lattice      0.0000000000     0.0000000000    11.3426729468
atom      0.0000000000     0.0000000000     0.0000000000   Al  0.0 0.0   -2.43390744e-13 -2.43483853e-13 -2.43186226e-13
atom      0.0000000000     5.6713364734     5.6713364734   Al  0.0 0.0   -2.43398301e-13 -8.27192763e-15 -8.47912589e-15
atom      5.6713364734     5.6713364734     0.0000000000   Al  0.0 0.0   -8.35899345e-15 -8.23413072e-15 -2.43244901e-13
atom      5.6713364734     0.0000000000     5.6713364734   Al  0.0 0.0   -8.35332597e-15 -2.43450465e-13 -8.47213115e-15
atom      8.5070047101     2.8356682367     8.5070047101   Al  0.0 0.0    2.42853413e-13  9.10258877e-15  2.42354114e-13
atom      2.8356682367     2.8356682367     2.8356682367   Al  0.0 0.0    8.95569814e-15  9.14091015e-15  9.38218287e-15
atom      2.8356682367     8.5070047101     8.5070047101   Al  0.0 0.0    8.89308598e-15  2.42636718e-13  2.42403660e-13
atom      8.5070047101     8.5070047101     2.8356682367   Al  0.0 0.0    2.42847476e-13  2.42611618e-13  9.30770601e-15
energy -1.578483371931861e+02
charge 0.0000
end
