begin
comment 256 atoms, species Al255Si
lattice     30.5757687160     0.0000000000     0.0000000000
lattice      0.0000000000    30.5757687160     0.0000000000
lattice      0.0000000000     0.0000000000    30.5757687160
atom     -0.0000000000     0.0000000000    -0.0000000000   Si  0.0 0.0   -3.82150089e-16 -1.30621923e-16 -1.12378035e-15
atom     -0.0000000000     3.8003841583     3.8003841583   Al  0.0 0.0    2.63402886e-16  1.82632641e-07  1.82632641e-07
atom      3.8003841583    -0.0000000000     3.8003841583   Al  0.0 0.0    1.82632641e-07  3.84309129e-16  1.82632640e-07
atom      3.8003841583     3.8003841583    -0.0000000000   Al  0.0 0.0    1.82632640e-07  1.82632640e-07  2.15904005e-17
atom     -0.0000000000    -0.0000000000     7.6320155002   Al  0.0 0.0    2.46130566e-16  7.32994098e-16 -3.06619693e-07
atom     -0.0000000000     3.8202968310    11.4596487613   Al  0.0 0.0    9.93158424e-17 -1.88301048e-07 -1.43479122e-06
atom      3.8202968310    -0.0000000000    11.4596487613   Al  0.0 0.0   -1.88301049e-07  4.28569451e-16 -1.43479122e-06
atom      3.8227458441     3.8227458441     7.6406115871   Al  0.0 0.0   -8.00465526e-08 -8.00465525e-08 -3.77370822e-07
atom      0.0000000000     0.0000000000    15.2878843580   Al  0.0 0.0   -5.46237133e-16 -2.13313157e-15 -2.46778278e-15
atom      0.0000000000     3.8202968310    19.1161199548   Al  0.0 0.0   -2.61243846e-16 -1.88301054e-07  1.43479122e-06
atom      3.8202968310     0.0000000000    19.1161199548   Al  0.0 0.0   -1.88301048e-07 -1.19718771e-15  1.43479122e-06
atom      3.8203036986     3.8203036986    15.2878843580   Al  0.0 0.0    2.34575450e-07  2.34575451e-07 -1.14483099e-15
atom     -0.0000000000    -0.0000000000    22.9437532159   Al  0.0 0.0   -5.93736015e-16  3.08526824e-15  3.06619697e-07
atom     -0.0000000000     3.8003841583    26.7753845577   Al  0.0 0.0   -3.95104330e-16  1.82632642e-07 -1.82632638e-07
atom      3.8003841583    -0.0000000000    26.7753845577   Al  0.0 0.0    1.82632641e-07  1.66785844e-16 -1.82632639e-07
atom      3.8227458441     3.8227458441    22.9351571290   Al  0.0 0.0   -8.00465531e-08 -8.00465513e-08  3.77370821e-07
atom     -0.0000000000     7.6320155002    -0.0000000000   Al  0.0 0.0   -6.47712016e-18 -3.06619694e-07 -4.30728491e-16
atom      0.0000000000    11.4596487613     3.8202968310   Al  0.0 0.0   -3.45446408e-16 -1.43479122e-06 -1.88301049e-07
atom      3.8227458441     7.6406115871     3.8227458441   Al  0.0 0.0   -8.00465527e-08 -3.77370823e-07 -8.00465523e-08
atom      3.8202968310    11.4596487613    -0.0000000000   Al  0.0 0.0   -1.88301049e-07 -1.43479122e-06 -2.14824485e-16
atom      0.0000000000     7.6368179864     7.6368179864   Al  0.0 0.0    4.53398411e-17 -3.38821228e-07 -3.38821227e-07
atom      0.0000000000    11.4628450248    11.4628450248   Al  0.0 0.0    2.07267845e-16  1.28283529e-06  1.28283529e-06
atom      3.8218773934     7.6432367416    11.4651960731   Al  0.0 0.0    2.06334438e-07  8.52727365e-07  1.03570075e-06
atom      3.8218773934    11.4651960731     7.6432367416   Al  0.0 0.0    2.06334439e-07  1.03570075e-06  8.52727365e-07
atom      0.0000000000     7.6413313073    15.2878843580   Al  0.0 0.0    2.91470407e-16 -2.31161411e-07  2.38034166e-15
atom      0.0000000000    11.4628450248    19.1129236912   Al  0.0 0.0   -5.18169613e-17  1.28283529e-06 -1.28283529e-06
atom      3.8218773934     7.6432367416    19.1105726430   Al  0.0 0.0    2.06334438e-07  8.52727364e-07 -1.03570075e-06
atom      3.8202095501    11.4649236257    15.2878843580   Al  0.0 0.0   -8.58929073e-07  8.85427297e-08 -7.43519418e-16
atom     -0.0000000000     7.6368179864    22.9389507297   Al  0.0 0.0   -3.99422410e-16 -3.38821230e-07  3.38821225e-07
atom     -0.0000000000    11.4596487613    26.7554718850   Al  0.0 0.0    1.55450884e-16 -1.43479122e-06  1.88301049e-07
atom      3.8227458441     7.6406115871    26.7530228720   Al  0.0 0.0   -8.00465525e-08 -3.77370822e-07  8.00465528e-08
atom      3.8218773934    11.4651960731    22.9325319744   Al  0.0 0.0    2.06334439e-07  1.03570075e-06 -8.52727364e-07
atom     -0.0000000000    15.2878843580     0.0000000000   Al  0.0 0.0    8.85206422e-17  2.48289606e-16 -5.39760013e-17
atom      0.0000000000    19.1161199548     3.8202968310   Al  0.0 0.0    2.80675207e-17  1.43479122e-06 -1.88301050e-07
atom      3.8203036986    15.2878843580     3.8203036986   Al  0.0 0.0    2.34575449e-07  3.65687409e-17  2.34575449e-07
atom      3.8202968310    19.1161199548    -0.0000000000   Al  0.0 0.0   -1.88301049e-07  1.43479122e-06  6.54459016e-17
atom      0.0000000000    15.2878843580     7.6413313073   Al  0.0 0.0   -2.74198087e-16  5.37702178e-16 -2.31161413e-07
atom      0.0000000000    19.1129236912    11.4628450248   Al  0.0 0.0   -1.87836485e-16 -1.28283529e-06  1.28283529e-06
atom      3.8202095501    15.2878843580    11.4649236257   Al  0.0 0.0   -8.58929075e-07 -6.99933797e-16  8.85427297e-08
atom      3.8218773934    19.1105726430     7.6432367416   Al  0.0 0.0    2.06334439e-07 -1.03570075e-06  8.52727364e-07
atom      0.0000000000    15.2878843580    15.2878843580   Al  0.0 0.0    2.72039047e-16  1.20906243e-16 -5.82940814e-16
atom     -0.0000000000    19.1129236912    19.1129236912   Al  0.0 0.0   -1.72723204e-17 -1.28283529e-06 -1.28283529e-06
atom      3.8202095501    15.2878843580    19.1108450904   Al  0.0 0.0   -8.58929074e-07  6.15326415e-17 -8.85427305e-08
atom      3.8202095501    19.1108450904    15.2878843580   Al  0.0 0.0   -8.58929073e-07 -8.85427296e-08  6.98449457e-16
atom      0.0000000000    15.2878843580    22.9344374087   Al  0.0 0.0   -5.35441933e-16 -6.04244467e-16  2.31161414e-07
atom     -0.0000000000    19.1161199548    26.7554718850   Al  0.0 0.0   -1.10111043e-16  1.43479122e-06  1.88301049e-07
atom      3.8203036986    15.2878843580    26.7554650174   Al  0.0 0.0    2.34575449e-07 -9.28387223e-17 -2.34575448e-07
atom      3.8218773934    19.1105726430    22.9325319744   Al  0.0 0.0    2.06334439e-07 -1.03570075e-06 -8.52727366e-07
atom     -0.0000000000    22.9437532159    -0.0000000000   Al  0.0 0.0   -4.59875531e-16  3.06619694e-07 -2.52169131e-17
atom     -0.0000000000    26.7753845577     3.8003841583   Al  0.0 0.0    3.23856008e-17 -1.82632640e-07  1.82632639e-07
atom      3.8227458441    22.9351571290     3.8227458441   Al  0.0 0.0   -8.00465522e-08  3.77370822e-07 -8.00465526e-08
atom      3.8003841583    26.7753845577    -0.0000000000   Al  0.0 0.0    1.82632640e-07 -1.82632640e-07  2.55711306e-16
atom     -0.0000000000    22.9389507297     7.6368179864   Al  0.0 0.0   -3.62718729e-16  3.38821227e-07 -3.38821228e-07
atom     -0.0000000000    26.7554718850    11.4596487613   Al  0.0 0.0   -3.15219848e-16  1.88301050e-07 -1.43479122e-06
atom      3.8218773934    22.9325319744    11.4651960731   Al  0.0 0.0    2.06334439e-07 -8.52727365e-07  1.03570075e-06
atom      3.8227458441    26.7530228720     7.6406115871   Al  0.0 0.0   -8.00465519e-08  8.00465529e-08 -3.77370822e-07
atom      0.0000000000    22.9344374087    15.2878843580   Al  0.0 0.0   -9.93158424e-17  2.31161413e-07  2.36414886e-16
atom     -0.0000000000    26.7554718850    19.1161199548   Al  0.0 0.0    5.39760013e-17  1.88301050e-07  1.43479122e-06
atom      3.8218773934    22.9325319744    19.1105726430   Al  0.0 0.0    2.06334439e-07 -8.52727366e-07 -1.03570075e-06
atom      3.8203036986    26.7554650174    15.2878843580   Al  0.0 0.0    2.34575449e-07 -2.34575449e-07  8.69013621e-17
atom     -0.0000000000    22.9389507297    22.9389507297   Al  0.0 0.0   -1.23065283e-16  3.38821228e-07  3.38821227e-07
atom     -0.0000000000    26.7753845577    26.7753845577   Al  0.0 0.0   -7.10324177e-16 -1.82632640e-07 -1.82632640e-07
atom      3.8227458441    22.9351571290    26.7530228720   Al  0.0 0.0   -8.00465524e-08  3.77370822e-07  8.00465531e-08
atom      3.8227458441    26.7530228720    22.9351571290   Al  0.0 0.0   -8.00465526e-08  8.00465534e-08  3.77370822e-07
atom      7.6320155002     0.0000000000    -0.0000000000   Al  0.0 0.0   -3.06619694e-07  3.26554808e-17  2.28588366e-16
atom      7.6406115871     3.8227458441     3.8227458441   Al  0.0 0.0   -3.77370822e-07 -8.00465524e-08 -8.00465523e-08
atom     11.4596487613    -0.0000000000     3.8202968310   Al  0.0 0.0   -1.43479122e-06  2.48247437e-16 -1.88301050e-07
atom     11.4596487613     3.8202968310    -0.0000000000   Al  0.0 0.0   -1.43479122e-06 -1.88301049e-07  6.56535827e-17
atom      7.6368179864    -0.0000000000     7.6368179864   Al  0.0 0.0   -3.38821228e-07 -5.62699814e-17 -3.38821227e-07
atom      7.6432367416     3.8218773934    11.4651960731   Al  0.0 0.0    8.52727365e-07  2.06334439e-07  1.03570075e-06
atom     11.4628450248     0.0000000000    11.4628450248   Al  0.0 0.0    1.28283529e-06 -4.27648063e-16  1.28283529e-06
atom     11.4651960731     3.8218773934     7.6432367416   Al  0.0 0.0    1.03570075e-06  2.06334439e-07  8.52727365e-07
atom      7.6413313073     0.0000000000    15.2878843580   Al  0.0 0.0   -2.31161412e-07 -2.80405327e-16  4.14447136e-16
atom      7.6432367416     3.8218773934    19.1105726430   Al  0.0 0.0    8.52727366e-07  2.06334439e-07 -1.03570075e-06
atom     11.4628450248     0.0000000000    19.1129236912   Al  0.0 0.0    1.28283529e-06  1.85601541e-16 -1.28283529e-06
atom     11.4649236257     3.8202095501    15.2878843580   Al  0.0 0.0    8.85427306e-08 -8.58929074e-07  1.01875486e-16
atom      7.6368179864    -0.0000000000    22.9389507297   Al  0.0 0.0   -3.38821227e-07  1.27518303e-16  3.38821228e-07
atom      7.6406115871     3.8227458441    26.7530228720   Al  0.0 0.0   -3.77370822e-07 -8.00465531e-08  8.00465524e-08
atom     11.4596487613     0.0000000000    26.7554718850   Al  0.0 0.0   -1.43479122e-06  2.39037782e-16  1.88301050e-07
atom     11.4651960731     3.8218773934    22.9325319744   Al  0.0 0.0    1.03570075e-06  2.06334439e-07 -8.52727365e-07
atom      7.6368179864     7.6368179864    -0.0000000000   Al  0.0 0.0   -3.38821227e-07 -3.38821228e-07  3.84444069e-16
atom      7.6432367416    11.4651960731     3.8218773934   Al  0.0 0.0    8.52727365e-07  1.03570075e-06  2.06334438e-07
atom     11.4651960731     7.6432367416     3.8218773934   Al  0.0 0.0    1.03570075e-06  8.52727365e-07  2.06334438e-07
atom     11.4628450248    11.4628450248    -0.0000000000   Al  0.0 0.0    1.28283529e-06  1.28283529e-06  6.61151197e-16
atom      7.6470259867     7.6470259867     7.6470259867   Al  0.0 0.0    5.88900463e-07  5.88900463e-07  5.88900463e-07
atom      7.6446135888    11.4680321845    11.4680321845   Al  0.0 0.0   -3.02047457e-10  4.55315989e-08  4.55315990e-08
atom     11.4680321845     7.6446135888    11.4680321845   Al  0.0 0.0    4.55315995e-08 -3.02047417e-10  4.55315995e-08
atom     11.4680321845    11.4680321845     7.6446135888   Al  0.0 0.0    4.55315990e-08  4.55315990e-08 -3.02047452e-10
atom      7.6440082631     7.6440082631    15.2878843580   Al  0.0 0.0    5.12928447e-07  5.12928448e-07  4.12507373e-16
atom      7.6446135888    11.4680321845    19.1077365316   Al  0.0 0.0   -3.02046867e-10  4.55315990e-08 -4.55315996e-08
atom     11.4680321845     7.6446135888    19.1077365316   Al  0.0 0.0    4.55316000e-08 -3.02047066e-10 -4.55316000e-08
atom     11.4662297080    11.4662297080    15.2878843580   Al  0.0 0.0    7.93538982e-07  7.93538981e-07  7.34356149e-16
atom      7.6470259867     7.6470259867    22.9287427294   Al  0.0 0.0    5.88900463e-07  5.88900463e-07 -5.88900463e-07
atom      7.6432367416    11.4651960731    26.7538913226   Al  0.0 0.0    8.52727365e-07  1.03570075e-06 -2.06334439e-07
atom     11.4651960731     7.6432367416    26.7538913226   Al  0.0 0.0    1.03570075e-06  8.52727364e-07 -2.06334438e-07
atom     11.4680321845    11.4680321845    22.9311551273   Al  0.0 0.0    4.55315996e-08  4.55315994e-08  3.02046378e-10
atom      7.6413313073    15.2878843580    -0.0000000000   Al  0.0 0.0   -2.31161413e-07 -1.59768964e-16  1.99576265e-16
atom      7.6432367416    19.1105726430     3.8218773934   Al  0.0 0.0    8.52727365e-07 -1.03570075e-06  2.06334438e-07
atom     11.4649236257    15.2878843580     3.8202095501   Al  0.0 0.0    8.85427295e-08 -2.46602856e-16 -8.58929074e-07
atom     11.4628450248    19.1129236912    -0.0000000000   Al  0.0 0.0    1.28283529e-06 -1.28283529e-06 -8.56742515e-17
atom      7.6440082631    15.2878843580     7.6440082631   Al  0.0 0.0    5.12928448e-07 -4.11271829e-16  5.12928447e-07
atom      7.6446135888    19.1077365316    11.4680321845   Al  0.0 0.0   -3.02046190e-10 -4.55315989e-08  4.55315997e-08
atom     11.4662297080    15.2878843580    11.4662297080   Al  0.0 0.0    7.93538981e-07  2.25768330e-16  7.93538981e-07
atom     11.4680321845    19.1077365316     7.6446135888   Al  0.0 0.0    4.55315995e-08 -4.55315990e-08 -3.02046906e-10
atom      7.6419521299    15.2878843580    15.2878843580   Al  0.0 0.0   -1.10886778e-06  8.66314821e-17  8.70767841e-16
atom      7.6446135888    19.1077365316    19.1077365316   Al  0.0 0.0   -3.02046373e-10 -4.55315999e-08 -4.55315992e-08
atom     11.4662297080    15.2878843580    19.1095390080   Al  0.0 0.0    7.93538981e-07  8.06059893e-16 -7.93538981e-07
atom     11.4662297080    19.1095390080    15.2878843580   Al  0.0 0.0    7.93538980e-07 -7.93538981e-07 -5.89603477e-17
atom      7.6440082631    15.2878843580    22.9317604529   Al  0.0 0.0    5.12928449e-07  2.66409518e-16 -5.12928448e-07
atom      7.6432367416    19.1105726430    26.7538913226   Al  0.0 0.0    8.52727365e-07 -1.03570075e-06 -2.06334438e-07
atom     11.4649236257    15.2878843580    26.7555591659   Al  0.0 0.0    8.85427299e-08  1.91834082e-16  8.58929074e-07
atom     11.4680321845    19.1077365316    22.9311551273   Al  0.0 0.0    4.55315997e-08 -4.55316001e-08  3.02046243e-10
atom      7.6368179864    22.9389507297    -0.0000000000   Al  0.0 0.0   -3.38821228e-07  3.38821228e-07 -7.67049581e-18
atom      7.6406115871    26.7530228720     3.8227458441   Al  0.0 0.0   -3.77370822e-07  8.00465532e-08 -8.00465526e-08
atom     11.4651960731    22.9325319744     3.8218773934   Al  0.0 0.0    1.03570075e-06 -8.52727365e-07  2.06334438e-07
atom     11.4596487613    26.7554718850    -0.0000000000   Al  0.0 0.0   -1.43479122e-06  1.88301049e-07 -1.79723217e-16
atom      7.6470259867    22.9287427294     7.6470259867   Al  0.0 0.0    5.88900463e-07 -5.88900463e-07  5.88900463e-07
atom      7.6432367416    26.7538913226    11.4651960731   Al  0.0 0.0    8.52727366e-07 -2.06334439e-07  1.03570075e-06
atom     11.4680321845    22.9311551273    11.4680321845   Al  0.0 0.0    4.55315998e-08  3.02046991e-10  4.55315993e-08
atom     11.4651960731    26.7538913226     7.6432367416   Al  0.0 0.0    1.03570075e-06 -2.06334438e-07  8.52727366e-07
atom      7.6440082631    22.9317604529    15.2878843580   Al  0.0 0.0    5.12928448e-07 -5.12928448e-07  3.52193409e-17
atom      7.6432367416    26.7538913226    19.1105726430   Al  0.0 0.0    8.52727366e-07 -2.06334438e-07 -1.03570075e-06
atom     11.4680321845    22.9311551273    19.1077365316   Al  0.0 0.0    4.55315993e-08  3.02046357e-10 -4.55315993e-08
atom     11.4649236257    26.7555591659    15.2878843580   Al  0.0 0.0    8.85427302e-08  8.58929075e-07 -4.95879211e-16
atom      7.6470259867    22.9287427294    22.9287427294   Al  0.0 0.0    5.88900463e-07 -5.88900463e-07 -5.88900463e-07
atom      7.6406115871    26.7530228720    26.7530228720   Al  0.0 0.0   -3.77370822e-07  8.00465533e-08  8.00465527e-08
atom     11.4651960731    22.9325319744    26.7538913226   Al  0.0 0.0    1.03570075e-06 -8.52727365e-07 -2.06334438e-07
atom     11.4651960731    26.7538913226    22.9325319744   Al  0.0 0.0    1.03570075e-06 -2.06334438e-07 -8.52727365e-07
atom     15.2878843580    -0.0000000000     0.0000000000   Al  0.0 0.0   -2.22236065e-15  2.95796974e-15  2.37822268e-16
atom     15.2878843580     3.8203036986     3.8203036986   Al  0.0 0.0    5.74591402e-16  2.34575449e-07  2.34575449e-07
atom     19.1161199548    -0.0000000000     3.8202968310   Al  0.0 0.0    1.43479122e-06  1.88143592e-15 -1.88301049e-07
atom     19.1161199548     3.8202968310     0.0000000000   Al  0.0 0.0    1.43479122e-06 -1.88301050e-07  1.13121101e-16
atom     15.2878843580    -0.0000000000     7.6413313073   Al  0.0 0.0    8.44876228e-16 -2.09101132e-16 -2.31161413e-07
atom     15.2878843580     3.8202095501    11.4649236257   Al  0.0 0.0   -3.48803041e-16 -8.58929074e-07  8.85427307e-08
atom     19.1129236912    -0.0000000000    11.4628450248   Al  0.0 0.0   -1.28283529e-06  4.22211457e-16  1.28283529e-06
atom     19.1105726430     3.8218773934     7.6432367416   Al  0.0 0.0   -1.03570075e-06  2.06334439e-07  8.52727365e-07
atom     15.2878843580     0.0000000000    15.2878843580   Al  0.0 0.0   -7.01772355e-17  1.23603725e-16 -2.60837840e-16
atom     15.2878843580     3.8202095501    19.1108450904   Al  0.0 0.0   -4.98856325e-16 -8.58929075e-07 -8.85427312e-08
atom     19.1129236912    -0.0000000000    19.1129236912   Al  0.0 0.0   -1.28283529e-06 -3.98108194e-16 -1.28283529e-06
atom     19.1108450904     3.8202095501    15.2878843580   Al  0.0 0.0   -8.85427298e-08 -8.58929074e-07  1.35677956e-16
atom     15.2878843580     0.0000000000    22.9344374087   Al  0.0 0.0    3.05504168e-16 -2.84911058e-16  2.31161413e-07
atom     15.2878843580     3.8203036986    26.7554650174   Al  0.0 0.0    4.17909190e-16  2.34575449e-07 -2.34575448e-07
atom     19.1161199548    -0.0000000000    26.7554718850   Al  0.0 0.0    1.43479122e-06  1.41192733e-15  1.88301048e-07
atom     19.1105726430     3.8218773934    22.9325319744   Al  0.0 0.0   -1.03570075e-06  2.06334439e-07 -8.52727365e-07
atom     15.2878843580     7.6413313073    -0.0000000000   Al  0.0 0.0   -2.24017273e-16 -2.31161413e-07  5.03770566e-16
atom     15.2878843580    11.4649236257     3.8202095501   Al  0.0 0.0   -4.11398335e-16  8.85427290e-08 -8.58929075e-07
atom     19.1105726430     7.6432367416     3.8218773934   Al  0.0 0.0   -1.03570075e-06  8.52727365e-07  2.06334438e-07
atom     19.1129236912    11.4628450248     0.0000000000   Al  0.0 0.0   -1.28283529e-06  1.28283529e-06 -4.98907850e-16
atom     15.2878843580     7.6440082631     7.6440082631   Al  0.0 0.0   -3.43489778e-16  5.12928447e-07  5.12928447e-07
atom     15.2878843580    11.4662297080    11.4662297080   Al  0.0 0.0    7.26559147e-16  7.93538980e-07  7.93538981e-07
atom     19.1077365316     7.6446135888    11.4680321845   Al  0.0 0.0   -4.55315991e-08 -3.02047332e-10  4.55315994e-08
atom     19.1077365316    11.4680321845     7.6446135888   Al  0.0 0.0   -4.55315997e-08  4.55315988e-08 -3.02046997e-10
atom     15.2878843580     7.6419521299    15.2878843580   Al  0.0 0.0   -4.38892361e-17 -1.10886778e-06  6.33901750e-16
atom     15.2878843580    11.4662297080    19.1095390080   Al  0.0 0.0    1.96000355e-17  7.93538981e-07 -7.93538980e-07
atom     19.1077365316     7.6446135888    19.1077365316   Al  0.0 0.0   -4.55315995e-08 -3.02046743e-10 -4.55315994e-08
atom     19.1095390080    11.4662297080    15.2878843580   Al  0.0 0.0   -7.93538980e-07  7.93538980e-07  1.55802993e-16
atom     15.2878843580     7.6440082631    22.9317604529   Al  0.0 0.0    1.25021913e-16  5.12928448e-07 -5.12928447e-07
atom     15.2878843580    11.4649236257    26.7555591659   Al  0.0 0.0    4.85948470e-16  8.85427298e-08  8.58929075e-07
atom     19.1105726430     7.6432367416    26.7538913226   Al  0.0 0.0   -1.03570075e-06  8.52727365e-07 -2.06334438e-07
atom     19.1077365316    11.4680321845    22.9311551273   Al  0.0 0.0   -4.55315995e-08  4.55315996e-08  3.02046629e-10
atom     15.2878843580    15.2878843580    -0.0000000000   Al  0.0 0.0   -1.86014795e-16 -2.00444941e-16 -5.96228715e-16
atom     15.2878843580    19.1108450904     3.8202095501   Al  0.0 0.0    1.89776247e-16 -8.85427306e-08 -8.58929073e-07
atom     19.1108450904    15.2878843580     3.8202095501   Al  0.0 0.0   -8.85427292e-08  5.39414230e-16 -8.58929074e-07
atom     19.1129236912    19.1129236912    -0.0000000000   Al  0.0 0.0   -1.28283529e-06 -1.28283529e-06  1.39937000e-17
atom     15.2878843580    15.2878843580     7.6419521299   Al  0.0 0.0   -7.78603819e-17  5.12436771e-16 -1.10886778e-06
atom     15.2878843580    19.1095390080    11.4662297080   Al  0.0 0.0   -6.37962601e-16 -7.93538980e-07  7.93538981e-07
atom     19.1095390080    15.2878843580    11.4662297080   Al  0.0 0.0   -7.93538981e-07 -3.11207491e-16  7.93538981e-07
atom     19.1077365316    19.1077365316     7.6446135888   Al  0.0 0.0   -4.55315998e-08 -4.55315991e-08 -3.02047024e-10
atom     15.2878843580    15.2878843580    15.2878843580   Al  0.0 0.0    1.84209972e-16 -6.72623206e-17  6.07996168e-16
atom     15.2878843580    19.1095390080    19.1095390080   Al  0.0 0.0   -8.51328047e-16 -7.93538980e-07 -7.93538980e-07
atom     19.1095390080    15.2878843580    19.1095390080   Al  0.0 0.0   -7.93538981e-07 -4.15071629e-16 -7.93538981e-07
atom     19.1095390080    19.1095390080    15.2878843580   Al  0.0 0.0   -7.93538981e-07 -7.93538981e-07 -2.84992233e-17
atom     15.2878843580    15.2878843580    22.9338165861   Al  0.0 0.0   -7.48832681e-17  1.08297786e-16  1.10886778e-06
atom     15.2878843580    19.1108450904    26.7555591659   Al  0.0 0.0   -3.63039211e-16 -8.85427309e-08  8.58929073e-07
atom     19.1108450904    15.2878843580    26.7555591659   Al  0.0 0.0   -8.85427299e-08 -2.36781622e-16  8.58929075e-07
atom     19.1077365316    19.1077365316    22.9311551273   Al  0.0 0.0   -4.55315997e-08 -4.55315993e-08  3.02046697e-10
atom     15.2878843580    22.9344374087    -0.0000000000   Al  0.0 0.0    2.87951847e-15  2.31161410e-07  4.69280217e-17
atom     15.2878843580    26.7554650174     3.8203036986   Al  0.0 0.0   -9.23141430e-16 -2.34575449e-07  2.34575450e-07
atom     19.1105726430    22.9325319744     3.8218773934   Al  0.0 0.0   -1.03570074e-06 -8.52727364e-07  2.06334438e-07
atom     19.1161199548    26.7554718850     0.0000000000   Al  0.0 0.0    1.43479122e-06  1.88301054e-07 -8.59290051e-17
atom     15.2878843580    22.9317604529     7.6440082631   Al  0.0 0.0   -1.01238737e-16 -5.12928448e-07  5.12928448e-07
atom     15.2878843580    26.7555591659    11.4649236257   Al  0.0 0.0   -2.97154755e-16  8.58929074e-07  8.85427297e-08
atom     19.1077365316    22.9311551273    11.4680321845   Al  0.0 0.0   -4.55316000e-08  3.02046607e-10  4.55315989e-08
atom     19.1105726430    26.7538913226     7.6432367416   Al  0.0 0.0   -1.03570075e-06 -2.06334439e-07  8.52727365e-07
atom     15.2878843580    22.9338165861    15.2878843580   Al  0.0 0.0   -4.72424952e-16  1.10886778e-06  2.93882987e-16
atom     15.2878843580    26.7555591659    19.1108450904   Al  0.0 0.0   -1.71120792e-17  8.58929075e-07 -8.85427295e-08
atom     19.1077365316    22.9311551273    19.1077365316   Al  0.0 0.0   -4.55315994e-08  3.02047498e-10 -4.55315989e-08
atom     19.1108450904    26.7555591659    15.2878843580   Al  0.0 0.0   -8.85427297e-08  8.58929074e-07  6.21674765e-16
atom     15.2878843580    22.9317604529    22.9317604529   Al  0.0 0.0   -2.29431741e-16 -5.12928448e-07 -5.12928448e-07
atom     15.2878843580    26.7554650174    26.7554650174   Al  0.0 0.0   -4.86492447e-16 -2.34575449e-07 -2.34575450e-07
atom     19.1105726430    22.9325319744    26.7538913226   Al  0.0 0.0   -1.03570074e-06 -8.52727364e-07 -2.06334438e-07
atom     19.1105726430    26.7538913226    22.9325319744   Al  0.0 0.0   -1.03570075e-06 -2.06334439e-07 -8.52727365e-07
atom     22.9437532159     0.0000000000    -0.0000000000   Al  0.0 0.0    3.06619696e-07 -2.93470049e-15 -6.91373541e-16
atom     22.9351571290     3.8227458441     3.8227458441   Al  0.0 0.0    3.77370822e-07 -8.00465521e-08 -8.00465537e-08
atom     26.7753845577     0.0000000000     3.8003841583   Al  0.0 0.0   -1.82632640e-07  1.39797843e-16  1.82632641e-07
atom     26.7753845577     3.8003841583    -0.0000000000   Al  0.0 0.0   -1.82632640e-07  1.82632640e-07 -4.91181612e-17
atom     22.9389507297    -0.0000000000     7.6368179864   Al  0.0 0.0    3.38821227e-07 -5.61350414e-17 -3.38821227e-07
atom     22.9325319744     3.8218773934    11.4651960731   Al  0.0 0.0   -8.52727366e-07  2.06334438e-07  1.03570075e-06
atom     26.7554718850    -0.0000000000    11.4596487613   Al  0.0 0.0    1.88301049e-07  6.26121615e-16 -1.43479122e-06
atom     26.7530228720     3.8227458441     7.6406115871   Al  0.0 0.0    8.00465523e-08 -8.00465519e-08 -3.77370823e-07
atom     22.9344374087    -0.0000000000    15.2878843580   Al  0.0 0.0    2.31161413e-07  2.45590806e-16  4.98206926e-16
atom     22.9325319744     3.8218773934    19.1105726430   Al  0.0 0.0   -8.52727365e-07  2.06334439e-07 -1.03570075e-06
atom     26.7554718850     0.0000000000    19.1161199548   Al  0.0 0.0    1.88301048e-07 -4.87943052e-16  1.43479122e-06
atom     26.7554650174     3.8203036986    15.2878843580   Al  0.0 0.0   -2.34575450e-07  2.34575450e-07 -8.62536501e-16
atom     22.9389507297    -0.0000000000    22.9389507297   Al  0.0 0.0    3.38821229e-07  1.11730323e-16  3.38821228e-07
atom     22.9351571290     3.8227458441    26.7530228720   Al  0.0 0.0    3.77370822e-07 -8.00465534e-08  8.00465533e-08
atom     26.7753845577    -0.0000000000    26.7753845577   Al  0.0 0.0   -1.82632641e-07  2.41272726e-16 -1.82632641e-07
atom     26.7530228720     3.8227458441    22.9351571290   Al  0.0 0.0    8.00465524e-08 -8.00465510e-08  3.77370822e-07
atom     22.9389507297     7.6368179864     0.0000000000   Al  0.0 0.0    3.38821226e-07 -3.38821227e-07  1.77446104e-16
atom     22.9325319744    11.4651960731     3.8218773934   Al  0.0 0.0   -8.52727364e-07  1.03570075e-06  2.06334439e-07
atom     26.7530228720     7.6406115871     3.8227458441   Al  0.0 0.0    8.00465522e-08 -3.77370822e-07 -8.00465523e-08
atom     26.7554718850    11.4596487613    -0.0000000000   Al  0.0 0.0    1.88301049e-07 -1.43479122e-06  5.98054095e-16
atom     22.9287427294     7.6470259867     7.6470259867   Al  0.0 0.0   -5.88900463e-07  5.88900463e-07  5.88900463e-07
atom     22.9311551273    11.4680321845    11.4680321845   Al  0.0 0.0    3.02046938e-10  4.55315987e-08  4.55315992e-08
atom     26.7538913226     7.6432367416    11.4651960731   Al  0.0 0.0   -2.06334438e-07  8.52727365e-07  1.03570075e-06
atom     26.7538913226    11.4651960731     7.6432367416   Al  0.0 0.0   -2.06334440e-07  1.03570075e-06  8.52727365e-07
atom     22.9317604529     7.6440082631    15.2878843580   Al  0.0 0.0   -5.12928448e-07  5.12928447e-07  5.50626900e-16
atom     22.9311551273    11.4680321845    19.1077365316   Al  0.0 0.0    3.02045955e-10  4.55315989e-08 -4.55315996e-08
atom     26.7538913226     7.6432367416    19.1105726430   Al  0.0 0.0   -2.06334438e-07  8.52727363e-07 -1.03570075e-06
atom     26.7555591659    11.4649236257    15.2878843580   Al  0.0 0.0    8.58929073e-07  8.85427299e-08 -7.57283299e-16
atom     22.9287427294     7.6470259867    22.9287427294   Al  0.0 0.0   -5.88900463e-07  5.88900463e-07 -5.88900463e-07
atom     22.9325319744    11.4651960731    26.7538913226   Al  0.0 0.0   -8.52727366e-07  1.03570075e-06 -2.06334439e-07
atom     26.7530228720     7.6406115871    26.7530228720   Al  0.0 0.0    8.00465529e-08 -3.77370822e-07  8.00465522e-08
atom     26.7538913226    11.4651960731    22.9325319744   Al  0.0 0.0   -2.06334439e-07  1.03570075e-06 -8.52727364e-07
atom     22.9344374087    15.2878843580    -0.0000000000   Al  0.0 0.0    2.31161413e-07  4.96174392e-16  4.47326111e-16
atom     22.9325319744    19.1105726430     3.8218773934   Al  0.0 0.0   -8.52727365e-07 -1.03570075e-06  2.06334439e-07
atom     26.7554650174    15.2878843580     3.8203036986   Al  0.0 0.0   -2.34575449e-07 -7.54314619e-17  2.34575449e-07
atom     26.7554718850    19.1161199548    -0.0000000000   Al  0.0 0.0    1.88301050e-07  1.43479122e-06  3.54352449e-16
atom     22.9317604529    15.2878843580     7.6440082631   Al  0.0 0.0   -5.12928447e-07 -5.03756334e-16  5.12928447e-07
atom     22.9311551273    19.1077365316    11.4680321845   Al  0.0 0.0    3.02047292e-10 -4.55315983e-08  4.55315987e-08
atom     26.7555591659    15.2878843580    11.4649236257   Al  0.0 0.0    8.58929074e-07  2.69475187e-16  8.85427291e-08
atom     26.7538913226    19.1105726430     7.6432367416   Al  0.0 0.0   -2.06334439e-07 -1.03570075e-06  8.52727365e-07
atom     22.9338165861    15.2878843580    15.2878843580   Al  0.0 0.0    1.10886778e-06 -1.50323164e-16  1.97822045e-16
atom     22.9311551273    19.1077365316    19.1077365316   Al  0.0 0.0    3.02046878e-10 -4.55315993e-08 -4.55315990e-08
atom     26.7555591659    15.2878843580    19.1108450904   Al  0.0 0.0    8.58929074e-07 -3.20617448e-16 -8.85427296e-08
atom     26.7555591659    19.1108450904    15.2878843580   Al  0.0 0.0    8.58929073e-07 -8.85427299e-08  1.07952003e-16
atom     22.9317604529    15.2878843580    22.9317604529   Al  0.0 0.0   -5.12928448e-07 -1.66916040e-16 -5.12928448e-07
atom     22.9325319744    19.1105726430    26.7538913226   Al  0.0 0.0   -8.52727365e-07 -1.03570075e-06 -2.06334438e-07
atom     26.7554650174    15.2878843580    26.7554650174   Al  0.0 0.0   -2.34575448e-07 -5.39760013e-16 -2.34575449e-07
atom     26.7538913226    19.1105726430    22.9325319744   Al  0.0 0.0   -2.06334439e-07 -1.03570075e-06 -8.52727365e-07
atom     22.9389507297    22.9389507297    -0.0000000000   Al  0.0 0.0    3.38821225e-07  3.38821230e-07  4.54823715e-16
atom     22.9351571290    26.7530228720     3.8227458441   Al  0.0 0.0    3.77370821e-07  8.00465512e-08 -8.00465537e-08
atom     26.7530228720    22.9351571290     3.8227458441   Al  0.0 0.0    8.00465520e-08  3.77370822e-07 -8.00465527e-08
atom     26.7753845577    26.7753845577    -0.0000000000   Al  0.0 0.0   -1.82632639e-07 -1.82632642e-07 -1.74055737e-16
atom     22.9287427294    22.9287427294     7.6470259867   Al  0.0 0.0   -5.88900463e-07 -5.88900464e-07  5.88900463e-07
atom     22.9325319744    26.7538913226    11.4651960731   Al  0.0 0.0   -8.52727364e-07 -2.06334438e-07  1.03570075e-06