begin
comment 255 atoms, species Al255
lattice     30.5757687160     0.0000000000     0.0000000000
lattice      0.0000000000    30.5757687160     0.0000000000
lattice      0.0000000000     0.0000000000    30.5757687160
atom     -0.0112062826    -0.0112062826    -0.0194916986   Al  0.0 0.0    1.90683055e-07  1.90683055e-07 -8.90061446e-07
atom     -0.0042397288     3.8137438966     3.8118063971   Al  0.0 0.0   -3.28396692e-07  2.16191697e-07 -2.90135502e-07
atom      3.8137438966    -0.0042397288     3.8118063971   Al  0.0 0.0    2.16191697e-07 -3.28396692e-07 -2.90135501e-07
atom      3.8156787734     3.8156787734    -0.0062923161   Al  0.0 0.0   -1.02020142e-06 -1.02020142e-06 -1.02020142e-06
atom     -0.0022751038    -0.0022751038     7.6439421790   Al  0.0 0.0   -7.33914728e-07 -7.33914728e-07 -2.98757167e-16
atom     -0.0042397288     3.8137438966    11.4760779609   Al  0.0 0.0   -3.28396691e-07  2.16191697e-07  2.90135501e-07
atom      3.8137438966    -0.0042397288    11.4760779609   Al  0.0 0.0    2.16191697e-07 -3.28396692e-07  2.90135501e-07
atom      3.8157238978     3.8157238978     7.6439421790   Al  0.0 0.0    6.38605170e-07  6.38605170e-07  1.03903803e-16
atom     -0.0112062826    -0.0112062826    15.3073760566   Al  0.0 0.0    1.90683056e-07  1.90683054e-07  8.90061445e-07
atom     -0.0112062826     3.8024793909    19.1210617301   Al  0.0 0.0    1.90683056e-07 -8.90061445e-07 -1.90683054e-07
atom      3.8024793909    -0.0112062826    19.1210617301   Al  0.0 0.0   -8.90061445e-07  1.90683055e-07 -1.90683056e-07
atom      3.8156787734     3.8156787734    15.2941766741   Al  0.0 0.0   -1.02020142e-06 -1.02020142e-06  1.02020142e-06
atom     -0.0780015151    -0.0780015151    22.9318265370   Al  0.0 0.0    8.82727724e-07  8.82727724e-07  3.57173538e-16
atom     -0.0112062826     3.8024793909    26.7425913439   Al  0.0 0.0    1.90683055e-07 -8.90061445e-07  1.90683055e-07
atom      3.8024793909    -0.0112062826    26.7425913439   Al  0.0 0.0   -8.90061445e-07  1.90683055e-07  1.90683055e-07
atom      3.7869409248     3.7869409248    22.9318265370   Al  0.0 0.0    6.24657605e-07  6.24657605e-07  1.43608788e-15
atom     -0.0042397288     7.6337774866    -0.0082271929   Al  0.0 0.0   -3.28396691e-07 -2.90135501e-07  2.16191697e-07
atom     -0.0053440625    11.4659132685     3.8159992600   Al  0.0 0.0    1.42317990e-06 -1.58356311e-16  3.49682066e-08
atom      3.8177897810     7.6405753882     3.8186042987   Al  0.0 0.0   -7.74548888e-08 -2.78556365e-07 -2.78556366e-07
atom      3.8157238978    11.4659132685    -0.0062471917   Al  0.0 0.0    6.38605170e-07 -5.50314852e-16  6.38605170e-07
atom     -0.0053440625     7.6379703495     7.6439421790   Al  0.0 0.0    1.42317990e-06  3.49682073e-08 -1.89287090e-16
atom     -0.0053440625    11.4659132685    11.4718850980   Al  0.0 0.0    1.42317989e-06  4.22699560e-17 -3.49682070e-08
atom      3.8177897810     7.6405753882    11.4692800593   Al  0.0 0.0   -7.74548889e-08 -2.78556365e-07  2.78556365e-07
atom      3.8187046372    11.4659132685     7.6439421790   Al  0.0 0.0    6.62238510e-07  1.53241241e-17 -4.77860504e-16
atom     -0.0042397288     7.6337774866    15.2961115509   Al  0.0 0.0   -3.28396692e-07 -2.90135501e-07 -2.16191698e-07
atom     -0.0022751038    11.4659132685    19.1121305513   Al  0.0 0.0   -7.33914728e-07  3.21277389e-16  7.33914728e-07
atom      3.8137438966     7.6337774866    19.1140951763   Al  0.0 0.0    2.16191697e-07 -2.90135501e-07  3.28396693e-07
atom      3.8157238978    11.4659132685    15.2941315497   Al  0.0 0.0    6.38605170e-07  1.64179815e-16 -6.38605170e-07
atom     -0.0077228728     7.6346909626    22.9318265370   Al  0.0 0.0    4.07888553e-08  5.66023387e-08  6.84141600e-16
atom     -0.0022751038    11.4659132685    26.7515225227   Al  0.0 0.0   -7.33914727e-07 -4.36092356e-16 -7.33914728e-07
atom      3.8137438966     7.6337774866    26.7495578977   Al  0.0 0.0    2.16191697e-07 -2.90135500e-07 -3.28396691e-07
atom      3.8128559233    11.4659132685    22.9318265370   Al  0.0 0.0   -8.97298559e-07 -2.29499211e-16  4.57335391e-16
atom     -0.0042397288    15.2980490504    -0.0082271929   Al  0.0 0.0   -3.28396691e-07  2.90135501e-07  2.16191697e-07
atom     -0.0042397288    19.1180826404     3.8118063971   Al  0.0 0.0   -3.28396692e-07 -2.16191697e-07 -2.90135501e-07
atom      3.8177897810    15.2912511488     3.8186042987   Al  0.0 0.0   -7.74548888e-08  2.78556365e-07 -2.78556365e-07
atom      3.8156787734    19.1161477636    -0.0062923161   Al  0.0 0.0   -1.02020142e-06  1.02020142e-06 -1.02020142e-06
atom     -0.0053440625    15.2938561875     7.6439421790   Al  0.0 0.0    1.42317989e-06 -3.49682076e-08  3.27382033e-17
atom     -0.0042397288    19.1180826404    11.4760779609   Al  0.0 0.0   -3.28396692e-07 -2.16191697e-07  2.90135501e-07
atom      3.8177897810    15.2912511488    11.4692800593   Al  0.0 0.0   -7.74548890e-08  2.78556365e-07  2.78556365e-07
atom      3.8157238978    19.1161026392     7.6439421790   Al  0.0 0.0    6.38605169e-07 -6.38605170e-07 -3.96782529e-16
atom     -0.0042397288    15.2980490504    15.2961115509   Al  0.0 0.0   -3.28396692e-07  2.90135501e-07 -2.16191696e-07
atom     -0.0112062826    19.1293471461    19.1210617301   Al  0.0 0.0    1.90683056e-07  8.90061445e-07 -1.90683055e-07
atom      3.8137438966    15.2980490504    19.1140951763   Al  0.0 0.0    2.16191697e-07  2.90135501e-07  3.28396692e-07
atom      3.8156787734    19.1161477636    15.2941766741   Al  0.0 0.0   -1.02020142e-06  1.02020142e-06  1.02020142e-06
atom     -0.0077228728    15.2971355745    22.9318265370   Al  0.0 0.0    4.07888550e-08 -5.66023390e-08  4.35744952e-16
atom     -0.0112062826    19.1293471461    26.7425913439   Al  0.0 0.0    1.90683055e-07  8.90061445e-07  1.90683055e-07
atom      3.8137438966    15.2980490504    26.7495578977   Al  0.0 0.0    2.16191697e-07  2.90135500e-07 -3.28396691e-07
atom      3.7869409248    19.1448856122    22.9318265370   Al  0.0 0.0    6.24657605e-07 -6.24657604e-07  2.24822450e-16
atom     -0.0112062826    22.9430328196    -0.0194916986   Al  0.0 0.0    1.90683055e-07 -1.90683054e-07 -8.90061445e-07
atom     -0.0077228728    26.7537976265     3.8127198731   Al  0.0 0.0    4.07888553e-08  6.90892817e-17  5.66023375e-08
atom      3.8137438966    22.9360662658     3.8118063971   Al  0.0 0.0    2.16191697e-07  3.28396692e-07 -2.90135502e-07
atom      3.7869409248    26.7537976265    -0.0350301647   Al  0.0 0.0    6.24657605e-07 -1.84597925e-16  6.24657605e-07
atom     -0.0022751038    22.9341016408     7.6439421790   Al  0.0 0.0   -7.33914728e-07  7.33914728e-07 -3.56169922e-16
atom     -0.0077228728    26.7537976265    11.4751644850   Al  0.0 0.0    4.07888555e-08 -6.28280655e-16 -5.66023375e-08
atom      3.8137438966    22.9360662658    11.4760779609   Al  0.0 0.0    2.16191697e-07  3.28396693e-07  2.90135502e-07
atom      3.8128559233    26.7537976265     7.6439421790   Al  0.0 0.0   -8.97298559e-07  2.34795606e-16  2.93410170e-16
atom     -0.0112062826    22.9430328196    15.3073760566   Al  0.0 0.0    1.90683055e-07 -1.90683054e-07  8.90061446e-07
atom     -0.0780015151    26.7537976265    19.1878569627   Al  0.0 0.0    8.82727724e-07 -5.71605854e-16 -8.82727724e-07
atom      3.8024793909    22.9430328196    19.1210617301   Al  0.0 0.0   -8.90061446e-07 -1.90683055e-07 -1.90683054e-07
atom      3.7869409248    26.7537976265    15.3229145227   Al  0.0 0.0    6.24657605e-07  2.24000406e-16 -6.24657606e-07
atom     -0.0780015151    23.0098280522    22.9318265370   Al  0.0 0.0    8.82727724e-07 -8.82727724e-07  2.96671923e-16
atom     -0.0780015151    26.7537976265    26.6757961114   Al  0.0 0.0    8.82727724e-07 -2.71499287e-16  8.82727724e-07
atom      3.8024793909    22.9430328196    26.7425913439   Al  0.0 0.0   -8.90061445e-07 -1.90683055e-07  1.90683055e-07
atom      3.7892833692    26.7537976265    22.9318265370   Al  0.0 0.0   -9.84937349e-07 -1.66785844e-16 -2.39324530e-16
atom      7.6337774866    -0.0042397288    -0.0082271929   Al  0.0 0.0   -2.90135500e-07 -3.28396691e-07  2.16191697e-07
atom      7.6405753882     3.8177897810     3.8186042987   Al  0.0 0.0   -2.78556364e-07 -7.74548883e-08 -2.78556366e-07
atom     11.4659132685    -0.0053440625     3.8159992600   Al  0.0 0.0    4.88061125e-17  1.42317990e-06  3.49682063e-08
atom     11.4659132685     3.8157238978    -0.0062471917   Al  0.0 0.0   -2.28959451e-16  6.38605170e-07  6.38605170e-07
atom      7.6379703495    -0.0053440625     7.6439421790   Al  0.0 0.0    3.49682064e-08  1.42317989e-06  6.73856642e-17
atom      7.6405753882     3.8177897810    11.4692800593   Al  0.0 0.0   -2.78556365e-07 -7.74548898e-08  2.78556365e-07
atom     11.4659132685    -0.0053440625    11.4718850980   Al  0.0 0.0   -1.07682123e-16  1.42317989e-06 -3.49682063e-08
atom     11.4659132685     3.8187046372     7.6439421790   Al  0.0 0.0   -1.01723678e-16  6.62238510e-07 -7.35743501e-16
atom      7.6337774866    -0.0042397288    15.2961115509   Al  0.0 0.0   -2.90135501e-07 -3.28396692e-07 -2.16191697e-07
atom      7.6337774866     3.8137438966    19.1140951763   Al  0.0 0.0   -2.90135501e-07  2.16191696e-07  3.28396692e-07
atom     11.4659132685    -0.0022751038    19.1121305513   Al  0.0 0.0    1.30217103e-17 -7.33914728e-07  7.33914728e-07
atom     11.4659132685     3.8157238978    15.2941315497   Al  0.0 0.0   -1.93495531e-16  6.38605169e-07 -6.38605170e-07
atom      7.6346909626    -0.0077228728    22.9318265370   Al  0.0 0.0    5.66023383e-08  4.07888559e-08 -2.90289682e-17
atom      7.6337774866     3.8137438966    26.7495578977   Al  0.0 0.0   -2.90135501e-07  2.16191697e-07 -3.28396691e-07
atom     11.4659132685    -0.0022751038    26.7515225227   Al  0.0 0.0    3.69988622e-17 -7.33914727e-07 -7.33914728e-07
atom     11.4659132685     3.8128559233    22.9318265370   Al  0.0 0.0   -1.69248499e-16 -8.97298560e-07  2.73613522e-16
atom      7.6405753882     7.6405753882    -0.0041813085   Al  0.0 0.0   -2.78556365e-07 -2.78556365e-07 -7.74548887e-08
atom      7.6427027552    11.4659132685     3.8207316657   Al  0.0 0.0   -1.01899633e-07  2.01330485e-16 -1.01899634e-07
atom     11.4659132685     7.6427027552     3.8207316657   Al  0.0 0.0    5.02938260e-16 -1.01899633e-07 -1.01899634e-07
atom     11.4659132685    11.4659132685    -0.0032664523   Al  0.0 0.0    8.11900265e-16  4.07333268e-16  6.62238510e-07
atom      7.6427027552     7.6427027552     7.6439421790   Al  0.0 0.0   -1.01899633e-07 -1.01899633e-07 -9.08787187e-16
atom      7.6427027552    11.4659132685    11.4671526923   Al  0.0 0.0   -1.01899633e-07  5.59545591e-16  1.01899633e-07
atom     11.4659132685     7.6427027552    11.4671526923   Al  0.0 0.0    3.88357330e-16 -1.01899633e-07  1.01899633e-07
atom     11.4659132685    11.4659132685     7.6439421790   Al  0.0 0.0    1.62628005e-16 -4.70012899e-17 -1.35256480e-15
atom      7.6405753882     7.6405753882    15.2920656665   Al  0.0 0.0   -2.78556365e-07 -2.78556365e-07  7.74548890e-08
atom      7.6379703495    11.4659132685    19.1151995100   Al  0.0 0.0    3.49682070e-08  2.82311354e-16 -1.42317989e-06
atom     11.4659132685     7.6379703495    19.1151995100   Al  0.0 0.0   -3.19672868e-16  3.49682075e-08 -1.42317989e-06
atom     11.4659132685    11.4659132685    15.2911508104   Al  0.0 0.0    1.77353333e-16  9.19531785e-16 -6.62238509e-07
atom      7.6304741498     7.6304741498    22.9318265370   Al  0.0 0.0   -9.11941859e-08 -9.11941853e-08  1.91834082e-16
atom      7.6379703495    11.4659132685    26.7484535640   Al  0.0 0.0    3.49682064e-08 -2.65629397e-16  1.42317989e-06
atom     11.4659132685     7.6379703495    26.7484535640   Al  0.0 0.0    1.35277353e-16  3.49682069e-08  1.42317990e-06
atom     11.4659132685    11.4659132685    22.9318265370   Al  0.0 0.0    7.20326605e-17  2.62795656e-16  1.64850174e-16
atom      7.6405753882    15.2912511488    -0.0041813085   Al  0.0 0.0   -2.78556365e-07  2.78556364e-07 -7.74548888e-08
atom      7.6405753882    19.1140367560     3.8186042987   Al  0.0 0.0   -2.78556364e-07  7.74548893e-08 -2.78556366e-07
atom     11.4659132685    15.2891237818     3.8207316657   Al  0.0 0.0    4.59015289e-16  1.01899633e-07 -1.01899633e-07
atom     11.4659132685    19.1161026392    -0.0062471917   Al  0.0 0.0   -6.23338478e-17 -6.38605170e-07  6.38605170e-07
atom      7.6427027552    15.2891237818     7.6439421790   Al  0.0 0.0   -1.01899633e-07  1.01899633e-07 -3.94388295e-16
atom      7.6405753882    19.1140367560    11.4692800593   Al  0.0 0.0   -2.78556365e-07  7.74548884e-08  2.78556365e-07
atom     11.4659132685    15.2891237818    11.4671526923   Al  0.0 0.0    3.86518772e-16  1.01899633e-07  1.01899633e-07
atom     11.4659132685    19.1131218999     7.6439421790   Al  0.0 0.0    5.11717794e-16 -6.62238510e-07 -1.00567294e-16
atom      7.6405753882    15.2912511488    15.2920656665   Al  0.0 0.0   -2.78556365e-07  2.78556365e-07  7.74548897e-08
atom      7.6337774866    19.1180826404    19.1140951763   Al  0.0 0.0   -2.90135501e-07 -2.16191697e-07  3.28396692e-07
atom     11.4659132685    15.2938561875    19.1151995100   Al  0.0 0.0    4.31124877e-16 -3.49682068e-08 -1.42317989e-06
atom     11.4659132685    19.1161026392    15.2941315497   Al  0.0 0.0    1.08711040e-16 -6.38605171e-07 -6.38605169e-07
atom      7.6304741498    15.3013523873    22.9318265370   Al  0.0 0.0   -9.11941850e-08  9.11941852e-08  1.41890373e-16
atom      7.6337774866    19.1180826404    26.7495578977   Al  0.0 0.0   -2.90135500e-07 -2.16191697e-07 -3.28396692e-07
atom     11.4659132685    15.2938561875    26.7484535640   Al  0.0 0.0    5.70728744e-16 -3.49682069e-08  1.42317990e-06
atom     11.4659132685    19.1189706137    22.9318265370   Al  0.0 0.0    8.74175077e-16  8.97298559e-07 -6.82684127e-17
atom      7.6337774866    22.9360662658    -0.0082271929   Al  0.0 0.0   -2.90135501e-07  3.28396691e-07  2.16191697e-07
atom      7.6304741498    26.7537976265     3.8085030603   Al  0.0 0.0   -9.11941855e-08 -3.82386234e-16 -9.11941857e-08
atom     11.4659132685    22.9371705995     3.8159992600   Al  0.0 0.0   -1.46064120e-16 -1.42317989e-06  3.49682065e-08
atom     11.4659132685    26.7537976265    -0.0091151662   Al  0.0 0.0   -3.11863215e-16 -6.91938602e-16 -8.97298559e-07
atom      7.6379703495    22.9371705995     7.6439421790   Al  0.0 0.0    3.49682072e-08 -1.42317989e-06 -3.73134410e-16
atom      7.6304741498    26.7537976265    11.4793812978   Al  0.0 0.0   -9.11941861e-08  7.81133944e-16  9.11941852e-08
atom     11.4659132685    22.9371705995    11.4718850980   Al  0.0 0.0   -8.76013634e-17 -1.42317989e-06 -3.49682080e-08
atom     11.4659132685    26.7537976265     7.6439421790   Al  0.0 0.0    5.45309421e-16  3.22658415e-16 -3.65822349e-16
atom      7.6337774866    22.9360662658    15.2961115509   Al  0.0 0.0   -2.90135501e-07  3.28396692e-07 -2.16191697e-07
atom      7.6346909626    26.7537976265    19.1175783203   Al  0.0 0.0    5.66023382e-08  2.21301605e-16 -4.07888555e-08
atom     11.4659132685    22.9341016408    19.1121305513   Al  0.0 0.0   -2.71145069e-17  7.33914728e-07  7.33914729e-07
atom     11.4659132685    26.7537976265    15.2969995242   Al  0.0 0.0   -5.86364917e-16  9.56201731e-16  8.97298559e-07
atom      7.6346909626    22.9395494098    22.9318265370   Al  0.0 0.0    5.66023389e-08 -4.07888552e-08  1.58853902e-16
atom      7.6346909626    26.7537976265    26.7460747537   Al  0.0 0.0    5.66023383e-08 -3.78844059e-16  4.07888561e-08
atom     11.4659132685    22.9341016408    26.7515225227   Al  0.0 0.0    5.75552849e-16  7.33914728e-07 -7.33914728e-07
atom     11.4659132685    26.7537976265    22.9318265370   Al  0.0 0.0    4.43075501e-16 -1.00909821e-15  1.59372578e-16
atom     15.2980490504    -0.0042397288    -0.0082271929   Al  0.0 0.0    2.90135500e-07 -3.28396691e-07  2.16191697e-07
atom     15.2912511488     3.8177897810     3.8186042987   Al  0.0 0.0    2.78556364e-07 -7.74548885e-08 -2.78556366e-07
atom     19.1180826404    -0.0042397288     3.8118063971   Al  0.0 0.0   -2.16191697e-07 -3.28396692e-07 -2.90135500e-07
atom     19.1161477636     3.8156787734    -0.0062923161   Al  0.0 0.0    1.02020142e-06 -1.02020142e-06 -1.02020142e-06
atom     15.2938561875    -0.0053440625     7.6439421790   Al  0.0 0.0   -3.49682063e-08  1.42317989e-06  3.61144986e-16
atom     15.2912511488     3.8177897810    11.4692800593   Al  0.0 0.0    2.78556365e-07 -7.74548893e-08  2.78556365e-07
atom     19.1180826404    -0.0042397288    11.4760779609   Al  0.0 0.0   -2.16191697e-07 -3.28396692e-07  2.90135499e-07
atom     19.1161026392     3.8157238978     7.6439421790   Al  0.0 0.0   -6.38605170e-07  6.38605169e-07  2.57584905e-17
atom     15.2980490504    -0.0042397288    15.2961115509   Al  0.0 0.0    2.90135500e-07 -3.28396692e-07 -2.16191696e-07
atom     15.2980490504     3.8137438966    19.1140951763   Al  0.0 0.0    2.90135501e-07  2.16191697e-07  3.28396692e-07
atom     19.1293471461    -0.0112062826    19.1210617301   Al  0.0 0.0    8.90061444e-07  1.90683056e-07 -1.90683055e-07
atom     19.1161477636     3.8156787734    15.2941766741   Al  0.0 0.0    1.02020142e-06 -1.02020142e-06  1.02020142e-06
atom     15.2971355745    -0.0077228728    22.9318265370   Al  0.0 0.0   -5.66023376e-08  4.07888552e-08  2.17996915e-16
atom     15.2980490504     3.8137438966    26.7495578977   Al  0.0 0.0    2.90135500e-07  2.16191696e-07 -3.28396691e-07
atom     19.1293471461    -0.0112062826    26.7425913439   Al  0.0 0.0    8.90061446e-07  1.90683056e-07  1.90683055e-07
atom     19.1448856122     3.7869409248    22.9318265370   Al  0.0 0.0   -6.24657605e-07  6.24657604e-07 -4.16104291e-17
atom     15.2912511488     7.6405753882    -0.0041813085   Al  0.0 0.0    2.78556365e-07 -2.78556365e-07 -7.74548883e-08
atom     15.2891237818    11.4659132685     3.8207316657   Al  0.0 0.0    1.01899633e-07  2.90159404e-16 -1.01899633e-07
atom     19.1140367560     7.6405753882     3.8186042987   Al  0.0 0.0    7.74548890e-08 -2.78556365e-07 -2.78556366e-07
atom     19.1161026392    11.4659132685    -0.0062471917   Al  0.0 0.0   -6.38605171e-07 -1.40342271e-16  6.38605170e-07
atom     15.2891237818     7.6427027552     7.6439421790   Al  0.0 0.0    1.01899633e-07 -1.01899632e-07 -7.48668211e-16
atom     15.2891237818    11.4659132685    11.4671526923   Al  0.0 0.0    1.01899633e-07  6.54594063e-16  1.01899633e-07
atom     19.1140367560     7.6405753882    11.4692800593   Al  0.0 0.0    7.74548888e-08 -2.78556364e-07  2.78556365e-07
atom     19.1131218999    11.4659132685     7.6439421790   Al  0.0 0.0   -6.62238511e-07  3.36972604e-16 -1.59950543e-16
atom     15.2912511488     7.6405753882    15.2920656665   Al  0.0 0.0    2.78556365e-07 -2.78556365e-07  7.74548887e-08
atom     15.2938561875    11.4659132685    19.1151995100   Al  0.0 0.0   -3.49682071e-08  6.09244114e-16 -1.42317989e-06
atom     19.1180826404     7.6337774866    19.1140951763   Al  0.0 0.0   -2.16191697e-07 -2.90135501e-07  3.28396692e-07
atom     19.1161026392    11.4659132685    15.2941315497   Al  0.0 0.0   -6.38605170e-07  4.48390789e-16 -6.38605170e-07
atom     15.3013523873     7.6304741498    22.9318265370   Al  0.0 0.0    9.11941859e-08 -9.11941849e-08  1.55007437e-16
atom     15.2938561875    11.4659132685    26.7484535640   Al  0.0 0.0   -3.49682073e-08  2.34045168e-16  1.42317990e-06
atom     19.1180826404     7.6337774866    26.7495578977   Al  0.0 0.0   -2.16191697e-07 -2.90135501e-07 -3.28396691e-07
atom     19.1189706137    11.4659132685    22.9318265370   Al  0.0 0.0    8.97298559e-07  6.51593377e-16  4.01155386e-16
atom     15.2912511488    15.2912511488    -0.0041813085   Al  0.0 0.0    2.78556366e-07  2.78556365e-07 -7.74548885e-08
atom     15.2912511488    19.1140367560     3.8186042987   Al  0.0 0.0    2.78556365e-07  7.74548884e-08 -2.78556365e-07
atom     19.1140367560    15.2912511488     3.8186042987   Al  0.0 0.0    7.74548883e-08  2.78556365e-07 -2.78556366e-07
atom     19.1161477636    19.1161477636    -0.0062923161   Al  0.0 0.0    1.02020142e-06  1.02020142e-06 -1.02020142e-06
atom     15.2891237818    15.2891237818     7.6439421790   Al  0.0 0.0    1.01899634e-07  1.01899633e-07 -7.80475226e-16
atom     15.2912511488    19.1140367560    11.4692800593   Al  0.0 0.0    2.78556365e-07  7.74548887e-08  2.78556365e-07
atom     19.1140367560    15.2912511488    11.4692800593   Al  0.0 0.0    7.74548881e-08  2.78556365e-07  2.78556365e-07
atom     19.1161026392    19.1161026392     7.6439421790   Al  0.0 0.0   -6.38605170e-07 -6.38605169e-07  5.30009463e-16
atom     15.2912511488    15.2912511488    15.2920656665   Al  0.0 0.0    2.78556365e-07  2.78556365e-07  7.74548898e-08
atom     15.2980490504    19.1180826404    19.1140951763   Al  0.0 0.0    2.90135501e-07 -2.16191698e-07  3.28396692e-07
atom     19.1180826404    15.2980490504    19.1140951763   Al  0.0 0.0   -2.16191698e-07  2.90135502e-07  3.28396692e-07
atom     19.1161477636    19.1161477636    15.2941766741   Al  0.0 0.0    1.02020142e-06  1.02020142e-06  1.02020142e-06
atom     15.3013523873    15.3013523873    22.9318265370   Al  0.0 0.0    9.11941861e-08  9.11941865e-08  7.47500660e-18
atom     15.2980490504    19.1180826404    26.7495578977   Al  0.0 0.0    2.90135501e-07 -2.16191696e-07 -3.28396692e-07
atom     19.1180826404    15.2980490504    26.7495578977   Al  0.0 0.0   -2.16191698e-07  2.90135501e-07 -3.28396692e-07
atom     19.1448856122    19.1448856122    22.9318265370   Al  0.0 0.0   -6.24657605e-07 -6.24657606e-07 -2.43778686e-16
atom     15.2980490504    22.9360662658    -0.0082271929   Al  0.0 0.0    2.90135501e-07  3.28396691e-07  2.16191696e-07
atom     15.3013523873    26.7537976265     3.8085030603   Al  0.0 0.0    9.11941851e-08 -3.68428526e-16 -9.11941848e-08
atom     19.1180826404    22.9360662658     3.8118063971   Al  0.0 0.0   -2.16191698e-07  3.28396691e-07 -2.90135501e-07
atom     19.1448856122    26.7537976265    -0.0350301647   Al  0.0 0.0   -6.24657606e-07 -3.69113429e-16  6.24657605e-07
atom     15.2938561875    22.9371705995     7.6439421790   Al  0.0 0.0   -3.49682060e-08 -1.42317990e-06 -2.72942668e-16
atom     15.3013523873    26.7537976265    11.4793812978   Al  0.0 0.0    9.11941857e-08  3.73999116e-16  9.11941838e-08
atom     19.1180826404    22.9360662658    11.4760779609   Al  0.0 0.0   -2.16191698e-07  3.28396691e-07  2.90135500e-07
atom     19.1189706137    26.7537976265     7.6439421790   Al  0.0 0.0    8.97298558e-07  6.01560141e-16  3.48492650e-16
atom     15.2980490504    22.9360662658    15.2961115509   Al  0.0 0.0    2.90135501e-07  3.28396692e-07 -2.16191697e-07
atom     15.2971355745    26.7537976265    19.1175783203   Al  0.0 0.0   -5.66023376e-08  5.59511242e-16 -4.07888550e-08
atom     19.1293471461    22.9430328196    19.1210617301   Al  0.0 0.0    8.90061445e-07 -1.90683055e-07 -1.90683055e-07
atom     19.1448856122    26.7537976265    15.3229145227   Al  0.0 0.0   -6.24657605e-07 -4.40862745e-17 -6.24657605e-07
atom     15.2971355745    22.9395494098    22.9318265370   Al  0.0 0.0   -5.66023381e-08 -4.07888562e-08  1.32768146e-15
atom     15.2971355745    26.7537976265    26.7460747537   Al  0.0 0.0   -5.66023384e-08 -8.03134040e-16  4.07888544e-08
atom     19.1293471461    22.9430328196    26.7425913439   Al  0.0 0.0    8.90061445e-07 -1.90683056e-07  1.90683055e-07
atom     19.1425431678    26.7537976265    22.9318265370   Al  0.0 0.0    9.84937348e-07 -6.49886396e-16  1.04468950e-15
atom     22.9430328196    -0.0112062826    -0.0194916986   Al  0.0 0.0   -1.90683055e-07  1.90683055e-07 -8.90061446e-07
atom     22.9360662658     3.8137438966     3.8118063971   Al  0.0 0.0    3.28396692e-07  2.16191697e-07 -2.90135502e-07
atom     26.7537976265    -0.0077228728     3.8127198731   Al  0.0 0.0    5.18169613e-16  4.07888552e-08  5.66023370e-08
atom     26.7537976265     3.7869409248    -0.0350301647   Al  0.0 0.0    2.97947527e-16  6.24657605e-07  6.24657605e-07
atom     22.9341016408    -0.0022751038     7.6439421790   Al  0.0 0.0    7.33914727e-07 -7.33914729e-07  6.76711466e-16
atom     22.9360662658     3.8137438966    11.4760779609   Al  0.0 0.0    3.28396691e-07  2.16191697e-07  2.90135501e-07
atom     26.7537976265    -0.0077228728    11.4751644850   Al  0.0 0.0   -5.46237133e-16  4.07888545e-08 -5.66023386e-08
atom     26.7537976265     3.8128559233     7.6439421790   Al  0.0 0.0    3.10901768e-16 -8.97298559e-07  2.33775122e-16
atom     22.9430328196    -0.0112062826    15.3073760566   Al  0.0 0.0   -1.90683056e-07  1.90683055e-07  8.90061444e-07
atom     22.9430328196     3.8024793909    19.1210617301   Al  0.0 0.0   -1.90683055e-07 -8.90061445e-07 -1.90683054e-07
atom     26.7537976265    -0.0780015151    19.1878569627   Al  0.0 0.0    1.70564164e-16  8.82727724e-07 -8.82727722e-07
atom     26.7537976265     3.7869409248    15.3229145227   Al  0.0 0.0   -3.67036809e-16  6.24657606e-07 -6.24657606e-07
atom     23.0098280522    -0.0780015151    22.9318265370   Al  0.0 0.0   -8.82727724e-07  8.82727724e-07  6.59249913e-16
atom     22.9430328196     3.8024793909    26.7425913439   Al  0.0 0.0   -1.90683055e-07 -8.90061446e-07  1.90683055e-07
atom     26.7537976265    -0.0780015151    26.6757961114   Al  0.0 0.0   -4.62034571e-16  8.82727724e-07  8.82727724e-07
atom     26.7537976265     3.7892833692    22.9318265370   Al  0.0 0.0    4.25330890e-16 -9.84937348e-07  3.56452453e-16
atom     22.9360662658     7.6337774866    -0.0082271929   Al  0.0 0.0    3.28396692e-07 -2.90135501e-07  2.16191697e-07
atom     22.9371705995    11.4659132685     3.8159992600   Al  0.0 0.0   -1.42317989e-06  2.49689609e-16  3.49682067e-08
atom     26.7537976265     7.6304741498     3.8085030603   Al  0.0 0.0   -1.40337603e-16 -9.11941851e-08 -9.11941862e-08
atom     26.7537976265    11.4659132685    -0.0091151662   Al  0.0 0.0    4.85784012e-16 -9.62577646e-16 -8.97298558e-07
atom     22.9371705995     7.6379703495     7.6439421790   Al  0.0 0.0   -1.42317989e-06  3.49682072e-08 -1.63994273e-16
atom     22.9371705995    11.4659132685    11.4718850980   Al  0.0 0.0   -1.42317989e-06  6.38013203e-17 -3.49682071e-08
atom     26.7537976265     7.6304741498    11.4793812978   Al  0.0 0.0    1.16588163e-16 -9.11941844e-08  9.11941850e-08
atom     26.7537976265    11.4659132685     7.6439421790   Al  0.0 0.0    2.11585925e-16  1.35952053e-17 -2.43448633e-16
atom     22.9360662658     7.6337774866    15.2961115509   Al  0.0 0.0    3.28396692e-07 -2.90135500e-07 -2.16191697e-07
atom     22.9341016408    11.4659132685    19.1121305513   Al  0.0 0.0    7.33914728e-07  4.15885090e-16  7.33914728e-07
atom     26.7537976265     7.6346909626    19.1175783203   Al  0.0 0.0   -3.56241609e-16  5.66023380e-08 -4.07888548e-08
atom     26.7537976265    11.4659132685    15.2969995242   Al  0.0 0.0   -2.46130566e-16  1.89371427e-16  8.97298559e-07
atom     22.9395494098     7.6346909626    22.9318265370   Al  0.0 0.0   -4.07888555e-08  5.66023376e-08 -1.16638765e-17
atom     22.9341016408    11.4659132685    26.7515225227   Al  0.0 0.0    7.33914727e-07  3.05445131e-16 -7.33914728e-07
atom     26.7537976265     7.6346909626    26.7460747537   Al  0.0 0.0    5.31123853e-16  5.66023377e-08  4.07888562e-08
atom     26.7537976265    11.4659132685    22.9318265370   Al  0.0 0.0    3.97263370e-16  4.13557375e-16  2.65039034e-16
atom     22.9360662658    15.2980490504    -0.0082271929   Al  0.0 0.0    3.28396691e-07  2.90135501e-07  2.16191698e-07
atom     22.9360662658    19.1180826404     3.8118063971   Al  0.0 0.0    3.28396692e-07 -2.16191697e-07 -2.90135501e-07
atom     26.7537976265    15.3013523873     3.8085030603   Al  0.0 0.0   -5.72145614e-16  9.11941847e-08 -9.11941849e-08
atom     26.7537976265    19.1448856122    -0.0350301647   Al  0.0 0.0    3.90786250e-16 -6.24657605e-07  6.24657606e-07
atom     22.9371705995    15.2938561875     7.6439421790   Al  0.0 0.0   -1.42317989e-06 -3.49682064e-08 -3.20669313e-16
atom     22.9360662658    19.1180826404    11.4760779609   Al  0.0 0.0    3.28396692e-07 -2.16191696e-07  2.90135500e-07
atom     26.7537976265    15.3013523873    11.4793812978   Al  0.0 0.0    1.05792963e-16  9.11941846e-08  9.11941852e-08
atom     26.7537976265    19.1189706137     7.6439421790   Al  0.0 0.0   -7.29755538e-16  8.97298559e-07  7.97963099e-17
atom     22.9360662658    15.2980490504    15.2961115509   Al  0.0 0.0    3.28396692e-07  2.90135501e-07 -2.16191697e-07
atom     22.9430328196    19.1293471461    19.1210617301   Al  0.0 0.0   -1.90683055e-07  8.90061445e-07 -1.90683054e-07
atom     26.7537976265    15.2971355745    19.1175783203   Al  0.0 0.0   -2.80675207e-16 -5.66023375e-08 -4.07888551e-08
atom     26.7537976265    19.1448856122    15.3229145227   Al  0.0 0.0   -2.52607686e-16 -6.24657606e-07 -6.24657605e-07
atom     22.9395494098    15.2971355745    22.9318265370   Al  0.0 0.0   -4.07888551e-08 -5.66023370e-08 -4.39339338e-17
atom     22.9430328196    19.1293471461    26.7425913439   Al  0.0 0.0   -1.90683055e-07  8.90061446e-07  1.90683055e-07
atom     26.7537976265    15.2971355745    26.7460747537   Al  0.0 0.0    1.51132804e-17 -5.66023383e-08  4.07888541e-08
atom     26.7537976265    19.1425431678    22.9318265370   Al  0.0 0.0   -9.00319702e-16  9.84937348e-07 -4.07272730e-16
atom     22.9430328196    22.9430328196    -0.0194916986   Al  0.0 0.0   -1.90683055e-07 -1.90683055e-07 -8.90061446e-07
atom     22.9395494098    26.7537976265     3.8127198731   Al  0.0 0.0   -4.07888541e-08 -8.32461748e-16  5.66023384e-08
atom     26.7537976265    22.9395494098     3.8127198731   Al  0.0 0.0   -1.66246084e-16 -4.07888547e-08  5.66023380e-08
atom     26.7537976265    26.7537976265    -0.0326877203   Al  0.0 0.0   -1.42496644e-16 -3.57253659e-16 -9.84937348e-07
atom     22.9341016408    22.9341016408     7.6439421790   Al  0.0 0.0    7.33914729e-07  7.33914728e-07  4.29754392e-16
atom     22.9395494098    26.7537976265    11.4751644850   Al  0.0 0.0   -4.07888547e-08 -1.49260511e-16 -5.66023386e-08