begin
comment 8 atoms, species Al8
lattice     11.3426729468    -0.0000000000     0.0000000000
lattice     -0.0000000000    11.3426729468     0.0000000000
lattice      0.0000000000     0.0000000000    11.3426729468
atom      0.0000000000     0.0000000000     0.0000000000   Al  0.0 0.0   -2.44260837e-13 -2.44459402e-13 -2.43718547e-13
atom      0.0000000000     5.6713364734     5.6713364734   Al  0.0 0.0   -2.44325609e-13 -2.58746613e-14 -2.62515066e-14
atom      5.6713364734     5.6713364734     0.0000000000   Al  0.0 0.0   -2.61233051e-14 -2.57616259e-14 -2.44104887e-13
atom      5.6713364734     0.0000000000     5.6713364734   Al  0.0 0.0   -2.61044135e-14 -2.44455259e-13 -2.62194773e-14
atom      8.5070047101     2.8356682367     8.5070047101   Al  0.0 0.0    2.41546924e-13  2.75109100e-14  2.41512506e-13
atom      2.8356682367     2.8356682367     2.8356682367   Al  0.0 0.0    2.89581247e-14  2.76729118e-14  2.87224077e-14
atom      2.8356682367     8.5070047101     8.5070047101   Al  0.0 0.0    2.87530159e-14  2.42781872e-13  2.41618048e-13
atom      8.5070047101     8.5070047101     2.8356682367   Al  0.0 0.0    2.41539367e-13  2.42725473e-13  2.86110590e-14
energy -1.577264355148480e+02
charge 0.0000
end
