begin
comment 4 atoms, species Al4
lattice      7.6439421790     0.0000000000     0.0000000000
lattice      0.0000000000     7.6439421790     0.0000000000
lattice      0.0000000000     0.0000000000     7.6439421790
atom      0.0000000000     0.0000000000     0.0000000000   Al  0.0 0.0   -4.10217610e-17 -9.51453530e-17 -2.75087847e-17
atom      0.0000000000     3.8219710895     3.8219710895   Al  0.0 0.0   -4.31808011e-18 -7.48917018e-17 -1.68590667e-16
atom      3.8219710895     0.0000000000     3.8219710895   Al  0.0 0.0   -3.67036809e-17 -6.89669923e-17 -1.69006029e-16
atom      3.8219710895     3.8219710895     0.0000000000   Al  0.0 0.0   -3.67036809e-17 -4.48464667e-17 -1.92900952e-17
energy -7.900545958152844e+01
charge 0.0000
end
