begin
comment 107 atoms, species Al107
lattice     22.9294870250    -0.0000000000     0.0000000000
lattice     -0.0000000000    22.9294870250     0.0000000000
lattice      0.0000000000     0.0000000000    22.9294870249
atom     -0.0188792028    -0.0188792028    -0.0223503549   Al  0.0 0.0    8.49886600e-07  8.49886596e-07  7.90923002e-07
atom     -0.0150302139     3.8083767443     3.8215811708   Al  0.0 0.0    4.68602223e-07  1.02255654e-06 -1.68189220e-13
atom      3.8083767443    -0.0150302139     3.8215811708   Al  0.0 0.0    1.02255653e-06  4.68602210e-07 -1.66092252e-13
atom      3.8066199720     3.8066199720    -0.0149611988   Al  0.0 0.0    4.27108851e-07  4.27108856e-07  4.27109192e-07
atom     -0.0188792028    -0.0188792028     7.6655126965   Al  0.0 0.0    8.49886599e-07  8.49886595e-07 -7.90922848e-07
atom     -0.0188792028     3.7992308160    11.4836227153   Al  0.0 0.0    8.49886604e-07  7.90922672e-07 -8.49886433e-07
atom      3.7992308160    -0.0188792028    11.4836227153   Al  0.0 0.0    7.90922659e-07  8.49886592e-07 -8.49886430e-07
atom      3.8066199720     3.8066199720     7.6581235405   Al  0.0 0.0    4.27108850e-07  4.27108855e-07 -4.27109042e-07
atom     -0.0819352093    -0.0819352093    15.2863246833   Al  0.0 0.0    8.48454196e-07  8.48454191e-07  1.17129188e-15
atom     -0.0188792028     3.7992308160    19.0890266513   Al  0.0 0.0    8.49886608e-07  7.90922674e-07  8.49886442e-07
atom      3.7992308160    -0.0188792028    19.0890266513   Al  0.0 0.0    7.90922663e-07  8.49886596e-07  8.49886444e-07
atom      3.7868167642     3.7868167642    15.2863246833   Al  0.0 0.0    1.14730616e-06  1.14730617e-06  7.55580524e-15
atom     -0.0150302139     7.6431623417    -0.0132044266   Al  0.0 0.0    4.68602222e-07 -1.49162680e-14  1.02255687e-06
atom     -0.0150302139    11.4779479391     3.8215811708   Al  0.0 0.0    4.68602223e-07 -1.02255671e-06 -1.67267726e-13
atom      3.8049652194     7.6431623417     3.8215811708   Al  0.0 0.0    3.39093663e-07 -2.24734479e-14 -1.66418778e-13
atom      3.8066199720    11.4797047113    -0.0149611988   Al  0.0 0.0    4.27108851e-07 -4.27109036e-07  4.27109191e-07
atom     -0.0150302139     7.6431623417     7.6563667682   Al  0.0 0.0    4.68602219e-07 -1.41206617e-14 -1.02255672e-06
atom     -0.0188792028    11.4870938673    11.4836227153   Al  0.0 0.0    8.49886599e-07 -7.90922836e-07 -8.49886428e-07
atom      3.8083767443     7.6431623417    11.4797737263   Al  0.0 0.0    1.02255653e-06 -1.90367959e-14 -4.68602053e-07
atom      3.8066199720    11.4797047113     7.6581235405   Al  0.0 0.0    4.27108852e-07 -4.27109035e-07 -4.27109040e-07
atom     -0.0195050123     7.6431623417    15.2863246833   Al  0.0 0.0    2.34363335e-07 -1.01669196e-14  4.84217537e-15
atom     -0.0188792028    11.4870938673    19.0890266513   Al  0.0 0.0    8.49886604e-07 -7.90922838e-07  8.49886436e-07
atom      3.8083767443     7.6431623417    19.0928756403   Al  0.0 0.0    1.02255653e-06 -1.96332307e-14  4.68602069e-07
atom      3.7868167642    11.4995079191    15.2863246833   Al  0.0 0.0    1.14730616e-06 -1.14730635e-06  7.38051739e-15
atom     -0.0188792028    15.3052038861    -0.0223503549   Al  0.0 0.0    8.49886602e-07 -8.49886413e-07  7.90923002e-07
atom     -0.0195050123    19.1079058541     3.8215811708   Al  0.0 0.0    2.34363337e-07  2.22084326e-14 -1.68363093e-13
atom      3.8083767443    15.3013548971     3.8215811708   Al  0.0 0.0    1.02255653e-06 -4.68602045e-07 -1.65275195e-13
atom      3.7868167642    19.1079058541    -0.0347644067   Al  0.0 0.0    1.14730616e-06  1.59016231e-14  1.14730650e-06
atom     -0.0188792028    15.3052038861     7.6655126965   Al  0.0 0.0    8.49886602e-07 -8.49886413e-07 -7.90922849e-07
atom     -0.0819352093    19.1079058541    11.5466787217   Al  0.0 0.0    8.48454207e-07  2.20886828e-14 -8.48454035e-07
atom      3.7992308160    15.3052038861    11.4836227153   Al  0.0 0.0    7.90922662e-07 -8.49886426e-07 -8.49886433e-07
atom      3.7868167642    19.1079058541     7.6779267483   Al  0.0 0.0    1.14730616e-06  1.51166908e-14 -1.14730635e-06
atom     -0.0819352093    15.3682598925    15.2863246833   Al  0.0 0.0    8.48454204e-07 -8.48454022e-07  1.72721742e-15
atom     -0.0819352093    19.1079058541    19.0259706449   Al  0.0 0.0    8.48454203e-07  2.15504166e-14  8.48454042e-07
atom      3.7992308160    15.3052038861    19.0890266513   Al  0.0 0.0    7.90922665e-07 -8.49886429e-07  8.49886445e-07
atom      3.7853815776    19.1079058541    15.2863246833   Al  0.0 0.0    1.17027687e-06  1.40538548e-14  5.34889076e-15
atom      7.6431623417    -0.0150302139    -0.0132044266   Al  0.0 0.0   -1.93536350e-14  4.68602214e-07  1.02255687e-06
atom      7.6431623417     3.8049652194     3.8215811708   Al  0.0 0.0   -2.12838168e-14  3.39093671e-07 -1.67838154e-13
atom     11.4779479391    -0.0150302139     3.8215811708   Al  0.0 0.0   -1.02255671e-06  4.68602212e-07 -1.66866672e-13
atom     11.4797047113     3.8066199720    -0.0149611988   Al  0.0 0.0   -4.27109032e-07  4.27108857e-07  4.27109190e-07
atom      7.6431623417    -0.0150302139     7.6563667682   Al  0.0 0.0   -1.91636395e-14  4.68602211e-07 -1.02255672e-06
atom      7.6431623417     3.8083767443    11.4797737263   Al  0.0 0.0   -1.82352523e-14  1.02255654e-06 -4.68602056e-07
atom     11.4870938673    -0.0188792028    11.4836227153   Al  0.0 0.0   -7.90922838e-07  8.49886590e-07 -8.49886427e-07
atom     11.4797047113     3.8066199720     7.6581235405   Al  0.0 0.0   -4.27109032e-07  4.27108858e-07 -4.27109042e-07
atom      7.6431623417    -0.0195050123    15.2863246833   Al  0.0 0.0   -1.57242887e-14  2.34363326e-07  6.26610388e-15
atom      7.6431623417     3.8083767443    19.0928756403   Al  0.0 0.0   -1.89369403e-14  1.02255654e-06  4.68602069e-07
atom     11.4870938673    -0.0188792028    19.0890266513   Al  0.0 0.0   -7.90922841e-07  8.49886593e-07  8.49886439e-07
atom     11.4995079191     3.7868167642    15.2863246833   Al  0.0 0.0   -1.14730634e-06  1.14730616e-06  6.77807933e-15
atom      7.6431623417     7.6431623417    -0.0166159515   Al  0.0 0.0   -2.21884546e-14 -1.83373663e-14  3.39093999e-07
atom      7.6431623417    11.4813594639     3.8215811708   Al  0.0 0.0   -2.17480105e-14 -3.39093842e-07 -1.65560153e-13
atom     11.4813594639     7.6431623417     3.8215811708   Al  0.0 0.0   -3.39093843e-07 -1.81364398e-14 -1.65336189e-13
atom     11.4797047113    11.4797047113    -0.0149611988   Al  0.0 0.0   -4.27109033e-07 -4.27109029e-07  4.27109190e-07
atom      7.6431623417     7.6431623417     7.6597782931   Al  0.0 0.0   -1.96623778e-14 -1.68723959e-14 -3.39093852e-07
atom      7.6431623417    11.4779479391    11.4797737263   Al  0.0 0.0   -1.67455147e-14 -1.02255671e-06 -4.68602056e-07
atom     11.4779479391     7.6431623417    11.4797737263   Al  0.0 0.0   -1.02255671e-06 -1.45649801e-14 -4.68602056e-07
atom     11.4797047113    11.4797047113     7.6581235405   Al  0.0 0.0   -4.27109033e-07 -4.27109030e-07 -4.27109040e-07
atom      7.6431623417     7.6431623417    15.2863246833   Al  0.0 0.0   -2.09837103e-14 -1.70323252e-14  6.53135912e-15
atom      7.6431623417    11.4779479391    19.0928756403   Al  0.0 0.0   -1.90319381e-14 -1.02255671e-06  4.68602067e-07
atom     11.4779479391     7.6431623417    19.0928756403   Al  0.0 0.0   -1.02255671e-06 -1.65709787e-14  4.68602067e-07
atom     11.4995079191    11.4995079191    15.2863246833   Al  0.0 0.0   -1.14730634e-06 -1.14730633e-06  5.59521300e-15
atom      7.6431623417    15.3013548971    -0.0132044266   Al  0.0 0.0   -1.73759543e-14 -4.68602041e-07  1.02255687e-06
atom      7.6431623417    19.1079058541     3.8215811708   Al  0.0 0.0   -2.04590635e-14  1.94511399e-14 -1.62850515e-13
atom     11.4779479391    15.3013548971     3.8215811708   Al  0.0 0.0   -1.02255671e-06 -4.68602041e-07 -1.66271994e-13
atom     11.4995079191    19.1079058541    -0.0347644067   Al  0.0 0.0   -1.14730633e-06  1.84937119e-14  1.14730650e-06
atom      7.6431623417    15.3013548971     7.6563667682   Al  0.0 0.0   -1.75789041e-14 -4.68602040e-07 -1.02255672e-06
atom      7.6431623417    19.1079058541    11.4842485248   Al  0.0 0.0   -1.40791002e-14  1.73806239e-14 -2.34363169e-07
atom     11.4870938673    15.3052038861    11.4836227153   Al  0.0 0.0   -7.90922842e-07 -8.49886418e-07 -8.49886429e-07
atom     11.4995079191    19.1079058541     7.6779267483   Al  0.0 0.0   -1.14730634e-06  1.83480521e-14 -1.14730635e-06
atom      7.6431623417    15.3058296956    15.2863246833   Al  0.0 0.0   -1.40272832e-14 -2.34363155e-07  6.94386614e-15
atom      7.6431623417    19.1079058541    19.0884008418   Al  0.0 0.0   -1.37768346e-14  1.68697853e-14  2.34363178e-07
atom     11.4870938673    15.3052038861    19.0890266513   Al  0.0 0.0   -7.90922844e-07 -8.49886419e-07  8.49886439e-07
atom     11.5009431058    19.1079058541    15.2863246833   Al  0.0 0.0   -1.17027705e-06  1.57935452e-14  4.35824291e-15
atom     15.3052038861    -0.0188792028    -0.0223503549   Al  0.0 0.0   -8.49886416e-07  8.49886592e-07  7.90923004e-07
atom     15.3013548971     3.8083767443     3.8215811708   Al  0.0 0.0   -4.68602040e-07  1.02255654e-06 -1.67181238e-13
atom     19.1079058541    -0.0195050123     3.8215811708   Al  0.0 0.0    1.80751186e-14  2.34363328e-07 -1.67513813e-13
atom     19.1079058541     3.7868167642    -0.0347644067   Al  0.0 0.0    1.95353824e-14  1.14730617e-06  1.14730650e-06
atom     15.3052038861    -0.0188792028     7.6655126965   Al  0.0 0.0   -8.49886416e-07  8.49886592e-07 -7.90922849e-07
atom     15.3052038861     3.7992308160    11.4836227153   Al  0.0 0.0   -8.49886421e-07  7.90922668e-07 -8.49886434e-07
atom     19.1079058541    -0.0819352093    11.5466787217   Al  0.0 0.0    1.95836361e-14  8.48454198e-07 -8.48454034e-07
atom     19.1079058541     3.7868167642     7.6779267483   Al  0.0 0.0    2.04075628e-14  1.14730617e-06 -1.14730635e-06
atom     15.3682598925    -0.0819352093    15.2863246833   Al  0.0 0.0   -8.48454024e-07  8.48454195e-07  2.20889709e-15
atom     15.3052038861     3.7992308160    19.0890266513   Al  0.0 0.0   -8.49886424e-07  7.90922670e-07  8.49886445e-07
atom     19.1079058541    -0.0819352093    19.0259706449   Al  0.0 0.0    1.93231934e-14  8.48454196e-07  8.48454045e-07
atom     19.1079058541     3.7853815776    15.2863246833   Al  0.0 0.0    1.99070303e-14  1.17027688e-06  4.23345739e-15
atom     15.3013548971     7.6431623417    -0.0132044266   Al  0.0 0.0   -4.68602039e-07 -1.78791098e-14  1.02255687e-06
atom     15.3013548971    11.4779479391     3.8215811708   Al  0.0 0.0   -4.68602040e-07 -1.02255671e-06 -1.65490565e-13
atom     19.1079058541     7.6431623417     3.8215811708   Al  0.0 0.0    2.00122118e-14 -1.90311145e-14 -1.63913024e-13
atom     19.1079058541    11.4995079191    -0.0347644067   Al  0.0 0.0    1.94190451e-14 -1.14730634e-06  1.14730650e-06
atom     15.3013548971     7.6431623417     7.6563667682   Al  0.0 0.0   -4.68602039e-07 -1.66230123e-14 -1.02255672e-06
atom     15.3052038861    11.4870938673    11.4836227153   Al  0.0 0.0   -8.49886418e-07 -7.90922840e-07 -8.49886430e-07
atom     19.1079058541     7.6431623417    11.4842485248   Al  0.0 0.0    2.12080459e-14 -1.34177021e-14 -2.34363169e-07
atom     19.1079058541    11.4995079191     7.6779267483   Al  0.0 0.0    1.97450517e-14 -1.14730634e-06 -1.14730635e-06
atom     15.3058296956     7.6431623417    15.2863246833   Al  0.0 0.0   -2.34363153e-07 -1.42223453e-14  6.31905776e-15
atom     15.3052038861    11.4870938673    19.0890266513   Al  0.0 0.0   -8.49886420e-07 -7.90922841e-07  8.49886440e-07
atom     19.1079058541     7.6431623417    19.0884008418   Al  0.0 0.0    2.03689046e-14 -1.44283951e-14  2.34363180e-07
atom     19.1079058541    11.5009431058    15.2863246833   Al  0.0 0.0    2.07565820e-14 -1.17027705e-06  3.76450696e-15
atom     15.3052038861    15.3052038861    -0.0223503549   Al  0.0 0.0   -8.49886419e-07 -8.49886418e-07  7.90923004e-07
atom     15.3058296956    19.1079058541     3.8215811708   Al  0.0 0.0   -2.34363155e-07  2.03911972e-14 -1.68895268e-13
atom     19.1079058541    15.3058296956     3.8215811708   Al  0.0 0.0    1.88369445e-14 -2.34363156e-07 -1.68131391e-13
atom     19.1079058541    19.1079058541    -0.0361995933   Al  0.0 0.0    1.61052180e-14  1.78456837e-14  1.17027722e-06
atom     15.3052038861    15.3052038861     7.6655126965   Al  0.0 0.0   -8.49886419e-07 -8.49886419e-07 -7.90922850e-07
atom     15.3682598925    19.1079058541    11.5466787217   Al  0.0 0.0   -8.48454036e-07  1.77562348e-14 -8.48454040e-07
atom     19.1079058541    15.3682598925    11.5466787217   Al  0.0 0.0    1.83121597e-14 -8.48454036e-07 -8.48454041e-07
atom     19.1079058541    19.1079058541     7.6793619349   Al  0.0 0.0    1.75074924e-14  1.84650680e-14 -1.17027706e-06
atom     15.3682598925    15.3682598925    15.2863246833   Al  0.0 0.0   -8.48454032e-07 -8.48454030e-07  3.36202928e-15
atom     15.3682598925    19.1079058541    19.0259706449   Al  0.0 0.0   -8.48454031e-07  1.65779012e-14  8.48454050e-07
atom     19.1079058541    15.3682598925    19.0259706449   Al  0.0 0.0    1.73886851e-14 -8.48454031e-07  8.48454050e-07
energy -2.113369729581108e+03
charge 0.0000
end
