begin
comment 8 atoms, species Al8
lattice     11.3426729468    -0.0000000000     0.0000000000
lattice     -0.0000000000    11.3426729468     0.0000000000
lattice      0.0000000000     0.0000000000    11.3426729468
atom      0.0000000000     0.0000000000     0.0000000000   Al  0.0 0.0   -1.48047535e-13 -3.19723335e-13  9.30004816e-15
atom     -0.0000000000     5.6713364734     5.6713364734   Al  0.0 0.0   -9.36926226e-14 -1.77359692e-13  9.44448140e-14
atom      5.6713364734     5.6713364734     0.0000000000   Al  0.0 0.0    4.85303626e-14  7.88289860e-14 -3.00216368e-13
atom      5.6713364734    -0.0000000000     5.6713364734   Al  0.0 0.0   -5.50744130e-15 -6.39043892e-14 -9.95747267e-14
atom      8.5070047101     2.8356682367     8.5070047101   Al  0.0 0.0    9.37735866e-14  1.77344689e-13  4.87074713e-14
atom      2.8356682367     2.8356682367     2.8356682367   Al  0.0 0.0   -4.85978326e-14 -7.87334416e-14  1.57183347e-13
atom      2.8356682367     8.5070047101     8.5070047101   Al  0.0 0.0    5.69662718e-15  6.36205861e-14  2.42410716e-13
atom      8.5070047101     8.5070047101     2.8356682367   Al  0.0 0.0    1.47826774e-13  3.19892129e-13 -1.52220251e-13
energy -1.578483371931861e+02
charge 0.0000
end
