
     Program PWSCF v.6.3 starts on 26Feb2020 at 10:32:40 

     This program is part of the open-source Quantum ESPRESSO suite
     for quantum simulation of materials; please cite
         "P. Giannozzi et al., J. Phys.:Condens. Matter 21 395502 (2009);
         "P. Giannozzi et al., J. Phys.:Condens. Matter 29 465901 (2017);
          URL http://www.quantum-espresso.org", 
     in publications or presentations arising from this work. More details at
     http://www.quantum-espresso.org/quote

 *** WARNING: using old-style file format, will disappear from next version ***

     Parallel version (MPI & OpenMP), running on     288 processor cores
     Number of MPI processes:               288
     Threads/MPI process:                     1

     MPI processes distributed on     8 nodes
     K-points division:     npool     =      36
     R & G space division:  proc/nbgrp/npool/nimage =       8
     Reading input from aiida.in
Warning: card &IONS ignored
Warning: card   !PRESS_CONV_THR = 0.05                 ! JUST FOR VOLUME RELAXATIONS ignored
Warning: card / ignored

     Current dimensions of program PWSCF are:
     Max number of different atomic species (ntypx) = 10
     Max number of k-points (npk) =  40000
     Max angular momentum in pseudopotentials (lmaxx) =  3
               file Al.pbe-n-kjpaw_psl.1.0.0.UPF: wavefunction(s)  3S 3P renormalized

     Subspace diagonalization in iterative solution of the eigenvalue problem:
     one sub-group per band group will be used
     scalapack distributed-memory algorithm (size of sub-group:  2*  2 procs)

 
     Parallelization info
     --------------------
     sticks:   dense  smooth     PW     G-vecs:    dense   smooth      PW
     Min        3740    1497    390               486920   123201   16474
     Max        3741    1498    391               486925   123204   16481
     Sum       29921   11977   3125              3895379   985619  131827
 


     bravais-lattice index     =            0
     lattice parameter (alat)  =      30.6665  a.u.
     unit-cell volume          =   28839.7502 (a.u.)^3
     number of atoms/cell      =          256
     number of atomic types    =            2
     number of electrons       =       770.00
     number of Kohn-Sham states=          462
     kinetic-energy cutoff     =      40.0000  Ry
     charge density cutoff     =     400.0000  Ry
     convergence threshold     =      1.0E-12
     mixing beta               =       0.4000
     number of iterations used =            8  local-TF  mixing
     Exchange-correlation      = SLA PW PBX PBC ( 1  4  3  4 0 0)

     celldm(1)=  30.666473  celldm(2)=   0.000000  celldm(3)=   0.000000
     celldm(4)=   0.000000  celldm(5)=   0.000000  celldm(6)=   0.000000

     crystal axes: (cart. coord. in units of alat)
               a(1) = (   1.000000   0.000000   0.000000 )  
               a(2) = (   0.000000   1.000000   0.000000 )  
               a(3) = (   0.000000   0.000000   1.000000 )  

     reciprocal axes: (cart. coord. in units 2 pi/alat)
               b(1) = (  1.000000  0.000000  0.000000 )  
               b(2) = (  0.000000  1.000000  0.000000 )  
               b(3) = (  0.000000  0.000000  1.000000 )  


     PseudoPot. # 1 for Si read from file:
     /users/aglensk/Dropbox/Albert/scripts/dotfiles/scripts/potentials/quantum_espresso/pseudo_SSSPefV1.1_alalloy/Si.pbe-n-rrkjus_psl.1.0.0.UPF
     MD5 check sum: 0b0bb1205258b0d07b9f9672cf965d36
     Pseudo is Ultrasoft + core correction, Zval =  4.0
     Generated using "atomic" code by A. Dal Corso v.5.1
     Using radial grid of 1141 points,  6 beta functions with: 
                l(1) =   0
                l(2) =   0
                l(3) =   1
                l(4) =   1
                l(5) =   2
                l(6) =   2
     Q(r) pseudized with 0 coefficients 


     PseudoPot. # 2 for Al read from file:
     /users/aglensk/Dropbox/Albert/scripts/dotfiles/scripts/potentials/quantum_espresso/pseudo_SSSPefV1.1_alalloy/Al.pbe-n-kjpaw_psl.1.0.0.UPF
     MD5 check sum: cfc449ca30b5f3223ec38ddd88ac046d
     Pseudo is Projector augmented-wave + core cor, Zval =  3.0
     Generated using "atomic" code by A. Dal Corso v.5.1
     Shape of augmentation charge: PSQ
     Using radial grid of 1135 points,  6 beta functions with: 
                l(1) =   0
                l(2) =   0
                l(3) =   1
                l(4) =   1
                l(5) =   2
                l(6) =   2
     Q(r) pseudized with 0 coefficients 


     atomic species   valence    mass     pseudopotential
        Si             4.00    28.08500     Si( 1.00)
        Al             3.00    26.98154     Al( 1.00)

     No symmetry found


                                    s                        frac. trans.

      isym =  1     identity                                     

 cryst.   s( 1) = (     1          0          0      )
                  (     0          1          0      )
                  (     0          0          1      )

 cart.    s( 1) = (  1.0000000  0.0000000  0.0000000 )
                  (  0.0000000  1.0000000  0.0000000 )
                  (  0.0000000  0.0000000  1.0000000 )


   Cartesian axes

     site n.     atom                  positions (alat units)
         1           Si  tau(   1) = (   0.9999113   0.9998625   0.9999113  )
         2           Al  tau(   2) = (   0.1242134   0.0003439   0.1242134  )
         3           Al  tau(   3) = (   0.1242217   0.1250000   0.0007783  )
         4           Al  tau(   4) = (   0.0007783   0.1250000   0.1242217  )
         5           Al  tau(   5) = (   0.0000019   0.0000788   0.2496718  )
         6           Al  tau(   6) = (   0.1249900   0.1257493   0.2491397  )
         7           Al  tau(   7) = (   0.1249953   0.0001276   0.3748202  )
         8           Al  tau(   8) = (   0.0000090   0.1250033   0.3748575  )
         9           Al  tau(   9) = (   0.0000103   0.0000148   0.4999947  )
        10           Al  tau(  10) = (   0.1250081   0.1250136   0.4999475  )
        11           Al  tau(  11) = (   0.1249945   0.0000204   0.6250501  )
        12           Al  tau(  12) = (   0.9999921   0.1249864   0.6250526  )
        13           Al  tau(  13) = (   0.0000115   0.0000135   0.7503339  )
        14           Al  tau(  14) = (   0.1249911   0.1249966   0.7501425  )
        15           Al  tau(  15) = (   0.1242584   0.0001256   0.8758849  )
        16           Al  tau(  16) = (   0.0000100   0.1242507   0.8758604  )
        17           Al  tau(  17) = (   0.0007867   0.2496561   0.0007867  )
        18           Al  tau(  18) = (   0.1249923   0.3742126   0.0007494  )
        19           Si  tau(  19) = (   0.1250882   0.2501375   0.1250882  )
        20           Al  tau(  20) = (   0.0007494   0.3742126   0.1249923  )
        21           Al  tau(  21) = (   0.0007418   0.2498745   0.2491150  )
        22           Al  tau(  22) = (   0.1249804   0.3742197   0.2492145  )
        23           Al  tau(  23) = (   0.1249886   0.2499866   0.3746662  )
        24           Al  tau(  24) = (   0.0000120   0.3750008   0.3749249  )
        25           Al  tau(  25) = (   0.0000058   0.2499795   0.4999499  )
        26           Al  tau(  26) = (   0.1250018   0.3750057   0.4999541  )
        27           Al  tau(  27) = (   0.1249899   0.2499852   0.6250053  )
        28           Al  tau(  28) = (   0.9999923   0.3750188   0.6249900  )
        29           Al  tau(  29) = (   0.0000048   0.2498723   0.7501799  )
        30           Al  tau(  30) = (   0.1249897   0.3749872   0.7500667  )
        31           Al  tau(  31) = (   0.1249982   0.2499211   0.8753282  )
        32           Al  tau(  32) = (   0.0000095   0.3749374   0.8750955  )
        33           Al  tau(  33) = (   0.0000095   0.4999160   0.0000095  )
        34           Al  tau(  34) = (   0.1249938   0.6250000   0.0000063  )
        35           Al  tau(  35) = (   0.1250086   0.4996922   0.1250086  )
        36           Al  tau(  36) = (   0.0000063   0.6250000   0.1249938  )
        37           Al  tau(  37) = (   0.0000112   0.4999109   0.2499708  )
        38           Al  tau(  38) = (   0.1249900   0.6249533   0.2499791  )
        39           Al  tau(  39) = (   0.1250029   0.4998772   0.3748874  )
        40           Al  tau(  40) = (   0.0000081   0.6249863   0.3749974  )
        41           Al  tau(  41) = (   0.0000089   0.4999862   0.4999957  )
        42           Al  tau(  42) = (   0.1250003   0.6249984   0.5000106  )
        43           Al  tau(  43) = (   0.1250009   0.4999813   0.6249882  )
        44           Al  tau(  44) = (   1.0000000   0.6250017   0.6249893  )
        45           Al  tau(  45) = (   0.0000105   0.4999837   0.7500247  )
        46           Al  tau(  46) = (   0.1249921   0.6250138   0.7500025  )
        47           Al  tau(  47) = (   0.1250069   0.4998707   0.8751216  )
        48           Al  tau(  48) = (   0.0000102   0.6250467   0.8750210  )
        49           Al  tau(  49) = (   0.9999915   0.7503078   0.9999915  )
        50           Al  tau(  50) = (   0.1242507   0.8757874   0.0000078  )
        51           Al  tau(  51) = (   0.1249907   0.7500840   0.1249907  )
        52           Al  tau(  52) = (   0.0000078   0.8757874   0.1242507  )
        53           Al  tau(  53) = (   0.9999931   0.7501294   0.2498784  )
        54           Al  tau(  54) = (   0.1249906   0.8750625   0.2499045  )
        55           Al  tau(  55) = (   0.1249898   0.7500163   0.3749754  )
        56           Al  tau(  56) = (   0.0000103   0.8750128   0.3749333  )
        57           Al  tau(  57) = (   0.9999993   0.7500188   0.5000118  )
        58           Al  tau(  58) = (   0.1250080   0.8749812   0.5000101  )
        59           Al  tau(  59) = (   0.1249914   0.7500139   0.6250041  )
        60           Al  tau(  60) = (   0.9999984   0.8749943   0.6250459  )
        61           Al  tau(  61) = (   0.9999973   0.7501229   0.7501126  )
        62           Al  tau(  62) = (   0.1249882   0.8749992   0.7500750  )
        63           Al  tau(  63) = (   0.1249890   0.7500892   0.8750292  )
        64           Al  tau(  64) = (   0.0000197   0.8757804   0.8757855  )
        65           Al  tau(  65) = (   0.2496718   0.0000788   0.0000019  )
        66           Al  tau(  66) = (   0.3748575   0.1250033   0.0000090  )
        67           Al  tau(  67) = (   0.3748202   0.0001276   0.1249953  )
        68           Al  tau(  68) = (   0.2491397   0.1257493   0.1249900  )
        69           Al  tau(  69) = (   0.2498535   0.0000945   0.2498535  )
        70           Al  tau(  70) = (   0.3749132   0.1249964   0.2499781  )
        71           Al  tau(  71) = (   0.3750524   0.9999580   0.3750524  )
        72           Al  tau(  72) = (   0.2499781   0.1249964   0.3749132  )
        73           Al  tau(  73) = (   0.2499697   0.0000139   0.4999960  )
        74           Al  tau(  74) = (   0.3749943   0.1250111   0.4999945  )
        75           Al  tau(  75) = (   0.3750083   0.0000026   0.6249883  )
        76           Al  tau(  76) = (   0.2499935   0.1249822   0.6250045  )
        77           Al  tau(  77) = (   0.2498628   0.0000137   0.7501301  )
        78           Al  tau(  78) = (   0.3749792   0.1249999   0.7500206  )
        79           Al  tau(  79) = (   0.3749935   0.9999579   0.8749629  )
        80           Al  tau(  80) = (   0.2499022   0.1250000   0.8750978  )
        81           Al  tau(  81) = (   0.2491150   0.2498745   0.0007418  )
        82           Al  tau(  82) = (   0.3749249   0.3750008   0.0000120  )
        83           Al  tau(  83) = (   0.3746662   0.2499866   0.1249886  )
        84           Al  tau(  84) = (   0.2492145   0.3742197   0.1249804  )
        85           Al  tau(  85) = (   0.2493087   0.2500377   0.2493087  )
        86           Al  tau(  86) = (   0.3749057   0.3749873   0.2499809  )
        87           Al  tau(  87) = (   0.3748744   0.2499971   0.3748744  )
        88           Al  tau(  88) = (   0.2499809   0.3749873   0.3749057  )
        89           Al  tau(  89) = (   0.2499932   0.2499994   0.4999523  )
        90           Al  tau(  90) = (   0.3749713   0.3749780   0.4999937  )
        91           Al  tau(  91) = (   0.3749813   0.2499996   0.6249966  )
        92           Al  tau(  92) = (   0.2500065   0.3750100   0.6249978  )
        93           Al  tau(  93) = (   0.2500371   0.2500420   0.7500064  )
        94           Al  tau(  94) = (   0.3749886   0.3749939   0.7500021  )
        95           Al  tau(  95) = (   0.3748698   0.2499862   0.8751373  )
        96           Al  tau(  96) = (   0.2499824   0.3749928   0.8750889  )
        97           Al  tau(  97) = (   0.2499708   0.4999109   0.0000112  )
        98           Al  tau(  98) = (   0.3749974   0.6249863   0.0000081  )
        99           Al  tau(  99) = (   0.3748874   0.4998772   0.1250029  )
       100           Al  tau( 100) = (   0.2499791   0.6249533   0.1249900  )
       101           Al  tau( 101) = (   0.2499865   0.4999010   0.2499865  )
       102           Al  tau( 102) = (   0.3749871   0.6249958   0.2499914  )
       103           Al  tau( 103) = (   0.3750248   0.5000381   0.3750248  )
       104           Al  tau( 104) = (   0.2499914   0.6249958   0.3749871  )
       105           Al  tau( 105) = (   0.2499957   0.4999879   0.4999985  )
       106           Al  tau( 106) = (   0.3749887   0.6250173   0.5000028  )
       107           Al  tau( 107) = (   0.3749848   0.4999978   0.6250150  )
       108           Al  tau( 108) = (   0.2500011   0.6250075   0.6249942  )
       109           Al  tau( 109) = (   0.2499865   0.4999844   0.7500073  )
       110           Al  tau( 110) = (   0.3750018   0.6250001   0.7499980  )
       111           Al  tau( 111) = (   0.3750519   0.5000416   0.8749581  )
       112           Al  tau( 112) = (   0.2499752   0.6250000   0.8750248  )
       113           Al  tau( 113) = (   0.2498784   0.7501294   0.9999931  )
       114           Al  tau( 114) = (   0.3749333   0.8750128   0.0000103  )
       115           Al  tau( 115) = (   0.3749754   0.7500163   0.1249898  )
       116           Al  tau( 116) = (   0.2499045   0.8750625   0.1249906  )
       117           Al  tau( 117) = (   0.2500495   0.7499562   0.2500495  )
       118           Al  tau( 118) = (   0.3749781   0.8750173   0.2499738  )
       119           Al  tau( 119) = (   0.3750001   0.7500000   0.3750001  )
       120           Al  tau( 120) = (   0.2499738   0.8750173   0.3749781  )
       121           Al  tau( 121) = (   0.2499999   0.7499996   0.5000103  )
       122           Al  tau( 122) = (   0.3750121   0.8749951   0.5000030  )
       123           Al  tau( 123) = (   0.3750031   0.7500010   0.6249973  )
       124           Al  tau( 124) = (   0.2499845   0.8750003   0.6250052  )
       125           Al  tau( 125) = (   0.2500420   0.7499585   0.7499479  )
       126           Al  tau( 126) = (   0.3749979   0.8750062   0.7500110  )
       127           Al  tau( 127) = (   0.3749926   0.7500157   0.8750134  )
       128           Al  tau( 128) = (   0.2499111   0.8750072   0.8750175  )
       129           Al  tau( 129) = (   0.4999947   0.0000148   0.0000103  )
       130           Al  tau( 130) = (   0.6250526   0.1249864   0.9999921  )
       131           Al  tau( 131) = (   0.6250501   0.0000204   0.1249945  )
       132           Al  tau( 132) = (   0.4999475   0.1250136   0.1250081  )
       133           Al  tau( 133) = (   0.4999960   0.0000139   0.2499697  )
       134           Al  tau( 134) = (   0.6250045   0.1249822   0.2499935  )
       135           Al  tau( 135) = (   0.6249883   0.0000026   0.3750083  )
       136           Al  tau( 136) = (   0.4999945   0.1250111   0.3749943  )
       137           Al  tau( 137) = (   0.5000018   0.0000001   0.5000018  )
       138           Al  tau( 138) = (   0.6249886   0.1249999   0.5000112  )
       139           Al  tau( 139) = (   0.6249891   0.9999969   0.6249891  )
       140           Al  tau( 140) = (   0.5000112   0.1249999   0.6249886  )
       141           Al  tau( 141) = (   0.5000032   0.0000003   0.7500185  )
       142           Al  tau( 142) = (   0.6250055   0.1249887   0.7500056  )
       143           Al  tau( 143) = (   0.6250477   0.0000006   0.8750068  )
       144           Al  tau( 144) = (   0.4999954   0.1250177   0.8750066  )
       145           Al  tau( 145) = (   0.4999499   0.2499795   0.0000058  )
       146           Al  tau( 146) = (   0.6249900   0.3750188   0.9999923  )
       147           Al  tau( 147) = (   0.6250053   0.2499852   0.1249899  )
       148           Al  tau( 148) = (   0.4999541   0.3750057   0.1250018  )
       149           Al  tau( 149) = (   0.4999523   0.2499994   0.2499932  )
       150           Al  tau( 150) = (   0.6249978   0.3750100   0.2500065  )
       151           Al  tau( 151) = (   0.6249966   0.2499996   0.3749813  )
       152           Al  tau( 152) = (   0.4999937   0.3749780   0.3749713  )
       153           Al  tau( 153) = (   0.5000107   0.2500029   0.5000107  )
       154           Al  tau( 154) = (   0.6250144   0.3749868   0.5000101  )
       155           Al  tau( 155) = (   0.6249982   0.2499996   0.6249982  )
       156           Al  tau( 156) = (   0.5000101   0.3749868   0.6250144  )
       157           Al  tau( 157) = (   0.5000115   0.2499972   0.7499917  )
       158           Al  tau( 158) = (   0.6249970   0.3750048   0.7499880  )
       159           Al  tau( 159) = (   0.6250041   0.2499858   0.8750305  )
       160           Al  tau( 160) = (   0.4999946   0.3749996   0.8750158  )
       161           Al  tau( 161) = (   0.4999957   0.4999862   0.0000089  )
       162           Al  tau( 162) = (   0.6249893   0.6250017   1.0000000  )
       163           Al  tau( 163) = (   0.6249882   0.4999813   0.1250009  )
       164           Al  tau( 164) = (   0.5000106   0.6249984   0.1250003  )
       165           Al  tau( 165) = (   0.4999985   0.4999879   0.2499957  )
       166           Al  tau( 166) = (   0.6249942   0.6250075   0.2500011  )
       167           Al  tau( 167) = (   0.6250150   0.4999978   0.3749848  )
       168           Al  tau( 168) = (   0.5000028   0.6250173   0.3749887  )
       169           Al  tau( 169) = (   0.5000041   0.5000012   0.5000041  )
       170           Al  tau( 170) = (   0.6250143   0.6250002   0.4999855  )
       171           Al  tau( 171) = (   0.6250130   0.5000022   0.6250130  )
       172           Al  tau( 172) = (   0.4999855   0.6250002   0.6250143  )
       173           Al  tau( 173) = (   0.5000024   0.4999993   0.7499969  )
       174           Al  tau( 174) = (   0.6249971   0.6249831   0.7500113  )
       175           Al  tau( 175) = (   0.6249897   0.5000006   0.8750004  )
       176           Al  tau( 176) = (   0.5000056   0.6249927   0.8749990  )
       177           Al  tau( 177) = (   0.5000118   0.7500188   0.9999993  )
       178           Al  tau( 178) = (   0.6250459   0.8749943   0.9999984  )
       179           Al  tau( 179) = (   0.6250041   0.7500139   0.1249914  )
       180           Al  tau( 180) = (   0.5000101   0.8749812   0.1250080  )
       181           Al  tau( 181) = (   0.5000103   0.7499996   0.2499999  )
       182           Al  tau( 182) = (   0.6250052   0.8750003   0.2499845  )
       183           Al  tau( 183) = (   0.6249973   0.7500010   0.3750031  )
       184           Al  tau( 184) = (   0.5000030   0.8749951   0.3750121  )
       185           Al  tau( 185) = (   0.4999869   0.7499981   0.4999869  )
       186           Al  tau( 186) = (   0.6249895   0.8750131   0.4999855  )
       187           Al  tau( 187) = (   0.6249956   0.7499991   0.6249956  )
       188           Al  tau( 188) = (   0.4999855   0.8750131   0.6249895  )
       189           Al  tau( 189) = (   0.4999848   0.7500024   0.7500149  )
       190           Al  tau( 190) = (   0.6250062   0.8750220   0.7500285  )
       191           Al  tau( 191) = (   0.6250014   0.7500122   0.8750044  )
       192           Al  tau( 192) = (   0.5000021   0.8749900   0.8749934  )
       193           Al  tau( 193) = (   0.7503339   0.0000135   0.0000115  )
       194           Al  tau( 194) = (   0.8758604   0.1242507   0.0000100  )
       195           Al  tau( 195) = (   0.8758849   0.0001256   0.1242584  )
       196           Al  tau( 196) = (   0.7501425   0.1249966   0.1249911  )
       197           Al  tau( 197) = (   0.7501301   0.0000137   0.2498628  )
       198           Al  tau( 198) = (   0.8750978   0.1250000   0.2499022  )
       199           Al  tau( 199) = (   0.8749629   0.9999579   0.3749935  )
       200           Al  tau( 200) = (   0.7500206   0.1249999   0.3749792  )
       201           Al  tau( 201) = (   0.7500185   0.0000003   0.5000032  )
       202           Al  tau( 202) = (   0.8750066   0.1250177   0.4999954  )
       203           Al  tau( 203) = (   0.8750068   0.0000006   0.6250477  )
       204           Al  tau( 204) = (   0.7500056   0.1249887   0.6250055  )
       205           Al  tau( 205) = (   0.7501256   0.0000030   0.7501256  )
       206           Al  tau( 206) = (   0.8750219   0.1250036   0.7500870  )
       207           Al  tau( 207) = (   0.8756914   0.9999625   0.8756914  )
       208           Al  tau( 208) = (   0.7500870   0.1250036   0.8750219  )
       209           Al  tau( 209) = (   0.7501799   0.2498723   0.0000048  )
       210           Al  tau( 210) = (   0.8750955   0.3749374   0.0000095  )
       211           Al  tau( 211) = (   0.8753282   0.2499211   0.1249982  )
       212           Al  tau( 212) = (   0.7500667   0.3749872   0.1249897  )
       213           Al  tau( 213) = (   0.7500064   0.2500420   0.2500371  )
       214           Al  tau( 214) = (   0.8750889   0.3749928   0.2499824  )
       215           Al  tau( 215) = (   0.8751373   0.2499862   0.3748698  )
       216           Al  tau( 216) = (   0.7500021   0.3749939   0.3749886  )
       217           Al  tau( 217) = (   0.7499917   0.2499972   0.5000115  )
       218           Al  tau( 218) = (   0.8750158   0.3749996   0.4999946  )
       219           Al  tau( 219) = (   0.8750305   0.2499858   0.6250041  )
       220           Al  tau( 220) = (   0.7499880   0.3750048   0.6249970  )
       221           Al  tau( 221) = (   0.7499479   0.2500417   0.7499479  )
       222           Al  tau( 222) = (   0.8750265   0.3749825   0.7500221  )
       223           Al  tau( 223) = (   0.8751465   0.2499054   0.8751465  )
       224           Al  tau( 224) = (   0.7500221   0.3749825   0.8750265  )
       225           Al  tau( 225) = (   0.7500247   0.4999837   0.0000105  )
       226           Al  tau( 226) = (   0.8750210   0.6250467   0.0000102  )
       227           Al  tau( 227) = (   0.8751216   0.4998707   0.1250069  )
       228           Al  tau( 228) = (   0.7500025   0.6250138   0.1249921  )
       229           Al  tau( 229) = (   0.7500073   0.4999844   0.2499865  )
       230           Al  tau( 230) = (   0.8750248   0.6250000   0.2499752  )
       231           Al  tau( 231) = (   0.8749581   0.5000416   0.3750519  )
       232           Al  tau( 232) = (   0.7499980   0.6250001   0.3750018  )
       233           Al  tau( 233) = (   0.7499969   0.4999993   0.5000024  )
       234           Al  tau( 234) = (   0.8749990   0.6249927   0.5000056  )
       235           Al  tau( 235) = (   0.8750004   0.5000006   0.6249897  )
       236           Al  tau( 236) = (   0.7500113   0.6249831   0.6249971  )
       237           Al  tau( 237) = (   0.7500001   0.5000002   0.7500001  )
       238           Al  tau( 238) = (   0.8750087   0.6250043   0.7500129  )
       239           Al  tau( 239) = (   0.8749506   0.5000438   0.8749506  )
       240           Al  tau( 240) = (   0.7500129   0.6250043   0.8750087  )
       241           Al  tau( 241) = (   0.7501126   0.7501229   0.9999973  )
       242           Al  tau( 242) = (   0.8757855   0.8757804   0.0000197  )
       243           Al  tau( 243) = (   0.8750292   0.7500892   0.1249890  )
       244           Al  tau( 244) = (   0.7500750   0.8749992   0.1249882  )
       245           Al  tau( 245) = (   0.7499479   0.7499585   0.2500420  )
       246           Al  tau( 246) = (   0.8750175   0.8750072   0.2499111  )
       247           Al  tau( 247) = (   0.8750134   0.7500157   0.3749926  )
       248           Al  tau( 248) = (   0.7500110   0.8750062   0.3749979  )
       249           Al  tau( 249) = (   0.7500149   0.7500024   0.4999848  )
       250           Al  tau( 250) = (   0.8749934   0.8749900   0.5000021  )
       251           Al  tau( 251) = (   0.8750044   0.7500122   0.6250014  )
       252           Al  tau( 252) = (   0.7500285   0.8750220   0.6250062  )
       253           Al  tau( 253) = (   0.7499751   0.7499621   0.7499751  )
       254           Al  tau( 254) = (   0.8750192   0.8750128   0.7500943  )
       255           Al  tau( 255) = (   0.8750136   0.7500991   0.8750136  )
       256           Al  tau( 256) = (   0.7500943   0.8750128   0.8750192  )

   Crystallographic axes

     site n.     atom                  positions (cryst. coord.)
         1           Si  tau(   1) = (  0.9999113  0.9998625  0.9999113  )
         2           Al  tau(   2) = (  0.1242134  0.0003439  0.1242134  )
         3           Al  tau(   3) = (  0.1242217  0.1250000  0.0007783  )
         4           Al  tau(   4) = (  0.0007783  0.1250000  0.1242217  )
         5           Al  tau(   5) = (  0.0000019  0.0000788  0.2496718  )
         6           Al  tau(   6) = (  0.1249900  0.1257493  0.2491397  )
         7           Al  tau(   7) = (  0.1249953  0.0001276  0.3748202  )
         8           Al  tau(   8) = (  0.0000090  0.1250033  0.3748575  )
         9           Al  tau(   9) = (  0.0000103  0.0000148  0.4999947  )
        10           Al  tau(  10) = (  0.1250081  0.1250136  0.4999475  )
        11           Al  tau(  11) = (  0.1249945  0.0000204  0.6250501  )
        12           Al  tau(  12) = (  0.9999921  0.1249864  0.6250526  )
        13           Al  tau(  13) = (  0.0000115  0.0000135  0.7503339  )
        14           Al  tau(  14) = (  0.1249911  0.1249966  0.7501425  )
        15           Al  tau(  15) = (  0.1242584  0.0001256  0.8758849  )
        16           Al  tau(  16) = (  0.0000100  0.1242507  0.8758604  )
        17           Al  tau(  17) = (  0.0007867  0.2496561  0.0007867  )
        18           Al  tau(  18) = (  0.1249923  0.3742126  0.0007494  )
        19           Si  tau(  19) = (  0.1250882  0.2501375  0.1250882  )
        20           Al  tau(  20) = (  0.0007494  0.3742126  0.1249923  )
        21           Al  tau(  21) = (  0.0007418  0.2498745  0.2491150  )
        22           Al  tau(  22) = (  0.1249804  0.3742197  0.2492145  )
        23           Al  tau(  23) = (  0.1249886  0.2499866  0.3746662  )
        24           Al  tau(  24) = (  0.0000120  0.3750008  0.3749249  )
        25           Al  tau(  25) = (  0.0000058  0.2499795  0.4999499  )
        26           Al  tau(  26) = (  0.1250018  0.3750057  0.4999541  )
        27           Al  tau(  27) = (  0.1249899  0.2499852  0.6250053  )
        28           Al  tau(  28) = (  0.9999923  0.3750188  0.6249900  )
        29           Al  tau(  29) = (  0.0000048  0.2498723  0.7501799  )
        30           Al  tau(  30) = (  0.1249897  0.3749872  0.7500667  )
        31           Al  tau(  31) = (  0.1249982  0.2499211  0.8753282  )
        32           Al  tau(  32) = (  0.0000095  0.3749374  0.8750955  )
        33           Al  tau(  33) = (  0.0000095  0.4999160  0.0000095  )
        34           Al  tau(  34) = (  0.1249938  0.6250000  0.0000063  )
        35           Al  tau(  35) = (  0.1250086  0.4996922  0.1250086  )
        36           Al  tau(  36) = (  0.0000063  0.6250000  0.1249938  )
        37           Al  tau(  37) = (  0.0000112  0.4999109  0.2499708  )
        38           Al  tau(  38) = (  0.1249900  0.6249533  0.2499791  )
        39           Al  tau(  39) = (  0.1250029  0.4998772  0.3748874  )
        40           Al  tau(  40) = (  0.0000081  0.6249863  0.3749974  )
        41           Al  tau(  41) = (  0.0000089  0.4999862  0.4999957  )
        42           Al  tau(  42) = (  0.1250003  0.6249984  0.5000106  )
        43           Al  tau(  43) = (  0.1250009  0.4999813  0.6249882  )
        44           Al  tau(  44) = (  1.0000000  0.6250017  0.6249893  )
        45           Al  tau(  45) = (  0.0000105  0.4999837  0.7500247  )
        46           Al  tau(  46) = (  0.1249921  0.6250138  0.7500025  )
        47           Al  tau(  47) = (  0.1250069  0.4998707  0.8751216  )
        48           Al  tau(  48) = (  0.0000102  0.6250467  0.8750210  )
        49           Al  tau(  49) = (  0.9999915  0.7503078  0.9999915  )
        50           Al  tau(  50) = (  0.1242507  0.8757874  0.0000078  )
        51           Al  tau(  51) = (  0.1249907  0.7500840  0.1249907  )
        52           Al  tau(  52) = (  0.0000078  0.8757874  0.1242507  )
        53           Al  tau(  53) = (  0.9999931  0.7501294  0.2498784  )
        54           Al  tau(  54) = (  0.1249906  0.8750625  0.2499045  )
        55           Al  tau(  55) = (  0.1249898  0.7500163  0.3749754  )
        56           Al  tau(  56) = (  0.0000103  0.8750128  0.3749333  )
        57           Al  tau(  57) = (  0.9999993  0.7500188  0.5000118  )
        58           Al  tau(  58) = (  0.1250080  0.8749812  0.5000101  )
        59           Al  tau(  59) = (  0.1249914  0.7500139  0.6250041  )
        60           Al  tau(  60) = (  0.9999984  0.8749943  0.6250459  )
        61           Al  tau(  61) = (  0.9999973  0.7501229  0.7501126  )
        62           Al  tau(  62) = (  0.1249882  0.8749992  0.7500750  )
        63           Al  tau(  63) = (  0.1249890  0.7500892  0.8750292  )
        64           Al  tau(  64) = (  0.0000197  0.8757804  0.8757855  )
        65           Al  tau(  65) = (  0.2496718  0.0000788  0.0000019  )
        66           Al  tau(  66) = (  0.3748575  0.1250033  0.0000090  )
        67           Al  tau(  67) = (  0.3748202  0.0001276  0.1249953  )
        68           Al  tau(  68) = (  0.2491397  0.1257493  0.1249900  )
        69           Al  tau(  69) = (  0.2498535  0.0000945  0.2498535  )
        70           Al  tau(  70) = (  0.3749132  0.1249964  0.2499781  )
        71           Al  tau(  71) = (  0.3750524  0.9999580  0.3750524  )
        72           Al  tau(  72) = (  0.2499781  0.1249964  0.3749132  )
        73           Al  tau(  73) = (  0.2499697  0.0000139  0.4999960  )
        74           Al  tau(  74) = (  0.3749943  0.1250111  0.4999945  )
        75           Al  tau(  75) = (  0.3750083  0.0000026  0.6249883  )
        76           Al  tau(  76) = (  0.2499935  0.1249822  0.6250045  )
        77           Al  tau(  77) = (  0.2498628  0.0000137  0.7501301  )
        78           Al  tau(  78) = (  0.3749792  0.1249999  0.7500206  )
        79           Al  tau(  79) = (  0.3749935  0.9999579  0.8749629  )
        80           Al  tau(  80) = (  0.2499022  0.1250000  0.8750978  )
        81           Al  tau(  81) = (  0.2491150  0.2498745  0.0007418  )
        82           Al  tau(  82) = (  0.3749249  0.3750008  0.0000120  )
        83           Al  tau(  83) = (  0.3746662  0.2499866  0.1249886  )
        84           Al  tau(  84) = (  0.2492145  0.3742197  0.1249804  )
        85           Al  tau(  85) = (  0.2493087  0.2500377  0.2493087  )
        86           Al  tau(  86) = (  0.3749057  0.3749873  0.2499809  )
        87           Al  tau(  87) = (  0.3748744  0.2499971  0.3748744  )
        88           Al  tau(  88) = (  0.2499809  0.3749873  0.3749057  )
        89           Al  tau(  89) = (  0.2499932  0.2499994  0.4999523  )
        90           Al  tau(  90) = (  0.3749713  0.3749780  0.4999937  )
        91           Al  tau(  91) = (  0.3749813  0.2499996  0.6249966  )
        92           Al  tau(  92) = (  0.2500065  0.3750100  0.6249978  )
        93           Al  tau(  93) = (  0.2500371  0.2500420  0.7500064  )
        94           Al  tau(  94) = (  0.3749886  0.3749939  0.7500021  )
        95           Al  tau(  95) = (  0.3748698  0.2499862  0.8751373  )
        96           Al  tau(  96) = (  0.2499824  0.3749928  0.8750889  )
        97           Al  tau(  97) = (  0.2499708  0.4999109  0.0000112  )
        98           Al  tau(  98) = (  0.3749974  0.6249863  0.0000081  )
        99           Al  tau(  99) = (  0.3748874  0.4998772  0.1250029  )
       100           Al  tau( 100) = (  0.2499791  0.6249533  0.1249900  )
       101           Al  tau( 101) = (  0.2499865  0.4999010  0.2499865  )
       102           Al  tau( 102) = (  0.3749871  0.6249958  0.2499914  )
       103           Al  tau( 103) = (  0.3750248  0.5000381  0.3750248  )
       104           Al  tau( 104) = (  0.2499914  0.6249958  0.3749871  )
       105           Al  tau( 105) = (  0.2499957  0.4999879  0.4999985  )
       106           Al  tau( 106) = (  0.3749887  0.6250173  0.5000028  )
       107           Al  tau( 107) = (  0.3749848  0.4999978  0.6250150  )
       108           Al  tau( 108) = (  0.2500011  0.6250075  0.6249942  )
       109           Al  tau( 109) = (  0.2499865  0.4999844  0.7500073  )
       110           Al  tau( 110) = (  0.3750018  0.6250001  0.7499980  )
       111           Al  tau( 111) = (  0.3750519  0.5000416  0.8749581  )
       112           Al  tau( 112) = (  0.2499752  0.6250000  0.8750248  )
       113           Al  tau( 113) = (  0.2498784  0.7501294  0.9999931  )
       114           Al  tau( 114) = (  0.3749333  0.8750128  0.0000103  )
       115           Al  tau( 115) = (  0.3749754  0.7500163  0.1249898  )
       116           Al  tau( 116) = (  0.2499045  0.8750625  0.1249906  )
       117           Al  tau( 117) = (  0.2500495  0.7499562  0.2500495  )
       118           Al  tau( 118) = (  0.3749781  0.8750173  0.2499738  )
       119           Al  tau( 119) = (  0.3750001  0.7500000  0.3750001  )
       120           Al  tau( 120) = (  0.2499738  0.8750173  0.3749781  )
       121           Al  tau( 121) = (  0.2499999  0.7499996  0.5000103  )
       122           Al  tau( 122) = (  0.3750121  0.8749951  0.5000030  )
       123           Al  tau( 123) = (  0.3750031  0.7500010  0.6249973  )
       124           Al  tau( 124) = (  0.2499845  0.8750003  0.6250052  )
       125           Al  tau( 125) = (  0.2500420  0.7499585  0.7499479  )
       126           Al  tau( 126) = (  0.3749979  0.8750062  0.7500110  )
       127           Al  tau( 127) = (  0.3749926  0.7500157  0.8750134  )
       128           Al  tau( 128) = (  0.2499111  0.8750072  0.8750175  )
       129           Al  tau( 129) = (  0.4999947  0.0000148  0.0000103  )
       130           Al  tau( 130) = (  0.6250526  0.1249864  0.9999921  )
       131           Al  tau( 131) = (  0.6250501  0.0000204  0.1249945  )
       132           Al  tau( 132) = (  0.4999475  0.1250136  0.1250081  )
       133           Al  tau( 133) = (  0.4999960  0.0000139  0.2499697  )
       134           Al  tau( 134) = (  0.6250045  0.1249822  0.2499935  )
       135           Al  tau( 135) = (  0.6249883  0.0000026  0.3750083  )
       136           Al  tau( 136) = (  0.4999945  0.1250111  0.3749943  )
       137           Al  tau( 137) = (  0.5000018  0.0000001  0.5000018  )
       138           Al  tau( 138) = (  0.6249886  0.1249999  0.5000112  )
       139           Al  tau( 139) = (  0.6249891  0.9999969  0.6249891  )
       140           Al  tau( 140) = (  0.5000112  0.1249999  0.6249886  )
       141           Al  tau( 141) = (  0.5000032  0.0000003  0.7500185  )
       142           Al  tau( 142) = (  0.6250055  0.1249887  0.7500056  )
       143           Al  tau( 143) = (  0.6250477  0.0000006  0.8750068  )
       144           Al  tau( 144) = (  0.4999954  0.1250177  0.8750066  )
       145           Al  tau( 145) = (  0.4999499  0.2499795  0.0000058  )
       146           Al  tau( 146) = (  0.6249900  0.3750188  0.9999923  )
       147           Al  tau( 147) = (  0.6250053  0.2499852  0.1249899  )
       148           Al  tau( 148) = (  0.4999541  0.3750057  0.1250018  )
       149           Al  tau( 149) = (  0.4999523  0.2499994  0.2499932  )
       150           Al  tau( 150) = (  0.6249978  0.3750100  0.2500065  )
       151           Al  tau( 151) = (  0.6249966  0.2499996  0.3749813  )
       152           Al  tau( 152) = (  0.4999937  0.3749780  0.3749713  )
       153           Al  tau( 153) = (  0.5000107  0.2500029  0.5000107  )
       154           Al  tau( 154) = (  0.6250144  0.3749868  0.5000101  )
       155           Al  tau( 155) = (  0.6249982  0.2499996  0.6249982  )
       156           Al  tau( 156) = (  0.5000101  0.3749868  0.6250144  )
       157           Al  tau( 157) = (  0.5000115  0.2499972  0.7499917  )
       158           Al  tau( 158) = (  0.6249970  0.3750048  0.7499880  )
       159           Al  tau( 159) = (  0.6250041  0.2499858  0.8750305  )
       160           Al  tau( 160) = (  0.4999946  0.3749996  0.8750158  )
       161           Al  tau( 161) = (  0.4999957  0.4999862  0.0000089  )
       162           Al  tau( 162) = (  0.6249893  0.6250017  1.0000000  )
       163           Al  tau( 163) = (  0.6249882  0.4999813  0.1250009  )
       164           Al  tau( 164) = (  0.5000106  0.6249984  0.1250003  )
       165           Al  tau( 165) = (  0.4999985  0.4999879  0.2499957  )
       166           Al  tau( 166) = (  0.6249942  0.6250075  0.2500011  )
       167           Al  tau( 167) = (  0.6250150  0.4999978  0.3749848  )
       168           Al  tau( 168) = (  0.5000028  0.6250173  0.3749887  )
       169           Al  tau( 169) = (  0.5000041  0.5000012  0.5000041  )
       170           Al  tau( 170) = (  0.6250143  0.6250002  0.4999855  )
       171           Al  tau( 171) = (  0.6250130  0.5000022  0.6250130  )
       172           Al  tau( 172) = (  0.4999855  0.6250002  0.6250143  )
       173           Al  tau( 173) = (  0.5000024  0.4999993  0.7499969  )
       174           Al  tau( 174) = (  0.6249971  0.6249831  0.7500113  )
       175           Al  tau( 175) = (  0.6249897  0.5000006  0.8750004  )
       176           Al  tau( 176) = (  0.5000056  0.6249927  0.8749990  )
       177           Al  tau( 177) = (  0.5000118  0.7500188  0.9999993  )
       178           Al  tau( 178) = (  0.6250459  0.8749943  0.9999984  )
       179           Al  tau( 179) = (  0.6250041  0.7500139  0.1249914  )
       180           Al  tau( 180) = (  0.5000101  0.8749812  0.1250080  )
       181           Al  tau( 181) = (  0.5000103  0.7499996  0.2499999  )
       182           Al  tau( 182) = (  0.6250052  0.8750003  0.2499845  )
       183           Al  tau( 183) = (  0.6249973  0.7500010  0.3750031  )
       184           Al  tau( 184) = (  0.5000030  0.8749951  0.3750121  )
       185           Al  tau( 185) = (  0.4999869  0.7499981  0.4999869  )
       186           Al  tau( 186) = (  0.6249895  0.8750131  0.4999855  )
       187           Al  tau( 187) = (  0.6249956  0.7499991  0.6249956  )
       188           Al  tau( 188) = (  0.4999855  0.8750131  0.6249895  )
       189           Al  tau( 189) = (  0.4999848  0.7500024  0.7500149  )
       190           Al  tau( 190) = (  0.6250062  0.8750220  0.7500285  )
       191           Al  tau( 191) = (  0.6250014  0.7500122  0.8750044  )
       192           Al  tau( 192) = (  0.5000021  0.8749900  0.8749934  )
       193           Al  tau( 193) = (  0.7503339  0.0000135  0.0000115  )
       194           Al  tau( 194) = (  0.8758604  0.1242507  0.0000100  )
       195           Al  tau( 195) = (  0.8758849  0.0001256  0.1242584  )
       196           Al  tau( 196) = (  0.7501425  0.1249966  0.1249911  )
       197           Al  tau( 197) = (  0.7501301  0.0000137  0.2498628  )
       198           Al  tau( 198) = (  0.8750978  0.1250000  0.2499022  )
       199           Al  tau( 199) = (  0.8749629  0.9999579  0.3749935  )
       200           Al  tau( 200) = (  0.7500206  0.1249999  0.3749792  )
       201           Al  tau( 201) = (  0.7500185  0.0000003  0.5000032  )
       202           Al  tau( 202) = (  0.8750066  0.1250177  0.4999954  )
       203           Al  tau( 203) = (  0.8750068  0.0000006  0.6250477  )
       204           Al  tau( 204) = (  0.7500056  0.1249887  0.6250055  )
       205           Al  tau( 205) = (  0.7501256  0.0000030  0.7501256  )
       206           Al  tau( 206) = (  0.8750219  0.1250036  0.7500870  )
       207           Al  tau( 207) = (  0.8756914  0.9999625  0.8756914  )
       208           Al  tau( 208) = (  0.7500870  0.1250036  0.8750219  )
       209           Al  tau( 209) = (  0.7501799  0.2498723  0.0000048  )
       210           Al  tau( 210) = (  0.8750955  0.3749374  0.0000095  )
       211           Al  tau( 211) = (  0.8753282  0.2499211  0.1249982  )
       212           Al  tau( 212) = (  0.7500667  0.3749872  0.1249897  )
       213           Al  tau( 213) = (  0.7500064  0.2500420  0.2500371  )
       214           Al  tau( 214) = (  0.8750889  0.3749928  0.2499824  )
       215           Al  tau( 215) = (  0.8751373  0.2499862  0.3748698  )
       216           Al  tau( 216) = (  0.7500021  0.3749939  0.3749886  )
       217           Al  tau( 217) = (  0.7499917  0.2499972  0.5000115  )
       218           Al  tau( 218) = (  0.8750158  0.3749996  0.4999946  )
       219           Al  tau( 219) = (  0.8750305  0.2499858  0.6250041  )
       220           Al  tau( 220) = (  0.7499880  0.3750048  0.6249970  )
       221           Al  tau( 221) = (  0.7499479  0.2500417  0.7499479  )
       222           Al  tau( 222) = (  0.8750265  0.3749825  0.7500221  )
       223           Al  tau( 223) = (  0.8751465  0.2499054  0.8751465  )
       224           Al  tau( 224) = (  0.7500221  0.3749825  0.8750265  )
       225           Al  tau( 225) = (  0.7500247  0.4999837  0.0000105  )
       226           Al  tau( 226) = (  0.8750210  0.6250467  0.0000102  )
       227           Al  tau( 227) = (  0.8751216  0.4998707  0.1250069  )
       228           Al  tau( 228) = (  0.7500025  0.6250138  0.1249921  )
       229           Al  tau( 229) = (  0.7500073  0.4999844  0.2499865  )
       230           Al  tau( 230) = (  0.8750248  0.6250000  0.2499752  )
       231           Al  tau( 231) = (  0.8749581  0.5000416  0.3750519  )
       232           Al  tau( 232) = (  0.7499980  0.6250001  0.3750018  )
       233           Al  tau( 233) = (  0.7499969  0.4999993  0.5000024  )
       234           Al  tau( 234) = (  0.8749990  0.6249927  0.5000056  )
       235           Al  tau( 235) = (  0.8750004  0.5000006  0.6249897  )
       236           Al  tau( 236) = (  0.7500113  0.6249831  0.6249971  )
       237           Al  tau( 237) = (  0.7500001  0.5000002  0.7500001  )
       238           Al  tau( 238) = (  0.8750087  0.6250043  0.7500129  )
       239           Al  tau( 239) = (  0.8749506  0.5000438  0.8749506  )
       240           Al  tau( 240) = (  0.7500129  0.6250043  0.8750087  )
       241           Al  tau( 241) = (  0.7501126  0.7501229  0.9999973  )
       242           Al  tau( 242) = (  0.8757855  0.8757804  0.0000197  )
       243           Al  tau( 243) = (  0.8750292  0.7500892  0.1249890  )
       244           Al  tau( 244) = (  0.7500750  0.8749992  0.1249882  )
       245           Al  tau( 245) = (  0.7499479  0.7499585  0.2500420  )
       246           Al  tau( 246) = (  0.8750175  0.8750072  0.2499111  )
       247           Al  tau( 247) = (  0.8750134  0.7500157  0.3749926  )
       248           Al  tau( 248) = (  0.7500110  0.8750062  0.3749979  )
       249           Al  tau( 249) = (  0.7500149  0.7500024  0.4999848  )
       250           Al  tau( 250) = (  0.8749934  0.8749900  0.5000021  )
       251           Al  tau( 251) = (  0.8750044  0.7500122  0.6250014  )
       252           Al  tau( 252) = (  0.7500285  0.8750220  0.6250062  )
       253           Al  tau( 253) = (  0.7499751  0.7499621  0.7499751  )
       254           Al  tau( 254) = (  0.8750192  0.8750128  0.7500943  )
       255           Al  tau( 255) = (  0.8750136  0.7500991  0.8750136  )
       256           Al  tau( 256) = (  0.7500943  0.8750128  0.8750192  )

     number of k points=    63  Methfessel-Paxton smearing, width (Ry)=  0.0441
                       cart. coord. in units 2pi/alat
        k(    1) = (   0.0000000   0.0000000   0.0000000), wk =   0.0160000
        k(    2) = (   0.0000000   0.0000000   0.2000000), wk =   0.0320000
        k(    3) = (   0.0000000   0.0000000   0.4000000), wk =   0.0320000
        k(    4) = (   0.0000000   0.2000000   0.0000000), wk =   0.0320000
        k(    5) = (   0.0000000   0.2000000   0.2000000), wk =   0.0320000
        k(    6) = (   0.0000000   0.2000000   0.4000000), wk =   0.0320000
        k(    7) = (   0.0000000   0.2000000  -0.4000000), wk =   0.0320000
        k(    8) = (   0.0000000   0.2000000  -0.2000000), wk =   0.0320000
        k(    9) = (   0.0000000   0.4000000   0.0000000), wk =   0.0320000
        k(   10) = (   0.0000000   0.4000000   0.2000000), wk =   0.0320000
        k(   11) = (   0.0000000   0.4000000   0.4000000), wk =   0.0320000
        k(   12) = (   0.0000000   0.4000000  -0.4000000), wk =   0.0320000
        k(   13) = (   0.0000000   0.4000000  -0.2000000), wk =   0.0320000
        k(   14) = (   0.2000000   0.0000000   0.0000000), wk =   0.0320000
        k(   15) = (   0.2000000   0.0000000   0.2000000), wk =   0.0320000
        k(   16) = (   0.2000000   0.0000000   0.4000000), wk =   0.0320000
        k(   17) = (   0.2000000   0.0000000  -0.4000000), wk =   0.0320000
        k(   18) = (   0.2000000   0.0000000  -0.2000000), wk =   0.0320000
        k(   19) = (   0.2000000   0.2000000   0.0000000), wk =   0.0320000
        k(   20) = (   0.2000000   0.2000000   0.2000000), wk =   0.0320000
        k(   21) = (   0.2000000   0.2000000   0.4000000), wk =   0.0320000
        k(   22) = (   0.2000000   0.2000000  -0.4000000), wk =   0.0320000
        k(   23) = (   0.2000000   0.2000000  -0.2000000), wk =   0.0320000
        k(   24) = (   0.2000000   0.4000000   0.0000000), wk =   0.0320000
        k(   25) = (   0.2000000   0.4000000   0.2000000), wk =   0.0320000
        k(   26) = (   0.2000000   0.4000000   0.4000000), wk =   0.0320000
        k(   27) = (   0.2000000   0.4000000  -0.4000000), wk =   0.0320000
        k(   28) = (   0.2000000   0.4000000  -0.2000000), wk =   0.0320000
        k(   29) = (   0.2000000  -0.4000000   0.0000000), wk =   0.0320000
        k(   30) = (   0.2000000  -0.4000000   0.2000000), wk =   0.0320000
        k(   31) = (   0.2000000  -0.4000000   0.4000000), wk =   0.0320000
        k(   32) = (   0.2000000  -0.4000000  -0.4000000), wk =   0.0320000
        k(   33) = (   0.2000000  -0.4000000  -0.2000000), wk =   0.0320000
        k(   34) = (   0.2000000  -0.2000000   0.0000000), wk =   0.0320000
        k(   35) = (   0.2000000  -0.2000000   0.2000000), wk =   0.0320000
        k(   36) = (   0.2000000  -0.2000000   0.4000000), wk =   0.0320000
        k(   37) = (   0.2000000  -0.2000000  -0.4000000), wk =   0.0320000
        k(   38) = (   0.2000000  -0.2000000  -0.2000000), wk =   0.0320000
        k(   39) = (   0.4000000   0.0000000   0.0000000), wk =   0.0320000
        k(   40) = (   0.4000000   0.0000000   0.2000000), wk =   0.0320000
        k(   41) = (   0.4000000   0.0000000   0.4000000), wk =   0.0320000
        k(   42) = (   0.4000000   0.0000000  -0.4000000), wk =   0.0320000
        k(   43) = (   0.4000000   0.0000000  -0.2000000), wk =   0.0320000
        k(   44) = (   0.4000000   0.2000000   0.0000000), wk =   0.0320000
        k(   45) = (   0.4000000   0.2000000   0.2000000), wk =   0.0320000
        k(   46) = (   0.4000000   0.2000000   0.4000000), wk =   0.0320000
        k(   47) = (   0.4000000   0.2000000  -0.4000000), wk =   0.0320000
        k(   48) = (   0.4000000   0.2000000  -0.2000000), wk =   0.0320000
        k(   49) = (   0.4000000   0.4000000   0.0000000), wk =   0.0320000
        k(   50) = (   0.4000000   0.4000000   0.2000000), wk =   0.0320000
        k(   51) = (   0.4000000   0.4000000   0.4000000), wk =   0.0320000
        k(   52) = (   0.4000000   0.4000000  -0.4000000), wk =   0.0320000
        k(   53) = (   0.4000000   0.4000000  -0.2000000), wk =   0.0320000
        k(   54) = (   0.4000000  -0.4000000   0.0000000), wk =   0.0320000
        k(   55) = (   0.4000000  -0.4000000   0.2000000), wk =   0.0320000
        k(   56) = (   0.4000000  -0.4000000   0.4000000), wk =   0.0320000
        k(   57) = (   0.4000000  -0.4000000  -0.4000000), wk =   0.0320000
        k(   58) = (   0.4000000  -0.4000000  -0.2000000), wk =   0.0320000
        k(   59) = (   0.4000000  -0.2000000   0.0000000), wk =   0.0320000
        k(   60) = (   0.4000000  -0.2000000   0.2000000), wk =   0.0320000
        k(   61) = (   0.4000000  -0.2000000   0.4000000), wk =   0.0320000
        k(   62) = (   0.4000000  -0.2000000  -0.4000000), wk =   0.0320000
        k(   63) = (   0.4000000  -0.2000000  -0.2000000), wk =   0.0320000

                       cryst. coord.
        k(    1) = (   0.0000000   0.0000000   0.0000000), wk =   0.0160000
        k(    2) = (   0.0000000   0.0000000   0.2000000), wk =   0.0320000
        k(    3) = (   0.0000000   0.0000000   0.4000000), wk =   0.0320000
        k(    4) = (   0.0000000   0.2000000   0.0000000), wk =   0.0320000
        k(    5) = (   0.0000000   0.2000000   0.2000000), wk =   0.0320000
        k(    6) = (   0.0000000   0.2000000   0.4000000), wk =   0.0320000
        k(    7) = (   0.0000000   0.2000000  -0.4000000), wk =   0.0320000
        k(    8) = (   0.0000000   0.2000000  -0.2000000), wk =   0.0320000
        k(    9) = (   0.0000000   0.4000000   0.0000000), wk =   0.0320000
        k(   10) = (   0.0000000   0.4000000   0.2000000), wk =   0.0320000
        k(   11) = (   0.0000000   0.4000000   0.4000000), wk =   0.0320000
        k(   12) = (   0.0000000   0.4000000  -0.4000000), wk =   0.0320000
        k(   13) = (   0.0000000   0.4000000  -0.2000000), wk =   0.0320000
        k(   14) = (   0.2000000   0.0000000   0.0000000), wk =   0.0320000
        k(   15) = (   0.2000000   0.0000000   0.2000000), wk =   0.0320000
        k(   16) = (   0.2000000   0.0000000   0.4000000), wk =   0.0320000
        k(   17) = (   0.2000000   0.0000000  -0.4000000), wk =   0.0320000
        k(   18) = (   0.2000000   0.0000000  -0.2000000), wk =   0.0320000
        k(   19) = (   0.2000000   0.2000000   0.0000000), wk =   0.0320000
        k(   20) = (   0.2000000   0.2000000   0.2000000), wk =   0.0320000
        k(   21) = (   0.2000000   0.2000000   0.4000000), wk =   0.0320000
        k(   22) = (   0.2000000   0.2000000  -0.4000000), wk =   0.0320000
        k(   23) = (   0.2000000   0.2000000  -0.2000000), wk =   0.0320000
        k(   24) = (   0.2000000   0.4000000   0.0000000), wk =   0.0320000
        k(   25) = (   0.2000000   0.4000000   0.2000000), wk =   0.0320000
        k(   26) = (   0.2000000   0.4000000   0.4000000), wk =   0.0320000
        k(   27) = (   0.2000000   0.4000000  -0.4000000), wk =   0.0320000
        k(   28) = (   0.2000000   0.4000000  -0.2000000), wk =   0.0320000
        k(   29) = (   0.2000000  -0.4000000   0.0000000), wk =   0.0320000
        k(   30) = (   0.2000000  -0.4000000   0.2000000), wk =   0.0320000
        k(   31) = (   0.2000000  -0.4000000   0.4000000), wk =   0.0320000
        k(   32) = (   0.2000000  -0.4000000  -0.4000000), wk =   0.0320000
        k(   33) = (   0.2000000  -0.4000000  -0.2000000), wk =   0.0320000
        k(   34) = (   0.2000000  -0.2000000   0.0000000), wk =   0.0320000
        k(   35) = (   0.2000000  -0.2000000   0.2000000), wk =   0.0320000
        k(   36) = (   0.2000000  -0.2000000   0.4000000), wk =   0.0320000
        k(   37) = (   0.2000000  -0.2000000  -0.4000000), wk =   0.0320000
        k(   38) = (   0.2000000  -0.2000000  -0.2000000), wk =   0.0320000
        k(   39) = (   0.4000000   0.0000000   0.0000000), wk =   0.0320000
        k(   40) = (   0.4000000   0.0000000   0.2000000), wk =   0.0320000
        k(   41) = (   0.4000000   0.0000000   0.4000000), wk =   0.0320000
        k(   42) = (   0.4000000   0.0000000  -0.4000000), wk =   0.0320000
        k(   43) = (   0.4000000   0.0000000  -0.2000000), wk =   0.0320000
        k(   44) = (   0.4000000   0.2000000   0.0000000), wk =   0.0320000
        k(   45) = (   0.4000000   0.2000000   0.2000000), wk =   0.0320000
        k(   46) = (   0.4000000   0.2000000   0.4000000), wk =   0.0320000
        k(   47) = (   0.4000000   0.2000000  -0.4000000), wk =   0.0320000
        k(   48) = (   0.4000000   0.2000000  -0.2000000), wk =   0.0320000
        k(   49) = (   0.4000000   0.4000000   0.0000000), wk =   0.0320000
        k(   50) = (   0.4000000   0.4000000   0.2000000), wk =   0.0320000
        k(   51) = (   0.4000000   0.4000000   0.4000000), wk =   0.0320000
        k(   52) = (   0.4000000   0.4000000  -0.4000000), wk =   0.0320000
        k(   53) = (   0.4000000   0.4000000  -0.2000000), wk =   0.0320000
        k(   54) = (   0.4000000  -0.4000000   0.0000000), wk =   0.0320000
        k(   55) = (   0.4000000  -0.4000000   0.2000000), wk =   0.0320000
        k(   56) = (   0.4000000  -0.4000000   0.4000000), wk =   0.0320000
        k(   57) = (   0.4000000  -0.4000000  -0.4000000), wk =   0.0320000
        k(   58) = (   0.4000000  -0.4000000  -0.2000000), wk =   0.0320000
        k(   59) = (   0.4000000  -0.2000000   0.0000000), wk =   0.0320000
        k(   60) = (   0.4000000  -0.2000000   0.2000000), wk =   0.0320000
        k(   61) = (   0.4000000  -0.2000000   0.4000000), wk =   0.0320000
        k(   62) = (   0.4000000  -0.2000000  -0.4000000), wk =   0.0320000
        k(   63) = (   0.4000000  -0.2000000  -0.2000000), wk =   0.0320000

     Dense  grid:  3895379 G-vectors     FFT dimensions: ( 200, 200, 200)

     Smooth grid:   985619 G-vectors     FFT dimensions: ( 125, 125, 125)

     Dynamical RAM for                 wfc:     108.56 MB

     Dynamical RAM for     wfc (w. buffer):     325.69 MB

     Dynamical RAM for           str. fact:      14.86 MB

     Dynamical RAM for           local pot:       0.00 MB

     Dynamical RAM for          nlocal pot:    1082.81 MB

     Dynamical RAM for                qrad:      15.65 MB

     Dynamical RAM for          rho,v,vnew:      45.18 MB

     Dynamical RAM for               rhoin:      15.06 MB

     Dynamical RAM for            rho*nmix:     118.88 MB

     Dynamical RAM for           G-vectors:      28.80 MB

     Dynamical RAM for          h,s,v(r/c):      39.08 MB

     Dynamical RAM for          <psi|beta>:      32.48 MB

     Dynamical RAM for                 psi:     434.25 MB

     Dynamical RAM for                hpsi:     434.25 MB

     Dynamical RAM for                spsi:     434.25 MB

     Dynamical RAM for      wfcinit/wfcrot:     505.26 MB

     Dynamical RAM for           addusdens:      98.03 MB

     Dynamical RAM for          addusforce:     201.19 MB

     Dynamical RAM for         addusstress:      45.09 MB

     Estimated static dynamical RAM per process >       1.67 GB

     Estimated max dynamical RAM per process >       3.01 GB

     Estimated total dynamical RAM >     866.72 GB

     Initial potential from superposition of free atoms

     starting charge  769.41717, renormalised to  770.00000
     Starting wfcs are 1024 randomized atomic wfcs
     Checking if some PAW data can be deallocated... 
       PAW data deallocated on    4 nodes for type:  2

     total cpu time spent up to now is      200.1 secs

     Self-consistent Calculation

     iteration #  1     ecut=    40.00 Ry     beta= 0.40
     Davidson diagonalization with overlap
     ethr =  1.00E-02,  avg # of iterations =  3.0

     Threshold (ethr) on eigenvalues was too large:
     Diagonalizing with lowered threshold

     Davidson diagonalization with overlap
     ethr =  1.83E-04,  avg # of iterations =  7.7

     total cpu time spent up to now is      981.1 secs

     total energy              =  -10056.65828975 Ry
     Harris-Foulkes estimate   =  -10056.82291048 Ry
     estimated scf accuracy    <       1.42476191 Ry

     iteration #  2     ecut=    40.00 Ry     beta= 0.40
     Davidson diagonalization with overlap
     ethr =  1.85E-04,  avg # of iterations =  1.1

     total cpu time spent up to now is     1205.4 secs

     total energy              =  -10056.45500381 Ry
     Harris-Foulkes estimate   =  -10056.66436908 Ry
     estimated scf accuracy    <       0.74105165 Ry

     iteration #  3     ecut=    40.00 Ry     beta= 0.40
     Davidson diagonalization with overlap
     ethr =  9.62E-05,  avg # of iterations =  1.0

     total cpu time spent up to now is     1427.8 secs

     total energy              =  -10056.46594378 Ry
     Harris-Foulkes estimate   =  -10056.46882352 Ry
     estimated scf accuracy    <       0.00336933 Ry

     iteration #  4     ecut=    40.00 Ry     beta= 0.40
     Davidson diagonalization with overlap
     ethr =  4.38E-07,  avg # of iterations = 21.1

     total cpu time spent up to now is     2144.3 secs

     total energy              =  -10056.46893703 Ry
     Harris-Foulkes estimate   =  -10056.46888874 Ry
     estimated scf accuracy    <       0.00345012 Ry

     iteration #  5     ecut=    40.00 Ry     beta= 0.40
     Davidson diagonalization with overlap
     ethr =  4.38E-07,  avg # of iterations =  5.6

     total cpu time spent up to now is     2435.6 secs

     total energy              =  -10056.46832452 Ry
     Harris-Foulkes estimate   =  -10056.46893722 Ry
     estimated scf accuracy    <       0.00380074 Ry

     iteration #  6     ecut=    40.00 Ry     beta= 0.40
     Davidson diagonalization with overlap
     ethr =  4.38E-07,  avg # of iterations =  1.9

     total cpu time spent up to now is     2689.7 secs

     total energy              =  -10056.46846346 Ry
     Harris-Foulkes estimate   =  -10056.46847264 Ry
     estimated scf accuracy    <       0.00013909 Ry

     iteration #  7     ecut=    40.00 Ry     beta= 0.40
     Davidson diagonalization with overlap
     ethr =  1.81E-08,  avg # of iterations =  6.2

     total cpu time spent up to now is     3064.5 secs

     total energy              =  -10056.46848898 Ry
     Harris-Foulkes estimate   =  -10056.46848950 Ry
     estimated scf accuracy    <       0.00001755 Ry

     iteration #  8     ecut=    40.00 Ry     beta= 0.40
     Davidson diagonalization with overlap
     ethr =  2.28E-09,  avg # of iterations =  1.8

     total cpu time spent up to now is     3290.2 secs

     total energy              =  -10056.46848755 Ry
     Harris-Foulkes estimate   =  -10056.46848915 Ry
     estimated scf accuracy    <       0.00001144 Ry

     iteration #  9     ecut=    40.00 Ry     beta= 0.40
     Davidson diagonalization with overlap
     ethr =  1.49E-09,  avg # of iterations =  2.0

     total cpu time spent up to now is     3523.6 secs

     total energy              =  -10056.46848800 Ry
     Harris-Foulkes estimate   =  -10056.46848816 Ry
     estimated scf accuracy    <       0.00000072 Ry

     iteration # 10     ecut=    40.00 Ry     beta= 0.40
     Davidson diagonalization with overlap
     ethr =  9.36E-11,  avg # of iterations =  4.1

     total cpu time spent up to now is     3910.2 secs

     total energy              =  -10056.46848791 Ry
     Harris-Foulkes estimate   =  -10056.46848791 Ry
     estimated scf accuracy    <       0.00000193 Ry

     iteration # 11     ecut=    40.00 Ry     beta= 0.40
     Davidson diagonalization with overlap
     ethr =  9.36E-11,  avg # of iterations =  1.0

     total cpu time spent up to now is     4133.1 secs

     total energy              =  -10056.46848758 Ry
     Harris-Foulkes estimate   =  -10056.46848783 Ry
     estimated scf accuracy    <       0.00000197 Ry

     iteration # 12     ecut=    40.00 Ry     beta= 0.40
     Davidson diagonalization with overlap
     ethr =  9.36E-11,  avg # of iterations =  2.0

     total cpu time spent up to now is     4375.8 secs

     total energy              =  -10056.46848761 Ry
     Harris-Foulkes estimate   =  -10056.46848761 Ry
     estimated scf accuracy    <       0.00000008 Ry

     iteration # 13     ecut=    40.00 Ry     beta= 0.40
     Davidson diagonalization with overlap
     ethr =  1.04E-11,  avg # of iterations =  4.1

     total cpu time spent up to now is     4624.9 secs

     total energy              =  -10056.46848759 Ry
     Harris-Foulkes estimate   =  -10056.46848759 Ry
     estimated scf accuracy    <          9.7E-09 Ry

     iteration # 14     ecut=    40.00 Ry     beta= 0.40
     Davidson diagonalization with overlap
     ethr =  1.26E-12,  avg # of iterations =  4.8

     total cpu time spent up to now is     4966.9 secs

     total energy              =  -10056.46848750 Ry
     Harris-Foulkes estimate   =  -10056.46848749 Ry
     estimated scf accuracy    <          4.8E-09 Ry

     iteration # 15     ecut=    40.00 Ry     beta= 0.40
     Davidson diagonalization with overlap
     ethr =  6.18E-13,  avg # of iterations =  3.0

     total cpu time spent up to now is     5232.4 secs

     total energy              =  -10056.46848745 Ry
     Harris-Foulkes estimate   =  -10056.46848746 Ry
     estimated scf accuracy    <          4.5E-09 Ry

     iteration # 16     ecut=    40.00 Ry     beta= 0.40
     Davidson diagonalization with overlap
     ethr =  5.81E-13,  avg # of iterations =  1.0

     total cpu time spent up to now is     5456.0 secs

     total energy              =  -10056.46848744 Ry
     Harris-Foulkes estimate   =  -10056.46848744 Ry
     estimated scf accuracy    <          2.1E-09 Ry

     iteration # 17     ecut=    40.00 Ry     beta= 0.40
     Davidson diagonalization with overlap
     ethr =  2.78E-13,  avg # of iterations =  2.8

     total cpu time spent up to now is     5702.9 secs

     total energy              =  -10056.46848744 Ry
     Harris-Foulkes estimate   =  -10056.46848744 Ry
     estimated scf accuracy    <          2.0E-10 Ry

     iteration # 18     ecut=    40.00 Ry     beta= 0.40
     Davidson diagonalization with overlap
     ethr =  1.00E-13,  avg # of iterations =  1.0

     total cpu time spent up to now is     5926.1 secs

     total energy              =  -10056.46848743 Ry
     Harris-Foulkes estimate   =  -10056.46848743 Ry
     estimated scf accuracy    <          4.0E-11 Ry

     iteration # 19     ecut=    40.00 Ry     beta= 0.40
     Davidson diagonalization with overlap
     ethr =  1.00E-13,  avg # of iterations =  1.0

     total cpu time spent up to now is     6149.6 secs

     total energy              =  -10056.46848743 Ry
     Harris-Foulkes estimate   =  -10056.46848743 Ry
     estimated scf accuracy    <          3.4E-11 Ry

     iteration # 20     ecut=    40.00 Ry     beta= 0.40
     Davidson diagonalization with overlap
     ethr =  1.00E-13,  avg # of iterations =  1.0

     total cpu time spent up to now is     6373.3 secs

     total energy              =  -10056.46848743 Ry
     Harris-Foulkes estimate   =  -10056.46848743 Ry
     estimated scf accuracy    <          2.5E-11 Ry

     iteration # 21     ecut=    40.00 Ry     beta= 0.40
     Davidson diagonalization with overlap
     ethr =  1.00E-13,  avg # of iterations =  1.0

     total cpu time spent up to now is     6596.6 secs

     total energy              =  -10056.46848743 Ry
     Harris-Foulkes estimate   =  -10056.46848743 Ry
     estimated scf accuracy    <          6.2E-12 Ry

     iteration # 22     ecut=    40.00 Ry     beta= 0.40
     Davidson diagonalization with overlap
     ethr =  1.00E-13,  avg # of iterations =  1.0

     total cpu time spent up to now is     6820.7 secs

     total energy              =  -10056.46848742 Ry
     Harris-Foulkes estimate   =  -10056.46848742 Ry
     estimated scf accuracy    <          4.5E-12 Ry

     iteration # 23     ecut=    40.00 Ry     beta= 0.40
     Davidson diagonalization with overlap
     ethr =  1.00E-13,  avg # of iterations =  1.0

     total cpu time spent up to now is     7043.8 secs

     total energy              =  -10056.46848742 Ry
     Harris-Foulkes estimate   =  -10056.46848742 Ry
     estimated scf accuracy    <          1.0E-12 Ry

     iteration # 24     ecut=    40.00 Ry     beta= 0.40
     Davidson diagonalization with overlap
     ethr =  1.00E-13,  avg # of iterations =  1.0

     total cpu time spent up to now is     7266.4 secs

     End of self-consistent calculation

          k = 0.0000 0.0000 0.0000 (123065 PWs)   bands (ev):

    -3.3204  -2.9054  -2.8026  -2.6996  -2.6993  -2.6988  -2.6982  -2.3582
    -2.3314  -2.1455  -2.1454  -2.1442  -2.1409  -2.1409  -2.1387  -2.1387
    -2.1387  -2.1384  -2.1383  -1.7226  -1.6751  -1.5912  -1.5909  -1.5864
    -1.5862  -1.5813  -1.5813  -1.1888  -1.0900  -1.0380  -1.0318  -1.0317
    -1.0288  -0.7835  -0.6909  -0.5218  -0.5054  -0.5047  -0.4974  -0.4936
    -0.4816  -0.4763  -0.4760  -0.4758  -0.4754  -0.4752  -0.4752  -0.4747
    -0.4746  -0.4743  -0.4743  -0.4734  -0.4733  -0.4730  -0.4722  -0.4720
    -0.4712  -0.0950  -0.0783   0.0341   0.0411   0.0416   0.0532   0.0538
     0.0622   0.0743   0.0743   0.0744   0.0755   0.0756   0.0759   0.0762
     0.0767   0.0768   0.0770   0.0771   0.0775   0.0776   0.0777   0.0781
     0.0786   1.0194   1.0340   1.1429   1.1484   1.1491   1.1515   1.1612
     1.1661   1.1703   1.1705   1.1705   1.1727   1.4860   1.5012   1.6441
     1.6594   1.6630   1.6652   1.6700   1.6865   1.7045   1.7063   1.7075
     1.7083   1.7098   1.7109   1.7113   1.7125   1.7127   1.7131   1.7134
     1.7149   1.7149   1.7158   1.7159   1.7160   1.7162   1.7165   1.7169
     1.7169   1.7169   1.7171   2.1073   2.1175   2.1962   2.2059   2.2127
     2.2151   2.2249   2.2254   2.2431   2.2449   2.2460   2.2467   2.2478
     2.2486   2.2494   2.2494   2.2495   2.2508   2.2511   2.2515   2.2518
     2.2519   2.2524   2.2536   2.6610   2.6839   2.7428   2.7485   2.7487
     2.7503   2.7563   2.7590   2.7830   2.7831   2.7833   2.7835   2.7847
     2.7848   2.7886   2.7886   2.7902   2.7902   2.7903   2.7904   2.7912
     2.7912   2.7936   2.7936   3.2234   3.2258   3.2344   3.2358   3.3658
     3.3844   3.4291   3.4293   3.6960   3.7574   3.7808   3.7863   3.8026
     3.8352   3.8359   3.8412   3.8530   3.8543   3.8560   3.8574   3.8587
     3.8591   3.8603   3.8605   3.8615   3.8618   3.8624   3.8634   3.8636
     3.8656   3.8657   3.8659   4.1817   4.2149   4.2154   4.2211   4.2218
     4.2571   4.2809   4.2823   4.2847   4.2862   4.2870   4.2875   4.2878
     4.2881   4.2881   4.2886   4.2888   4.2889   4.2892   4.2895   4.2897
     4.2898   4.2898   4.2900   4.2981   4.3495   4.4974   4.4995   4.5015
     4.5033   4.5054   4.5060   4.5094   4.5101   4.5162   4.5164   4.5165
     4.5180   4.5189   4.5189   4.5201   4.5207   4.5208   4.5209   4.5210
     4.5212   4.5213   4.5225   4.8787   4.8791   4.8795   5.3367   5.3530
     5.3559   5.3835   5.3855   5.4021   5.4168   5.4168   5.4172   5.4173
     5.4173   5.4174   5.8296   5.8496   5.8551   5.8650   5.8741   5.8758
     5.8878   5.8927   5.9310   5.9314   5.9316   5.9320   5.9323   5.9336
     5.9647   5.9668   5.9676   5.9773   5.9872   5.9874   5.9946   5.9969
     5.9985   6.0021   6.0021   6.0026   6.0047   6.0050   6.0051   6.0053
     6.0057   6.0061   6.0063   6.0064   6.0066   6.0068   6.1632   6.1767
     6.1937   6.4057   6.4095   6.4156   6.4267   6.4305   6.4411   6.4427
     6.4497   6.4510   6.4519   6.4527   6.4567   6.6075   6.6178   6.7235
     6.7245   6.7295   6.7300   6.7345   6.7348   6.7356   6.7369   6.7393
     6.7398   6.8842   6.8852   6.8942   6.9069   6.9299   6.9356   6.9583
     6.9600   6.9638   6.9640   6.9646   6.9673   6.9677   6.9679   7.0024
     7.0111   7.0148   7.0193   7.0304   7.0308   7.0382   7.0384   7.0410
     7.0412   7.0436   7.0438   7.0444   7.0446   7.0465   7.0466   7.0478
     7.0479   7.0482   7.0483   7.0499   7.0500   7.2624   7.2937   7.3711
     7.3728   7.3734   7.3749   7.3772   7.3784   7.3786   7.3788   7.3790
     7.3796   7.4022   7.4051   7.4162   7.4234   7.4393   7.4421   7.4721
     7.4722   7.4730   7.4752   7.4765   7.4784   7.4805   7.4807   7.4814
     7.4835   7.4838   7.4838   7.4842   7.4844   7.4851   7.4861   7.4864
     7.4881   7.9654   7.9688   7.9707   7.9710   7.9780   7.9872   8.4284
     8.4628   8.5424   8.5435   8.5576   8.5791   8.5820   8.5876   8.6137
     8.6151   8.6191   8.6196   8.6202   8.6206   8.6250   8.6255   8.6260
     8.6263   8.6263   8.6266   8.6268   8.6273   8.6274   8.6275   8.6965
     8.7561   8.8395   8.8399   8.8400   8.8401   8.8753   8.8758   8.8826
     8.8864   8.8923   8.9086   8.9087   8.9100   8.9144   8.9195   8.9200
     8.9230   8.9268   8.9283   8.9284   8.9288   8.9289   8.9290   8.9291
     8.9297   8.9304   8.9309   8.9329   8.9329   9.0025

     occupation numbers 
     1.0000   1.0000   1.0000   1.0000   1.0000   1.0000   1.0000   1.0000
     1.0000   1.0000   1.0000   1.0000   1.0000   1.0000   1.0000   1.0000
     1.0000   1.0000   1.0000   1.0000   1.0000   1.0000   1.0000   1.0000
     1.0000   1.0000   1.0000   1.0000   1.0000   1.0000   1.0000   1.0000
     1.0000   1.0000   1.0000   1.0000   1.0000   1.0000   1.0000   1.0000
     1.0000   1.0000   1.0000   1.0000   1.0000   1.0000   1.0000   1.0000
     1.0000   1.0000   1.0000   1.0000   1.0000   1.0000   1.0000   1.0000
     1.0000   1.0000   1.0000   1.0000   1.0000   1.0000   1.0000   1.0000
     1.0000   1.0000   1.0000   1.0000   1.0000   1.0000   1.0000   1.0000
     1.0000   1.0000   1.0000   1.0000   1.0000   1.0000   1.0000   1.0000
     1.0000   1.0000   1.0000   1.0000   1.0000   1.0000   1.0000   1.0000
     1.0000   1.0000   1.0000   1.0000   1.0000   1.0000   1.0000   1.0000
     1.0000   1.0000   1.0000   1.0000   1.0000   1.0000   1.0000   1.0000
     1.0000   1.0000   1.0000   1.0000   1.0000   1.0000   1.0000   1.0000
     1.0000   1.0000   1.0000   1.0000   1.0000   1.0000   1.0000   1.0000
     1.0000   1.0000   1.0000   1.0000   1.0000   1.0000   1.0000   1.0000
     1.0000   1.0000   1.0000   1.0000   1.0000   1.0000   1.0000   1.0000
     1.0000   1.0000   1.0000   1.0000   1.0000   1.0000   1.0000   1.0000
     1.0000   1.0000   1.0000   1.0000   1.0000   1.0000   1.0000   1.0000
     1.0000   1.0000   1.0000   1.0000   1.0000   1.0000   1.0000   1.0000
     1.0000   1.0000   1.0000   1.0000   1.0000   1.0000   1.0000   1.0000
     1.0000   1.0000   1.0000   1.0000   1.0000   1.0000   1.0000   1.0000
     1.0000   1.0000   1.0000   1.0000   1.0000   1.0000   1.0000   1.0000
     1.0000   1.0000   1.0000   1.0000   1.0000   1.0000   1.0000   1.0000
     1.0000   1.0000   1.0000   1.0000   1.0000   1.0000   1.0000   1.0000
     1.0000   1.0000   1.0000   1.0000   1.0000   1.0000   1.0000   1.0000
     1.0000   1.0000   1.0000   1.0000   1.0000   1.0000   1.0000   1.0000
     1.0000   1.0000   1.0000   1.0000   1.0000   1.0000   1.0000   1.0000
     1.0000   1.0000   1.0000   1.0000   1.0000   1.0000   1.0000   1.0000
     1.0000   1.0000   1.0000   1.0000   1.0000   1.0000   1.0000   1.0000
     1.0000   1.0000   1.0000   1.0000   1.0000   1.0000   1.0000   1.0000
     1.0000   1.0000   1.0000   1.0000   1.0000   1.0000   1.0000   1.0000
     1.0000   1.0000   1.0000   1.0000   1.0000   1.0000   1.0000   1.0000
     1.0000   1.0000   1.0000   1.0000   1.0000   1.0000   1.0000   1.0000
     1.0000   1.0000   1.0000   1.0000   1.0000   1.0000   1.0000   1.0000
     1.0001   1.0001   1.0001   1.0001   1.0001   1.0001   1.0001   1.0001
     1.0001   1.0001   1.0001   1.0001   1.0001   1.0001   1.0001   1.0001
     1.0001   1.0001   1.0001   1.0001   1.0001   1.0001   1.0004   1.0004
     1.0005   1.0025   1.0025   1.0026   1.0028   1.0029   1.0031   1.0031
     1.0033   1.0033   1.0033   1.0034   1.0034   1.0083   1.0088   1.0147
     1.0147   1.0151   1.0151   1.0154   1.0154   1.0155   1.0156   1.0157
     1.0158   1.0265   1.0266   1.0272   1.0282   1.0298   1.0302   1.0317
     1.0318   1.0320   1.0320   1.0321   1.0322   1.0323   1.0323   1.0340
     1.0344   1.0345   1.0347   1.0350   1.0350   1.0352   1.0352   1.0352
     1.0352   1.0353   1.0353   1.0353   1.0353   1.0353   1.0353   1.0353
     1.0353   1.0353   1.0353   1.0354   1.0354   1.0106   1.0003   0.9648
     0.9638   0.9634   0.9626   0.9613   0.9606   0.9605   0.9604   0.9603
     0.9599   0.9460   0.9442   0.9368   0.9318   0.9203   0.9181   0.8943
     0.8942   0.8935   0.8917   0.8906   0.8889   0.8872   0.8869   0.8864
     0.8845   0.8842   0.8842   0.8839   0.8837   0.8831   0.8823   0.8819
     0.8805   0.2758   0.2716   0.2693   0.2688   0.2604   0.2493  -0.0294
    -0.0329  -0.0354  -0.0354  -0.0352  -0.0347  -0.0346  -0.0344  -0.0332
    -0.0332  -0.0329  -0.0329  -0.0329  -0.0329  -0.0326  -0.0326  -0.0326
    -0.0326  -0.0326  -0.0325  -0.0325  -0.0325  -0.0325  -0.0325  -0.0279
    -0.0233  -0.0171  -0.0171  -0.0171  -0.0171  -0.0147  -0.0147  -0.0142
    -0.0140  -0.0136  -0.0126  -0.0126  -0.0126  -0.0123  -0.0120  -0.0120
    -0.0118  -0.0116  -0.0115  -0.0115  -0.0115  -0.0115  -0.0115  -0.0115
    -0.0114  -0.0114  -0.0114  -0.0113  -0.0113  -0.0079

          k = 0.0000 0.0000 0.2000 (123202 PWs)   bands (ev):

    -3.3005  -2.9782  -2.8022  -2.7611  -2.6770  -2.6762  -2.5050  -2.4466
    -2.3917  -2.3413  -2.3406  -2.2032  -2.1718  -2.1197  -2.1196  -1.9735
    -1.9476  -1.8950  -1.8942  -1.8315  -1.8160  -1.7853  -1.7852  -1.5006
    -1.4167  -1.3864  -1.3409  -1.3407  -1.1444  -1.0504  -1.0160  -1.0077
    -0.9533  -0.9360  -0.8957  -0.8950  -0.7772  -0.7056  -0.6845  -0.6761
    -0.6037  -0.5654  -0.5180  -0.4755  -0.4660  -0.4631  -0.4550  -0.4525
    -0.4517  -0.3826  -0.3754  -0.3451  -0.3449  -0.2872  -0.2622  -0.2423
    -0.2347  -0.1863  -0.1584  -0.1409  -0.1336  -0.1313  -0.1243  -0.1219
    -0.1211  -0.0571  -0.0383  -0.0133  -0.0127   0.2262   0.2690   0.2971
     0.3053   0.3081   0.3152   0.3177   0.3185   0.4963   0.5044   0.5338
     0.5339   0.6858   0.7280   0.7454   0.7533   1.0339   1.1014   1.1341
     1.1801   1.1813   1.2226   1.2511   1.2810   1.2894   1.2921   1.2994
     1.3018   1.3027   1.4534   1.4796   1.5077   1.5096   1.5550   1.5852
     1.5931   1.6074   1.6168   1.6232   1.6241   1.6251   1.6953   1.7014
     1.7153   1.7215   1.8920   1.9000   1.9421   1.9431   2.0074   2.0131
     2.0394   2.0454   2.0836   2.1140   2.1342   2.1380   2.1471   2.1568
     2.1576   2.1640   2.1655   2.1681   2.1704   2.1713   2.2317   2.2381
     2.2522   2.2535   2.2632   2.2639   2.2700   2.2701   2.3548   2.4558
     2.4603   2.4734   2.4786   2.5451   2.5543   2.5752   2.5781   2.5862
     2.5874   2.5940   2.5942   2.8443   2.8685   2.8885   2.8924   2.9093
     2.9106   2.9124   2.9134   2.9801   2.9886   3.0061   3.0077   3.0173
     3.0179   3.0246   3.0247   3.1787   3.2202   3.2353   3.2433   3.3952
     3.4045   3.4248   3.4289   3.4387   3.4453   3.4473   3.4494   3.6678
     3.7113   3.7341   3.7499   3.7544   3.7632   3.7681   3.7711   3.7732
     3.7741   3.7930   3.7940   3.8362   3.8458   3.8566   3.8594   3.8709
     3.8777   3.8821   3.8837   3.9423   3.9485   3.9625   3.9656   3.9746
     3.9752   3.9806   3.9807   4.1495   4.1548   4.1661   4.1735   4.1836
     4.1892   4.1933   4.1948   4.2653   4.2803   4.2972   4.3021   4.4508
     4.4698   4.4906   4.5056   4.5135   4.5871   4.6095   4.6257   4.6334
     4.6396   4.6478   4.6530   4.6541   4.8065   4.8119   4.8429   4.8510
     4.8534   4.8584   4.8659   4.8662   4.9040   4.9049   4.9515   4.9789
     5.0085   5.0171   5.0176   5.0370   5.0600   5.0659   5.0672   5.0717
     5.0738   5.0744   5.2043   5.2068   5.3328   5.3469   5.3773   5.3837
     5.4046   5.4105   5.4168   5.4308   5.4888   5.4978   5.5309   5.5315
     5.5558   5.5606   5.5747   5.5796   5.5863   5.5960   5.6011   5.6025
     5.6268   5.6288   5.7187   5.7246   5.7321   5.7410   5.8471   5.8582
     5.8688   5.8745   6.1223   6.1347   6.1384   6.1523   6.1729   6.1811
     6.3265   6.3448   6.3818   6.3882   6.4070   6.4164   6.4206   6.4238
     6.4375   6.4385   6.4410   6.4423   6.4423   6.4437   6.4487   6.4495
     6.4952   6.4993   6.5001   6.5027   6.5251   6.5301   6.5378   6.5537
     6.5562   6.5628   6.5730   6.5771   6.5982   6.6165   6.6437   6.6442
     6.6446   6.7125   6.7350   6.7506   6.7527   6.8264   6.8311   6.8367
     6.8389   6.8736   6.8763   6.8890   6.8894   6.9490   6.9493   6.9523
     6.9633   6.9672   6.9831   7.0366   7.0601   7.0669   7.0712   7.0740
     7.0836   7.1038   7.1088   7.1101   7.1137   7.1138   7.1152   7.1159
     7.1369   7.1738   7.1752   7.2417   7.2454   7.2492   7.2616   7.2769
     7.2850   7.2852   7.2945   7.3249   7.3519   7.3753   7.3766   7.3872
     7.3904   7.5252   7.5531   7.5804   7.5834   7.6378   7.6420   7.6525
     7.6711   7.6726   7.6744   7.6865   7.6873   7.6956   7.6980   7.6989
     7.7080   7.7484   7.7506   7.7777   7.7778   7.8058   7.8110   7.8872
     7.8961   7.9020   7.9126   7.9561   7.9808   7.9964   8.0047   8.0121
     8.0178   8.0233   8.0242   8.1751   8.1840   8.1860   8.2007   8.2094
     8.2145   8.2163   8.2181   8.4609   8.4939   8.5251   8.5282   8.6048
     8.6176   8.6211   8.6392   8.6409   8.6467   8.6726   8.6729   8.6743
     8.7037   8.7173   8.7235   8.8725   8.9271   8.9325   8.9415   9.0356
     9.0412   9.0432   9.0481   9.0562   9.0611   9.0675   9.0691   9.1296
     9.1428   9.1507   9.1545   9.1608   9.1687   9.1968   9.2003   9.2100
     9.2205   9.2361   9.2418   9.2463   9.2573   9.2623

     occupation numbers 
     1.0000   1.0000   1.0000   1.0000   1.0000   1.0000   1.0000   1.0000
     1.0000   1.0000   1.0000   1.0000   1.0000   1.0000   1.0000   1.0000
     1.0000   1.0000   1.0000   1.0000   1.0000   1.0000   1.0000   1.0000
     1.0000   1.0000   1.0000   1.0000   1.0000   1.0000   1.0000   1.0000
     1.0000   1.0000   1.0000   1.0000   1.0000   1.0000   1.0000   1.0000
     1.0000   1.0000   1.0000   1.0000   1.0000   1.0000   1.0000   1.0000
     1.0000   1.0000   1.0000   1.0000   1.0000   1.0000   1.0000   1.0000
     1.0000   1.0000   1.0000   1.0000   1.0000   1.0000   1.0000   1.0000
     1.0000   1.0000   1.0000   1.0000   1.0000   1.0000   1.0000   1.0000
     1.0000   1.0000   1.0000   1.0000   1.0000   1.0000   1.0000   1.0000
     1.0000   1.0000   1.0000   1.0000   1.0000   1.0000   1.0000   1.0000
     1.0000   1.0000   1.0000   1.0000   1.0000   1.0000   1.0000   1.0000
     1.0000   1.0000   1.0000   1.0000   1.0000   1.0000   1.0000   1.0000
     1.0000   1.0000   1.0000   1.0000   1.0000   1.0000   1.0000   1.0000
     1.0000   1.0000   1.0000   1.0000   1.0000   1.0000   1.0000   1.0000
     1.0000   1.0000   1.0000   1.0000   1.0000   1.0000   1.0000   1.0000
     1.0000   1.0000   1.0000   1.0000   1.0000   1.0000   1.0000   1.0000
     1.0000   1.0000   1.0000   1.0000   1.0000   1.0000   1.0000   1.0000
     1.0000   1.0000   1.0000   1.0000   1.0000   1.0000   1.0000   1.0000
     1.0000   1.0000   1.0000   1.0000   1.0000   1.0000   1.0000   1.0000
     1.0000   1.0000   1.0000   1.0000   1.0000   1.0000   1.0000   1.0000
     1.0000   1.0000   1.0000   1.0000   1.0000   1.0000   1.0000   1.0000
     1.0000   1.0000   1.0000   1.0000   1.0000   1.0000   1.0000   1.0000
     1.0000   1.0000   1.0000   1.0000   1.0000   1.0000   1.0000   1.0000
[...]
     atom   75 type  2   force =     0.00000000   -0.00000002   -0.00000000
     atom   76 type  2   force =    -0.00000002   -0.00000001    0.00000003
     atom   77 type  2   force =    -0.00000000    0.00000002   -0.00000002
     atom   78 type  2   force =    -0.00000004   -0.00000000   -0.00000001
     atom   79 type  2   force =    -0.00000002    0.00000001    0.00000000
     atom   80 type  2   force =    -0.00000000   -0.00000001   -0.00000003
     atom   81 type  2   force =    -0.00000001   -0.00000003   -0.00000002
     atom   82 type  2   force =     0.00000001    0.00000003   -0.00000000
     atom   83 type  2   force =     0.00000001    0.00000000    0.00000001
     atom   84 type  2   force =     0.00000001    0.00000002    0.00000000
     atom   85 type  2   force =     0.00000000   -0.00000000    0.00000002
     atom   86 type  2   force =     0.00000000    0.00000001    0.00000003
     atom   87 type  2   force =     0.00000000    0.00000001    0.00000001
     atom   88 type  2   force =     0.00000001    0.00000003    0.00000002
     atom   89 type  2   force =     0.00000000   -0.00000001    0.00000000
     atom   90 type  2   force =     0.00000002    0.00000003   -0.00000000
     atom   91 type  2   force =    -0.00000000   -0.00000000    0.00000002
     atom   92 type  2   force =     0.00000001   -0.00000001    0.00000001
     atom   93 type  2   force =    -0.00000002   -0.00000002   -0.00000001
     atom   94 type  2   force =     0.00000001   -0.00000000   -0.00000002
     atom   95 type  2   force =    -0.00000003   -0.00000001   -0.00000003
     atom   96 type  2   force =    -0.00000000    0.00000000   -0.00000003
     atom   97 type  2   force =     0.00000000    0.00000004   -0.00000001
     atom   98 type  2   force =    -0.00000003   -0.00000002   -0.00000001
     atom   99 type  2   force =    -0.00000001    0.00000001   -0.00000001
     atom  100 type  2   force =    -0.00000001    0.00000001   -0.00000001
     atom  101 type  2   force =    -0.00000000    0.00000002    0.00000003
     atom  102 type  2   force =    -0.00000001    0.00000001    0.00000001
     atom  103 type  2   force =    -0.00000000    0.00000001    0.00000004
     atom  104 type  2   force =     0.00000000   -0.00000001    0.00000002
     atom  105 type  2   force =     0.00000002    0.00000002   -0.00000002
     atom  106 type  2   force =     0.00000003    0.00000000    0.00000002
     atom  107 type  2   force =     0.00000004    0.00000003   -0.00000002
     atom  108 type  2   force =     0.00000004    0.00000001   -0.00000002
     atom  109 type  2   force =     0.00000000    0.00000000   -0.00000000
     atom  110 type  2   force =     0.00000003    0.00000001   -0.00000003
     atom  111 type  2   force =     0.00000001    0.00000001   -0.00000001
     atom  112 type  2   force =    -0.00000002    0.00000000    0.00000001
     atom  113 type  2   force =    -0.00000001   -0.00000002    0.00000000
     atom  114 type  2   force =    -0.00000003    0.00000002   -0.00000001
     atom  115 type  2   force =    -0.00000004   -0.00000001    0.00000001
     atom  116 type  2   force =     0.00000001    0.00000000    0.00000000
     atom  117 type  2   force =    -0.00000001   -0.00000001   -0.00000000
     atom  118 type  2   force =    -0.00000004   -0.00000001    0.00000001
     atom  119 type  2   force =     0.00000002   -0.00000002    0.00000004
     atom  120 type  2   force =     0.00000000    0.00000000   -0.00000001
     atom  121 type  2   force =     0.00000003   -0.00000002    0.00000001
     atom  122 type  2   force =     0.00000003   -0.00000002    0.00000003
     atom  123 type  2   force =     0.00000004   -0.00000001   -0.00000002
     atom  124 type  2   force =     0.00000002    0.00000001    0.00000001
     atom  125 type  2   force =     0.00000001   -0.00000001   -0.00000001
     atom  126 type  2   force =     0.00000001   -0.00000000   -0.00000003
     atom  127 type  2   force =    -0.00000001   -0.00000001   -0.00000002
     atom  128 type  2   force =     0.00000001    0.00000001   -0.00000000
     atom  129 type  2   force =    -0.00000002    0.00000001   -0.00000003
     atom  130 type  2   force =     0.00000001    0.00000000    0.00000000
     atom  131 type  2   force =     0.00000000    0.00000001   -0.00000001
     atom  132 type  2   force =    -0.00000000    0.00000001   -0.00000000
     atom  133 type  2   force =    -0.00000002    0.00000002    0.00000002
     atom  134 type  2   force =     0.00000002    0.00000003    0.00000002
     atom  135 type  2   force =     0.00000000    0.00000002    0.00000004
     atom  136 type  2   force =    -0.00000000    0.00000001    0.00000003
     atom  137 type  2   force =    -0.00000000   -0.00000002    0.00000003
     atom  138 type  2   force =    -0.00000001    0.00000000    0.00000001
     atom  139 type  2   force =    -0.00000002   -0.00000001    0.00000000
     atom  140 type  2   force =     0.00000001   -0.00000001   -0.00000002
     atom  141 type  2   force =    -0.00000000   -0.00000003   -0.00000002
     atom  142 type  2   force =     0.00000001   -0.00000001   -0.00000004
     atom  143 type  2   force =     0.00000000   -0.00000003   -0.00000003
     atom  144 type  2   force =    -0.00000003   -0.00000003   -0.00000000
     atom  145 type  2   force =    -0.00000000    0.00000000    0.00000001
     atom  146 type  2   force =     0.00000003    0.00000000   -0.00000000
     atom  147 type  2   force =     0.00000003    0.00000001    0.00000001
     atom  148 type  2   force =    -0.00000001    0.00000000    0.00000000
     atom  149 type  2   force =     0.00000001    0.00000001    0.00000002
     atom  150 type  2   force =     0.00000002   -0.00000001    0.00000003
     atom  151 type  2   force =     0.00000001    0.00000001    0.00000001
     atom  152 type  2   force =     0.00000002    0.00000002    0.00000003
     atom  153 type  2   force =     0.00000002    0.00000001    0.00000001
     atom  154 type  2   force =    -0.00000001    0.00000003    0.00000001
     atom  155 type  2   force =    -0.00000001    0.00000001   -0.00000001
     atom  156 type  2   force =     0.00000002    0.00000003   -0.00000001
     atom  157 type  2   force =    -0.00000001    0.00000002   -0.00000004
     atom  158 type  2   force =     0.00000000    0.00000003   -0.00000003
     atom  159 type  2   force =     0.00000003    0.00000002   -0.00000001
     atom  160 type  2   force =    -0.00000000    0.00000003   -0.00000002
     atom  161 type  2   force =    -0.00000002   -0.00000000   -0.00000002
     atom  162 type  2   force =    -0.00000001   -0.00000002   -0.00000002
     atom  163 type  2   force =     0.00000001   -0.00000002   -0.00000000
     atom  164 type  2   force =    -0.00000003   -0.00000001    0.00000001
     atom  165 type  2   force =    -0.00000001    0.00000000    0.00000003
     atom  166 type  2   force =    -0.00000001    0.00000001    0.00000004
     atom  167 type  2   force =    -0.00000000   -0.00000001    0.00000005
     atom  168 type  2   force =    -0.00000000    0.00000001    0.00000005
     atom  169 type  2   force =     0.00000001    0.00000002    0.00000002
     atom  170 type  2   force =    -0.00000003   -0.00000001    0.00000002
     atom  171 type  2   force =    -0.00000002    0.00000001   -0.00000001
     atom  172 type  2   force =     0.00000000    0.00000001   -0.00000002
     atom  173 type  2   force =     0.00000001    0.00000002   -0.00000004
     atom  174 type  2   force =    -0.00000002   -0.00000001   -0.00000005
     atom  175 type  2   force =    -0.00000000   -0.00000000   -0.00000004
     atom  176 type  2   force =    -0.00000000   -0.00000001   -0.00000004
     atom  177 type  2   force =    -0.00000001   -0.00000000   -0.00000002
     atom  178 type  2   force =     0.00000000    0.00000001   -0.00000004
     atom  179 type  2   force =     0.00000000   -0.00000001    0.00000002
     atom  180 type  2   force =    -0.00000002   -0.00000000   -0.00000001
     atom  181 type  2   force =    -0.00000001   -0.00000002    0.00000004
     atom  182 type  2   force =     0.00000000   -0.00000002    0.00000002
     atom  183 type  2   force =    -0.00000003   -0.00000002    0.00000004
     atom  184 type  2   force =    -0.00000001   -0.00000003    0.00000006
     atom  185 type  2   force =    -0.00000001   -0.00000001    0.00000004
     atom  186 type  2   force =    -0.00000004   -0.00000003    0.00000003
     atom  187 type  2   force =    -0.00000004   -0.00000001   -0.00000000
     atom  188 type  2   force =     0.00000000   -0.00000003   -0.00000001
     atom  189 type  2   force =     0.00000001   -0.00000000   -0.00000005
     atom  190 type  2   force =    -0.00000001   -0.00000001   -0.00000002
     atom  191 type  2   force =    -0.00000001    0.00000002   -0.00000005
     atom  192 type  2   force =     0.00000000    0.00000001   -0.00000004
     atom  193 type  2   force =    -0.00000001    0.00000001   -0.00000002
     atom  194 type  2   force =     0.00000003    0.00000003   -0.00000001
     atom  195 type  2   force =     0.00000003    0.00000003    0.00000002
     atom  196 type  2   force =     0.00000001    0.00000004    0.00000001
     atom  197 type  2   force =     0.00000004    0.00000003    0.00000003
     atom  198 type  2   force =    -0.00000000   -0.00000000    0.00000003
     atom  199 type  2   force =     0.00000001    0.00000003   -0.00000000
     atom  200 type  2   force =     0.00000002    0.00000000   -0.00000001
     atom  201 type  2   force =     0.00000000    0.00000001   -0.00000001
     atom  202 type  2   force =     0.00000000   -0.00000002   -0.00000002
     atom  203 type  2   force =     0.00000002    0.00000001    0.00000001
     atom  204 type  2   force =    -0.00000001    0.00000000    0.00000001
     atom  205 type  2   force =    -0.00000000   -0.00000002   -0.00000000
     atom  206 type  2   force =     0.00000001    0.00000000   -0.00000000
     atom  207 type  2   force =     0.00000001    0.00000001   -0.00000003
     atom  208 type  2   force =     0.00000003    0.00000001   -0.00000001
     atom  209 type  2   force =     0.00000003    0.00000001    0.00000000
     atom  210 type  2   force =    -0.00000001   -0.00000001   -0.00000002
     atom  211 type  2   force =    -0.00000001   -0.00000000   -0.00000000
     atom  212 type  2   force =     0.00000002   -0.00000002   -0.00000000
     atom  213 type  2   force =     0.00000001   -0.00000000    0.00000001
     atom  214 type  2   force =    -0.00000001    0.00000000    0.00000001
     atom  215 type  2   force =    -0.00000002   -0.00000002   -0.00000002
     atom  216 type  2   force =    -0.00000002    0.00000001    0.00000001
     atom  217 type  2   force =    -0.00000003    0.00000000   -0.00000000
     atom  218 type  2   force =    -0.00000002    0.00000003   -0.00000001
     atom  219 type  2   force =    -0.00000001   -0.00000002    0.00000002
     atom  220 type  2   force =    -0.00000004    0.00000002   -0.00000001
     atom  221 type  2   force =     0.00000000   -0.00000000   -0.00000000
     atom  222 type  2   force =     0.00000000    0.00000001    0.00000003
     atom  223 type  2   force =     0.00000001    0.00000000    0.00000001
     atom  224 type  2   force =     0.00000002    0.00000001   -0.00000000
     atom  225 type  2   force =     0.00000002   -0.00000003   -0.00000001
     atom  226 type  2   force =     0.00000002   -0.00000003   -0.00000002
     atom  227 type  2   force =    -0.00000000   -0.00000003   -0.00000001
     atom  228 type  2   force =     0.00000000   -0.00000001    0.00000000
     atom  229 type  2   force =     0.00000001   -0.00000003    0.00000003
     atom  230 type  2   force =     0.00000002   -0.00000002    0.00000002
     atom  231 type  2   force =     0.00000000   -0.00000001    0.00000001
     atom  232 type  2   force =    -0.00000002   -0.00000002    0.00000003
     atom  233 type  2   force =    -0.00000003   -0.00000000    0.00000000
     atom  234 type  2   force =    -0.00000002   -0.00000001    0.00000001
     atom  235 type  2   force =    -0.00000002    0.00000002   -0.00000000
     atom  236 type  2   force =    -0.00000003   -0.00000001   -0.00000000
     atom  237 type  2   force =    -0.00000002    0.00000001   -0.00000001
     atom  238 type  2   force =    -0.00000000   -0.00000001   -0.00000000
     atom  239 type  2   force =     0.00000002   -0.00000001   -0.00000001
     atom  240 type  2   force =     0.00000000   -0.00000002   -0.00000004
     atom  241 type  2   force =    -0.00000000    0.00000001   -0.00000002
     atom  242 type  2   force =     0.00000001    0.00000001   -0.00000002
     atom  243 type  2   force =     0.00000001   -0.00000000    0.00000001
     atom  244 type  2   force =    -0.00000000   -0.00000000    0.00000001
     atom  245 type  2   force =    -0.00000001   -0.00000000    0.00000002
     atom  246 type  2   force =     0.00000002    0.00000002    0.00000003
     atom  247 type  2   force =     0.00000001    0.00000000    0.00000002
     atom  248 type  2   force =     0.00000001    0.00000000    0.00000002
     atom  249 type  2   force =    -0.00000003   -0.00000002    0.00000002
     atom  250 type  2   force =     0.00000001    0.00000000    0.00000000
     atom  251 type  2   force =    -0.00000001    0.00000000    0.00000001
     atom  252 type  2   force =    -0.00000002   -0.00000001    0.00000002
     atom  253 type  2   force =    -0.00000001    0.00000001   -0.00000002
     atom  254 type  2   force =    -0.00000001   -0.00000000   -0.00000001
     atom  255 type  2   force =     0.00000000    0.00000000   -0.00000004
     atom  256 type  2   force =    -0.00000002   -0.00000000   -0.00000005

     Total force =     0.004393     Total SCF correction =     0.000001


     Computing stress (Cartesian axis) and pressure

          total   stress  (Ry/bohr**3)                   (kbar)     P=  -10.88
  -0.00007401   0.00000006  -0.00000002        -10.89      0.01     -0.00
   0.00000006  -0.00007394   0.00000005          0.01    -10.88      0.01
  -0.00000002   0.00000005  -0.00007401         -0.00      0.01    -10.89

     kinetic stress (kbar)   1443.54      0.01      0.00
                                0.01   1443.56      0.01
                                0.00      0.01   1443.54

     local   stress (kbar)    625.57     -0.87     -0.49
                               -0.87    623.85     -0.87
                               -0.49     -0.87    625.57

     nonloc. stress (kbar)   1044.21     -0.00     -0.00
                               -0.00   1044.21     -0.00
                               -0.00     -0.00   1044.21

     hartree stress (kbar)      4.32      0.42      0.23
                                0.42      5.15      0.42
                                0.23      0.42      4.32

     exc-cor stress (kbar)    524.88     -0.00     -0.00
                               -0.00    524.88     -0.00
                               -0.00     -0.00    524.88

     corecor stress (kbar)  -1298.31      0.00      0.00
                                0.00  -1298.31      0.00
                                0.00      0.00  -1298.31

     ewald   stress (kbar)  -2355.10      0.45      0.26
                                0.45  -2354.21      0.45
                                0.26      0.45  -2355.10

     hubbard stress (kbar)      0.00      0.00      0.00
                                0.00      0.00      0.00
                                0.00      0.00      0.00

     london  stress (kbar)      0.00      0.00      0.00
                                0.00      0.00      0.00
                                0.00      0.00      0.00

     DFT-D3  stress (kbar)      0.00      0.00      0.00
                                0.00      0.00      0.00
                                0.00      0.00      0.00

     XDM     stress (kbar)      0.00      0.00      0.00
                                0.00      0.00      0.00
                                0.00      0.00      0.00

     dft-nl  stress (kbar)      0.00      0.00      0.00
                                0.00      0.00      0.00
                                0.00      0.00      0.00

     TS-vdW  stress (kbar)      0.00      0.00      0.00
                                0.00      0.00      0.00
                                0.00      0.00      0.00



     Writing output data file aiida.save/
 
     init_run     :    196.01s CPU    198.26s WALL (       1 calls)
     electrons    :   7011.13s CPU   7066.77s WALL (       1 calls)
     forces       :     94.16s CPU     95.14s WALL (       1 calls)
     stress       :   1160.13s CPU   1161.55s WALL (       1 calls)

     Called by init_run:
     wfcinit      :    182.68s CPU    184.53s WALL (       1 calls)
     wfcinit:atom :      0.31s CPU      0.60s WALL (       2 calls)
     wfcinit:wfcr :    180.14s CPU    180.92s WALL (       2 calls)
     potinit      :      2.21s CPU      2.34s WALL (       1 calls)
     hinit0       :      2.70s CPU      2.78s WALL (       1 calls)

     Called by electrons:
     c_bands      :   6066.89s CPU   6111.63s WALL (      25 calls)
     sum_band     :    868.42s CPU    873.10s WALL (      25 calls)
     v_of_rho     :     36.63s CPU     38.81s WALL (      25 calls)
     v_h          :      3.74s CPU      3.75s WALL (      25 calls)
     v_xc         :     35.22s CPU     37.48s WALL (      27 calls)
     newd         :      8.09s CPU     10.21s WALL (      25 calls)
     PAW_pot      :      4.94s CPU      4.95s WALL (      25 calls)
     mix_rho      :     20.82s CPU     22.69s WALL (      25 calls)

     Called by c_bands:
     init_us_2    :     78.47s CPU     79.04s WALL (     106 calls)
     cegterg      :   5157.10s CPU   5198.71s WALL (      51 calls)

     Called by sum_band:
     sum_band:bec :      1.50s CPU      1.50s WALL (      50 calls)
     addusdens    :      6.75s CPU      9.17s WALL (      25 calls)

     Called by *egterg:
     h_psi        :   3429.91s CPU   3444.46s WALL (     192 calls)
     s_psi        :   1029.54s CPU   1031.68s WALL (     192 calls)
     g_psi        :      4.36s CPU      4.36s WALL (     139 calls)
     cdiaghg      :    205.79s CPU    209.76s WALL (     188 calls)
     cegterg:over :    276.28s CPU    277.67s WALL (     139 calls)
     cegterg:upda :    165.72s CPU    172.92s WALL (     139 calls)
     cegterg:last :    106.37s CPU    106.42s WALL (      53 calls)
     cdiaghg:chol :      9.03s CPU      9.14s WALL (     188 calls)
     cdiaghg:inve :      4.11s CPU      4.12s WALL (     188 calls)
     cdiaghg:para :     46.02s CPU     46.91s WALL (     376 calls)

     Called by h_psi:
     h_psi:pot    :   3425.29s CPU   3433.08s WALL (     192 calls)
     h_psi:calbec :   1049.53s CPU   1049.82s WALL (     192 calls)
     vloc_psi     :   1341.94s CPU   1347.15s WALL (     192 calls)
     add_vuspsi   :   1033.82s CPU   1036.12s WALL (     192 calls)

     General routines
     calbec       :   1557.50s CPU   1557.97s WALL (     252 calls)
     fft          :     40.76s CPU     43.44s WALL (     350 calls)
     ffts         :      9.57s CPU      9.64s WALL (     339 calls)
     fftw         :   1391.18s CPU   1396.41s WALL (  136138 calls)
     interpolate  :      3.93s CPU      4.04s WALL (      25 calls)
 
     Parallel routines
     fft_scatt_xy :    465.49s CPU    467.13s WALL (  136827 calls)
     fft_scatt_yz :    278.78s CPU    281.38s WALL (  136827 calls)

     PAW routines
     PAW_pot      :      4.94s CPU      4.95s WALL (      25 calls)
 
     PWSCF        :      2h24m CPU      2h25m WALL

 
   This run was terminated on:  12:58:39  26Feb2020            

=------------------------------------------------------------------------------=
   JOB DONE.
=------------------------------------------------------------------------------=
