begin
comment 4 atoms, species Al3Mg
lattice      7.7107470000     0.0000000000     0.0000000000
lattice      0.0000000000     7.7107470000     0.0000000000
lattice      0.0000000000     0.0000000000     7.7107470000
atom      0.0000000000     3.8553740000     3.8553740000   Al  0.0 0.0       0.0077990065     0.0015303382     0.0013556579
atom      4.1320580000     0.1871600000     3.8422850000   Al  0.0 0.0      -0.0105854890    -0.0039384655     0.0019929950
atom      3.9456360000     4.0590450000     7.5999080000   Al  0.0 0.0      -0.0018046941    -0.0079916518     0.0041006545
atom      0.1045250000     7.6333320000     0.1212260000   Mg  0.0 0.0       0.0045911766     0.0103997792    -0.0074493074
energy -70.2223596784
charge 0.0000
end
begin
comment 4 atoms, species Mg4
lattice      7.5109070000     0.0000000000     0.0000000000
lattice      0.0000000000     7.5109070000     0.0000000000
lattice      0.0000000000     0.0000000000     7.5109070000
atom      0.0000000000     0.0000000000     0.0000000000   Mg  0.0 0.0      -0.0000000415    -0.0000000415    -0.0000000415
atom      3.7554530000     3.7554530000     0.0000000000   Mg  0.0 0.0       0.0000000415     0.0000000415    -0.0000000415
atom      3.7554530000     0.0000000000     3.7554530000   Mg  0.0 0.0       0.0000000415    -0.0000000415     0.0000000415
atom      0.0000000000     3.7554530000     3.7554530000   Mg  0.0 0.0      -0.0000000415     0.0000000415     0.0000000415
energy -250.579369935
charge 0.0000
end
begin
comment 63 atoms, species Si63
lattice     18.8590280000     0.0000000000     0.0000000000
lattice      0.0000000000    18.8590280000     0.0000000000
lattice      0.0000000000     0.0000000000    18.8590280000
atom      0.0000000000     0.0000000000     0.0000000000   Si  0.0 0.0       0.0269273980    -0.0269276023    -0.0269276023
atom      2.3573780000     2.3573780000     2.3573780000   Si  0.0 0.0      -0.0008763884    -0.0046726956    -0.0046726956
atom      4.7147570000     4.7147570000     0.0000000000   Si  0.0 0.0      -0.0009034263    -0.0023471695    -0.0009034282
atom      7.0721350000     7.0721350000     2.3573780000   Si  0.0 0.0       0.0006756838     0.0016854980     0.0006757658
atom      4.7147570000     0.0000000000     4.7147570000   Si  0.0 0.0      -0.0009034263    -0.0009034282    -0.0023471695
atom      7.0721350000     2.3573780000     7.0721350000   Si  0.0 0.0       0.0006756838     0.0006757658     0.0016854980
atom      0.0000000000     4.7147570000     4.7147570000   Si  0.0 0.0      -0.0017909586     0.0002277151     0.0002277151
atom      2.3573780000     7.0721350000     7.0721350000   Si  0.0 0.0       0.0000000807     0.0000000000     0.0000000000
atom      9.4295130000     0.0000000000     0.0000000000   Si  0.0 0.0      -0.0023469645    -0.0009034285    -0.0009034285
atom     11.7868920000     2.3573780000     2.3573780000   Si  0.0 0.0       0.0016854159     0.0006757639     0.0006757639
atom     14.1442700000     4.7147570000     0.0000000000   Si  0.0 0.0      -0.0002277154     0.0002277153     0.0017907556
atom     16.5016490000     7.0721350000     2.3573780000   Si  0.0 0.0      -0.0006756823    -0.0016854984     0.0006757650
atom     14.1442700000     0.0000000000     4.7147570000   Si  0.0 0.0      -0.0002277154     0.0017907556     0.0002277153
atom     16.5016490000     2.3573780000     7.0721350000   Si  0.0 0.0      -0.0006756823     0.0006757650    -0.0016854984
atom     16.5016490000    11.7868920000     7.0721350000   Si  0.0 0.0      -0.0006756823    -0.0006757650     0.0016854984
atom      9.4295130000    14.1442700000     4.7147570000   Si  0.0 0.0       0.0002279175    -0.0017907548     0.0002277141
atom      0.0000000000     9.4295130000     0.0000000000   Si  0.0 0.0       0.0009032216     0.0023471688    -0.0009034255
atom      2.3573780000    11.7868920000     2.3573780000   Si  0.0 0.0       0.0008765532     0.0046726972    -0.0046726972
atom      4.7147570000    14.1442700000     0.0000000000   Si  0.0 0.0      -0.0269275458     0.0269275417    -0.0269275417
atom      7.0721350000    16.5016490000     2.3573780000   Si  0.0 0.0      -0.0046727795    -0.0008764706    -0.0046726972
atom      4.7147570000     9.4295130000     4.7147570000   Si  0.0 0.0       0.0017907540    -0.0002277136     0.0002277136
atom      7.0721350000    11.7868920000     7.0721350000   Si  0.0 0.0       0.0006756838    -0.0006757658    -0.0016854980
atom      0.0000000000    14.1442700000     4.7147570000   Si  0.0 0.0       0.0009032216     0.0009034255    -0.0023471688
atom      2.3573780000    16.5016490000     7.0721350000   Si  0.0 0.0       0.0000000825     0.0000000000     0.0000000000
atom      9.4295130000     9.4295130000     0.0000000000   Si  0.0 0.0       0.0002279175    -0.0002277141     0.0017907548
atom     11.7868920000    11.7868920000     2.3573780000   Si  0.0 0.0      -0.0016855819    -0.0006757647     0.0006757647
atom     14.1442700000    14.1442700000     0.0000000000   Si  0.0 0.0       0.0023471639     0.0009034258    -0.0009034258
atom     16.5016490000    16.5016490000     2.3573780000   Si  0.0 0.0       0.0046727749     0.0008764697    -0.0046726922
atom     14.1442700000     9.4295130000     4.7147570000   Si  0.0 0.0       0.0001262130     0.0001262127    -0.0001262127
atom      9.4295130000     4.7147570000     4.7147570000   Si  0.0 0.0      -0.0001260050    -0.0001262133    -0.0001262133
atom     11.7868920000     7.0721350000     7.0721350000   Si  0.0 0.0      -0.0000000809     0.0000000000     0.0000000000
atom     11.7868920000    16.5016490000     7.0721350000   Si  0.0 0.0      -0.0000000823     0.0000000000     0.0000000000
atom     11.7868920000     7.0721350000    16.5016490000   Si  0.0 0.0      -0.0000000823     0.0000000000     0.0000000000
atom      2.3573780000     2.3573780000    11.7868920000   Si  0.0 0.0       0.0008765532    -0.0046726972     0.0046726972
atom      4.7147570000     4.7147570000     9.4295130000   Si  0.0 0.0       0.0017907540     0.0002277136    -0.0002277136
atom      7.0721350000     7.0721350000    11.7868920000   Si  0.0 0.0       0.0006756838    -0.0016854980    -0.0006757658
atom      4.7147570000     0.0000000000    14.1442700000   Si  0.0 0.0      -0.0269275458    -0.0269275417     0.0269275417
atom      7.0721350000     2.3573780000    16.5016490000   Si  0.0 0.0      -0.0046727795    -0.0046726972    -0.0008764706
atom      0.0000000000     4.7147570000    14.1442700000   Si  0.0 0.0       0.0009032216    -0.0023471688     0.0009034255
atom      2.3573780000     7.0721350000    16.5016490000   Si  0.0 0.0       0.0000000825     0.0000000000     0.0000000000
atom      9.4295130000     0.0000000000     9.4295130000   Si  0.0 0.0       0.0002279175     0.0017907548    -0.0002277141
atom     11.7868920000     2.3573780000    11.7868920000   Si  0.0 0.0      -0.0016855819     0.0006757647    -0.0006757647
atom     14.1442700000     4.7147570000     9.4295130000   Si  0.0 0.0       0.0001262130    -0.0001262127     0.0001262127
atom     16.5016490000     7.0721350000    11.7868920000   Si  0.0 0.0      -0.0006756823     0.0016854984    -0.0006757650
atom     14.1442700000     0.0000000000    14.1442700000   Si  0.0 0.0       0.0023471639    -0.0009034258     0.0009034258
atom     16.5016490000     2.3573780000    16.5016490000   Si  0.0 0.0       0.0046727749    -0.0046726922     0.0008764697
atom      9.4295130000    14.1442700000    14.1442700000   Si  0.0 0.0      -0.0023469645     0.0009034285     0.0009034285
atom      0.0000000000     0.0000000000     9.4295130000   Si  0.0 0.0       0.0009032216    -0.0009034255     0.0023471688
atom      0.0000000000     9.4295130000     9.4295130000   Si  0.0 0.0      -0.0017909586    -0.0002277151    -0.0002277151
atom      2.3573780000    11.7868920000    11.7868920000   Si  0.0 0.0      -0.0008763884     0.0046726956     0.0046726956
atom      4.7147570000    14.1442700000     9.4295130000   Si  0.0 0.0      -0.0009034263     0.0009034282     0.0023471695
atom      7.0721350000    16.5016490000    11.7868920000   Si  0.0 0.0      -0.0046727795     0.0008764706     0.0046726972
atom      4.7147570000     9.4295130000    14.1442700000   Si  0.0 0.0      -0.0009034263     0.0023471695     0.0009034282
atom      7.0721350000    11.7868920000    16.5016490000   Si  0.0 0.0      -0.0046727795     0.0046726972     0.0008764706
atom      0.0000000000    14.1442700000    14.1442700000   Si  0.0 0.0       0.0269273981     0.0269276023     0.0269276023
atom      9.4295130000     9.4295130000     9.4295130000   Si  0.0 0.0      -0.0001260050     0.0001262133     0.0001262133
atom     11.7868920000    11.7868920000    11.7868920000   Si  0.0 0.0       0.0016854159    -0.0006757639    -0.0006757639
atom     14.1442700000    14.1442700000     9.4295130000   Si  0.0 0.0      -0.0002277154    -0.0017907556    -0.0002277153
atom     16.5016490000    16.5016490000    11.7868920000   Si  0.0 0.0       0.0046727749    -0.0008764697     0.0046726922
atom     14.1442700000     9.4295130000    14.1442700000   Si  0.0 0.0      -0.0002277154    -0.0002277153    -0.0017907556
atom     16.5016490000    11.7868920000    16.5016490000   Si  0.0 0.0       0.0046727749     0.0046726922    -0.0008764697
atom      9.4295130000     4.7147570000    14.1442700000   Si  0.0 0.0       0.0002279175     0.0002277141    -0.0017907548
atom     11.7868920000    16.5016490000    16.5016490000   Si  0.0 0.0      -0.0000000843     0.0000000000     0.0000000000
energy -358.478263157
charge 0.0000
end
begin
comment 22 atoms, species Mg10Si12
lattice     24.1677530000     0.0000000000    -8.9649750000
lattice      0.0000000000     6.8793040000     0.0000000000
lattice      0.0000000000     0.0000000000    11.8884940000
atom     20.3950700000     3.4396520000    -6.7895810000   Mg  0.0 0.0      -0.0031442173    -0.0000000000    -0.0023173559
atom     10.2132680000     0.0000000000     3.6787990000   Mg  0.0 0.0      -0.0014122637     0.0000000000     0.0058383456
atom      3.7726830000     3.4396520000     9.7130980000   Mg  0.0 0.0       0.0031442159    -0.0000000000     0.0023174269
atom     13.9544850000     0.0000000000    -0.7552810000   Mg  0.0 0.0       0.0014122703     0.0000000000    -0.0058383953
atom      1.8706080000     3.4396520000     3.7272070000   Mg  0.0 0.0       0.0014123212    -0.0000000000    -0.0058384027
atom      0.0000000000     0.0000000000     0.0000000000   Mg  0.0 0.0       0.0000000034     0.0000000000    -0.0000000737
atom     15.8565590000     0.0000000000     5.2306100000   Mg  0.0 0.0       0.0031442412     0.0000000000     0.0023174422
atom      8.3111940000     0.0000000000    -2.3070930000   Mg  0.0 0.0      -0.0031442422     0.0000000000    -0.0023173695
atom     22.2971450000     3.4396520000    -0.8036890000   Mg  0.0 0.0      -0.0014122991    -0.0000000000     0.0058384014
atom     12.0838760000     3.4396520000     7.4060060000   Mg  0.0 0.0       0.0000000868    -0.0000000000    -0.0000000503
atom     17.1023100000     3.4396520000     1.1362940000   Si  0.0 0.0       0.0118308690    -0.0000000000     0.0062968732
atom     22.7731040000     0.0000000000    -4.5179750000   Si  0.0 0.0       0.0051963225     0.0000000000    -0.0239774491
atom     19.5053830000     0.0000000000     1.5759150000   Si  0.0 0.0       0.0228527777     0.0000000000     0.0278749350
atom      1.3946490000     0.0000000000     7.4414930000   Si  0.0 0.0      -0.0051963743     0.0000000000     0.0239774732
atom      7.4215060000     3.4396520000     6.0584030000   Si  0.0 0.0       0.0228528435    -0.0000000000     0.0278749398
atom      7.0654430000     3.4396520000     1.7872240000   Si  0.0 0.0      -0.0118308313    -0.0000000000    -0.0062968980
atom     10.6892280000     3.4396520000    -0.0354880000   Si  0.0 0.0       0.0051962022    -0.0000000000    -0.0239774321
atom     13.4785250000     3.4396520000     2.9590050000   Si  0.0 0.0      -0.0051963044    -0.0000000000     0.0239775584
atom     19.1493190000     0.0000000000    -2.6952640000   Si  0.0 0.0      -0.0118307967     0.0000000000    -0.0062968696
atom      5.0184340000     0.0000000000     5.6187820000   Si  0.0 0.0       0.0118307796     0.0000000000     0.0062967424
atom      4.6623700000     0.0000000000     1.3476020000   Si  0.0 0.0      -0.0228527455     0.0000000000    -0.0278748342
atom     16.7462470000     3.4396520000    -3.1348850000   Si  0.0 0.0      -0.0228528586    -0.0000000000    -0.0278750077
energy -694.743700609
charge 0.0000
end
begin
comment 31 atoms, species Al31
lattice     13.7926550000     0.0000000000     0.0000000000
lattice      0.0000000000    13.7926550000     0.0000000000
lattice      0.0000000000     0.0000000000    13.7926550000
atom      0.0000000000     0.0000000000     0.0000000000   Al  0.0 0.0       0.0000000021     0.0000000021     0.0000000021
atom     10.2858140000    10.2858140000     6.8963270000   Al  0.0 0.0      -0.0027601102    -0.0027601102     0.0000000273
atom      0.0000000000    10.3416430000    10.3416430000   Al  0.0 0.0      -0.0000000285    -0.0007009167    -0.0007009167
atom      3.5068400000     6.8963270000    10.2858140000   Al  0.0 0.0       0.0027601670     0.0000000273    -0.0027601083
atom      3.5068400000    10.2858140000     6.8963270000   Al  0.0 0.0       0.0027601670    -0.0027601083     0.0000000273
atom      0.0000000000     6.8963270000     6.8963270000   Al  0.0 0.0      -0.0000000653     0.0000000308     0.0000000308
atom      6.8963270000     3.5068400000    10.2858140000   Al  0.0 0.0       0.0000000273     0.0027601670    -0.0027601083
atom     10.3416430000     0.0000000000    10.3416430000   Al  0.0 0.0      -0.0007009167    -0.0000000285    -0.0007009167
atom     10.2858140000     3.5068400000     6.8963270000   Al  0.0 0.0      -0.0027601083     0.0027601670     0.0000000273
atom      6.8963270000     0.0000000000     6.8963270000   Al  0.0 0.0       0.0000000308    -0.0000000653     0.0000000308
atom      0.0000000000     3.4510120000    10.3416430000   Al  0.0 0.0      -0.0000000285     0.0007008578    -0.0007009158
atom      3.4510120000     0.0000000000    10.3416430000   Al  0.0 0.0       0.0007008578    -0.0000000285    -0.0007009158
atom      3.5068400000     3.5068400000     6.8963270000   Al  0.0 0.0       0.0027601651     0.0027601651     0.0000000273
atom      0.0000000000     0.0000000000     6.8963270000   Al  0.0 0.0      -0.0000000252    -0.0000000252     0.0000000653
atom     10.2858140000     6.8963270000    10.2858140000   Al  0.0 0.0      -0.0027601102     0.0000000273    -0.0027601102
atom      6.8963270000    10.2858140000     3.5068400000   Al  0.0 0.0       0.0000000273    -0.0027601083     0.0027601670
atom     10.3416430000    10.3416430000     0.0000000000   Al  0.0 0.0      -0.0007009167    -0.0007009167    -0.0000000285
atom      6.8963270000     6.8963270000     0.0000000000   Al  0.0 0.0       0.0000000308     0.0000000308    -0.0000000653
atom      0.0000000000    10.3416430000     3.4510120000   Al  0.0 0.0      -0.0000000285    -0.0007009158     0.0007008578
atom      3.5068400000     6.8963270000     3.5068400000   Al  0.0 0.0       0.0027601651     0.0000000273     0.0027601651
atom      3.4510120000    10.3416430000     0.0000000000   Al  0.0 0.0       0.0007008578    -0.0007009158    -0.0000000285
atom      0.0000000000     6.8963270000     0.0000000000   Al  0.0 0.0      -0.0000000252     0.0000000653    -0.0000000252
atom      6.8963270000     3.5068400000     3.5068400000   Al  0.0 0.0       0.0000000273     0.0027601651     0.0027601651
atom     10.3416430000     0.0000000000     3.4510120000   Al  0.0 0.0      -0.0007009158    -0.0000000285     0.0007008578
atom     10.3416430000     3.4510120000     0.0000000000   Al  0.0 0.0      -0.0007009158     0.0007008578    -0.0000000285
atom      6.8963270000     0.0000000000     0.0000000000   Al  0.0 0.0       0.0000000653    -0.0000000252    -0.0000000252
atom      0.0000000000     3.4510120000     3.4510120000   Al  0.0 0.0      -0.0000000285     0.0007008569     0.0007008569
atom      3.4510120000     0.0000000000     3.4510120000   Al  0.0 0.0       0.0007008569    -0.0000000285     0.0007008569
atom      3.4510120000     3.4510120000     0.0000000000   Al  0.0 0.0       0.0007008569     0.0007008569    -0.0000000285
atom     10.2858140000     6.8963270000     3.5068400000   Al  0.0 0.0      -0.0027601083     0.0000000273     0.0027601670
atom      6.8963270000    10.2858140000    10.2858140000   Al  0.0 0.0       0.0000000273    -0.0027601102    -0.0027601102
energy -77.6281173678
charge 0.0000
end
begin
comment 2 atoms, species AlSi
lattice      5.4416820000     0.0000000000     0.0000000000
lattice      0.0000000000     5.5527360000     0.0000000000
lattice      0.0000000000     0.0000000000     5.5527360000
atom      0.0000000000     0.0000000000     0.0000000000   Al  0.0 0.0      -0.0000000000    -0.0000000000    -0.0000000000
atom      2.7208410000     2.7763680000     2.7763680000   Si  0.0 0.0       0.0000000000     0.0000000000     0.0000000000
energy -8.19349906807
charge 0.0000
end
begin
comment 4 atoms, species Mg4
lattice      9.5026440000     0.0000000000     0.0000000000
lattice      0.0000000000     9.5026440000     0.0000000000
lattice      0.0000000000     0.0000000000     9.5026440000
atom      0.0000000000     0.0000000000     0.0000000000   Mg  0.0 0.0       0.0000000000     0.0000000000     0.0000000000
atom      4.7513220000     4.7513220000     0.0000000000   Mg  0.0 0.0      -0.0000000000    -0.0000000000     0.0000000000
atom      4.7513220000     0.0000000000     4.7513220000   Mg  0.0 0.0      -0.0000000000     0.0000000000    -0.0000000000
atom      0.0000000000     4.7513220000     4.7513220000   Mg  0.0 0.0       0.0000000000    -0.0000000000    -0.0000000000
energy -250.623588332
charge 0.0000
end
begin
comment 63 atoms, species Si63
lattice     22.6502760000     0.0000000000     0.0000000000
lattice      0.0000000000    22.6502760000     0.0000000000
lattice      0.0000000000     0.0000000000    22.6502760000
atom      0.0065480000     0.0067430000    22.6502430000   Si  0.0 0.0      -0.0087617645     0.0083116597     0.0077693738
atom      2.7996190000     2.8547980000     2.8713030000   Si  0.0 0.0      -0.0019596671    -0.0032461114    -0.0042134259
atom      5.6267360000     5.6348680000    22.5996150000   Si  0.0 0.0       0.0030389036     0.0000867805     0.0036754116
atom      8.4790630000     8.4991380000     2.8181070000   Si  0.0 0.0       0.0015481686    -0.0013061812     0.0004233230
atom      5.6575380000     0.0128220000     5.6237650000   Si  0.0 0.0       0.0022708734     0.0016866120     0.0001062838
atom      8.5274460000     2.8067660000     8.4906530000   Si  0.0 0.0      -0.0014720907     0.0021302127    -0.0004145833
atom     22.6319000000     5.6408610000     5.6973510000   Si  0.0 0.0      -0.0001335353     0.0020921370    -0.0036064069
atom      2.8895250000     8.4909050000     8.5021600000   Si  0.0 0.0      -0.0037891689    -0.0008477903     0.0008535394
atom     11.2827100000     0.0075720000     0.0250600000   Si  0.0 0.0       0.0011225690     0.0006699472    -0.0010081090
atom     14.1395030000     2.8067590000     2.8089760000   Si  0.0 0.0       0.0013058467     0.0006379752     0.0029527273
atom     16.9905980000     5.6056010000     0.0425420000   Si  0.0 0.0       0.0001053197     0.0017037542    -0.0023347797
atom     19.7816870000     8.4975660000     2.7984710000   Si  0.0 0.0       0.0014680228    -0.0004362578     0.0032909119
atom     17.0101700000     0.0145210000     5.6528610000   Si  0.0 0.0       0.0003951428     0.0001289019    -0.0003935904
atom     19.8651210000     2.8465940000     8.4801480000   Si  0.0 0.0      -0.0042399904    -0.0010737405     0.0016377323
atom     19.8170080000    14.1435370000     8.5129030000   Si  0.0 0.0       0.0013494013     0.0000977730    -0.0013998009
atom     11.2919010000    16.9470750000     5.6242950000   Si  0.0 0.0       0.0009567501     0.0002823544     0.0020132683
atom     22.6259550000    11.3384110000     0.0241570000   Si  0.0 0.0       0.0003956146     0.0004473357     0.0006362187
atom      2.8276020000    14.1843850000     2.8248090000   Si  0.0 0.0       0.0038814216    -0.0005102935    -0.0004826424
atom      5.6555520000    17.0081880000     0.0495450000   Si  0.0 0.0       0.0092306707    -0.0088793951     0.0056033530
atom      8.5295120000    19.8156530000     2.8022580000   Si  0.0 0.0      -0.0050240531    -0.0039099391     0.0006180256
atom      5.6823840000    11.3034010000     5.7226440000   Si  0.0 0.0       0.0014513705     0.0023076800    -0.0055793638
atom      8.5118740000    14.1068840000     8.4968500000   Si  0.0 0.0       0.0002073493     0.0024080394     0.0002709222
atom      0.0437010000    16.9798430000     5.6383760000   Si  0.0 0.0      -0.0030193619     0.0006540251     0.0000448263
atom      2.8552370000    19.8828540000     8.5069410000   Si  0.0 0.0      -0.0011024434    -0.0037132849    -0.0005095828
atom     11.3392900000    11.3662940000     0.0277060000   Si  0.0 0.0      -0.0026842103    -0.0014356581    -0.0005026740
atom     14.1794240000    14.1695620000     2.8441020000   Si  0.0 0.0      -0.0005747334    -0.0017377802     0.0008436029
atom     16.9695740000    16.9826810000    22.6424030000   Si  0.0 0.0       0.0024079399    -0.0007507899     0.0015439297
atom     19.8273930000    19.8042530000     2.7874310000   Si  0.0 0.0       0.0021827500     0.0039402271     0.0003085470
atom     16.9963710000    11.3373780000     5.6928250000   Si  0.0 0.0      -0.0034834416    -0.0030323126     0.0008617382
atom     11.3519220000     5.6244350000     5.6424400000   Si  0.0 0.0       0.0003133578     0.0048647818     0.0033146915
atom     14.1475420000     8.5077450000     8.5285270000   Si  0.0 0.0       0.0005051216    -0.0022381854    -0.0018310209
atom     14.1646360000    19.8208220000     8.5115250000   Si  0.0 0.0      -0.0008568854     0.0004892940    -0.0016278489
atom     14.1372040000     8.4630790000    19.8015530000   Si  0.0 0.0       0.0008810143     0.0021181659     0.0013983125
atom      2.8498620000     2.8389520000    14.1286540000   Si  0.0 0.0       0.0018616889    -0.0029494320     0.0039799522
atom      5.6579960000     5.6455750000    11.3544340000   Si  0.0 0.0       0.0041321009    -0.0005352163    -0.0005918280
atom      8.4678810000     8.5115500000    14.1826720000   Si  0.0 0.0       0.0016433874    -0.0010158884    -0.0014964639
atom      5.6261790000    22.6474790000    17.0151800000   Si  0.0 0.0       0.0104257895     0.0077669827    -0.0090684083
atom      8.5302780000     2.8200980000    19.8081400000   Si  0.0 0.0      -0.0055174764    -0.0009550690    -0.0035789251
atom      0.0015420000     5.6783700000    16.9655440000   Si  0.0 0.0      -0.0018952932    -0.0033608580    -0.0006607880
atom      2.8117740000     8.4530110000    19.7880580000   Si  0.0 0.0       0.0009550622     0.0023673607     0.0017017171
atom     11.2958920000     0.0225260000    11.3473650000   Si  0.0 0.0       0.0014611092    -0.0014794613     0.0008513308
atom     14.1702210000     2.8146070000    14.1707490000   Si  0.0 0.0      -0.0012515227     0.0012073791    -0.0014772104
atom     16.9543160000     5.6375130000    11.3055370000   Si  0.0 0.0      -0.0004950715     0.0033183871    -0.0007620034
atom     19.7937160000     8.4836000000    14.1874670000   Si  0.0 0.0       0.0007675068     0.0013202822    -0.0027408935
atom     16.9865200000     0.0026050000    16.9837300000   Si  0.0 0.0       0.0022118367    -0.0002331171    -0.0011273119
atom     19.8195490000     2.8564670000    19.8098980000   Si  0.0 0.0       0.0020839358    -0.0035293584     0.0044019094
atom     11.3427670000    17.0036170000    16.9707110000   Si  0.0 0.0      -0.0027748916    -0.0026508169     0.0004378123
atom      0.0148590000     0.0092710000    11.3480920000   Si  0.0 0.0      -0.0015409230     0.0001226634     0.0015518276
atom      0.0007130000    11.3197790000    11.3119240000   Si  0.0 0.0      -0.0014802403     0.0015810103     0.0030104108
atom      2.8687250000    14.1909920000    14.1626200000   Si  0.0 0.0      -0.0051643817    -0.0000625110     0.0022734989
atom      5.6698420000    16.9865750000    11.3384570000   Si  0.0 0.0       0.0018216553    -0.0008336495     0.0009627899
atom      8.5128530000    19.7729980000    14.1987360000   Si  0.0 0.0      -0.0047782272     0.0069688812    -0.0005412565
atom      5.6555380000    11.3223000000    16.9770910000   Si  0.0 0.0       0.0014784688     0.0036508939     0.0004400976
atom      8.5190250000    14.2532230000    19.8603200000   Si  0.0 0.0      -0.0039801476    -0.0031342104     0.0031883073
atom      0.0098440000    16.9921720000    17.0179790000   Si  0.0 0.0      -0.0080924053    -0.0090084715    -0.0086357232
atom     11.3632930000    11.3184700000    11.3659380000   Si  0.0 0.0      -0.0007368411    -0.0029496308    -0.0039835361
atom     14.1044450000    14.1581220000    14.1353100000   Si  0.0 0.0       0.0048558133     0.0001340004     0.0005178408
atom     16.9914400000    16.9678500000    11.3015980000   Si  0.0 0.0       0.0003078630    -0.0003842968     0.0031772484
atom     19.8315790000    19.7647670000    14.1817750000   Si  0.0 0.0       0.0015256906    -0.0009555447     0.0004827076
atom     17.0290850000    11.3684590000    17.0038590000   Si  0.0 0.0      -0.0028073050    -0.0020484859    -0.0021928581
atom     19.8231050000    14.1426020000    19.8473050000   Si  0.0 0.0       0.0028266012     0.0038872862    -0.0048273338
atom     11.2909450000     5.6548790000    16.9696420000   Si  0.0 0.0       0.0013706174    -0.0006345555    -0.0001325633
atom     14.1110140000    19.7953200000    19.8115990000   Si  0.0 0.0       0.0028693374     0.0024555093     0.0005767427
energy -358.826399372
charge 0.0000
end
begin
comment 22 atoms, species Al6Mg8Si8
lattice     29.0281470000     0.0000000000    -9.3818150000
lattice      0.0000000000     8.3141100000     0.0000000000
lattice      0.3277150000     0.0000000000    13.3578880000
atom      0.0000000000     0.0000000000     0.0000000000   Al  0.0 0.0       0.0000000011     0.0000000000    -0.0000000035
atom     22.8430860000     0.0000000000    -2.2498750000   Al  0.0 0.0      -0.0000666888     0.0000000000     0.0007750208
atom      8.3290130000     4.1570550000     2.4410330000   Al  0.0 0.0      -0.0000667062    -0.0000000000     0.0007749942
atom      6.5127770000     0.0000000000     6.2259470000   Al  0.0 0.0       0.0000666817     0.0000000000    -0.0007750179
atom     21.0268500000     4.1570550000     1.5350400000   Al  0.0 0.0       0.0000667041    -0.0000000000    -0.0007750212
atom     14.5140740000     4.1570550000    -4.6909070000   Al  0.0 0.0      -0.0000000031    -0.0000000000    -0.0000000244
atom     24.6544750000     4.1570550000    -6.7760780000   Mg  0.0 0.0      -0.0008073227    -0.0000000000    -0.0002610389
atom      2.1960150000     4.1570550000     3.9436330000   Mg  0.0 0.0      -0.0020289089    -0.0000000000     0.0004529689
atom     12.6457750000     0.0000000000     4.7233470000   Mg  0.0 0.0       0.0020289056     0.0000000000    -0.0004529651
atom     16.7100890000     0.0000000000    -0.7472740000   Mg  0.0 0.0      -0.0020289227     0.0000000000     0.0004529683
atom     27.1598480000     4.1570550000     0.0324390000   Mg  0.0 0.0       0.0020289099    -0.0000000000    -0.0004529607
atom     10.1404010000     0.0000000000    -2.0851710000   Mg  0.0 0.0      -0.0008073155     0.0000000000    -0.0002610360
atom      4.7013880000     4.1570550000    10.7521510000   Mg  0.0 0.0       0.0008073155    -0.0000000000     0.0002610445
atom     19.2154620000     0.0000000000     6.0612430000   Mg  0.0 0.0       0.0008073093     0.0000000000     0.0002610488
atom     23.9742050000     0.0000000000     2.7953660000   Si  0.0 0.0      -0.0050936846     0.0000000000    -0.0061720382
atom     19.8957290000     4.1570550000    -3.5102000000   Si  0.0 0.0       0.0050937327    -0.0000000000     0.0061720076
atom     27.4688480000     0.0000000000    -4.3585580000   Si  0.0 0.0       0.0032369895     0.0000000000     0.0042813430
atom      5.3816560000     0.0000000000     1.1807070000   Si  0.0 0.0       0.0050937307     0.0000000000     0.0061720264
atom     16.4010890000     4.1570550000     3.6437230000   Si  0.0 0.0      -0.0032370242    -0.0000000000    -0.0042813157
atom     12.9547740000     4.1570550000     0.3323490000   Si  0.0 0.0       0.0032369991    -0.0000000000     0.0042813482
atom      9.4601310000     4.1570550000     7.4862730000   Si  0.0 0.0      -0.0050936718    -0.0000000000    -0.0061720108
atom      1.8870160000     0.0000000000     8.3346310000   Si  0.0 0.0      -0.0032370308     0.0000000000    -0.0042813383
energy -562.053364406
charge 0.0000
end
begin
comment 58 atoms, species Al24Mg34
lattice     17.8888180000     0.0000000000     0.0000000000
lattice      0.0000000000    17.8888180000     0.0000000000
lattice      0.0000000000     0.0000000000    17.8888180000
atom     16.2717040000     1.6171130000     4.9324300000   Al  0.0 0.0       0.0000172256    -0.0000171936     0.0088355975
atom      1.6171130000    16.2717040000     4.9324300000   Al  0.0 0.0      -0.0000171936     0.0000172256     0.0088355975
atom      1.6171130000     1.6171130000    12.9563870000   Al  0.0 0.0      -0.0000172163    -0.0000172163    -0.0088355909
atom      7.3272950000    10.5615220000    13.8768380000   Al  0.0 0.0       0.0000172614    -0.0000172651     0.0088357403
atom      4.0119790000     7.3272950000     7.3272950000   Al  0.0 0.0      -0.0088357222     0.0000172707     0.0000172707
atom     12.9563870000    16.2717040000    16.2717040000   Al  0.0 0.0      -0.0088355724     0.0000172213     0.0000172213