
     Program PWSCF v.6.3 starts on 27Feb2020 at  2:14:23 

     This program is part of the open-source Quantum ESPRESSO suite
     for quantum simulation of materials; please cite
         "P. Giannozzi et al., J. Phys.:Condens. Matter 21 395502 (2009);
         "P. Giannozzi et al., J. Phys.:Condens. Matter 29 465901 (2017);
          URL http://www.quantum-espresso.org", 
     in publications or presentations arising from this work. More details at
     http://www.quantum-espresso.org/quote

 *** WARNING: using old-style file format, will disappear from next version ***

     Parallel version (MPI & OpenMP), running on     144 processor cores
     Number of MPI processes:               144
     Threads/MPI process:                     1

     MPI processes distributed on     4 nodes
     K-points division:     npool     =      36
     R & G space division:  proc/nbgrp/npool/nimage =       4
     Reading input from aiida.in
Warning: card &IONS ignored
Warning: card   !PRESS_CONV_THR = 0.05                 ! JUST FOR VOLUME RELAXATIONS ignored
Warning: card / ignored

     Current dimensions of program PWSCF are:
     Max number of different atomic species (ntypx) = 10
     Max number of k-points (npk) =  40000
     Max angular momentum in pseudopotentials (lmaxx) =  3
               file Al.pbe-n-kjpaw_psl.1.0.0.UPF: wavefunction(s)  3S 3P renormalized
               file Mg.pbe-n-kjpaw_psl.0.3.0.UPF: wavefunction(s)  3S renormalized

     Subspace diagonalization in iterative solution of the eigenvalue problem:
     a serial algorithm will be used

 
     Parallelization info
     --------------------
     sticks:   dense  smooth     PW     G-vecs:    dense   smooth      PW
     Min       13867    5553   1613               687618   174029   27113
     Max       13868    5554   1614               687619   174030   27114
     Sum       55469   22215   6455              2750475   696117  108455
 


     bravais-lattice index     =            0
     lattice parameter (alat)  =     227.0099  a.u.
     unit-cell volume          =   20353.8703 (a.u.)^3
     number of atoms/cell      =          176
     number of atomic types    =            3
     number of electrons       =       528.00
     number of Kohn-Sham states=          317
     kinetic-energy cutoff     =      40.0000  Ry
     charge density cutoff     =     400.0000  Ry
     convergence threshold     =      1.0E-12
     mixing beta               =       0.4000
     number of iterations used =            8  local-TF  mixing
     Exchange-correlation      = PBE ( 1  4  3  4 0 0)

     celldm(1)= 227.009854  celldm(2)=   0.000000  celldm(3)=   0.000000
     celldm(4)=   0.000000  celldm(5)=   0.000000  celldm(6)=   0.000000

     crystal axes: (cart. coord. in units of alat)
               a(1) = (   1.000000   0.000000   0.000000 )  
               a(2) = (   0.000000   0.033772   0.000000 )  
               a(3) = (  -0.014050   0.000000   0.051517 )  

     reciprocal axes: (cart. coord. in units 2 pi/alat)
               b(1) = (  1.000000  0.000000  0.272727 )  
               b(2) = (  0.000000 29.609922  0.000000 )  
               b(3) = (  0.000000  0.000000 19.411087 )  


     PseudoPot. # 1 for Al read from file:
     /users/aglensk/Dropbox/Albert/scripts/dotfiles/scripts/potentials/quantum_espresso/pseudo_SSSPefV1.1_alalloy/Al.pbe-n-kjpaw_psl.1.0.0.UPF
     MD5 check sum: cfc449ca30b5f3223ec38ddd88ac046d
     Pseudo is Projector augmented-wave + core cor, Zval =  3.0
     Generated using "atomic" code by A. Dal Corso v.5.1
     Shape of augmentation charge: PSQ
     Using radial grid of 1135 points,  6 beta functions with: 
                l(1) =   0
                l(2) =   0
                l(3) =   1
                l(4) =   1
                l(5) =   2
                l(6) =   2
     Q(r) pseudized with 0 coefficients 


     PseudoPot. # 2 for Mg read from file:
     /users/aglensk/Dropbox/Albert/scripts/dotfiles/scripts/potentials/quantum_espresso/pseudo_SSSPefV1.1_alalloy/Mg.pbe-n-kjpaw_psl.0.3.0.UPF
     MD5 check sum: 24ecedc7f3e3cbe212e682f4413594e4
     Pseudo is Projector augmented-wave + core cor, Zval =  2.0
     Generated using "atomic" code by A. Dal Corso v.5.0.99 svn rev. 10869
     Shape of augmentation charge: PSQ
     Using radial grid of 1129 points,  4 beta functions with: 
                l(1) =   0
                l(2) =   0
                l(3) =   1
                l(4) =   1
     Q(r) pseudized with 0 coefficients 


     PseudoPot. # 3 for Si read from file:
     /users/aglensk/Dropbox/Albert/scripts/dotfiles/scripts/potentials/quantum_espresso/pseudo_SSSPefV1.1_alalloy/Si.pbe-n-rrkjus_psl.1.0.0.UPF
     MD5 check sum: 0b0bb1205258b0d07b9f9672cf965d36
     Pseudo is Ultrasoft + core correction, Zval =  4.0
     Generated using "atomic" code by A. Dal Corso v.5.1
     Using radial grid of 1141 points,  6 beta functions with: 
                l(1) =   0
                l(2) =   0
                l(3) =   1
                l(4) =   1
                l(5) =   2
                l(6) =   2
     Q(r) pseudized with 0 coefficients 


     atomic species   valence    mass     pseudopotential
        Al             3.00    26.98154     Al( 1.00)
        Mg             2.00    24.30500     Mg( 1.00)
        Si             4.00    28.08500     Si( 1.00)

     No symmetry found


                                    s                        frac. trans.

      isym =  1     identity                                     

 cryst.   s( 1) = (     1          0          0      )
                  (     0          1          0      )
                  (     0          0          1      )

 cart.    s( 1) = (  1.0000000  0.0000000  0.0000000 )
                  (  0.0000000  1.0000000  0.0000000 )
                  (  0.0000000  0.0000000  1.0000000 )


   Cartesian axes

     site n.     atom                  positions (alat units)
         1           Al  tau(   1) = (   0.0167735   0.0000000   0.0510003  )
         2           Mg  tau(   2) = (   0.0350379   0.0168862   0.0173768  )
         3           Mg  tau(   3) = (   0.0374350   0.0168862   0.0463679  )
         4           Mg  tau(   4) = (   0.0740462   0.0000000   0.0040905  )
         5           Mg  tau(   5) = (   0.0764187   0.0000000   0.0330408  )
         6           Si  tau(   6) = (   0.0287510   0.0000000   0.0334647  )
         7           Si  tau(   7) = (   0.0511545   0.0000000   0.0106492  )
         8           Al  tau(   8) = (   0.0498257   0.0000000   0.0317456  )
         9           Al  tau(   9) = (   0.0617244   0.0168862   0.0187829  )
        10           Si  tau(  10) = (   0.0605518   0.0168862   0.0399008  )
        11           Si  tau(  11) = (   0.0828345   0.0168862   0.0168405  )
        12           Al  tau(  12) = (   0.0809444   0.0168862   0.0509743  )
        13           Mg  tau(  13) = (   0.0995312   0.0000000   0.0174086  )
        14           Mg  tau(  14) = (   0.1019336   0.0000000   0.0463578  )
        15           Mg  tau(  15) = (   0.0088881   0.0168862   0.0042636  )
        16           Mg  tau(  16) = (   0.0120033   0.0168862   0.0325073  )
        17           Si  tau(  17) = (   0.0931706   0.0168862   0.0336391  )
        18           Si  tau(  18) = (   0.1154053   0.0168862   0.0105677  )
        19           Al  tau(  19) = (   0.9859371   0.0168862   0.0316339  )
        20           Al  tau(  20) = (   0.1260547   0.0000000   0.0187262  )
        21           Si  tau(  21) = (  -0.0023729   0.0000000   0.0398589  )
        22           Si  tau(  22) = (   0.0180708   0.0000000   0.0166828  )
        23           Al  tau(  23) = (   0.1452838   0.0000000   0.0509273  )
        24           Mg  tau(  24) = (   0.1638485   0.0168862   0.0173538  )
        25           Mg  tau(  25) = (   0.1662413   0.0168862   0.0463047  )
        26           Mg  tau(  26) = (   0.2026763   0.0000000   0.0040113  )
        27           Mg  tau(  27) = (   0.2050545   0.0000000   0.0329678  )
        28           Si  tau(  28) = (   0.1574716   0.0000000   0.0335759  )
        29           Si  tau(  29) = (   0.1797101   0.0000000   0.0105163  )
        30           Al  tau(  30) = (   0.1785604   0.0000000   0.0316281  )
        31           Al  tau(  31) = (   0.1903489   0.0168862   0.0186871  )
        32           Si  tau(  32) = (   0.1892007   0.0168862   0.0398011  )
        33           Si  tau(  33) = (   0.2114307   0.0168862   0.0167502  )
        34           Al  tau(  34) = (   0.2095660   0.0168862   0.0509210  )
        35           Mg  tau(  35) = (   0.2281190   0.0000000   0.0173581  )
        36           Mg  tau(  36) = (   0.2304992   0.0000000   0.0463067  )
        37           Mg  tau(  37) = (   0.1383687   0.0168862   0.0040453  )
        38           Mg  tau(  38) = (   0.1407699   0.0168862   0.0329842  )
        39           Si  tau(  39) = (   0.2217416   0.0168862   0.0335693  )
        40           Si  tau(  40) = (   0.2439562   0.0168862   0.0105147  )
        41           Al  tau(  41) = (   0.1142570   0.0168862   0.0316778  )
        42           Al  tau(  42) = (   0.2545716   0.0000000   0.0186932  )
        43           Si  tau(  43) = (   0.1249137   0.0000000   0.0398381  )
        44           Si  tau(  44) = (   0.1471467   0.0000000   0.0167675  )
        45           Al  tau(  45) = (   0.2737484   0.0000000   0.0509242  )
        46           Mg  tau(  46) = (   0.2922808   0.0168862   0.0173607  )
        47           Mg  tau(  47) = (   0.2946403   0.0168862   0.0463094  )
        48           Mg  tau(  48) = (   0.3310045   0.0000000   0.0040127  )
        49           Mg  tau(  49) = (   0.3333605   0.0000000   0.0329601  )
        50           Si  tau(  50) = (   0.2859090   0.0000000   0.0335758  )
        51           Si  tau(  51) = (   0.3080871   0.0000000   0.0105115  )
        52           Al  tau(  52) = (   0.3069558   0.0000000   0.0316232  )
        53           Al  tau(  53) = (   0.3186830   0.0168862   0.0186958  )
        54           Si  tau(  54) = (   0.3175482   0.0168862   0.0398096  )
        55           Si  tau(  55) = (   0.3397271   0.0168862   0.0167501  )
        56           Al  tau(  56) = (   0.3378359   0.0168862   0.0509215  )
        57           Mg  tau(  57) = (   0.3563791   0.0000000   0.0173603  )
        58           Mg  tau(  58) = (   0.3587140   0.0000000   0.0463475  )
        59           Mg  tau(  59) = (   0.2669055   0.0168862   0.0040120  )
        60           Mg  tau(  60) = (   0.2692604   0.0168862   0.0329750  )
        61           Si  tau(  61) = (   0.3500032   0.0168862   0.0335828  )
        62           Si  tau(  62) = (   0.3721998   0.0168862   0.0105611  )
        63           Al  tau(  63) = (   0.2428142   0.0168862   0.0316283  )
        64           Al  tau(  64) = (   0.3827912   0.0000000   0.0187712  )
        65           Si  tau(  65) = (   0.2534299   0.0000000   0.0398066  )
        66           Si  tau(  66) = (   0.2756245   0.0000000   0.0167518  )
        67           Al  tau(  67) = (   0.4019835   0.0000000   0.0510924  )
        68           Mg  tau(  68) = (   0.4205358   0.0168862   0.0175411  )
        69           Mg  tau(  69) = (   0.4228314   0.0168862   0.0465475  )
        70           Mg  tau(  70) = (   0.4594414   0.0000000   0.0043647  )
        71           Mg  tau(  71) = (   0.4617956   0.0000000   0.0334006  )
        72           Si  tau(  72) = (   0.4141214   0.0000000   0.0337308  )
        73           Si  tau(  73) = (   0.4363771   0.0000000   0.0107495  )
        74           Al  tau(  74) = (   0.4351962   0.0000000   0.0318833  )
        75           Al  tau(  75) = (   0.4470378   0.0168862   0.0189637  )
        76           Si  tau(  76) = (   0.4457029   0.0168862   0.0400718  )
        77           Si  tau(  77) = (   0.4680784   0.0168862   0.0173033  )
        78           Al  tau(  78) = (   0.4659930   0.0168862   0.0513035  )
        79           Mg  tau(  79) = (   0.4847839   0.0000000   0.0183107  )
        80           Mg  tau(  80) = (   0.4878354   0.0000000   0.0465915  )
        81           Mg  tau(  81) = (   0.3951361   0.0168862   0.0041144  )
        82           Mg  tau(  82) = (   0.3974613   0.0168862   0.0331031  )
        83           Si  tau(  83) = (   0.4787120   0.0168862   0.0341185  )
        84           Si  tau(  84) = (   0.4991065   0.0168862   0.0109910  )
        85           Al  tau(  85) = (   0.3710505   0.0168862   0.0316818  )
        86           Al  tau(  86) = (   0.5107471   0.0000000   0.0192911  )
        87           Si  tau(  87) = (   0.3816341   0.0000000   0.0398971  )
        88           Si  tau(  88) = (   0.4038377   0.0000000   0.0168979  )
        89           Al  tau(  89) = (   0.5381823   0.0000000   0.0375102  )
        90           Al  tau(  90) = (   0.5287884   0.0168862   0.0514857  )
        91           Al  tau(  91) = (   0.5521886   0.0168862   0.0467963  )
        92           Al  tau(  92) = (   0.5567963   0.0000000   0.0092658  )
        93           Al  tau(  93) = (   0.5801656   0.0000000   0.0046319  )
        94           Al  tau(  94) = (   0.5708167   0.0168862   0.0186774  )
        95           Al  tau(  95) = (   0.5941427   0.0168862   0.0140113  )
        96           Al  tau(  96) = (   0.6081040   0.0000000   0.0233971  )
        97           Al  tau(  97) = (   0.5006141   0.0168862   0.0326793  )
        98           Al  tau(  98) = (   0.5245422   0.0168862   0.0283965  )
        99           Al  tau(  99) = (   0.5139187   0.0000000   0.0421200  )
       100           Al  tau( 100) = (   0.5333940   0.0000000   0.0139829  )
       101           Al  tau( 101) = (   0.5475522   0.0168862   0.0233532  )
       102           Al  tau( 102) = (   0.5614190   0.0000000   0.0327087  )
       103           Al  tau( 103) = (   0.5847791   0.0000000   0.0280455  )
       104           Al  tau( 104) = (   0.5754554   0.0168862   0.0420911  )
       105           Al  tau( 105) = (   0.5987805   0.0168862   0.0374425  )
       106           Al  tau( 106) = (   0.5894220   0.0000000   0.0514723  )
       107           Al  tau( 107) = (   0.6127504   0.0000000   0.0468314  )
       108           Al  tau( 108) = (   0.6174554   0.0168862   0.0093557  )
       109           Al  tau( 109) = (   0.6314328   0.0000000   0.0187430  )
       110           Al  tau( 110) = (   0.5196592   0.0168862   0.0043766  )
       111           Al  tau( 111) = (   0.6594026   0.0000000   0.0375149  )
       112           Al  tau( 112) = (   0.6641087   0.0168862   0.0000436  )
       113           Al  tau( 113) = (   0.6733871   0.0168862   0.0468858  )
       114           Al  tau( 114) = (   0.6780925   0.0000000   0.0094181  )
       115           Al  tau( 115) = (   0.7014175   0.0000000   0.0047288  )
       116           Al  tau( 116) = (   0.6920734   0.0168862   0.0187819  )
       117           Al  tau( 117) = (   0.7154021   0.0168862   0.0140863  )
       118           Al  tau( 118) = (   0.7293938   0.0000000   0.0234436  )
       119           Al  tau( 119) = (   0.6220917   0.0168862   0.0327872  )
       120           Al  tau( 120) = (   0.6454214   0.0168862   0.0281328  )
       121           Al  tau( 121) = (   0.6360694   0.0000000   0.0421760  )
       122           Al  tau( 122) = (   0.6547654   0.0000000   0.0140902  )
       123           Al  tau( 123) = (   0.6687513   0.0168862   0.0234691  )
       124           Al  tau( 124) = (   0.6827303   0.0000000   0.0328345  )
       125           Al  tau( 125) = (   0.7060560   0.0000000   0.0281391  )
       126           Al  tau( 126) = (   0.6967113   0.0168862   0.0421930  )
       127           Al  tau( 127) = (   0.7200456   0.0168862   0.0374966  )
       128           Al  tau( 128) = (   0.7247483   0.0000000   0.0000328  )
       129           Al  tau( 129) = (   0.7340410   0.0000000   0.0468544  )
       130           Al  tau( 130) = (   0.7387423   0.0168862   0.0093904  )
       131           Al  tau( 131) = (   0.7527404   0.0000000   0.0187486  )
       132           Al  tau( 132) = (   0.6407848   0.0168862   0.0047055  )
       133           Al  tau( 133) = (   0.7807513   0.0000000   0.0374697  )
       134           Al  tau( 134) = (   0.7854485   0.0168862   0.0000047  )
       135           Al  tau( 135) = (   0.7947632   0.0168862   0.0468325  )
       136           Al  tau( 136) = (   0.7994593   0.0000000   0.0093667  )
       137           Al  tau( 137) = (   0.8228266   0.0000000   0.0046769  )
       138           Al  tau( 138) = (   0.8134724   0.0168862   0.0187288  )
       139           Al  tau( 139) = (   0.8368451   0.0168862   0.0140366  )
       140           Al  tau( 140) = (   0.8508666   0.0000000   0.0233855  )
       141           Al  tau( 141) = (   0.7433907   0.0168862   0.0328016  )
       142           Al  tau( 142) = (   0.7667433   0.0168862   0.0281083  )
       143           Al  tau( 143) = (   0.7573917   0.0000000   0.0421607  )
       144           Al  tau( 144) = (   0.7760957   0.0000000   0.0140564  )
       145           Al  tau( 145) = (   0.7901056   0.0168862   0.0234188  )
       146           Al  tau( 146) = (   0.8041180   0.0000000   0.0327810  )
       147           Al  tau( 147) = (   0.8274853   0.0000000   0.0280885  )
       148           Al  tau( 148) = (   0.8181335   0.0168862   0.0421428  )
       149           Al  tau( 149) = (   0.8415086   0.0168862   0.0374420  )
       150           Al  tau( 150) = (   0.8321517   0.0000000   0.0515002  )
       151           Al  tau( 151) = (   0.8555332   0.0000000   0.0467752  )
       152           Al  tau( 152) = (   0.8602330   0.0168862   0.0093259  )
       153           Al  tau( 153) = (   0.8742628   0.0000000   0.0186404  )
       154           Al  tau( 154) = (   0.7620910   0.0168862   0.0046961  )
       155           Al  tau( 155) = (   0.9023051   0.0000000   0.0372371  )
       156           Al  tau( 156) = (   0.8929556   0.0168862   0.0513206  )
       157           Al  tau( 157) = (   0.9163294   0.0168862   0.0465530  )
       158           Al  tau( 158) = (   0.9210269   0.0000000   0.0091114  )
       159           Al  tau( 159) = (   0.9443361   0.0000000   0.0043266  )
       160           Al  tau( 160) = (   0.9351046   0.0168862   0.0184379  )
       161           Al  tau( 161) = (   0.9583842   0.0168862   0.0135531  )
       162           Al  tau( 162) = (   0.9720836   0.0000000   0.0225944  )
       163           Al  tau( 163) = (   0.8649015   0.0168862   0.0327119  )
       164           Al  tau( 164) = (   0.8882886   0.0168862   0.0279404  )
       165           Al  tau( 165) = (   0.8789276   0.0000000   0.0420103  )
       166           Al  tau( 166) = (   0.8976349   0.0000000   0.0138598  )
       167           Al  tau( 167) = (   0.9116752   0.0168862   0.0231820  )
       168           Al  tau( 168) = (   0.9256893   0.0000000   0.0324853  )
       169           Al  tau( 169) = (   0.9490117   0.0000000   0.0277329  )
       170           Al  tau( 170) = (   0.9397594   0.0168862   0.0418317  )
       171           Al  tau( 171) = (   0.9632467   0.0168862   0.0370320  )
       172           Al  tau( 172) = (   0.9537529   0.0000000   0.0510638  )
       173           Al  tau( 173) = (   0.9770401   0.0000000   0.0465508  )
       174           Al  tau( 174) = (   0.9827200   0.0168862   0.0088280  )
       175           Al  tau( 175) = (  -0.0038956   0.0000000   0.0182087  )
       176           Al  tau( 176) = (   0.8836149   0.0168862   0.0045665  )

   Crystallographic axes

     site n.     atom                  positions (cryst. coord.)
         1           Al  tau(   1) = (  0.0306826  0.0000000  0.9899705  )
         2           Mg  tau(   2) = (  0.0397770  0.5000000  0.3373023  )
         3           Mg  tau(   3) = (  0.0500808  0.5000000  0.9000519  )
         4           Mg  tau(   4) = (  0.0751618  0.0000000  0.0794004  )
         5           Mg  tau(   5) = (  0.0854298  0.0000000  0.6413577  )
         6           Si  tau(   6) = (  0.0378777  0.0000000  0.6495870  )
         7           Si  tau(   7) = (  0.0540588  0.0000000  0.2067124  )
         8           Al  tau(   8) = (  0.0584836  0.0000000  0.6162176  )
         9           Al  tau(   9) = (  0.0668470  0.5000000  0.3645961  )
        10           Si  tau(  10) = (  0.0714338  0.5000000  0.7745173  )
        11           Si  tau(  11) = (  0.0874274  0.5000000  0.3268931  )
        12           Al  tau(  12) = (  0.0948465  0.5000000  0.9894663  )
        13           Mg  tau(  13) = (  0.1042790  0.0000000  0.3379200  )
        14           Mg  tau(  14) = (  0.1145766  0.0000000  0.8998548  )
        15           Mg  tau(  15) = (  0.0100509  0.5000000  0.0827615  )
        16           Mg  tau(  16) = (  0.0208689  0.5000000  0.6310022  )
        17           Si  tau(  17) = (  0.1023449  0.5000000  0.6529709  )
        18           Si  tau(  18) = (  0.1182874  0.5000000  0.2051299  )
        19           Al  tau(  19) = (  0.9945645  0.5000000  0.6140483  )
        20           Al  tau(  20) = (  0.1311619  0.0000000  0.3634963  )
        21           Si  tau(  21) = (  0.0084977  0.0000000  0.7737054  )
        22           Si  tau(  22) = (  0.0226207  0.0000000  0.3238321  )
        23           Al  tau(  23) = (  0.1591731  0.0000000  0.9885534  )
        24           Mg  tau(  24) = (  0.1685813  0.5000000  0.3368557  )
        25           Mg  tau(  25) = (  0.1788699  0.5000000  0.8988238  )
        26           Mg  tau(  26) = (  0.2037702  0.0000000  0.0778636  )
        27           Mg  tau(  27) = (  0.2140457  0.0000000  0.6399408  )
        28           Si  tau(  28) = (  0.1666286  0.0000000  0.6517449  )
        29           Si  tau(  29) = (  0.1825782  0.0000000  0.2041336  )
        30           Al  tau(  30) = (  0.1871863  0.0000000  0.6139362  )
        31           Al  tau(  31) = (  0.1954454  0.5000000  0.3627368  )
        32           Si  tau(  32) = (  0.2000556  0.5000000  0.7725824  )
        33           Si  tau(  33) = (  0.2159990  0.5000000  0.3251404  )
        34           Al  tau(  34) = (  0.2234536  0.5000000  0.9884327  )
        35           Mg  tau(  35) = (  0.2328530  0.0000000  0.3369388  )
        36           Mg  tau(  36) = (  0.2431283  0.0000000  0.8988626  )
        37           Mg  tau(  37) = (  0.1394719  0.5000000  0.0785243  )
        38           Mg  tau(  38) = (  0.1497656  0.5000000  0.6402598  )
        39           Si  tau(  39) = (  0.2308969  0.5000000  0.6516165  )
        40           Si  tau(  40) = (  0.2468238  0.5000000  0.2041014  )
        41           Al  tau(  41) = (  0.1228964  0.5000000  0.6149013  )
        42           Al  tau(  42) = (  0.2596697  0.0000000  0.3628548  )
        43           Si  tau(  43) = (  0.1357786  0.0000000  0.7733007  )
        44           Si  tau(  44) = (  0.1517196  0.0000000  0.3254756  )
        45           Al  tau(  45) = (  0.2876368  0.0000000  0.9884938  )
        46           Mg  tau(  46) = (  0.2970156  0.5000000  0.3369906  )
        47           Mg  tau(  47) = (  0.3072701  0.5000000  0.8989159  )
        48           Mg  tau(  48) = (  0.3320989  0.0000000  0.0778915  )
        49           Mg  tau(  49) = (  0.3423496  0.0000000  0.6397905  )
        50           Si  tau(  50) = (  0.2950660  0.0000000  0.6517434  )
        51           Si  tau(  51) = (  0.3109538  0.0000000  0.2040402  )
        52           Al  tau(  52) = (  0.3155803  0.0000000  0.6138412  )
        53           Al  tau(  53) = (  0.3237819  0.5000000  0.3629063  )
        54           Si  tau(  54) = (  0.3284054  0.5000000  0.7727480  )
        55           Si  tau(  55) = (  0.3442953  0.5000000  0.3251374  )
        56           Al  tau(  56) = (  0.3517236  0.5000000  0.9884425  )
        57           Mg  tau(  57) = (  0.3611137  0.0000000  0.3369818  )
        58           Mg  tau(  58) = (  0.3713543  0.0000000  0.8996561  )
        59           Mg  tau(  59) = (  0.2679997  0.5000000  0.0778777  )
        60           Mg  tau(  60) = (  0.2782536  0.5000000  0.6400814  )
        61           Si  tau(  61) = (  0.3591621  0.5000000  0.6518794  )
        62           Si  tau(  62) = (  0.3750801  0.5000000  0.2050022  )
        63           Al  tau(  63) = (  0.2514401  0.5000000  0.6139403  )
        64           Al  tau(  64) = (  0.3879106  0.0000000  0.3643689  )
        65           Si  tau(  65) = (  0.2642862  0.0000000  0.7726888  )
        66           Si  tau(  66) = (  0.2801932  0.0000000  0.3251716  )
        67           Al  tau(  67) = (  0.4159177  0.0000000  0.9917587  )
        68           Mg  tau(  68) = (  0.4253197  0.5000000  0.3404913  )
        69           Mg  tau(  69) = (  0.4355262  0.5000000  0.9035381  )
        70           Mg  tau(  70) = (  0.4606318  0.0000000  0.0847244  )
        71           Mg  tau(  71) = (  0.4709049  0.0000000  0.6483411  )
        72           Si  tau(  72) = (  0.4233207  0.0000000  0.6547507  )
        73           Si  tau(  73) = (  0.4393088  0.0000000  0.2086598  )
        74           Al  tau(  74) = (  0.4438916  0.0000000  0.6188891  )
        75           Al  tau(  75) = (  0.4522097  0.5000000  0.3681065  )
        76           Si  tau(  76) = (  0.4566316  0.5000000  0.7778373  )
        77           Si  tau(  77) = (  0.4727974  0.5000000  0.3358751  )
        78           Al  tau(  78) = (  0.4799849  0.5000000  0.9958563  )
        79           Mg  tau(  79) = (  0.4897778  0.0000000  0.3554300  )
        80           Mg  tau(  80) = (  0.5005422  0.0000000  0.9043911  )
        81           Mg  tau(  81) = (  0.3962582  0.5000000  0.0798642  )
        82           Mg  tau(  82) = (  0.4064895  0.5000000  0.6425668  )
        83           Si  tau(  83) = (  0.4880171  0.5000000  0.6622769  )
        84           Si  tau(  84) = (  0.5021041  0.5000000  0.2133468  )
        85           Al  tau(  85) = (  0.3796910  0.5000000  0.6149787  )
        86           Al  tau(  86) = (  0.5160083  0.0000000  0.3744611  )
        87           Si  tau(  87) = (  0.3925151  0.0000000  0.7744467  )
        88           Si  tau(  88) = (  0.4084462  0.0000000  0.3280067  )
        89           Al  tau(  89) = (  0.5484124  0.0000000  0.7281138  )
        90           Al  tau(  90) = (  0.5428300  0.5000000  0.9993935  )
        91           Al  tau(  91) = (  0.5649512  0.5000000  0.9083677  )
        92           Al  tau(  92) = (  0.5593234  0.0000000  0.1798589  )
        93           Al  tau(  93) = (  0.5814288  0.0000000  0.0899100  )
        94           Al  tau(  94) = (  0.5759106  0.5000000  0.3625488  )
        95           Al  tau(  95) = (  0.5979640  0.5000000  0.2719750  )
        96           Al  tau(  96) = (  0.6144851  0.0000000  0.4541627  )
        97           Al  tau(  97) = (  0.5095266  0.5000000  0.6343407  )
        98           Al  tau(  98) = (  0.5322867  0.5000000  0.5512075  )
        99           Al  tau(  99) = (  0.5254060  0.0000000  0.8175942  )
       100           Al  tau( 100) = (  0.5372075  0.0000000  0.2714225  )
       101           Al  tau( 101) = (  0.5539212  0.5000000  0.4533117  )
       102           Al  tau( 102) = (  0.5703395  0.0000000  0.6349105  )
       103           Al  tau( 103) = (  0.5924279  0.0000000  0.5443941  )
       104           Al  tau( 104) = (  0.5869348  0.5000000  0.8170346  )
       105           Al  tau( 105) = (  0.6089921  0.5000000  0.7268002  )
       106           Al  tau( 106) = (  0.6034599  0.0000000  0.9991334  )
       107           Al  tau( 107) = (  0.6255226  0.0000000  0.9090490  )
       108           Al  tau( 108) = (  0.6200069  0.5000000  0.1816037  )
       109           Al  tau( 109) = (  0.6365445  0.0000000  0.3638215  )
       110           Al  tau( 110) = (  0.5208528  0.5000000  0.0849542  )
       111           Al  tau( 111) = (  0.6696340  0.0000000  0.7282060  )
       112           Al  tau( 112) = (  0.6641206  0.5000000  0.0008470  )
       113           Al  tau( 113) = (  0.6861742  0.5000000  0.9101043  )
       114           Al  tau( 114) = (  0.6806611  0.0000000  0.1828153  )
       115           Al  tau( 115) = (  0.7027072  0.0000000  0.0917916  )
       116           Al  tau( 116) = (  0.6971957  0.5000000  0.3645767  )
       117           Al  tau( 117) = (  0.7192438  0.5000000  0.2734314  )
       118           Al  tau( 118) = (  0.7357875  0.0000000  0.4550656  )
       119           Al  tau( 119) = (  0.6310337  0.5000000  0.6364350  )
       120           Al  tau( 120) = (  0.6530940  0.5000000  0.5460875  )
       121           Al  tau( 121) = (  0.6475720  0.0000000  0.8186820  )
       122           Al  tau( 122) = (  0.6586082  0.0000000  0.2735062  )
       123           Al  tau( 123) = (  0.6751520  0.5000000  0.4555617  )
       124           Al  tau( 124) = (  0.6916852  0.0000000  0.6373538  )
       125           Al  tau( 125) = (  0.7137302  0.0000000  0.5462098  )
       126           Al  tau( 126) = (  0.7082185  0.5000000  0.8190126  )
       127           Al  tau( 127) = (  0.7302719  0.5000000  0.7278496  )
       128           Al  tau( 128) = (  0.7247573  0.0000000  0.0006375  )
       129           Al  tau( 129) = (  0.7468194  0.0000000  0.9094940  )
       130           Al  tau( 130) = (  0.7413033  0.5000000  0.1822778  )
       131           Al  tau( 131) = (  0.7578536  0.0000000  0.3639307  )
       132           Al  tau( 132) = (  0.6420681  0.5000000  0.0913383  )
       133           Al  tau( 133) = (  0.7909703  0.0000000  0.7273281  )
       134           Al  tau( 134) = (  0.7854498  0.5000000  0.0000914  )
       135           Al  tau( 135) = (  0.8075357  0.5000000  0.9090697  )
       136           Al  tau( 136) = (  0.8020139  0.0000000  0.1818187  )
       137           Al  tau( 137) = (  0.8241021  0.0000000  0.0907832  )
       138           Al  tau( 138) = (  0.8185802  0.5000000  0.3635461  )
       139           Al  tau( 139) = (  0.8406732  0.5000000  0.2724661  )
       140           Al  tau( 140) = (  0.8572444  0.0000000  0.4539372  )
       141           Al  tau( 141) = (  0.7523366  0.5000000  0.6367143  )
       142           Al  tau( 142) = (  0.7744092  0.5000000  0.5456126  )
       143           Al  tau( 143) = (  0.7688901  0.0000000  0.8183842  )
       144           Al  tau( 144) = (  0.7799293  0.0000000  0.2728505  )
       145           Al  tau( 145) = (  0.7964925  0.5000000  0.4545841  )
       146           Al  tau( 146) = (  0.8130582  0.0000000  0.6363143  )
       147           Al  tau( 147) = (  0.8351458  0.0000000  0.5452292  )
       148           Al  tau( 148) = (  0.8296270  0.5000000  0.8180376  )
       149           Al  tau( 149) = (  0.8517200  0.5000000  0.7267903  )
       150           Al  tau( 150) = (  0.8461972  0.0000000  0.9996753  )
       151           Al  tau( 151) = (  0.8682901  0.0000000  0.9079571  )
       152           Al  tau( 152) = (  0.8627765  0.5000000  0.1810263  )
       153           Al  tau( 153) = (  0.8793465  0.0000000  0.3618297  )
       154           Al  tau( 154) = (  0.7633718  0.5000000  0.0911558  )
       155           Al  tau( 155) = (  0.9124607  0.0000000  0.7228122  )
       156           Al  tau( 156) = (  0.9069522  0.5000000  0.9961884  )
       157           Al  tau( 157) = (  0.9290257  0.5000000  0.9036451  )
       158           Al  tau( 158) = (  0.9235119  0.0000000  0.1768625  )
       159           Al  tau( 159) = (  0.9455161  0.0000000  0.0839843  )
       160           Al  tau( 160) = (  0.9401331  0.5000000  0.3579005  )
       161           Al  tau( 161) = (  0.9620805  0.5000000  0.2630803  )
       162           Al  tau( 162) = (  0.9782457  0.0000000  0.4385818  )
       163           Al  tau( 163) = (  0.8738229  0.5000000  0.6349728  )
       164           Al  tau( 164) = (  0.8959087  0.5000000  0.5423531  )
       165           Al  tau( 165) = (  0.8903850  0.0000000  0.8154663  )
       166           Al  tau( 166) = (  0.9014149  0.0000000  0.2690334  )
       167           Al  tau( 167) = (  0.9179976  0.5000000  0.4499876  )
       168           Al  tau( 168) = (  0.9345489  0.0000000  0.6305751  )
       169           Al  tau( 169) = (  0.9565752  0.0000000  0.5383263  )
       170           Al  tau( 170) = (  0.9511680  0.5000000  0.8119995  )
       171           Al  tau( 171) = (  0.9733464  0.5000000  0.7188323  )
       172           Al  tau( 172) = (  0.9676793  0.0000000  0.9912038  )
       173           Al  tau( 173) = (  0.9897358  0.0000000  0.9036016  )
       174           Al  tau( 174) = (  0.9851277  0.5000000  0.1713615  )
       175           Al  tau( 175) = (  0.0010704  0.0000000  0.3534497  )
       176           Al  tau( 176) = (  0.8848603  0.5000000  0.0886402  )

     number of k points=   131  Methfessel-Paxton smearing, width (Ry)=  0.0441
                       cart. coord. in units 2pi/alat
        k(    1) = (   0.0000000   0.0000000   0.0000000), wk =   0.0076923
        k(    2) = (   0.0000000   0.0000000   1.4931606), wk =   0.0153846
        k(    3) = (   0.0000000   0.0000000   2.9863211), wk =   0.0153846
        k(    4) = (   0.0000000   0.0000000   4.4794817), wk =   0.0153846
        k(    5) = (   0.0000000   0.0000000   5.9726423), wk =   0.0153846
        k(    6) = (   0.0000000   0.0000000   7.4658029), wk =   0.0153846
        k(    7) = (   0.0000000   0.0000000   8.9589634), wk =   0.0153846
        k(    8) = (   0.0000000   1.4804961   0.0000000), wk =   0.0153846
        k(    9) = (   0.0000000   1.4804961   1.4931606), wk =   0.0153846
        k(   10) = (   0.0000000   1.4804961   2.9863211), wk =   0.0153846
        k(   11) = (   0.0000000   1.4804961   4.4794817), wk =   0.0153846
        k(   12) = (   0.0000000   1.4804961   5.9726423), wk =   0.0153846
        k(   13) = (   0.0000000   1.4804961   7.4658029), wk =   0.0153846
        k(   14) = (   0.0000000   1.4804961   8.9589634), wk =   0.0153846
        k(   15) = (   0.0000000   1.4804961  -8.9589634), wk =   0.0153846
        k(   16) = (   0.0000000   1.4804961  -7.4658029), wk =   0.0153846
        k(   17) = (   0.0000000   1.4804961  -5.9726423), wk =   0.0153846
        k(   18) = (   0.0000000   1.4804961  -4.4794817), wk =   0.0153846
        k(   19) = (   0.0000000   1.4804961  -2.9863211), wk =   0.0153846
        k(   20) = (   0.0000000   1.4804961  -1.4931606), wk =   0.0153846
        k(   21) = (   0.0000000   2.9609922   0.0000000), wk =   0.0153846
        k(   22) = (   0.0000000   2.9609922   1.4931606), wk =   0.0153846
        k(   23) = (   0.0000000   2.9609922   2.9863211), wk =   0.0153846
        k(   24) = (   0.0000000   2.9609922   4.4794817), wk =   0.0153846
        k(   25) = (   0.0000000   2.9609922   5.9726423), wk =   0.0153846
        k(   26) = (   0.0000000   2.9609922   7.4658029), wk =   0.0153846
        k(   27) = (   0.0000000   2.9609922   8.9589634), wk =   0.0153846
        k(   28) = (   0.0000000   2.9609922  -8.9589634), wk =   0.0153846
        k(   29) = (   0.0000000   2.9609922  -7.4658029), wk =   0.0153846
        k(   30) = (   0.0000000   2.9609922  -5.9726423), wk =   0.0153846
        k(   31) = (   0.0000000   2.9609922  -4.4794817), wk =   0.0153846
        k(   32) = (   0.0000000   2.9609922  -2.9863211), wk =   0.0153846
        k(   33) = (   0.0000000   2.9609922  -1.4931606), wk =   0.0153846
        k(   34) = (   0.0000000   4.4414882   0.0000000), wk =   0.0153846
        k(   35) = (   0.0000000   4.4414882   1.4931606), wk =   0.0153846
        k(   36) = (   0.0000000   4.4414882   2.9863211), wk =   0.0153846
        k(   37) = (   0.0000000   4.4414882   4.4794817), wk =   0.0153846
        k(   38) = (   0.0000000   4.4414882   5.9726423), wk =   0.0153846
        k(   39) = (   0.0000000   4.4414882   7.4658029), wk =   0.0153846
        k(   40) = (   0.0000000   4.4414882   8.9589634), wk =   0.0153846
        k(   41) = (   0.0000000   4.4414882  -8.9589634), wk =   0.0153846
        k(   42) = (   0.0000000   4.4414882  -7.4658029), wk =   0.0153846
        k(   43) = (   0.0000000   4.4414882  -5.9726423), wk =   0.0153846
        k(   44) = (   0.0000000   4.4414882  -4.4794817), wk =   0.0153846
        k(   45) = (   0.0000000   4.4414882  -2.9863211), wk =   0.0153846
        k(   46) = (   0.0000000   4.4414882  -1.4931606), wk =   0.0153846
        k(   47) = (   0.0000000   5.9219843   0.0000000), wk =   0.0153846
        k(   48) = (   0.0000000   5.9219843   1.4931606), wk =   0.0153846
        k(   49) = (   0.0000000   5.9219843   2.9863211), wk =   0.0153846
        k(   50) = (   0.0000000   5.9219843   4.4794817), wk =   0.0153846
        k(   51) = (   0.0000000   5.9219843   5.9726423), wk =   0.0153846
        k(   52) = (   0.0000000   5.9219843   7.4658029), wk =   0.0153846
        k(   53) = (   0.0000000   5.9219843   8.9589634), wk =   0.0153846
        k(   54) = (   0.0000000   5.9219843  -8.9589634), wk =   0.0153846
        k(   55) = (   0.0000000   5.9219843  -7.4658029), wk =   0.0153846
        k(   56) = (   0.0000000   5.9219843  -5.9726423), wk =   0.0153846
        k(   57) = (   0.0000000   5.9219843  -4.4794817), wk =   0.0153846
        k(   58) = (   0.0000000   5.9219843  -2.9863211), wk =   0.0153846
        k(   59) = (   0.0000000   5.9219843  -1.4931606), wk =   0.0153846
        k(   60) = (   0.0000000   7.4024804   0.0000000), wk =   0.0153846
        k(   61) = (   0.0000000   7.4024804   1.4931606), wk =   0.0153846
        k(   62) = (   0.0000000   7.4024804   2.9863211), wk =   0.0153846
        k(   63) = (   0.0000000   7.4024804   4.4794817), wk =   0.0153846
        k(   64) = (   0.0000000   7.4024804   5.9726423), wk =   0.0153846
        k(   65) = (   0.0000000   7.4024804   7.4658029), wk =   0.0153846
        k(   66) = (   0.0000000   7.4024804   8.9589634), wk =   0.0153846
        k(   67) = (   0.0000000   7.4024804  -8.9589634), wk =   0.0153846
        k(   68) = (   0.0000000   7.4024804  -7.4658029), wk =   0.0153846
        k(   69) = (   0.0000000   7.4024804  -5.9726423), wk =   0.0153846
        k(   70) = (   0.0000000   7.4024804  -4.4794817), wk =   0.0153846
        k(   71) = (   0.0000000   7.4024804  -2.9863211), wk =   0.0153846
        k(   72) = (   0.0000000   7.4024804  -1.4931606), wk =   0.0153846
        k(   73) = (   0.0000000   8.8829765   0.0000000), wk =   0.0153846
        k(   74) = (   0.0000000   8.8829765   1.4931606), wk =   0.0153846
        k(   75) = (   0.0000000   8.8829765   2.9863211), wk =   0.0153846
        k(   76) = (   0.0000000   8.8829765   4.4794817), wk =   0.0153846
        k(   77) = (   0.0000000   8.8829765   5.9726423), wk =   0.0153846
        k(   78) = (   0.0000000   8.8829765   7.4658029), wk =   0.0153846
        k(   79) = (   0.0000000   8.8829765   8.9589634), wk =   0.0153846
        k(   80) = (   0.0000000   8.8829765  -8.9589634), wk =   0.0153846
        k(   81) = (   0.0000000   8.8829765  -7.4658029), wk =   0.0153846
        k(   82) = (   0.0000000   8.8829765  -5.9726423), wk =   0.0153846
        k(   83) = (   0.0000000   8.8829765  -4.4794817), wk =   0.0153846
        k(   84) = (   0.0000000   8.8829765  -2.9863211), wk =   0.0153846
        k(   85) = (   0.0000000   8.8829765  -1.4931606), wk =   0.0153846
        k(   86) = (   0.0000000  10.3634726   0.0000000), wk =   0.0153846
        k(   87) = (   0.0000000  10.3634726   1.4931606), wk =   0.0153846
        k(   88) = (   0.0000000  10.3634726   2.9863211), wk =   0.0153846
        k(   89) = (   0.0000000  10.3634726   4.4794817), wk =   0.0153846
        k(   90) = (   0.0000000  10.3634726   5.9726423), wk =   0.0153846
        k(   91) = (   0.0000000  10.3634726   7.4658029), wk =   0.0153846
        k(   92) = (   0.0000000  10.3634726   8.9589634), wk =   0.0153846
        k(   93) = (   0.0000000  10.3634726  -8.9589634), wk =   0.0153846
        k(   94) = (   0.0000000  10.3634726  -7.4658029), wk =   0.0153846
        k(   95) = (   0.0000000  10.3634726  -5.9726423), wk =   0.0153846
        k(   96) = (   0.0000000  10.3634726  -4.4794817), wk =   0.0153846
        k(   97) = (   0.0000000  10.3634726  -2.9863211), wk =   0.0153846
        k(   98) = (   0.0000000  10.3634726  -1.4931606), wk =   0.0153846
        k(   99) = (   0.0000000  11.8439686   0.0000000), wk =   0.0153846
        k(  100) = (   0.0000000  11.8439686   1.4931606), wk =   0.0153846
        k(  101) = (   0.0000000  11.8439686   2.9863211), wk =   0.0153846
        k(  102) = (   0.0000000  11.8439686   4.4794817), wk =   0.0153846
        k(  103) = (   0.0000000  11.8439686   5.9726423), wk =   0.0153846
        k(  104) = (   0.0000000  11.8439686   7.4658029), wk =   0.0153846
        k(  105) = (   0.0000000  11.8439686   8.9589634), wk =   0.0153846
        k(  106) = (   0.0000000  11.8439686  -8.9589634), wk =   0.0153846
        k(  107) = (   0.0000000  11.8439686  -7.4658029), wk =   0.0153846
        k(  108) = (   0.0000000  11.8439686  -5.9726423), wk =   0.0153846
        k(  109) = (   0.0000000  11.8439686  -4.4794817), wk =   0.0153846
        k(  110) = (   0.0000000  11.8439686  -2.9863211), wk =   0.0153846
        k(  111) = (   0.0000000  11.8439686  -1.4931606), wk =   0.0153846
        k(  112) = (   0.0000000  13.3244647   0.0000000), wk =   0.0153846
        k(  113) = (   0.0000000  13.3244647   1.4931606), wk =   0.0153846
        k(  114) = (   0.0000000  13.3244647   2.9863211), wk =   0.0153846
        k(  115) = (   0.0000000  13.3244647   4.4794817), wk =   0.0153846
        k(  116) = (   0.0000000  13.3244647   5.9726423), wk =   0.0153846
        k(  117) = (   0.0000000  13.3244647   7.4658029), wk =   0.0153846
        k(  118) = (   0.0000000  13.3244647   8.9589634), wk =   0.0153846
        k(  119) = (   0.0000000  13.3244647  -8.9589634), wk =   0.0153846
        k(  120) = (   0.0000000  13.3244647  -7.4658029), wk =   0.0153846
        k(  121) = (   0.0000000  13.3244647  -5.9726423), wk =   0.0153846
        k(  122) = (   0.0000000  13.3244647  -4.4794817), wk =   0.0153846
        k(  123) = (   0.0000000  13.3244647  -2.9863211), wk =   0.0153846
        k(  124) = (   0.0000000  13.3244647  -1.4931606), wk =   0.0153846
        k(  125) = (   0.0000000 -14.8049608   0.0000000), wk =   0.0076923
        k(  126) = (   0.0000000 -14.8049608   1.4931606), wk =   0.0153846
        k(  127) = (   0.0000000 -14.8049608   2.9863211), wk =   0.0153846
        k(  128) = (   0.0000000 -14.8049608   4.4794817), wk =   0.0153846
        k(  129) = (   0.0000000 -14.8049608   5.9726423), wk =   0.0153846
        k(  130) = (   0.0000000 -14.8049608   7.4658029), wk =   0.0153846
        k(  131) = (   0.0000000 -14.8049608   8.9589634), wk =   0.0153846

                       cryst. coord.
        k(    1) = (   0.0000000   0.0000000   0.0000000), wk =   0.0076923
        k(    2) = (   0.0000000   0.0000000   0.0769231), wk =   0.0153846
        k(    3) = (   0.0000000   0.0000000   0.1538462), wk =   0.0153846
        k(    4) = (   0.0000000   0.0000000   0.2307692), wk =   0.0153846
        k(    5) = (   0.0000000   0.0000000   0.3076923), wk =   0.0153846
        k(    6) = (   0.0000000   0.0000000   0.3846154), wk =   0.0153846
        k(    7) = (   0.0000000   0.0000000   0.4615385), wk =   0.0153846
        k(    8) = (   0.0000000   0.0500000   0.0000000), wk =   0.0153846
        k(    9) = (   0.0000000   0.0500000   0.0769231), wk =   0.0153846
        k(   10) = (   0.0000000   0.0500000   0.1538462), wk =   0.0153846
        k(   11) = (   0.0000000   0.0500000   0.2307692), wk =   0.0153846
        k(   12) = (   0.0000000   0.0500000   0.3076923), wk =   0.0153846
        k(   13) = (   0.0000000   0.0500000   0.3846154), wk =   0.0153846
        k(   14) = (   0.0000000   0.0500000   0.4615385), wk =   0.0153846
        k(   15) = (   0.0000000   0.0500000  -0.4615385), wk =   0.0153846
        k(   16) = (   0.0000000   0.0500000  -0.3846154), wk =   0.0153846
        k(   17) = (   0.0000000   0.0500000  -0.3076923), wk =   0.0153846
        k(   18) = (   0.0000000   0.0500000  -0.2307692), wk =   0.0153846
        k(   19) = (   0.0000000   0.0500000  -0.1538462), wk =   0.0153846
        k(   20) = (   0.0000000   0.0500000  -0.0769231), wk =   0.0153846
        k(   21) = (   0.0000000   0.1000000   0.0000000), wk =   0.0153846
        k(   22) = (   0.0000000   0.1000000   0.0769231), wk =   0.0153846
        k(   23) = (   0.0000000   0.1000000   0.1538462), wk =   0.0153846
        k(   24) = (   0.0000000   0.1000000   0.2307692), wk =   0.0153846
        k(   25) = (   0.0000000   0.1000000   0.3076923), wk =   0.0153846
        k(   26) = (   0.0000000   0.1000000   0.3846154), wk =   0.0153846
        k(   27) = (   0.0000000   0.1000000   0.4615385), wk =   0.0153846
        k(   28) = (   0.0000000   0.1000000  -0.4615385), wk =   0.0153846
        k(   29) = (   0.0000000   0.1000000  -0.3846154), wk =   0.0153846
        k(   30) = (   0.0000000   0.1000000  -0.3076923), wk =   0.0153846
        k(   31) = (   0.0000000   0.1000000  -0.2307692), wk =   0.0153846
        k(   32) = (   0.0000000   0.1000000  -0.1538462), wk =   0.0153846
        k(   33) = (   0.0000000   0.1000000  -0.0769231), wk =   0.0153846
        k(   34) = (   0.0000000   0.1500000   0.0000000), wk =   0.0153846
        k(   35) = (   0.0000000   0.1500000   0.0769231), wk =   0.0153846
        k(   36) = (   0.0000000   0.1500000   0.1538462), wk =   0.0153846
        k(   37) = (   0.0000000   0.1500000   0.2307692), wk =   0.0153846
        k(   38) = (   0.0000000   0.1500000   0.3076923), wk =   0.0153846
        k(   39) = (   0.0000000   0.1500000   0.3846154), wk =   0.0153846
        k(   40) = (   0.0000000   0.1500000   0.4615385), wk =   0.0153846
        k(   41) = (   0.0000000   0.1500000  -0.4615385), wk =   0.0153846
        k(   42) = (   0.0000000   0.1500000  -0.3846154), wk =   0.0153846
        k(   43) = (   0.0000000   0.1500000  -0.3076923), wk =   0.0153846
        k(   44) = (   0.0000000   0.1500000  -0.2307692), wk =   0.0153846
        k(   45) = (   0.0000000   0.1500000  -0.1538462), wk =   0.0153846
        k(   46) = (   0.0000000   0.1500000  -0.0769231), wk =   0.0153846
        k(   47) = (   0.0000000   0.2000000   0.0000000), wk =   0.0153846
        k(   48) = (   0.0000000   0.2000000   0.0769231), wk =   0.0153846
        k(   49) = (   0.0000000   0.2000000   0.1538462), wk =   0.0153846
        k(   50) = (   0.0000000   0.2000000   0.2307692), wk =   0.0153846
        k(   51) = (   0.0000000   0.2000000   0.3076923), wk =   0.0153846
        k(   52) = (   0.0000000   0.2000000   0.3846154), wk =   0.0153846
        k(   53) = (   0.0000000   0.2000000   0.4615385), wk =   0.0153846
        k(   54) = (   0.0000000   0.2000000  -0.4615385), wk =   0.0153846
        k(   55) = (   0.0000000   0.2000000  -0.3846154), wk =   0.0153846
        k(   56) = (   0.0000000   0.2000000  -0.3076923), wk =   0.0153846
        k(   57) = (   0.0000000   0.2000000  -0.2307692), wk =   0.0153846
        k(   58) = (   0.0000000   0.2000000  -0.1538462), wk =   0.0153846
        k(   59) = (   0.0000000   0.2000000  -0.0769231), wk =   0.0153846
        k(   60) = (   0.0000000   0.2500000   0.0000000), wk =   0.0153846
        k(   61) = (   0.0000000   0.2500000   0.0769231), wk =   0.0153846
        k(   62) = (   0.0000000   0.2500000   0.1538462), wk =   0.0153846
        k(   63) = (   0.0000000   0.2500000   0.2307692), wk =   0.0153846
        k(   64) = (   0.0000000   0.2500000   0.3076923), wk =   0.0153846
        k(   65) = (   0.0000000   0.2500000   0.3846154), wk =   0.0153846
        k(   66) = (   0.0000000   0.2500000   0.4615385), wk =   0.0153846
        k(   67) = (   0.0000000   0.2500000  -0.4615385), wk =   0.0153846
        k(   68) = (   0.0000000   0.2500000  -0.3846154), wk =   0.0153846
        k(   69) = (   0.0000000   0.2500000  -0.3076923), wk =   0.0153846
        k(   70) = (   0.0000000   0.2500000  -0.2307692), wk =   0.0153846
        k(   71) = (   0.0000000   0.2500000  -0.1538462), wk =   0.0153846
        k(   72) = (   0.0000000   0.2500000  -0.0769231), wk =   0.0153846
        k(   73) = (   0.0000000   0.3000000   0.0000000), wk =   0.0153846
        k(   74) = (   0.0000000   0.3000000   0.0769231), wk =   0.0153846
        k(   75) = (   0.0000000   0.3000000   0.1538462), wk =   0.0153846
        k(   76) = (   0.0000000   0.3000000   0.2307692), wk =   0.0153846
        k(   77) = (   0.0000000   0.3000000   0.3076923), wk =   0.0153846
        k(   78) = (   0.0000000   0.3000000   0.3846154), wk =   0.0153846
        k(   79) = (   0.0000000   0.3000000   0.4615385), wk =   0.0153846
        k(   80) = (   0.0000000   0.3000000  -0.4615385), wk =   0.0153846
        k(   81) = (   0.0000000   0.3000000  -0.3846154), wk =   0.0153846
        k(   82) = (   0.0000000   0.3000000  -0.3076923), wk =   0.0153846
        k(   83) = (   0.0000000   0.3000000  -0.2307692), wk =   0.0153846
        k(   84) = (   0.0000000   0.3000000  -0.1538462), wk =   0.0153846
        k(   85) = (   0.0000000   0.3000000  -0.0769231), wk =   0.0153846
        k(   86) = (   0.0000000   0.3500000   0.0000000), wk =   0.0153846
        k(   87) = (   0.0000000   0.3500000   0.0769231), wk =   0.0153846
        k(   88) = (   0.0000000   0.3500000   0.1538462), wk =   0.0153846
        k(   89) = (   0.0000000   0.3500000   0.2307692), wk =   0.0153846
        k(   90) = (   0.0000000   0.3500000   0.3076923), wk =   0.0153846
        k(   91) = (   0.0000000   0.3500000   0.3846154), wk =   0.0153846
        k(   92) = (   0.0000000   0.3500000   0.4615385), wk =   0.0153846
        k(   93) = (   0.0000000   0.3500000  -0.4615385), wk =   0.0153846
        k(   94) = (   0.0000000   0.3500000  -0.3846154), wk =   0.0153846
        k(   95) = (   0.0000000   0.3500000  -0.3076923), wk =   0.0153846
        k(   96) = (   0.0000000   0.3500000  -0.2307692), wk =   0.0153846
        k(   97) = (   0.0000000   0.3500000  -0.1538462), wk =   0.0153846
        k(   98) = (   0.0000000   0.3500000  -0.0769231), wk =   0.0153846
        k(   99) = (   0.0000000   0.4000000   0.0000000), wk =   0.0153846
        k(  100) = (   0.0000000   0.4000000   0.0769231), wk =   0.0153846
        k(  101) = (   0.0000000   0.4000000   0.1538462), wk =   0.0153846
        k(  102) = (   0.0000000   0.4000000   0.2307692), wk =   0.0153846
        k(  103) = (   0.0000000   0.4000000   0.3076923), wk =   0.0153846
        k(  104) = (   0.0000000   0.4000000   0.3846154), wk =   0.0153846
        k(  105) = (   0.0000000   0.4000000   0.4615385), wk =   0.0153846
        k(  106) = (   0.0000000   0.4000000  -0.4615385), wk =   0.0153846
        k(  107) = (   0.0000000   0.4000000  -0.3846154), wk =   0.0153846
        k(  108) = (   0.0000000   0.4000000  -0.3076923), wk =   0.0153846
        k(  109) = (   0.0000000   0.4000000  -0.2307692), wk =   0.0153846
        k(  110) = (   0.0000000   0.4000000  -0.1538462), wk =   0.0153846
        k(  111) = (   0.0000000   0.4000000  -0.0769231), wk =   0.0153846
        k(  112) = (   0.0000000   0.4500000   0.0000000), wk =   0.0153846
        k(  113) = (   0.0000000   0.4500000   0.0769231), wk =   0.0153846
        k(  114) = (   0.0000000   0.4500000   0.1538462), wk =   0.0153846
        k(  115) = (   0.0000000   0.4500000   0.2307692), wk =   0.0153846
        k(  116) = (   0.0000000   0.4500000   0.3076923), wk =   0.0153846
        k(  117) = (   0.0000000   0.4500000   0.3846154), wk =   0.0153846
        k(  118) = (   0.0000000   0.4500000   0.4615385), wk =   0.0153846
        k(  119) = (   0.0000000   0.4500000  -0.4615385), wk =   0.0153846
        k(  120) = (   0.0000000   0.4500000  -0.3846154), wk =   0.0153846
        k(  121) = (   0.0000000   0.4500000  -0.3076923), wk =   0.0153846
        k(  122) = (   0.0000000   0.4500000  -0.2307692), wk =   0.0153846
        k(  123) = (   0.0000000   0.4500000  -0.1538462), wk =   0.0153846
        k(  124) = (   0.0000000   0.4500000  -0.0769231), wk =   0.0153846
        k(  125) = (   0.0000000  -0.5000000   0.0000000), wk =   0.0076923
        k(  126) = (   0.0000000  -0.5000000   0.0769231), wk =   0.0153846
        k(  127) = (   0.0000000  -0.5000000   0.1538462), wk =   0.0153846
        k(  128) = (   0.0000000  -0.5000000   0.2307692), wk =   0.0153846
        k(  129) = (   0.0000000  -0.5000000   0.3076923), wk =   0.0153846
        k(  130) = (   0.0000000  -0.5000000   0.3846154), wk =   0.0153846
        k(  131) = (   0.0000000  -0.5000000   0.4615385), wk =   0.0153846

     Dense  grid:  2750475 G-vectors     FFT dimensions: (1458,  50,  80)

     Smooth grid:   696117 G-vectors     FFT dimensions: ( 960,  32,  50)

     Dynamical RAM for                 wfc:     105.15 MB

     Dynamical RAM for     wfc (w. buffer):     525.74 MB

     Dynamical RAM for           str. fact:      31.48 MB

     Dynamical RAM for           local pot:       0.00 MB

     Dynamical RAM for          nlocal pot:     944.67 MB

     Dynamical RAM for                qrad:     173.67 MB

     Dynamical RAM for          rho,v,vnew:      64.85 MB

     Dynamical RAM for               rhoin:      21.62 MB

     Dynamical RAM for            rho*nmix:     167.88 MB

     Dynamical RAM for           G-vectors:      40.67 MB

     Dynamical RAM for          h,s,v(r/c):      73.60 MB

     Dynamical RAM for          <psi|beta>:      13.78 MB

     Dynamical RAM for                 psi:     420.59 MB

     Dynamical RAM for                hpsi:     420.59 MB

     Dynamical RAM for                spsi:     420.59 MB

     Dynamical RAM for      wfcinit/wfcrot:     478.38 MB

     Dynamical RAM for           addusdens:      97.05 MB

     Dynamical RAM for          addusforce:     213.44 MB

     Dynamical RAM for         addusstress:      63.68 MB

     Estimated static dynamical RAM per process >       2.02 GB

     Estimated max dynamical RAM per process >       3.34 GB

     Estimated total dynamical RAM >     480.56 GB

     Initial potential from superposition of free atoms

     starting charge  527.69604, renormalised to  528.00000
     Starting wfcs are  704 randomized atomic wfcs
     Checking if some PAW data can be deallocated... 
       PAW data deallocated on   35 nodes for type:  1
       PAW data deallocated on  121 nodes for type:  2

     total cpu time spent up to now is      335.9 secs

     Self-consistent Calculation

     iteration #  1     ecut=    40.00 Ry     beta= 0.40
     Davidson diagonalization with overlap
     ethr =  1.00E-02,  avg # of iterations =  3.0

     total cpu time spent up to now is      847.6 secs

     total energy              =   -5868.08937462 Ry
     Harris-Foulkes estimate   =   -5877.01630982 Ry
     estimated scf accuracy    <   15110.58639410 Ry

     iteration #  2     ecut=    40.00 Ry     beta= 0.40
     Davidson diagonalization with overlap
     ethr =  1.00E-02,  avg # of iterations =  1.0

     total cpu time spent up to now is     1206.0 secs

     total energy              =   -5862.83845830 Ry
     Harris-Foulkes estimate   =   -5870.14278333 Ry
     estimated scf accuracy    <    5060.94196653 Ry

     iteration #  3     ecut=    40.00 Ry     beta= 0.40
     Davidson diagonalization with overlap
     ethr =  1.00E-02,  avg # of iterations =  1.0

     total cpu time spent up to now is     1564.2 secs

     total energy              =   -5865.50556545 Ry
     Harris-Foulkes estimate   =   -5865.60471564 Ry
     estimated scf accuracy    <     710.60237497 Ry

     iteration #  4     ecut=    40.00 Ry     beta= 0.40
     Davidson diagonalization with overlap
     ethr =  1.00E-02,  avg # of iterations =  1.0

     total cpu time spent up to now is     1922.5 secs

     total energy              =   -5865.87773098 Ry
     Harris-Foulkes estimate   =   -5865.57849042 Ry
     estimated scf accuracy    <     643.08577524 Ry

     iteration #  5     ecut=    40.00 Ry     beta= 0.40
     Davidson diagonalization with overlap
     ethr =  1.00E-02,  avg # of iterations =  1.0

     total cpu time spent up to now is     2281.7 secs

     total energy              =   -5864.80448726 Ry
     Harris-Foulkes estimate   =   -5865.94094421 Ry
     estimated scf accuracy    <     747.19406377 Ry

     iteration #  6     ecut=    40.00 Ry     beta= 0.40
     Davidson diagonalization with overlap
     ethr =  1.00E-02,  avg # of iterations =  1.0

     total cpu time spent up to now is     2640.5 secs

     total energy              =   -5864.92655324 Ry
     Harris-Foulkes estimate   =   -5864.95962661 Ry
     estimated scf accuracy    <     573.21270972 Ry

     iteration #  7     ecut=    40.00 Ry     beta= 0.40
     Davidson diagonalization with overlap
     ethr =  1.00E-02,  avg # of iterations =  1.0

     total cpu time spent up to now is     3000.2 secs

     total energy              =   -5865.07869396 Ry
     Harris-Foulkes estimate   =   -5864.99821669 Ry
     estimated scf accuracy    <     510.68497450 Ry

     iteration #  8     ecut=    40.00 Ry     beta= 0.40
     Davidson diagonalization with overlap
     ethr =  1.00E-02,  avg # of iterations =  1.0

     total cpu time spent up to now is     3358.9 secs

     total energy              =   -5865.54042070 Ry
     Harris-Foulkes estimate   =   -5865.14757103 Ry
     estimated scf accuracy    <     414.97559730 Ry

     iteration #  9     ecut=    40.00 Ry     beta= 0.40
     Davidson diagonalization with overlap
     ethr =  1.00E-02,  avg # of iterations =  1.1

     total cpu time spent up to now is     3717.2 secs

     total energy              =   -5865.42711138 Ry
     Harris-Foulkes estimate   =   -5865.63309238 Ry
     estimated scf accuracy    <     453.67553129 Ry

     iteration # 10     ecut=    40.00 Ry     beta= 0.40
     Davidson diagonalization with overlap
     ethr =  1.00E-02,  avg # of iterations =  1.0

     total cpu time spent up to now is     4078.1 secs

     total energy              =   -5865.15341416 Ry
     Harris-Foulkes estimate   =   -5865.48637192 Ry
     estimated scf accuracy    <     333.89075259 Ry

     iteration # 11     ecut=    40.00 Ry     beta= 0.40
     Davidson diagonalization with overlap
     ethr =  1.00E-02,  avg # of iterations =  1.1

     total cpu time spent up to now is     4438.5 secs

     total energy              =   -5865.20617743 Ry
     Harris-Foulkes estimate   =   -5865.28026862 Ry
     estimated scf accuracy    <     160.51405419 Ry

     iteration # 12     ecut=    40.00 Ry     beta= 0.40
     Davidson diagonalization with overlap
     ethr =  1.00E-02,  avg # of iterations =  1.0

     total cpu time spent up to now is     4797.2 secs

     total energy              =   -5865.34593366 Ry
     Harris-Foulkes estimate   =   -5865.31405256 Ry
     estimated scf accuracy    <      77.73282875 Ry

     iteration # 13     ecut=    40.00 Ry     beta= 0.40
     Davidson diagonalization with overlap
     ethr =  1.00E-02,  avg # of iterations =  1.0

     total cpu time spent up to now is     5155.8 secs

     total energy              =   -5865.45665310 Ry
     Harris-Foulkes estimate   =   -5865.42007924 Ry
     estimated scf accuracy    <      59.17529504 Ry

     iteration # 14     ecut=    40.00 Ry     beta= 0.40
     Davidson diagonalization with overlap
     ethr =  1.00E-02,  avg # of iterations =  1.0

     total cpu time spent up to now is     5514.0 secs

     total energy              =   -5865.44477713 Ry
     Harris-Foulkes estimate   =   -5865.51462413 Ry
     estimated scf accuracy    <      67.26697335 Ry

     iteration # 15     ecut=    40.00 Ry     beta= 0.40
     Davidson diagonalization with overlap
     ethr =  1.00E-02,  avg # of iterations =  1.0

     total cpu time spent up to now is     5872.5 secs

     total energy              =   -5865.37752124 Ry
     Harris-Foulkes estimate   =   -5865.50885637 Ry
     estimated scf accuracy    <      19.55564475 Ry

     iteration # 16     ecut=    40.00 Ry     beta= 0.40
     Davidson diagonalization with overlap
     ethr =  3.70E-03,  avg # of iterations =  4.6

     total cpu time spent up to now is     6278.4 secs

     total energy              =   -5865.91553814 Ry
     Harris-Foulkes estimate   =   -5865.97621375 Ry
     estimated scf accuracy    <     308.70627303 Ry

     iteration # 17     ecut=    40.00 Ry     beta= 0.40
     Davidson diagonalization with overlap
     ethr =  3.70E-03,  avg # of iterations =  1.1

     total cpu time spent up to now is     6639.6 secs

     total energy              =   -5866.21981664 Ry
     Harris-Foulkes estimate   =   -5865.95795944 Ry
     estimated scf accuracy    <     299.64550443 Ry

     iteration # 18     ecut=    40.00 Ry     beta= 0.40
     Davidson diagonalization with overlap
     ethr =  3.70E-03,  avg # of iterations =  1.7

     total cpu time spent up to now is     7005.7 secs

     total energy              =   -5865.25006930 Ry
     Harris-Foulkes estimate   =   -5866.31918161 Ry
     estimated scf accuracy    <     607.35427232 Ry

     iteration # 19     ecut=    40.00 Ry     beta= 0.40
     Davidson diagonalization with overlap
     ethr =  3.70E-03,  avg # of iterations =  1.0

     total cpu time spent up to now is     7364.1 secs

     total energy              =   -5865.72101294 Ry
     Harris-Foulkes estimate   =   -5865.66552632 Ry
     estimated scf accuracy    <      31.30050156 Ry

     iteration # 20     ecut=    40.00 Ry     beta= 0.40
     Davidson diagonalization with overlap
     ethr =  3.70E-03,  avg # of iterations =  1.0

     total cpu time spent up to now is     7722.6 secs

     total energy              =   -5865.76850907 Ry
     Harris-Foulkes estimate   =   -5865.79174198 Ry
     estimated scf accuracy    <     147.62695241 Ry

     iteration # 21     ecut=    40.00 Ry     beta= 0.40
     Davidson diagonalization with overlap
     ethr =  3.70E-03,  avg # of iterations =  1.0

     total cpu time spent up to now is     8081.3 secs

     total energy              =   -5865.30560407 Ry
     Harris-Foulkes estimate   =   -5865.77464611 Ry
     estimated scf accuracy    <     129.49644212 Ry

     iteration # 22     ecut=    40.00 Ry     beta= 0.40
     Davidson diagonalization with overlap
     ethr =  3.70E-03,  avg # of iterations =  1.0

     total cpu time spent up to now is     8439.6 secs

     total energy              =   -5865.56816202 Ry
     Harris-Foulkes estimate   =   -5865.68906203 Ry
     estimated scf accuracy    <      46.66251747 Ry

     iteration # 23     ecut=    40.00 Ry     beta= 0.40
     Davidson diagonalization with overlap
     ethr =  3.70E-03,  avg # of iterations =  1.0

     total cpu time spent up to now is     8797.9 secs

     total energy              =   -5865.62953793 Ry
     Harris-Foulkes estimate   =   -5865.63132664 Ry
     estimated scf accuracy    <       0.05487425 Ry

     iteration # 24     ecut=    40.00 Ry     beta= 0.40
     Davidson diagonalization with overlap
     ethr =  1.04E-05,  avg # of iterations = 11.7

     total cpu time spent up to now is     9430.8 secs

     total energy              =   -5865.63225937 Ry
     Harris-Foulkes estimate   =   -5865.63325591 Ry
     estimated scf accuracy    <       0.04890239 Ry

     iteration # 25     ecut=    40.00 Ry     beta= 0.40
     Davidson diagonalization with overlap
     ethr =  9.26E-06,  avg # of iterations =  1.0

     total cpu time spent up to now is     9789.5 secs

     total energy              =   -5865.63268400 Ry
     Harris-Foulkes estimate   =   -5865.63289581 Ry
     estimated scf accuracy    <       0.04649098 Ry

     iteration # 26     ecut=    40.00 Ry     beta= 0.40
     Davidson diagonalization with overlap
     ethr =  8.81E-06,  avg # of iterations =  1.0

     total cpu time spent up to now is    10148.0 secs

     total energy              =   -5865.63284239 Ry
     Harris-Foulkes estimate   =   -5865.63291282 Ry
     estimated scf accuracy    <       0.03172817 Ry

     iteration # 27     ecut=    40.00 Ry     beta= 0.40
     Davidson diagonalization with overlap
     ethr =  6.01E-06,  avg # of iterations =  1.0

     total cpu time spent up to now is    10506.9 secs

     total energy              =   -5865.63287897 Ry
     Harris-Foulkes estimate   =   -5865.63290675 Ry
     estimated scf accuracy    <       0.00020963 Ry

     iteration # 28     ecut=    40.00 Ry     beta= 0.40
     Davidson diagonalization with overlap
     ethr =  3.97E-08,  avg # of iterations =  5.1

     total cpu time spent up to now is    11142.8 secs

     total energy              =   -5865.63309652 Ry
     Harris-Foulkes estimate   =   -5865.63311358 Ry
     estimated scf accuracy    <       0.00044169 Ry

     iteration # 29     ecut=    40.00 Ry     beta= 0.40
     Davidson diagonalization with overlap
     ethr =  3.97E-08,  avg # of iterations =  1.2

     total cpu time spent up to now is    11503.1 secs

     total energy              =   -5865.63310260 Ry
     Harris-Foulkes estimate   =   -5865.63310390 Ry
     estimated scf accuracy    <       0.00002767 Ry

     iteration # 30     ecut=    40.00 Ry     beta= 0.40
     Davidson diagonalization with overlap
     ethr =  5.24E-09,  avg # of iterations =  2.9

     total cpu time spent up to now is    11902.4 secs

     total energy              =   -5865.63310229 Ry
     Harris-Foulkes estimate   =   -5865.63310350 Ry
     estimated scf accuracy    <       0.00003787 Ry

     iteration # 31     ecut=    40.00 Ry     beta= 0.40
     Davidson diagonalization with overlap
     ethr =  5.24E-09,  avg # of iterations =  1.0

     total cpu time spent up to now is    12261.0 secs

     total energy              =   -5865.63310273 Ry
     Harris-Foulkes estimate   =   -5865.63310295 Ry
     estimated scf accuracy    <       0.00001235 Ry

     iteration # 32     ecut=    40.00 Ry     beta= 0.40
     Davidson diagonalization with overlap
     ethr =  2.34E-09,  avg # of iterations =  1.0

     total cpu time spent up to now is    12620.1 secs

     total energy              =   -5865.63310279 Ry
     Harris-Foulkes estimate   =   -5865.63310289 Ry
     estimated scf accuracy    <       0.00000220 Ry

     iteration # 33     ecut=    40.00 Ry     beta= 0.40
     Davidson diagonalization with overlap
     ethr =  4.16E-10,  avg # of iterations =  1.9

     total cpu time spent up to now is    12992.1 secs

     total energy              =   -5865.63310280 Ry
     Harris-Foulkes estimate   =   -5865.63310280 Ry
     estimated scf accuracy    <       0.00000008 Ry

     iteration # 34     ecut=    40.00 Ry     beta= 0.40
     Davidson diagonalization with overlap
     ethr =  1.55E-11,  avg # of iterations =  5.6

     total cpu time spent up to now is    13646.5 secs

     total energy              =   -5865.63310267 Ry
     Harris-Foulkes estimate   =   -5865.63310267 Ry
     estimated scf accuracy    <       0.00000014 Ry

     iteration # 35     ecut=    40.00 Ry     beta= 0.40
     Davidson diagonalization with overlap
     ethr =  1.55E-11,  avg # of iterations =  1.0

     total cpu time spent up to now is    14005.1 secs

     total energy              =   -5865.63310263 Ry
     Harris-Foulkes estimate   =   -5865.63310264 Ry
     estimated scf accuracy    <       0.00000013 Ry

     iteration # 36     ecut=    40.00 Ry     beta= 0.40
     Davidson diagonalization with overlap
     ethr =  1.55E-11,  avg # of iterations =  1.0

     total cpu time spent up to now is    14364.0 secs

     total energy              =   -5865.63310262 Ry
     Harris-Foulkes estimate   =   -5865.63310262 Ry
     estimated scf accuracy    <          4.0E-09 Ry

     iteration # 37     ecut=    40.00 Ry     beta= 0.40
     Davidson diagonalization with overlap
     ethr =  7.67E-13,  avg # of iterations =  4.9

     total cpu time spent up to now is    14909.2 secs

     total energy              =   -5865.63310260 Ry
     Harris-Foulkes estimate   =   -5865.63310260 Ry
     estimated scf accuracy    <          5.0E-09 Ry

     iteration # 38     ecut=    40.00 Ry     beta= 0.40
     Davidson diagonalization with overlap
     ethr =  7.67E-13,  avg # of iterations =  2.2

     total cpu time spent up to now is    15278.6 secs

     total energy              =   -5865.63310259 Ry
     Harris-Foulkes estimate   =   -5865.63310259 Ry
     estimated scf accuracy    <          9.3E-10 Ry

     iteration # 39     ecut=    40.00 Ry     beta= 0.40
     Davidson diagonalization with overlap
     ethr =  1.75E-13,  avg # of iterations =  2.8

     total cpu time spent up to now is    15719.4 secs

     total energy              =   -5865.63310259 Ry
     Harris-Foulkes estimate   =   -5865.63310259 Ry
     estimated scf accuracy    <          2.3E-10 Ry

     iteration # 40     ecut=    40.00 Ry     beta= 0.40
     Davidson diagonalization with overlap
     ethr =  1.00E-13,  avg # of iterations =  2.2

     total cpu time spent up to now is    16100.5 secs

     total energy              =   -5865.63310258 Ry
     Harris-Foulkes estimate   =   -5865.63310258 Ry
     estimated scf accuracy    <          1.1E-10 Ry

     iteration # 41     ecut=    40.00 Ry     beta= 0.40
     Davidson diagonalization with overlap
     ethr =  1.00E-13,  avg # of iterations =  1.0

     total cpu time spent up to now is    16459.1 secs

     total energy              =   -5865.63310258 Ry
     Harris-Foulkes estimate   =   -5865.63310258 Ry
     estimated scf accuracy    <          4.5E-11 Ry

     iteration # 42     ecut=    40.00 Ry     beta= 0.40
     Davidson diagonalization with overlap
     ethr =  1.00E-13,  avg # of iterations =  1.0

     total cpu time spent up to now is    16817.5 secs

     total energy              =   -5865.63310258 Ry
     Harris-Foulkes estimate   =   -5865.63310258 Ry
     estimated scf accuracy    <          4.8E-12 Ry

     iteration # 43     ecut=    40.00 Ry     beta= 0.40
     Davidson diagonalization with overlap
     ethr =  1.00E-13,  avg # of iterations =  1.0

     total cpu time spent up to now is    17176.1 secs

     total energy              =   -5865.63310258 Ry
     Harris-Foulkes estimate   =   -5865.63310258 Ry
     estimated scf accuracy    <          8.5E-12 Ry

     iteration # 44     ecut=    40.00 Ry     beta= 0.40
     Davidson diagonalization with overlap
     ethr =  1.00E-13,  avg # of iterations =  1.0

     total cpu time spent up to now is    17534.6 secs

     total energy              =   -5865.63310258 Ry
     Harris-Foulkes estimate   =   -5865.63310258 Ry
     estimated scf accuracy    <          1.7E-12 Ry

     iteration # 45     ecut=    40.00 Ry     beta= 0.40
     Davidson diagonalization with overlap
     ethr =  1.00E-13,  avg # of iterations =  1.0

     total cpu time spent up to now is    17893.0 secs

     total energy              =   -5865.63310258 Ry
     Harris-Foulkes estimate   =   -5865.63310258 Ry
     estimated scf accuracy    <          3.5E-12 Ry

     iteration # 46     ecut=    40.00 Ry     beta= 0.40
     Davidson diagonalization with overlap
     ethr =  1.00E-13,  avg # of iterations =  1.0

     total cpu time spent up to now is    18252.0 secs

     total energy              =   -5865.63310258 Ry
     Harris-Foulkes estimate   =   -5865.63310258 Ry
     estimated scf accuracy    <          1.2E-11 Ry

     iteration # 47     ecut=    40.00 Ry     beta= 0.40
     Davidson diagonalization with overlap
     ethr =  1.00E-13,  avg # of iterations =  1.0

     total cpu time spent up to now is    18610.4 secs

     total energy              =   -5865.63310258 Ry
     Harris-Foulkes estimate   =   -5865.63310258 Ry
     estimated scf accuracy    <          4.5E-11 Ry

     iteration # 48     ecut=    40.00 Ry     beta= 0.40
     Davidson diagonalization with overlap
     ethr =  1.00E-13,  avg # of iterations =  1.0

     total cpu time spent up to now is    18969.1 secs

     total energy              =   -5865.63310257 Ry
     Harris-Foulkes estimate   =   -5865.63310257 Ry
     estimated scf accuracy    <          7.2E-11 Ry

     iteration # 49     ecut=    40.00 Ry     beta= 0.40
     Davidson diagonalization with overlap
     ethr =  1.00E-13,  avg # of iterations =  1.0

     total cpu time spent up to now is    19328.4 secs

     total energy              =   -5865.63310257 Ry
     Harris-Foulkes estimate   =   -5865.63310257 Ry
     estimated scf accuracy    <          1.1E-10 Ry

     iteration # 50     ecut=    40.00 Ry     beta= 0.40
     Davidson diagonalization with overlap
     ethr =  1.00E-13,  avg # of iterations =  1.0

     total cpu time spent up to now is    19687.1 secs

     total energy              =   -5865.63310257 Ry
     Harris-Foulkes estimate   =   -5865.63310257 Ry
     estimated scf accuracy    <          1.5E-10 Ry

     iteration # 51     ecut=    40.00 Ry     beta= 0.40
     Davidson diagonalization with overlap
     ethr =  1.00E-13,  avg # of iterations =  1.0

     total cpu time spent up to now is    20044.8 secs

     total energy              =   -5865.63310257 Ry
     Harris-Foulkes estimate   =   -5865.63310257 Ry
     estimated scf accuracy    <          1.9E-10 Ry

     iteration # 52     ecut=    40.00 Ry     beta= 0.40
     Davidson diagonalization with overlap
     ethr =  1.00E-13,  avg # of iterations =  1.0

     total cpu time spent up to now is    20403.3 secs

     total energy              =   -5865.63310257 Ry
     Harris-Foulkes estimate   =   -5865.63310257 Ry
     estimated scf accuracy    <          2.7E-10 Ry

     iteration # 53     ecut=    40.00 Ry     beta= 0.40
     Davidson diagonalization with overlap
     ethr =  1.00E-13,  avg # of iterations =  1.0

     total cpu time spent up to now is    20762.3 secs

     total energy              =   -5865.63310257 Ry
     Harris-Foulkes estimate   =   -5865.63310257 Ry
     estimated scf accuracy    <          4.0E-10 Ry

     iteration # 54     ecut=    40.00 Ry     beta= 0.40
     Davidson diagonalization with overlap
     ethr =  1.00E-13,  avg # of iterations =  1.0

     total cpu time spent up to now is    21121.0 secs

     total energy              =   -5865.63310257 Ry
     Harris-Foulkes estimate   =   -5865.63310257 Ry
     estimated scf accuracy    <          4.7E-10 Ry

     iteration # 55     ecut=    40.00 Ry     beta= 0.40
     Davidson diagonalization with overlap
     ethr =  1.00E-13,  avg # of iterations =  1.0

     total cpu time spent up to now is    21478.8 secs

     total energy              =   -5865.63310257 Ry
     Harris-Foulkes estimate   =   -5865.63310257 Ry
     estimated scf accuracy    <          4.8E-10 Ry

     iteration # 56     ecut=    40.00 Ry     beta= 0.40
     Davidson diagonalization with overlap
     ethr =  1.00E-13,  avg # of iterations =  1.0

     total cpu time spent up to now is    21837.2 secs

     total energy              =   -5865.63310257 Ry
     Harris-Foulkes estimate   =   -5865.63310257 Ry
     estimated scf accuracy    <          5.3E-10 Ry

     iteration # 57     ecut=    40.00 Ry     beta= 0.40
     Davidson diagonalization with overlap
     ethr =  1.00E-13,  avg # of iterations =  1.0

     total cpu time spent up to now is    22195.8 secs

     total energy              =   -5865.63310257 Ry
     Harris-Foulkes estimate   =   -5865.63310257 Ry
     estimated scf accuracy    <          6.2E-10 Ry

     iteration # 58     ecut=    40.00 Ry     beta= 0.40
     Davidson diagonalization with overlap
     ethr =  1.00E-13,  avg # of iterations =  1.0

     total cpu time spent up to now is    22554.0 secs

     total energy              =   -5865.63310257 Ry
     Harris-Foulkes estimate   =   -5865.63310257 Ry
     estimated scf accuracy    <          6.8E-10 Ry

     iteration # 59     ecut=    40.00 Ry     beta= 0.40
     Davidson diagonalization with overlap
     ethr =  1.00E-13,  avg # of iterations =  1.0

     total cpu time spent up to now is    22911.8 secs

     total energy              =   -5865.63310257 Ry
     Harris-Foulkes estimate   =   -5865.63310257 Ry
     estimated scf accuracy    <          7.3E-10 Ry

     iteration # 60     ecut=    40.00 Ry     beta= 0.40
     Davidson diagonalization with overlap
     ethr =  1.00E-13,  avg # of iterations =  1.0

     total cpu time spent up to now is    23269.5 secs

     total energy              =   -5865.63310257 Ry
     Harris-Foulkes estimate   =   -5865.63310257 Ry
     estimated scf accuracy    <          7.1E-10 Ry

     iteration # 61     ecut=    40.00 Ry     beta= 0.40
     Davidson diagonalization with overlap
     ethr =  1.00E-13,  avg # of iterations =  1.0

     total cpu time spent up to now is    23628.4 secs

     total energy              =   -5865.63310257 Ry
     Harris-Foulkes estimate   =   -5865.63310257 Ry
     estimated scf accuracy    <          8.4E-10 Ry

     iteration # 62     ecut=    40.00 Ry     beta= 0.40
     Davidson diagonalization with overlap
     ethr =  1.00E-13,  avg # of iterations =  1.0

     total cpu time spent up to now is    23987.0 secs

     total energy              =   -5865.63310256 Ry
     Harris-Foulkes estimate   =   -5865.63310256 Ry
     estimated scf accuracy    <          8.4E-10 Ry

     iteration # 63     ecut=    40.00 Ry     beta= 0.40
     Davidson diagonalization with overlap
     ethr =  1.00E-13,  avg # of iterations =  1.0

     total cpu time spent up to now is    24345.7 secs

     total energy              =   -5865.63310256 Ry
     Harris-Foulkes estimate   =   -5865.63310256 Ry
     estimated scf accuracy    <          1.7E-09 Ry

     iteration # 64     ecut=    40.00 Ry     beta= 0.40
     Davidson diagonalization with overlap
     ethr =  1.00E-13,  avg # of iterations =  1.0

     total cpu time spent up to now is    24704.1 secs

     total energy              =   -5865.63310256 Ry
     Harris-Foulkes estimate   =   -5865.63310256 Ry
     estimated scf accuracy    <          1.0E-09 Ry

     iteration # 65     ecut=    40.00 Ry     beta= 0.40
     Davidson diagonalization with overlap
     ethr =  1.00E-13,  avg # of iterations =  1.0

     total cpu time spent up to now is    25062.6 secs

     total energy              =   -5865.63310256 Ry
     Harris-Foulkes estimate   =   -5865.63310256 Ry
     estimated scf accuracy    <          5.5E-10 Ry

     iteration # 66     ecut=    40.00 Ry     beta= 0.40
     Davidson diagonalization with overlap
     ethr =  1.00E-13,  avg # of iterations =  1.0

     total cpu time spent up to now is    25421.1 secs

     total energy              =   -5865.63310256 Ry
     Harris-Foulkes estimate   =   -5865.63310256 Ry
     estimated scf accuracy    <          1.4E-10 Ry

     iteration # 67     ecut=    40.00 Ry     beta= 0.40
     Davidson diagonalization with overlap
     ethr =  1.00E-13,  avg # of iterations =  1.0

     total cpu time spent up to now is    25779.4 secs

     total energy              =   -5865.63310256 Ry
     Harris-Foulkes estimate   =   -5865.63310256 Ry
     estimated scf accuracy    <          1.1E-10 Ry

     iteration # 68     ecut=    40.00 Ry     beta= 0.40
     Davidson diagonalization with overlap
     ethr =  1.00E-13,  avg # of iterations =  1.0

     total cpu time spent up to now is    26137.5 secs

     total energy              =   -5865.63310256 Ry
     Harris-Foulkes estimate   =   -5865.63310256 Ry
     estimated scf accuracy    <          8.3E-12 Ry

     iteration # 69     ecut=    40.00 Ry     beta= 0.40
[...]
     atom  169 type  1   force =     0.00000000    0.00000000    0.00000000
     atom  170 type  1   force =     0.00000000    0.00000000    0.00000000
     atom  171 type  1   force =     0.00000000    0.00000000    0.00000000
     atom  172 type  1   force =     0.00000000    0.00000000    0.00000000
     atom  173 type  1   force =     0.00000000    0.00000000    0.00000000
     atom  174 type  1   force =     0.00000000    0.00000000    0.00000000
     atom  175 type  1   force =     0.00000000    0.00000000    0.00000000
     atom  176 type  1   force =     0.00000000    0.00000000    0.00000000
     The SCF correction term to forces
     atom    1 type  1   force =    -0.00000011   -0.00000000   -0.00000003
     atom    2 type  2   force =    -0.00000008    0.00000000   -0.00000002
     atom    3 type  2   force =    -0.00000008   -0.00000000   -0.00000002
     atom    4 type  2   force =    -0.00000010    0.00000000   -0.00000003
     atom    5 type  2   force =    -0.00000011    0.00000000   -0.00000003
     atom    6 type  3   force =    -0.00000015   -0.00000000   -0.00000004
     atom    7 type  3   force =    -0.00000016    0.00000000   -0.00000004
     atom    8 type  1   force =    -0.00000013    0.00000000   -0.00000004
     atom    9 type  1   force =    -0.00000014   -0.00000000   -0.00000004
     atom   10 type  3   force =    -0.00000020   -0.00000000   -0.00000006
     atom   11 type  3   force =    -0.00000023    0.00000000   -0.00000006
     atom   12 type  1   force =    -0.00000019   -0.00000000   -0.00000005
     atom   13 type  2   force =    -0.00000013   -0.00000000   -0.00000003
     atom   14 type  2   force =    -0.00000014    0.00000000   -0.00000004
     atom   15 type  2   force =    -0.00000007   -0.00000000   -0.00000002
     atom   16 type  2   force =    -0.00000007    0.00000000   -0.00000002
     atom   17 type  3   force =    -0.00000026   -0.00000000   -0.00000008
     atom   18 type  3   force =    -0.00000028    0.00000000   -0.00000007
     atom   19 type  1   force =    -0.00000009    0.00000000   -0.00000002
     atom   20 type  1   force =    -0.00000022   -0.00000000   -0.00000006
     atom   21 type  3   force =    -0.00000013   -0.00000000   -0.00000003
     atom   22 type  3   force =    -0.00000014   -0.00000000   -0.00000004
     atom   23 type  1   force =    -0.00000022    0.00000000   -0.00000006
     atom   24 type  2   force =    -0.00000014    0.00000000   -0.00000004
     atom   25 type  2   force =    -0.00000013    0.00000000   -0.00000004
     atom   26 type  2   force =    -0.00000009   -0.00000000   -0.00000002
     atom   27 type  2   force =    -0.00000008    0.00000000   -0.00000003
     atom   28 type  3   force =    -0.00000028    0.00000000   -0.00000008
     atom   29 type  3   force =    -0.00000024   -0.00000000   -0.00000006
     atom   30 type  1   force =    -0.00000017   -0.00000000   -0.00000005
     atom   31 type  1   force =    -0.00000015    0.00000000   -0.00000004
     atom   32 type  3   force =    -0.00000019    0.00000000   -0.00000006
     atom   33 type  3   force =    -0.00000015   -0.00000000   -0.00000003
     atom   34 type  1   force =    -0.00000010   -0.00000000   -0.00000003
     atom   35 type  2   force =    -0.00000006    0.00000000   -0.00000001
     atom   36 type  2   force =    -0.00000004    0.00000000   -0.00000001
     atom   37 type  2   force =    -0.00000015   -0.00000000   -0.00000004
     atom   38 type  2   force =    -0.00000015   -0.00000000   -0.00000004
     atom   39 type  3   force =    -0.00000013   -0.00000000   -0.00000004
     atom   40 type  3   force =    -0.00000006   -0.00000000   -0.00000002
     atom   41 type  1   force =    -0.00000022   -0.00000000   -0.00000006
     atom   42 type  1   force =     0.00000001    0.00000000    0.00000000
     atom   43 type  3   force =    -0.00000029    0.00000000   -0.00000009
     atom   44 type  3   force =    -0.00000029    0.00000000   -0.00000007
     atom   45 type  1   force =     0.00000008    0.00000000    0.00000002
     atom   46 type  2   force =     0.00000006    0.00000000    0.00000002
     atom   47 type  2   force =     0.00000008    0.00000000    0.00000002
     atom   48 type  2   force =     0.00000012   -0.00000000    0.00000003
     atom   49 type  2   force =     0.00000013   -0.00000000    0.00000003
     atom   50 type  3   force =     0.00000013   -0.00000000    0.00000002
     atom   51 type  3   force =     0.00000017   -0.00000000    0.00000006
     atom   52 type  1   force =     0.00000014   -0.00000000    0.00000004
     atom   53 type  1   force =     0.00000016    0.00000000    0.00000005
     atom   54 type  3   force =     0.00000023    0.00000000    0.00000006
     atom   55 type  3   force =     0.00000027    0.00000000    0.00000008
     atom   56 type  1   force =     0.00000021    0.00000000    0.00000006
     atom   57 type  2   force =     0.00000014   -0.00000000    0.00000004
     atom   58 type  2   force =     0.00000014    0.00000000    0.00000004
     atom   59 type  2   force =     0.00000003   -0.00000000    0.00000001
     atom   60 type  2   force =     0.00000005   -0.00000000    0.00000001
     atom   61 type  3   force =     0.00000028   -0.00000000    0.00000007
     atom   62 type  3   force =     0.00000029    0.00000000    0.00000009
     atom   63 type  1   force =    -0.00000003   -0.00000000   -0.00000001
     atom   64 type  1   force =     0.00000021   -0.00000000    0.00000006
     atom   65 type  3   force =     0.00000003    0.00000000    0.00000001
     atom   66 type  3   force =     0.00000010    0.00000000    0.00000003
     atom   67 type  1   force =     0.00000019   -0.00000000    0.00000005
     atom   68 type  2   force =     0.00000011    0.00000000    0.00000003
     atom   69 type  2   force =     0.00000010    0.00000000    0.00000003
     atom   70 type  2   force =     0.00000008    0.00000000    0.00000002
     atom   71 type  2   force =     0.00000008    0.00000000    0.00000002
     atom   72 type  3   force =     0.00000023   -0.00000000    0.00000006
     atom   73 type  3   force =     0.00000020   -0.00000000    0.00000006
     atom   74 type  1   force =     0.00000014    0.00000000    0.00000004
     atom   75 type  1   force =     0.00000013   -0.00000000    0.00000003
     atom   76 type  3   force =     0.00000017   -0.00000000    0.00000004
     atom   77 type  3   force =     0.00000016   -0.00000000    0.00000004
     atom   78 type  1   force =     0.00000012   -0.00000000    0.00000003
     atom   79 type  2   force =     0.00000008    0.00000000    0.00000002
     atom   80 type  2   force =     0.00000007   -0.00000000    0.00000002
     atom   81 type  2   force =     0.00000014    0.00000000    0.00000004
     atom   82 type  2   force =     0.00000013    0.00000000    0.00000003
     atom   83 type  3   force =     0.00000015    0.00000000    0.00000004
     atom   84 type  3   force =     0.00000014   -0.00000000    0.00000004
     atom   85 type  1   force =     0.00000021   -0.00000000    0.00000005
     atom   86 type  1   force =     0.00000010    0.00000000    0.00000002
     atom   87 type  3   force =     0.00000027   -0.00000000    0.00000007
     atom   88 type  3   force =     0.00000025   -0.00000000    0.00000008
     atom   89 type  1   force =     0.00000009   -0.00000000    0.00000002
     atom   90 type  1   force =     0.00000009    0.00000000    0.00000002
     atom   91 type  1   force =     0.00000007    0.00000000    0.00000002
     atom   92 type  1   force =     0.00000008   -0.00000000    0.00000002
     atom   93 type  1   force =     0.00000006   -0.00000000    0.00000002
     atom   94 type  1   force =     0.00000007    0.00000000    0.00000002
     atom   95 type  1   force =     0.00000006   -0.00000000    0.00000002
     atom   96 type  1   force =     0.00000004   -0.00000000    0.00000001
     atom   97 type  1   force =     0.00000010   -0.00000000    0.00000003
     atom   98 type  1   force =     0.00000009    0.00000000    0.00000002
     atom   99 type  1   force =     0.00000009    0.00000000    0.00000003
     atom  100 type  1   force =     0.00000009   -0.00000000    0.00000002
     atom  101 type  1   force =     0.00000008    0.00000000    0.00000002
     atom  102 type  1   force =     0.00000007   -0.00000000    0.00000002
     atom  103 type  1   force =     0.00000006    0.00000000    0.00000001
     atom  104 type  1   force =     0.00000006    0.00000000    0.00000002
     atom  105 type  1   force =     0.00000005   -0.00000000    0.00000001
     atom  106 type  1   force =     0.00000005   -0.00000000    0.00000002
     atom  107 type  1   force =     0.00000004   -0.00000000    0.00000001
     atom  108 type  1   force =     0.00000004    0.00000000    0.00000001
     atom  109 type  1   force =     0.00000003    0.00000000    0.00000001
     atom  110 type  1   force =     0.00000009    0.00000000    0.00000003
     atom  111 type  1   force =     0.00000002    0.00000000    0.00000001
     atom  112 type  1   force =     0.00000003   -0.00000000    0.00000001
     atom  113 type  1   force =     0.00000002    0.00000000    0.00000001
     atom  114 type  1   force =     0.00000003   -0.00000000    0.00000001
     atom  115 type  1   force =     0.00000002   -0.00000000    0.00000001
     atom  116 type  1   force =     0.00000002    0.00000000    0.00000001
     atom  117 type  1   force =     0.00000001    0.00000000    0.00000000
     atom  118 type  1   force =     0.00000001    0.00000000    0.00000000
     atom  119 type  1   force =     0.00000004    0.00000000    0.00000001
     atom  120 type  1   force =     0.00000003   -0.00000000    0.00000001
     atom  121 type  1   force =     0.00000003    0.00000000    0.00000001
     atom  122 type  1   force =     0.00000003    0.00000000    0.00000001
     atom  123 type  1   force =     0.00000003    0.00000000    0.00000001
     atom  124 type  1   force =     0.00000002   -0.00000000    0.00000000
     atom  125 type  1   force =     0.00000001    0.00000000    0.00000001
     atom  126 type  1   force =     0.00000002    0.00000000    0.00000000
     atom  127 type  1   force =     0.00000000   -0.00000000    0.00000000
     atom  128 type  1   force =     0.00000001    0.00000000   -0.00000000
     atom  129 type  1   force =     0.00000000    0.00000000    0.00000000
     atom  130 type  1   force =     0.00000001   -0.00000000   -0.00000000
     atom  131 type  1   force =     0.00000000    0.00000000   -0.00000000
     atom  132 type  1   force =     0.00000003   -0.00000000    0.00000001
     atom  133 type  1   force =    -0.00000001    0.00000000   -0.00000000
     atom  134 type  1   force =    -0.00000001   -0.00000000   -0.00000000
     atom  135 type  1   force =    -0.00000001   -0.00000000   -0.00000000
     atom  136 type  1   force =    -0.00000001    0.00000000   -0.00000000
     atom  137 type  1   force =    -0.00000001    0.00000000   -0.00000000
     atom  138 type  1   force =    -0.00000001   -0.00000000   -0.00000000
     atom  139 type  1   force =    -0.00000002   -0.00000000   -0.00000000
     atom  140 type  1   force =    -0.00000002   -0.00000000   -0.00000000
     atom  141 type  1   force =     0.00000000   -0.00000000    0.00000000
     atom  142 type  1   force =    -0.00000001   -0.00000000   -0.00000000
     atom  143 type  1   force =    -0.00000001    0.00000000   -0.00000000
     atom  144 type  1   force =    -0.00000001    0.00000000    0.00000000
     atom  145 type  1   force =    -0.00000001   -0.00000000    0.00000000
     atom  146 type  1   force =    -0.00000001    0.00000000   -0.00000000
     atom  147 type  1   force =    -0.00000002    0.00000000   -0.00000000
     atom  148 type  1   force =    -0.00000002   -0.00000000   -0.00000001
     atom  149 type  1   force =    -0.00000002    0.00000000   -0.00000001
     atom  150 type  1   force =    -0.00000002    0.00000000   -0.00000001
     atom  151 type  1   force =    -0.00000002   -0.00000000   -0.00000001
     atom  152 type  1   force =    -0.00000002    0.00000000   -0.00000000
     atom  153 type  1   force =    -0.00000003   -0.00000000   -0.00000000
     atom  154 type  1   force =    -0.00000001   -0.00000000    0.00000000
     atom  155 type  1   force =    -0.00000005    0.00000000   -0.00000002
     atom  156 type  1   force =    -0.00000004    0.00000000   -0.00000001
     atom  157 type  1   force =    -0.00000005    0.00000000   -0.00000002
     atom  158 type  1   force =    -0.00000005   -0.00000000   -0.00000001
     atom  159 type  1   force =    -0.00000007   -0.00000000   -0.00000002
     atom  160 type  1   force =    -0.00000007   -0.00000000   -0.00000002
     atom  161 type  1   force =    -0.00000008    0.00000000   -0.00000002
     atom  162 type  1   force =    -0.00000009   -0.00000000   -0.00000002
     atom  163 type  1   force =    -0.00000002    0.00000000   -0.00000001
     atom  164 type  1   force =    -0.00000004    0.00000000   -0.00000001
     atom  165 type  1   force =    -0.00000003   -0.00000000   -0.00000001
     atom  166 type  1   force =    -0.00000004   -0.00000000   -0.00000001
     atom  167 type  1   force =    -0.00000005    0.00000000   -0.00000001
     atom  168 type  1   force =    -0.00000006    0.00000000   -0.00000002
     atom  169 type  1   force =    -0.00000008    0.00000000   -0.00000002
     atom  170 type  1   force =    -0.00000007   -0.00000000   -0.00000002
     atom  171 type  1   force =    -0.00000008   -0.00000000   -0.00000002
     atom  172 type  1   force =    -0.00000009   -0.00000000   -0.00000002
     atom  173 type  1   force =    -0.00000009    0.00000000   -0.00000003
     atom  174 type  1   force =    -0.00000009    0.00000000   -0.00000002
     atom  175 type  1   force =    -0.00000009   -0.00000000   -0.00000003
     atom  176 type  1   force =    -0.00000003    0.00000000   -0.00000001

     Total force =     0.008529     Total SCF correction =     0.000002


     Computing stress (Cartesian axis) and pressure

          total   stress  (Ry/bohr**3)                   (kbar)     P=    3.17
  -0.00003661  -0.00000000  -0.00002765         -5.39     -0.00     -4.07
  -0.00000000   0.00004620   0.00000000         -0.00      6.80      0.00
  -0.00002765   0.00000000   0.00005499         -4.07      0.00      8.09

     kinetic stress (kbar)   1476.70     -0.00     -7.79
                               -0.00   1494.15      0.00
                               -7.79      0.00   1478.30

     local   stress (kbar)   2063.37     -0.00    954.96
                               -0.00  -1420.89      0.00
                              954.96      0.00  -1456.39

     nonloc. stress (kbar)   1101.01      0.00     -0.25
                                0.00   1106.80     -0.00
                               -0.25     -0.00   1110.43

     hartree stress (kbar)   -776.12     -0.00   -491.84
                               -0.00   1009.39     -0.00
                             -491.84     -0.00    960.85

     exc-cor stress (kbar)   1025.05      0.00      0.10
                                0.00   1025.02     -0.00
                                0.10     -0.00   1025.31

     corecor stress (kbar)  -1794.95     -0.00      0.13
                               -0.00  -1795.96      0.00
                                0.13      0.00  -1796.32

     ewald   stress (kbar)  -3100.44     -0.00   -459.38
                               -0.00  -1411.72      0.00
                             -459.38      0.00  -1314.10

     hubbard stress (kbar)      0.00      0.00      0.00
                                0.00      0.00      0.00
                                0.00      0.00      0.00

     london  stress (kbar)      0.00      0.00      0.00
                                0.00      0.00      0.00
                                0.00      0.00      0.00

     DFT-D3  stress (kbar)      0.00      0.00      0.00
                                0.00      0.00      0.00
                                0.00      0.00      0.00

     XDM     stress (kbar)      0.00      0.00      0.00
                                0.00      0.00      0.00
                                0.00      0.00      0.00

     dft-nl  stress (kbar)      0.00      0.00      0.00
                                0.00      0.00      0.00
                                0.00      0.00      0.00

     TS-vdW  stress (kbar)      0.00      0.00      0.00
                                0.00      0.00      0.00
                                0.00      0.00      0.00



     Writing output data file aiida.save/
 
     init_run     :    329.57s CPU    333.15s WALL (       1 calls)
     electrons    :  26645.76s CPU  26876.34s WALL (       1 calls)
     forces       :    146.57s CPU    147.75s WALL (       1 calls)
     stress       :   1454.09s CPU   1456.94s WALL (       1 calls)

     Called by init_run:
     wfcinit      :    289.23s CPU    292.20s WALL (       1 calls)
     wfcinit:atom :      0.69s CPU      1.34s WALL (       4 calls)
     wfcinit:wfcr :    283.59s CPU    284.99s WALL (       4 calls)
     potinit      :     12.39s CPU     12.66s WALL (       1 calls)
     hinit0       :     23.25s CPU     23.46s WALL (       1 calls)

     Called by electrons:
     c_bands      :  22200.68s CPU  22374.24s WALL (      71 calls)
     sum_band     :   4117.61s CPU   4136.19s WALL (      71 calls)
     v_of_rho     :    156.97s CPU    174.80s WALL (      72 calls)
     v_h          :     14.83s CPU     17.46s WALL (      72 calls)
     v_xc         :    145.19s CPU    160.55s WALL (      74 calls)
     newd         :     28.20s CPU     37.06s WALL (      72 calls)
     PAW_pot      :     19.51s CPU     20.41s WALL (      72 calls)
     mix_rho      :    102.06s CPU    110.22s WALL (      71 calls)

     Called by c_bands:
     init_us_2    :    426.61s CPU    427.16s WALL (     580 calls)
     cegterg      :  20089.02s CPU  20259.17s WALL (     284 calls)

     Called by sum_band:
     sum_band:bec :      4.10s CPU      4.10s WALL (     284 calls)
     addusdens    :     21.39s CPU     30.08s WALL (      71 calls)

     Called by *egterg:
     h_psi        :  14448.00s CPU  14521.22s WALL (     743 calls)
     s_psi        :   3358.99s CPU   3363.66s WALL (     743 calls)
     g_psi        :     20.87s CPU     20.88s WALL (     455 calls)
     cdiaghg      :    269.01s CPU    270.18s WALL (     739 calls)
     cegterg:over :    779.96s CPU    781.14s WALL (     455 calls)
     cegterg:upda :    583.24s CPU    612.11s WALL (     455 calls)
     cegterg:last :    309.08s CPU    309.09s WALL (     285 calls)

     Called by h_psi:
     h_psi:pot    :  14421.69s CPU  14454.76s WALL (     743 calls)
     h_psi:calbec :   3456.97s CPU   3457.68s WALL (     743 calls)
     vloc_psi     :   7521.69s CPU   7548.42s WALL (     743 calls)
     add_vuspsi   :   3443.01s CPU   3448.66s WALL (     743 calls)

     General routines
     calbec       :   5230.59s CPU   5232.12s WALL (    1047 calls)
     fft          :    161.35s CPU    179.35s WALL (     960 calls)
     ffts         :     48.62s CPU     48.73s WALL (    1015 calls)
     fftw         :   8166.40s CPU   8194.29s WALL (  471040 calls)
     interpolate  :     14.69s CPU     17.54s WALL (      72 calls)
 
     Parallel routines
     fft_scatt_xy :   1853.26s CPU   1858.47s WALL (  473015 calls)
     fft_scatt_yz :   2274.87s CPU   2293.12s WALL (  473015 calls)

     PAW routines
     PAW_pot      :     19.51s CPU     20.41s WALL (      72 calls)
 
     PWSCF        :      7h59m CPU      8h 4m WALL

 
   This run was terminated on:  10:18:52  27Feb2020            

=------------------------------------------------------------------------------=
   JOB DONE.
=------------------------------------------------------------------------------=
