begin
comment 176 atoms, species Al112Mg32Si32
lattice    227.0098530518     0.0000000000     0.0000000000
lattice      0.0000000000     7.6665767573     0.0000000000
lattice     -3.1894884354     0.0000000000    11.6948665997
atom      3.8077497702     0.0000000000    11.5775706086   Al  0.0 0.0   -5.77249957e-05  4.99999962e-09 -1.82934986e-04
atom      7.9539485302     3.8333337806     3.9447048145   Mg  0.0 0.0   -3.43149974e-04  9.99999925e-09 -1.91319986e-04
atom      8.4981138490     3.8333337806    10.5259701653   Mg  0.0 0.0   -6.04079955e-04  2.49999981e-08 -3.84124971e-04
atom     16.8092169810     0.0000000000     0.9285838039   Mg  0.0 0.0    4.54529966e-04  2.99999977e-08  2.07094984e-04
atom     17.3477978574     0.0000000000     7.5005871527   Mg  0.0 0.0    3.35504975e-04 -1.49999989e-08  2.54094981e-04
atom      6.5267602851     0.0000000000     7.5968166294   Si  0.0 0.0    2.97514978e-04 -1.49999989e-07  3.64889973e-04
atom     11.6125755279     0.0000000000     2.4174733271   Si  0.0 0.0    6.35379952e-04  1.39999989e-07  4.49129966e-04
atom     11.3109248352     0.0000000000     7.2065639910   Al  0.0 0.0   -4.35349967e-04 -1.49999989e-08 -2.91499978e-04
atom     14.0120469737     3.8333337806     4.2639033689   Al  0.0 0.0   -1.17299991e-05  1.49999989e-08  6.85049949e-05
atom     13.7458552200     3.8333337806     9.0578747446   Si  0.0 0.0   -2.64394980e-04 -1.34999990e-07 -3.03974977e-04
atom     18.8042476726     3.8333337806     3.8229594303   Si  0.0 0.0    2.33709982e-04 -4.99999962e-09  2.56979981e-04
atom     18.3751763494     3.8333337806    11.5716683524   Al  0.0 0.0    3.51249974e-05 -3.99999970e-08 -6.69499950e-05
atom     22.5945630861     0.0000000000     3.9519237278   Mg  0.0 0.0   -2.49749981e-04  4.99999962e-09 -2.12309984e-04
atom     23.1399315570     0.0000000000    10.5236773658   Mg  0.0 0.0   -5.28884960e-04  9.99999925e-09 -2.10679984e-04
atom      2.0176862749     3.8333337806     0.9678792095   Mg  0.0 0.0   -5.21049961e-05 -2.99999977e-08  8.50349936e-05
atom      2.7248673691     3.8333337806     7.3794773961   Mg  0.0 0.0   -1.46909989e-04 -3.49999974e-08  9.32699930e-05
atom     21.1506442147     3.8333337806     7.6364071478   Si  0.0 0.0   -1.56509988e-04  1.49999989e-08 -1.92469986e-04
atom     26.1981401944     3.8333337806     2.3989720241   Si  0.0 0.0    4.24064968e-04 -1.44999989e-07  2.87129978e-04
atom    223.8174361893     3.8333337806     7.1812069905   Al  0.0 0.0   -2.54654981e-04 -9.49999929e-08 -3.26434975e-04
atom     28.6156589235     0.0000000000     4.2510319102   Al  0.0 0.0    6.64899950e-05  5.99999955e-08  3.50559974e-04
atom     -0.5386716803     0.0000000000     9.0483630318   Si  0.0 0.0    1.14024991e-04  3.49999974e-08 -7.07499947e-06
atom      4.1022496525     0.0000000000     3.7871599765   Si  0.0 0.0    1.30069990e-04  3.99999970e-08 -1.02189992e-04
atom     32.9808540888     0.0000000000    11.5609988893   Al  0.0 0.0   -5.69549957e-05  4.99999962e-09  2.47849981e-05
atom     37.1952239078     3.8333337806     3.9394835879   Mg  0.0 0.0   -2.87934978e-04 -2.49999981e-08 -2.24114983e-04
atom     37.7384130841     3.8333337806    10.5116231426   Mg  0.0 0.0   -5.57239958e-04  1.49999989e-08 -1.97679985e-04
atom     46.0095170801     0.0000000000     0.9106046235   Mg  0.0 0.0    5.25414961e-04 -9.99999925e-09  2.17749984e-04
atom     46.5493919126     0.0000000000     7.4840154334   Mg  0.0 0.0    2.49654981e-04 -4.99999962e-09  2.43604982e-04
atom     35.7476047758     0.0000000000     7.6220601251   Si  0.0 0.0   -2.63729980e-04  2.49999981e-08 -1.92754986e-04
atom     40.7959633929     0.0000000000     2.3873037176   Si  0.0 0.0    3.74829972e-04 -0.00000000e+00  3.07909977e-04
atom     40.5349701649     0.0000000000     7.1798903333   Al  0.0 0.0   -1.38404990e-04 -2.99999977e-08 -3.71214972e-04
atom     43.2110758176     3.8333337806     4.2421558250   Al  0.0 0.0    8.77899934e-05  4.99999962e-09  3.93894970e-04
atom     42.9504231043     3.8333337806     9.0352418623   Si  0.0 0.0   -4.25069968e-04  1.99999985e-08 -3.00959977e-04
atom     47.9968521376     3.8333337806     3.8024604406   Si  0.0 0.0    2.59379981e-04  6.49999951e-08  2.14314984e-04
atom     47.5735468647     3.8333337806    11.5595687273   Al  0.0 0.0   -4.01999970e-05 -9.99999925e-09  1.81499986e-06
atom     51.7852606683     0.0000000000     3.9404597303   Mg  0.0 0.0   -3.34739975e-04  4.99999962e-09 -2.57454981e-04
atom     52.3255895206     0.0000000000    10.5120771623   Mg  0.0 0.0   -6.14844954e-04 -0.00000000e+00 -2.42024982e-04
atom     31.4110582540     3.8333337806     0.9183229586   Mg  0.0 0.0    5.47504959e-04 -1.49999989e-08  2.28324983e-04
atom     31.9561543131     3.8333337806     7.4877383950   Mg  0.0 0.0    2.74274979e-04  1.49999989e-08  2.43919982e-04
atom     50.3375280315     3.8333337806     7.6205618601   Si  0.0 0.0   -3.86029971e-04  2.49999981e-08 -2.13029984e-04
atom     55.3804611131     3.8333337806     2.3869405019   Si  0.0 0.0    3.28054975e-04 -4.99999962e-09  2.84519979e-04
atom     25.9374647801     3.8333337806     7.1911727230   Al  0.0 0.0   -1.76634987e-04  0.00000000e+00 -3.90209971e-04
atom     57.7902615072     0.0000000000     4.2435405851   Al  0.0 0.0    5.67249957e-05  3.49999974e-08  4.03789970e-04
atom     28.3566406812     0.0000000000     9.0436412269   Si  0.0 0.0   -3.70224972e-04  6.99999947e-08 -2.98184978e-04
atom     33.4037507441     0.0000000000     3.8063877110   Si  0.0 0.0    3.24599976e-04  0.00000000e+00  1.91839986e-04
atom     62.1435840572     0.0000000000    11.5602951588   Al  0.0 0.0   -6.34249952e-05  1.49999989e-08  2.65449980e-05
atom     66.3506214579     3.8333337806     3.9410499559   Mg  0.0 0.0   -3.39514974e-04  4.99999962e-09 -2.52429981e-04
atom     66.8862512061     3.8333337806    10.5126900889   Mg  0.0 0.0   -5.87934956e-04  4.99999962e-09 -2.53074981e-04
atom     75.1412829045     0.0000000000     0.9109224373   Mg  0.0 0.0    5.60459958e-04 -9.99999925e-09  2.36069982e-04
atom     75.6761181183     0.0000000000     7.4822674576   Mg  0.0 0.0    2.71419980e-04  2.49999981e-08  2.80874979e-04
atom     64.9041600762     0.0000000000     7.6220374241   Si  0.0 0.0   -3.20954976e-04 -6.99999947e-08 -1.97934985e-04
atom     69.9388072982     0.0000000000     2.3862140704   Si  0.0 0.0    3.95849970e-04 -1.49999989e-08  3.11559977e-04
atom     69.6819910514     0.0000000000     7.1787779850   Al  0.0 0.0   -1.29794990e-04  4.99999962e-09 -3.85609971e-04
atom     72.3441810001     3.8333337806     4.2441308107   Al  0.0 0.0    1.41009989e-04  1.99999985e-08  4.31479968e-04
atom     72.0865702189     3.8333337806     9.0371714461   Si  0.0 0.0   -3.85864971e-04 -4.99999962e-09 -3.11319977e-04
atom     77.1213990487     3.8333337806     3.8024377396   Si  0.0 0.0    3.08454977e-04 -1.99999985e-08  2.73899979e-04
atom     76.6920780146     3.8333337806    11.5596822322   Al  0.0 0.0    7.05599947e-05  4.99999962e-09  5.38699960e-05
atom     80.9015671217     0.0000000000     3.9409591519   Mg  0.0 0.0   -2.71859980e-04 -1.49999989e-08 -1.90619986e-04
atom     81.4316124276     0.0000000000    10.5213391643   Mg  0.0 0.0   -5.24874961e-04  2.49999981e-08 -2.26099983e-04
atom     60.5901783337     3.8333337806     0.9107635304   Mg  0.0 0.0    4.78119964e-04 -0.00000000e+00  2.22559983e-04
atom     61.1247638367     3.8333337806     7.4856499044   Mg  0.0 0.0    2.12689984e-04 -9.99999925e-09  2.24739983e-04
atom     79.4541749997     3.8333337806     7.6236264931   Si  0.0 0.0   -3.01744977e-04 -2.49999981e-08 -1.89174986e-04
atom     84.4930219039     3.8333337806     2.3974737591   Si  0.0 0.0    3.62374973e-04 -6.99999947e-08  3.36364975e-04
atom     55.1212158609     3.8333337806     7.1799357353   Al  0.0 0.0   -1.52699989e-04 -3.99999970e-08 -4.06234969e-04
atom     86.8973740615     0.0000000000     4.2612473536   Al  0.0 0.0    1.68919987e-04  2.99999977e-08  4.47209966e-04
atom     57.5310843579     0.0000000000     9.0364904165   Si  0.0 0.0   -4.47384966e-04  1.99999985e-08 -3.12924976e-04
atom     62.5694772425     0.0000000000     3.8028236564   Si  0.0 0.0    2.67254980e-04 -1.49999989e-08  1.75829987e-04
atom     91.2542152643     0.0000000000    11.5984782161   Al  0.0 0.0   -3.61849973e-05  4.49999966e-08  8.53899936e-05
atom     95.4657701610     3.8333337806     3.9820025334   Mg  0.0 0.0   -2.79039979e-04  9.99999925e-09 -2.37144982e-04
atom     95.9868939797     3.8333337806    10.5667411349   Mg  0.0 0.0   -4.07084969e-04 -1.99999985e-08 -2.16299984e-04
atom    104.2977246999     0.0000000000     0.9908299056   Mg  0.0 0.0    6.12474954e-04 -2.49999981e-08  3.47994974e-04
atom    104.8321512960     0.0000000000     7.5822652978   Mg  0.0 0.0    2.83034979e-04 -1.99999985e-08  1.19209991e-04
atom     94.0096381596     0.0000000000     7.6572239513   Si  0.0 0.0   -2.13394984e-04 -0.00000000e+00 -3.17014976e-04
atom     99.0619013462     0.0000000000     2.4402424154   Si  0.0 0.0    2.30429983e-04  1.29999990e-07  3.08159977e-04
atom     98.7938254107     0.0000000000     7.2378232478   Al  0.0 0.0   -1.36249990e-05 -9.99999925e-09 -1.10739992e-04
atom    101.4819852866     3.8333337806     4.3049467503   Al  0.0 0.0    4.23694968e-04  0.00000000e+00  2.66364980e-04
atom    101.1789498338     3.8333337806     9.0966934295   Si  0.0 0.0   -5.79379956e-04 -1.09999992e-07 -4.87664963e-04
atom    106.2584088007     3.8333337806     3.9280195903   Si  0.0 0.0   -2.09914984e-04  1.44999989e-07 -3.07639977e-04
atom    105.7850024532     3.8333337806    11.6463999960   Al  0.0 0.0   -7.19399946e-05 -1.49999989e-08  1.55824988e-04
atom    110.0507219009     0.0000000000     4.1567093163   Mg  0.0 0.0    1.98349985e-05  3.99999970e-08 -8.43549937e-05
atom    110.7434424675     0.0000000000    10.5767295685   Mg  0.0 0.0    3.62849973e-05  1.99999985e-08 -1.60699988e-05
atom     89.6997879965     3.8333337806     0.9340093394   Mg  0.0 0.0    5.53629958e-04 -4.99999962e-09  2.56709981e-04
atom     90.2276313068     3.8333337806     7.5147298666   Mg  0.0 0.0    3.06829977e-04 -4.99999962e-09  2.42459982e-04
atom    108.6723407741     3.8333337806     7.7452356713   Si  0.0 0.0   -1.28494990e-04 -1.99999985e-08 -1.25799991e-05
atom    113.3020932222     3.8333337806     2.4950652949   Si  0.0 0.0    1.34949990e-04 -3.49999974e-08  1.35279990e-04
atom     84.2321194798     3.8333337806     7.1920807624   Al  0.0 0.0   -7.32499945e-05 -7.49999944e-08 -3.27259975e-04
atom    115.9446241176     0.0000000000     4.3792697762   Al  0.0 0.0    1.84024986e-04  9.99999925e-08  2.19039984e-04
atom     86.6347009606     0.0000000000     9.0570348082   Si  0.0 0.0   -3.94929970e-04  1.24999991e-07 -2.87184978e-04
atom     91.6751369338     0.0000000000     3.8359897959   Si  0.0 0.0    1.87324986e-04 -1.99999985e-08  1.87569986e-04
atom    122.1726848381     0.0000000000     8.5151849899   Al  0.0 0.0    3.40724974e-04  4.99999962e-08 -7.55299943e-05
atom    120.0401769795     3.8333337806    11.6877611913   Al  0.0 0.0    2.22554983e-04 -4.99999962e-09 -7.55249943e-05
atom    125.3522529429     3.8333337806    10.6232211864   Al  0.0 0.0    7.36399945e-05 -1.59999988e-07 -2.71549980e-05
atom    126.3982462428     0.0000000000     2.1034278964   Al  0.0 0.0    3.88349971e-05  8.49999936e-08 -8.33149937e-05
atom    131.7033076017     0.0000000000     1.0514869384   Al  0.0 0.0   -3.21299976e-05  1.44999989e-07 -8.35949937e-05
atom    129.5810151865     3.8333337806     4.2399538294   Al  0.0 0.0   -1.17489991e-04 -1.19999991e-07  4.05399970e-05
atom    134.8762470188     3.8333337806     3.1807031541   Al  0.0 0.0    4.53799966e-05 -2.99999977e-07 -2.08999984e-06
atom    138.0455996802     0.0000000000     5.3113722328   Al  0.0 0.0    1.87449986e-05  3.09999977e-07  1.44099989e-05
atom    113.6443332767     3.8333337806     7.4185230908   Al  0.0 0.0    2.92474978e-04 -6.49999951e-08 -2.33964982e-04
atom    119.0762477415     3.8333337806     6.4462852922   Al  0.0 0.0    1.63999988e-06 -1.19999991e-07 -8.26749938e-05
atom    116.6646085676     0.0000000000     9.5616550105   Al  0.0 0.0   -6.41749952e-04  9.99999925e-09 -2.35729982e-04
atom    121.0856935587     0.0000000000     3.1742560742   Al  0.0 0.0   -5.25209961e-04  1.09999992e-07  1.42134989e-04
atom    124.2997444602     3.8333337806     5.3014065003   Al  0.0 0.0    2.59964980e-04 -9.49999929e-08  1.25354991e-04
atom    127.4476446905     0.0000000000     7.4251971805   Al  0.0 0.0   -2.33904982e-04  1.29999990e-07  1.96549985e-05
atom    132.7506175588     0.0000000000     6.3666048338   Al  0.0 0.0    7.31999945e-05  2.64999980e-07 -2.98249978e-05
atom    130.6340457919     3.8333337806     9.5550944258   Al  0.0 0.0   -1.09864992e-04 -2.94999978e-07  8.16349939e-05
atom    135.9290733153     3.8333337806     8.4998164229   Al  0.0 0.0    1.59249988e-04 -3.39999974e-07  7.08499947e-05
atom    133.8046016055     0.0000000000    11.6847192592   Al  0.0 0.0    4.34249967e-05  2.94999978e-07  1.47899989e-05
atom    139.1003782614     0.0000000000    10.6311892322   Al  0.0 0.0   -1.65749988e-05  3.24999976e-07 -2.03599985e-05
atom    140.1684596200     3.8333337806     2.1238360822   Al  0.0 0.0    4.76199964e-05 -2.79999979e-07 -1.67849987e-05
atom    143.3414671401     0.0000000000     4.2548456758   Al  0.0 0.0   -2.29799983e-05  2.64999980e-07 -1.83449986e-05
atom    117.9677586290     3.8333337806     0.9935313229   Al  0.0 0.0   -2.58599981e-04 -3.49999974e-08  9.00599932e-05
atom    149.6908873280     0.0000000000     8.5162519363   Al  0.0 0.0   -1.38699990e-05  2.09999984e-07 -5.61799958e-05
atom    150.7592183974     3.8333337806     0.0098976296   Al  0.0 0.0   -1.82849986e-05 -2.59999980e-07 -1.18949991e-05
atom    152.8655066180     3.8333337806    10.6435385682   Al  0.0 0.0   -3.42449974e-05 -1.84999986e-07 -2.89749978e-05
atom    153.9336787805     0.0000000000     2.1380014970   Al  0.0 0.0   -8.61899935e-05  1.74999987e-07 -3.45099974e-05
atom    159.2286836030     0.0000000000     1.0734841931   Al  0.0 0.0    3.12099977e-05  1.59999988e-07 -6.74499949e-06
atom    157.1074808351     3.8333337806     4.2636763590   Al  0.0 0.0    1.05999992e-06 -1.79999986e-07 -8.88999933e-06
atom    162.4033255940     3.8333337806     3.1977288930   Al  0.0 0.0    5.94399955e-05 -2.44999982e-07  7.16499946e-06
atom    165.5795793549     0.0000000000     5.3219281910   Al  0.0 0.0    3.33399975e-05  1.34999990e-07  8.41999937e-06
atom    141.2209454018     3.8333337806     7.4430174540   Al  0.0 0.0   -9.32199930e-05 -2.59999980e-07  3.59999973e-06
atom    146.5170171705     3.8333337806     6.3864227939   Al  0.0 0.0    5.24099961e-05 -2.14999984e-07 -1.23949991e-05
atom    144.3940210248     0.0000000000     9.5743675623   Al  0.0 0.0    4.42499967e-06  2.54999981e-07  3.40999974e-06
atom    148.6381972374     0.0000000000     3.1986142315   Al  0.0 0.0    4.77449964e-05  2.69999980e-07 -2.00499985e-06
atom    151.8131343412     3.8333337806     5.3277169423   Al  0.0 0.0   -2.57099981e-05 -1.59999988e-07 -1.97449985e-05
atom    154.9865050770     0.0000000000     7.4537550200   Al  0.0 0.0   -2.25649983e-05  1.94999985e-07 -5.68499957e-06
atom    160.2816688063     0.0000000000     6.3878529560   Al  0.0 0.0    4.60449965e-05  1.84999986e-07 -1.89499986e-06
atom    158.1603298325     3.8333337806     9.5782267298   Al  0.0 0.0    5.40599959e-05 -1.19999991e-07  5.57499958e-06
atom    163.4574458466     3.8333337806     8.5120976559   Al  0.0 0.0    3.98599970e-05 -1.49999989e-07  7.88999941e-06
atom    164.5250050826     0.0000000000     0.0074459232   Al  0.0 0.0    4.11999969e-05  1.29999990e-07  7.07499947e-06
atom    166.6345395440     0.0000000000    10.6364104588   Al  0.0 0.0    2.65699980e-05  1.69999987e-07  3.63999973e-06
atom    167.7017809662     3.8333337806     2.1317133241   Al  0.0 0.0    2.41699982e-05 -1.84999986e-07  5.63499958e-06
atom    170.8794875902     0.0000000000     4.2561169309   Al  0.0 0.0    3.22249976e-05  1.49999989e-07  4.30499968e-06
atom    145.4644632858     3.8333337806     1.0681948635   Al  0.0 0.0    5.42149959e-05 -2.64999980e-07  4.35399967e-05
atom    177.2382378830     0.0000000000     8.5059910909   Al  0.0 0.0    1.61199988e-05  2.49999981e-07  8.78999934e-06
atom    178.3045485648     3.8333337806     0.0010669463   Al  0.0 0.0    3.91449971e-05 -1.59999988e-07  9.94999925e-06
atom    180.4190772430     3.8333337806    10.6314389430   Al  0.0 0.0    4.81499964e-06 -1.49999989e-07  4.79999964e-06
atom    181.4851382139     0.0000000000     2.1263331906   Al  0.0 0.0    3.59999973e-07  1.44999989e-07  1.59999988e-07
atom    186.7897455531     0.0000000000     1.0617023817   Al  0.0 0.0    3.07499977e-05  1.99999985e-07  3.27499975e-06
atom    184.6662499857     3.8333337806     4.2516221358   Al  0.0 0.0    2.97549978e-05 -1.89999986e-07 -1.04049992e-05
atom    189.9720831781     3.8333337806     3.1864465033   Al  0.0 0.0    1.89599986e-05 -1.99999985e-07  9.40999929e-06
atom    193.1551018327     0.0000000000     5.3087389185   Al  0.0 0.0   -4.30399968e-05  2.04999985e-07 -5.12649961e-05
atom    168.7570135671     3.8333337806     7.4462863959   Al  0.0 0.0    3.67449972e-05 -1.49999989e-07  1.24249991e-05
atom    174.0582838615     3.8333337806     6.3808610525   Al  0.0 0.0    4.34299967e-05 -1.64999988e-07  9.67999927e-06
atom    171.9353785197     0.0000000000     9.5708943116   Al  0.0 0.0    4.94049963e-05  1.94999985e-07  1.24349991e-05
atom    176.1813708111     0.0000000000     3.1909412984   Al  0.0 0.0    3.89849971e-05  1.64999988e-07  9.81499926e-06
atom    179.3617561514     3.8333337806     5.3162983466   Al  0.0 0.0    2.07349984e-05 -1.94999985e-07  1.42699989e-05
atom    182.5427090163     0.0000000000     7.4416099929   Al  0.0 0.0    2.37049982e-05  1.59999988e-07 -1.16999991e-06
atom    187.8473163555     0.0000000000     6.3763662574   Al  0.0 0.0    2.78999979e-05  1.64999988e-07 -2.13999984e-05
atom    185.7243656118     3.8333337806     9.5668308352   Al  0.0 0.0    7.81849941e-05 -1.79999986e-07  3.63999973e-06
atom    191.0307436278     3.8333337806     8.4997029180   Al  0.0 0.0   -3.40649974e-05 -2.74999979e-07 -4.71049965e-05
atom    188.9066351338     0.0000000000    11.6910528341   Al  0.0 0.0    3.72649972e-05  2.59999980e-07 -3.72699972e-05
atom    194.2144660129     0.0000000000    10.6184312785   Al  0.0 0.0   -5.49849959e-05  2.44999982e-07 -1.09084992e-04
atom    195.2813669203     3.8333337806     2.1170711886   Al  0.0 0.0    4.49999966e-06 -2.34999982e-07 -6.56949951e-05
atom    198.4662697567     0.0000000000     4.2315544648   Al  0.0 0.0    4.42249967e-05  2.39999982e-07 -4.72099965e-05
atom    173.0021659221     3.8333337806     1.0660609709   Al  0.0 0.0    4.34749967e-05 -1.74999987e-07  1.32449990e-05
atom    204.8321481589     0.0000000000     8.4531885991   Al  0.0 0.0   -7.06999947e-05  3.24999976e-07  7.16899946e-05
atom    202.7097195378     3.8333337806    11.6502818645   Al  0.0 0.0    1.32199990e-05 -2.99999977e-07  3.63549973e-05
atom    208.0158024411     3.8333337806    10.5679896891   Al  0.0 0.0   -8.39999937e-07 -1.64999988e-07  5.23449961e-05
atom    209.0821812258     0.0000000000     2.0683775751   Al  0.0 0.0    4.73949964e-05  3.19999976e-07 -3.38749975e-05
atom    214.3735992925     0.0000000000     0.9821808302   Al  0.0 0.0    1.06649992e-05  1.64999988e-07  1.65999988e-06
atom    212.2779578341     3.8333337806     4.1855849696   Al  0.0 0.0    1.84344986e-04 -1.59999988e-07 -1.92999985e-05
atom    217.5626564092     3.8333337806     3.0766872394   Al  0.0 0.0   -2.91184978e-04 -6.49999951e-08  6.74149949e-05
atom    220.6725551901     0.0000000000     5.1291514238   Al  0.0 0.0    6.00849955e-05  1.14999991e-07  3.57199973e-05
atom    196.3411624193     3.8333337806     7.4259236120   Al  0.0 0.0   -7.92499940e-06 -2.49999981e-07 -3.53449973e-05
atom    201.6502645536     3.8333337806     6.3427460982   Al  0.0 0.0    3.37999975e-05 -3.04999977e-07 -1.44699989e-05
atom    199.5252253192     0.0000000000     9.5367520297   Al  0.0 0.0   -6.51549951e-05  2.59999980e-07  7.77999942e-06
atom    203.7719667432     0.0000000000     3.1463111613   Al  0.0 0.0   -1.61734988e-04  3.19999976e-07 -1.42249989e-05
atom    206.9592531830     3.8333337806     5.2625424134   Al  0.0 0.0   -8.61499935e-06 -2.89999978e-07  4.34299967e-05
atom    210.1405919646     0.0000000000     7.3744831793   Al  0.0 0.0    1.21059991e-04  1.49999989e-07 -6.13349954e-05
atom    215.4350065614     0.0000000000     6.2956415537   Al  0.0 0.0   -1.62784988e-04  9.49999929e-08 -1.22729991e-04
atom    213.3346432981     3.8333337806     9.4962080699   Al  0.0 0.0   -9.37999930e-05 -9.99999925e-08  1.16524991e-04
atom    218.6664918196     3.8333337806     8.4066288782   Al  0.0 0.0    4.36784967e-04 -1.09999992e-07 -1.36329990e-04
atom    216.5113056767     0.0000000000    11.5919857343   Al  0.0 0.0   -4.61299965e-05  2.99999977e-08  7.55499943e-05
atom    221.7977295267     0.0000000000    10.5674902674   Al  0.0 0.0    2.06599984e-05  3.49999974e-08 -3.63149973e-05
atom    223.0871227911     3.8333337806     2.0040429827   Al  0.0 0.0    6.72449949e-04 -9.99999925e-09  3.30429975e-04
atom     -0.8843395835     0.0000000000     4.1335543113   Al  0.0 0.0   -3.42334974e-04  8.49999936e-08  1.67014987e-04
atom    200.5892886034     3.8333337806     1.0366404940   Al  0.0 0.0    7.81999941e-06 -2.89999978e-07 -8.36499937e-06
energy -2.932816318606374e+03
charge 0.0000
end
