begin
comment 22 atoms, species Al4Mg10Si8
lattice     27.8548479806     0.0000000000    -7.9806818835
lattice      0.0000000000     7.6615160363     0.0129231019
lattice      0.0000000000     0.0076495491    12.9203782329
atom      0.0387693058     0.0076640369    12.7582135865   Mg  0.0 0.0    1.71649987e-05 -9.49999929e-08 -3.80499971e-06
atom      2.1108264381     3.8338584036     3.8915487533   Mg  0.0 0.0   -4.04364970e-04  4.64499965e-06  7.49599944e-05
atom      4.3509824125     3.8382047383    10.4107697881   Mg  0.0 0.0   -6.29249953e-04  1.95999985e-06 -2.35789982e-04
atom      9.6551247243     7.6617159677    -1.7862073896   Mg  0.0 0.0    6.27844953e-04 -1.92999985e-06  2.36959982e-04
atom     11.8951329233     7.6660652000     4.7332512448   Mg  0.0 0.0    4.04889970e-04 -4.69499965e-06 -7.67949942e-05
atom      1.6488168512     0.0077248856     7.8806640286   Si  0.0 0.0   -2.60159980e-04 -2.90999978e-06 -2.79579979e-04
atom      5.2101137062     7.6630981022     1.2441122390   Si  0.0 0.0    1.07539992e-04  1.69499987e-05  1.30929990e-04
atom      6.0779463621     0.0062297464     6.0822897993   Al  0.0 0.0   -2.98374978e-04 -3.04999977e-06 -2.20154983e-04
atom      7.9279956139     3.8321836160     2.5293958581   Al  0.0 0.0    2.98559978e-04  3.04499977e-06  2.21129983e-04
atom      8.7959238891     3.8368226039     7.3804588521   Si  0.0 0.0   -1.07704992e-04 -1.69299987e-05 -1.29659990e-04
atom     12.3571048419     3.8306913744     0.7311404286   Si  0.0 0.0    2.60524980e-04  2.71499980e-06  2.78654979e-04
atom     13.9672566993     3.8384133624     8.7740009768   Mg  0.0 0.0   -1.60249988e-05  7.49999944e-08  2.58499981e-06
atom     16.0384068964     0.0031061806    -0.1055348024   Mg  0.0 0.0   -4.05884969e-04  4.76999964e-06  7.69399942e-05
atom     18.2780615935     0.0074467202     6.4140918903   Mg  0.0 0.0   -6.21024953e-04  2.35999982e-06 -2.41059982e-04
atom     23.5828819336     3.8309666422    -5.7831373748   Mg  0.0 0.0    6.19554953e-04 -2.36999982e-06  2.42239982e-04
atom     25.8223859577     3.8353100794     0.7367240199   Mg  0.0 0.0    4.06334969e-04 -4.72999964e-06 -7.88299941e-05
atom     15.5762640219     3.8384800062     3.8963239264   Si  0.0 0.0   -2.68904980e-04 -2.84499979e-06 -2.75504979e-04
atom     19.1379317642     3.8323603669    -2.7527684878   Si  0.0 0.0    1.05139992e-04  1.58599988e-05  1.32154990e-04
atom     20.0052631428     3.8369935597     2.0985581839   Al  0.0 0.0   -2.93469978e-04 -4.08499969e-06 -2.33874982e-04
atom     21.8555152235     7.6629300439    -1.4546428983   Al  0.0 0.0    2.93869978e-04  4.04499970e-06  2.34759982e-04
atom     22.7229393240     0.0060558931     3.3837316959   Si  0.0 0.0   -1.05269992e-04 -1.58149988e-05 -1.30904990e-04
atom     26.2844940615     7.6614406999    -3.2522869434   Si  0.0 0.0    2.69009980e-04  3.02499977e-06  2.74649979e-04
energy -2.928222646040811e+02
charge 0.0000
end
