
     Program PWSCF v.6.3 starts on 22Feb2020 at  7:32:21 

     This program is part of the open-source Quantum ESPRESSO suite
     for quantum simulation of materials; please cite
         "P. Giannozzi et al., J. Phys.:Condens. Matter 21 395502 (2009);
         "P. Giannozzi et al., J. Phys.:Condens. Matter 29 465901 (2017);
          URL http://www.quantum-espresso.org", 
     in publications or presentations arising from this work. More details at
     http://www.quantum-espresso.org/quote

 *** WARNING: using old-style file format, will disappear from next version ***

     Parallel version (MPI & OpenMP), running on      36 processor cores
     Number of MPI processes:                36
     Threads/MPI process:                     1

     MPI processes distributed on     1 nodes
     K-points division:     npool     =       4
     R & G space division:  proc/nbgrp/npool/nimage =       9
     Reading input from aiida.in
Warning: card &IONS ignored
Warning: card   !PRESS_CONV_THR = 0.05                 ! JUST FOR VOLUME RELAXATIONS ignored
Warning: card / ignored

     Current dimensions of program PWSCF are:
     Max number of different atomic species (ntypx) = 10
     Max number of k-points (npk) =  40000
     Max angular momentum in pseudopotentials (lmaxx) =  3
               file Mg.pbe-n-kjpaw_psl.0.3.0.UPF: wavefunction(s)  3S renormalized
               file Al.pbe-n-kjpaw_psl.1.0.0.UPF: wavefunction(s)  3S 3P renormalized

     Subspace diagonalization in iterative solution of the eigenvalue problem:
     one sub-group per band group will be used
     scalapack distributed-memory algorithm (size of sub-group:  2*  2 procs)

 
     Parallelization info
     --------------------
     sticks:   dense  smooth     PW     G-vecs:    dense   smooth      PW
     Min        3324    1330    347               432816   109512   14645
     Max        3325    1331    348               432821   109515   14652
     Sum       29921   11977   3125              3895379   985619  131827
 


     bravais-lattice index     =            0
     lattice parameter (alat)  =      30.6665  a.u.
     unit-cell volume          =   28839.7502 (a.u.)^3
     number of atoms/cell      =          256
     number of atomic types    =            3
     number of electrons       =       768.00
     number of Kohn-Sham states=          461
     kinetic-energy cutoff     =      40.0000  Ry
     charge density cutoff     =     400.0000  Ry
     convergence threshold     =      1.0E-12
     mixing beta               =       0.4000
     number of iterations used =            8  local-TF  mixing
     Exchange-correlation      = PBE ( 1  4  3  4 0 0)

     celldm(1)=  30.666473  celldm(2)=   0.000000  celldm(3)=   0.000000
     celldm(4)=   0.000000  celldm(5)=   0.000000  celldm(6)=   0.000000

     crystal axes: (cart. coord. in units of alat)
               a(1) = (   1.000000   0.000000   0.000000 )  
               a(2) = (   0.000000   1.000000   0.000000 )  
               a(3) = (   0.000000   0.000000   1.000000 )  

     reciprocal axes: (cart. coord. in units 2 pi/alat)
               b(1) = (  1.000000  0.000000  0.000000 )  
               b(2) = (  0.000000  1.000000  0.000000 )  
               b(3) = (  0.000000  0.000000  1.000000 )  


     PseudoPot. # 1 for Mg read from file:
     /users/aglensk/Dropbox/Albert/scripts/dotfiles/scripts/potentials/quantum_espresso/pseudo_SSSPefV1.1_alalloy/Mg.pbe-n-kjpaw_psl.0.3.0.UPF
     MD5 check sum: 24ecedc7f3e3cbe212e682f4413594e4
     Pseudo is Projector augmented-wave + core cor, Zval =  2.0
     Generated using "atomic" code by A. Dal Corso v.5.0.99 svn rev. 10869
     Shape of augmentation charge: PSQ
     Using radial grid of 1129 points,  4 beta functions with: 
                l(1) =   0
                l(2) =   0
                l(3) =   1
                l(4) =   1
     Q(r) pseudized with 0 coefficients 


     PseudoPot. # 2 for Al read from file:
     /users/aglensk/Dropbox/Albert/scripts/dotfiles/scripts/potentials/quantum_espresso/pseudo_SSSPefV1.1_alalloy/Al.pbe-n-kjpaw_psl.1.0.0.UPF
     MD5 check sum: cfc449ca30b5f3223ec38ddd88ac046d
     Pseudo is Projector augmented-wave + core cor, Zval =  3.0
     Generated using "atomic" code by A. Dal Corso v.5.1
     Shape of augmentation charge: PSQ
     Using radial grid of 1135 points,  6 beta functions with: 
                l(1) =   0
                l(2) =   0
                l(3) =   1
                l(4) =   1
                l(5) =   2
                l(6) =   2
     Q(r) pseudized with 0 coefficients 


     PseudoPot. # 3 for Si read from file:
     /users/aglensk/Dropbox/Albert/scripts/dotfiles/scripts/potentials/quantum_espresso/pseudo_SSSPefV1.1_alalloy/Si.pbe-n-rrkjus_psl.1.0.0.UPF
     MD5 check sum: 0b0bb1205258b0d07b9f9672cf965d36
     Pseudo is Ultrasoft + core correction, Zval =  4.0
     Generated using "atomic" code by A. Dal Corso v.5.1
     Using radial grid of 1141 points,  6 beta functions with: 
                l(1) =   0
                l(2) =   0
                l(3) =   1
                l(4) =   1
                l(5) =   2
                l(6) =   2
     Q(r) pseudized with 0 coefficients 


     atomic species   valence    mass     pseudopotential
        Mg             2.00    24.30500     Mg( 1.00)
        Al             3.00    26.98154     Al( 1.00)
        Si             4.00    28.08500     Si( 1.00)

     No symmetry found


                                    s                        frac. trans.

      isym =  1     identity                                     

 cryst.   s( 1) = (     1          0          0      )
                  (     0          1          0      )
                  (     0          0          1      )

 cart.    s( 1) = (  1.0000000  0.0000000  0.0000000 )
                  (  0.0000000  1.0000000  0.0000000 )
                  (  0.0000000  0.0000000  1.0000000 )


   Cartesian axes

     site n.     atom                  positions (alat units)
         1           Mg  tau(   1) = (   0.0000000   0.0000390   0.0000000  )
         2           Al  tau(   2) = (   0.1264220   0.0000628   0.1264220  )
         3           Al  tau(   3) = (   0.1256007   0.1271137   0.0000000  )
         4           Al  tau(   4) = (   0.0000000   0.1271137   0.1256007  )
         5           Al  tau(   5) = (   0.0000000   0.0001301   0.2500193  )
         6           Al  tau(   6) = (   0.1250776   0.1250938   0.2502007  )
         7           Al  tau(   7) = (   0.1249878   0.0000135   0.3750741  )
         8           Al  tau(   8) = (   0.0000000   0.1250029   0.3750345  )
         9           Al  tau(   9) = (   0.0000000   0.0000186   0.5000000  )
        10           Al  tau(  10) = (   0.1250042   0.1249906   0.5000000  )
        11           Al  tau(  11) = (   0.1249878   0.0000135   0.6249259  )
        12           Al  tau(  12) = (   0.0000000   0.1250029   0.6249655  )
        13           Al  tau(  13) = (   0.0000000   0.0001301   0.7499807  )
        14           Al  tau(  14) = (   0.1250776   0.1250938   0.7497993  )
        15           Al  tau(  15) = (   0.1264220   0.0000628   0.8735780  )
        16           Al  tau(  16) = (   0.0000000   0.1271137   0.8743993  )
        17           Si  tau(  17) = (   0.0000000   0.2506936   0.0000000  )
        18           Al  tau(  18) = (   0.1242733   0.3743545   0.0000000  )
        19           Al  tau(  19) = (   0.1244222   0.2502903   0.1244222  )
        20           Al  tau(  20) = (   0.0000000   0.3743545   0.1242733  )
        21           Al  tau(  21) = (   0.0000000   0.2501115   0.2498041  )
        22           Al  tau(  22) = (   0.1249795   0.3749898   0.2499339  )
        23           Al  tau(  23) = (   0.1249868   0.2500163   0.3749492  )
        24           Al  tau(  24) = (   0.0000000   0.3750028   0.3749627  )
        25           Al  tau(  25) = (   0.0000000   0.2500261   0.5000000  )
        26           Al  tau(  26) = (   0.1250131   0.3750083   0.5000000  )
        27           Al  tau(  27) = (   0.1249868   0.2500163   0.6250508  )
        28           Al  tau(  28) = (   0.0000000   0.3750028   0.6250373  )
        29           Al  tau(  29) = (   0.0000000   0.2501115   0.7501959  )
        30           Al  tau(  30) = (   0.1249795   0.3749898   0.7500662  )
        31           Al  tau(  31) = (   0.1244222   0.2502903   0.8755778  )
        32           Al  tau(  32) = (   0.0000000   0.3743545   0.8757267  )
        33           Al  tau(  33) = (   0.0000000   0.4997309   0.0000000  )
        34           Al  tau(  34) = (   0.1249958   0.6248671   0.0000000  )
        35           Al  tau(  35) = (   0.1249858   0.4999008   0.1249858  )
        36           Al  tau(  36) = (   0.0000000   0.6248671   0.1249958  )
        37           Al  tau(  37) = (   0.0000000   0.4998848   0.2499129  )
        38           Al  tau(  38) = (   0.1249882   0.6250001   0.2500042  )
        39           Al  tau(  39) = (   0.1249960   0.4999861   0.3749973  )
        40           Al  tau(  40) = (   0.0000000   0.6250025   0.3750113  )
        41           Al  tau(  41) = (   0.0000000   0.4999776   0.5000000  )
        42           Al  tau(  42) = (   0.1250044   0.6250092   0.5000000  )
        43           Al  tau(  43) = (   0.1249960   0.4999861   0.6250027  )
        44           Al  tau(  44) = (   0.0000000   0.6250025   0.6249887  )
        45           Al  tau(  45) = (   0.0000000   0.4998848   0.7500871  )
        46           Al  tau(  46) = (   0.1249882   0.6250001   0.7499958  )
        47           Al  tau(  47) = (   0.1249858   0.4999008   0.8750142  )
        48           Al  tau(  48) = (   0.0000000   0.6248671   0.8750042  )
        49           Al  tau(  49) = (   0.0000000   0.7498224   0.0000000  )
        50           Al  tau(  50) = (   0.1264115   0.8736216   0.0000000  )
        51           Al  tau(  51) = (   0.1250940   0.7497229   0.1250940  )
        52           Al  tau(  52) = (   0.0000000   0.8736216   0.1264115  )
        53           Al  tau(  53) = (   0.0000000   0.7498775   0.2501069  )
        54           Al  tau(  54) = (   0.1250785   0.8749160   0.2502694  )
        55           Al  tau(  55) = (   0.1249933   0.7499829   0.3750071  )
        56           Al  tau(  56) = (   0.0000000   0.8749896   0.3750905  )
        57           Al  tau(  57) = (   0.0000000   0.7499784   0.5000000  )
        58           Al  tau(  58) = (   0.1249990   0.8749928   0.5000000  )
        59           Al  tau(  59) = (   0.1249933   0.7499829   0.6249929  )
        60           Al  tau(  60) = (   0.0000000   0.8749896   0.6249095  )
        61           Al  tau(  61) = (   0.0000000   0.7498775   0.7498931  )
        62           Al  tau(  62) = (   0.1250785   0.8749160   0.7497306  )
        63           Al  tau(  63) = (   0.1250940   0.7497229   0.8749060  )
        64           Al  tau(  64) = (   0.0000000   0.8736216   0.8735886  )
        65           Al  tau(  65) = (   0.2500193   0.0001301   0.0000000  )
        66           Al  tau(  66) = (   0.3750345   0.1250029   0.0000000  )
        67           Al  tau(  67) = (   0.3750741   0.0000135   0.1249878  )
        68           Al  tau(  68) = (   0.2502007   0.1250938   0.1250776  )
        69           Al  tau(  69) = (   0.2501655   0.9999568   0.2501655  )
        70           Al  tau(  70) = (   0.3749928   0.1250029   0.2500013  )
        71           Al  tau(  71) = (   0.3750090   0.0000012   0.3750090  )
        72           Al  tau(  72) = (   0.2500013   0.1250029   0.3749928  )
        73           Al  tau(  73) = (   0.2500217   0.0000024   0.5000000  )
        74           Al  tau(  74) = (   0.3750122   0.1250039   0.5000000  )
        75           Al  tau(  75) = (   0.3750090   0.0000012   0.6249910  )
        76           Al  tau(  76) = (   0.2500013   0.1250029   0.6250072  )
        77           Al  tau(  77) = (   0.2501655   0.9999568   0.7498345  )
        78           Al  tau(  78) = (   0.3749928   0.1250029   0.7499987  )
        79           Al  tau(  79) = (   0.3750741   0.0000135   0.8750122  )
        80           Al  tau(  80) = (   0.2502007   0.1250938   0.8749224  )
        81           Al  tau(  81) = (   0.2498041   0.2501115   0.0000000  )
        82           Al  tau(  82) = (   0.3749627   0.3750028   0.0000000  )
        83           Al  tau(  83) = (   0.3749492   0.2500163   0.1249868  )
        84           Al  tau(  84) = (   0.2499339   0.3749898   0.1249795  )
        85           Al  tau(  85) = (   0.2498914   0.2500095   0.2498914  )
        86           Al  tau(  86) = (   0.3749889   0.3749837   0.2499758  )
        87           Al  tau(  87) = (   0.3750046   0.2499902   0.3750046  )
        88           Al  tau(  88) = (   0.2499758   0.3749837   0.3749889  )
        89           Al  tau(  89) = (   0.2499883   0.2500090   0.5000000  )
        90           Al  tau(  90) = (   0.3750179   0.3750091   0.5000000  )
        91           Al  tau(  91) = (   0.3750046   0.2499902   0.6249955  )
        92           Al  tau(  92) = (   0.2499758   0.3749837   0.6250111  )
        93           Al  tau(  93) = (   0.2498914   0.2500095   0.7501086  )
        94           Al  tau(  94) = (   0.3749889   0.3749837   0.7500242  )
        95           Al  tau(  95) = (   0.3749492   0.2500163   0.8750132  )
        96           Al  tau(  96) = (   0.2499339   0.3749898   0.8750205  )
        97           Al  tau(  97) = (   0.2499129   0.4998848   0.0000000  )
        98           Al  tau(  98) = (   0.3750113   0.6250025   0.0000000  )
        99           Al  tau(  99) = (   0.3749973   0.4999861   0.1249960  )
       100           Al  tau( 100) = (   0.2500042   0.6250001   0.1249882  )
       101           Al  tau( 101) = (   0.2500427   0.5000352   0.2500427  )
       102           Al  tau( 102) = (   0.3749989   0.6250088   0.2499937  )
       103           Al  tau( 103) = (   0.3750094   0.4999998   0.3750094  )
       104           Al  tau( 104) = (   0.2499937   0.6250088   0.3749989  )
       105           Al  tau( 105) = (   0.2500131   0.4999999   0.5000000  )
       106           Al  tau( 106) = (   0.3749971   0.6249806   0.5000000  )
       107           Al  tau( 107) = (   0.3750094   0.4999998   0.6249906  )
       108           Al  tau( 108) = (   0.2499937   0.6250088   0.6250011  )
       109           Al  tau( 109) = (   0.2500427   0.5000352   0.7499573  )
       110           Al  tau( 110) = (   0.3749989   0.6250088   0.7500063  )
       111           Al  tau( 111) = (   0.3749973   0.4999861   0.8750040  )
       112           Al  tau( 112) = (   0.2500042   0.6250001   0.8750118  )
       113           Al  tau( 113) = (   0.2501069   0.7498775   0.0000000  )
       114           Al  tau( 114) = (   0.3750905   0.8749896   0.0000000  )
       115           Al  tau( 115) = (   0.3750071   0.7499829   0.1249933  )
       116           Al  tau( 116) = (   0.2502694   0.8749160   0.1250785  )
       117           Al  tau( 117) = (   0.2500035   0.7499940   0.2500035  )
       118           Al  tau( 118) = (   0.3750019   0.8750033   0.2500169  )
       119           Al  tau( 119) = (   0.3749813   0.7500089   0.3749813  )
       120           Al  tau( 120) = (   0.2500169   0.8750033   0.3750019  )
       121           Al  tau( 121) = (   0.2500096   0.7499896   0.5000000  )
       122           Al  tau( 122) = (   0.3749875   0.8750070   0.5000000  )
       123           Al  tau( 123) = (   0.3749813   0.7500089   0.6250188  )
       124           Al  tau( 124) = (   0.2500169   0.8750033   0.6249981  )
       125           Al  tau( 125) = (   0.2500035   0.7499940   0.7499965  )
       126           Al  tau( 126) = (   0.3750019   0.8750033   0.7499831  )
       127           Al  tau( 127) = (   0.3750071   0.7499829   0.8750067  )
       128           Al  tau( 128) = (   0.2502694   0.8749160   0.8749215  )
       129           Al  tau( 129) = (   0.5000000   0.0000186   0.0000000  )
       130           Al  tau( 130) = (   0.6249655   0.1250029   0.0000000  )
       131           Al  tau( 131) = (   0.6249259   0.0000135   0.1249878  )
       132           Al  tau( 132) = (   0.5000000   0.1249906   0.1250042  )
       133           Al  tau( 133) = (   0.5000000   0.0000024   0.2500217  )
       134           Al  tau( 134) = (   0.6250072   0.1250029   0.2500013  )
       135           Al  tau( 135) = (   0.6249910   0.0000012   0.3750090  )
       136           Al  tau( 136) = (   0.5000000   0.1250039   0.3750122  )
       137           Al  tau( 137) = (   0.5000000   0.9999981   0.5000000  )
       138           Al  tau( 138) = (   0.6249878   0.1250039   0.5000000  )
       139           Al  tau( 139) = (   0.6249910   0.0000012   0.6249910  )
       140           Al  tau( 140) = (   0.5000000   0.1250039   0.6249878  )
       141           Al  tau( 141) = (   0.5000000   0.0000024   0.7499783  )
       142           Al  tau( 142) = (   0.6250072   0.1250029   0.7499987  )
       143           Al  tau( 143) = (   0.6249259   0.0000135   0.8750122  )
       144           Al  tau( 144) = (   0.5000000   0.1249906   0.8749958  )
       145           Al  tau( 145) = (   0.5000000   0.2500261   0.0000000  )
       146           Al  tau( 146) = (   0.6250373   0.3750028   0.0000000  )
       147           Al  tau( 147) = (   0.6250508   0.2500163   0.1249868  )
       148           Al  tau( 148) = (   0.5000000   0.3750083   0.1250131  )
       149           Al  tau( 149) = (   0.5000000   0.2500090   0.2499883  )
       150           Al  tau( 150) = (   0.6250111   0.3749837   0.2499758  )
       151           Al  tau( 151) = (   0.6249955   0.2499902   0.3750046  )
       152           Al  tau( 152) = (   0.5000000   0.3750091   0.3750179  )
       153           Al  tau( 153) = (   0.5000000   0.2500139   0.5000000  )
       154           Al  tau( 154) = (   0.6249821   0.3750091   0.5000000  )
       155           Al  tau( 155) = (   0.6249955   0.2499902   0.6249955  )
       156           Al  tau( 156) = (   0.5000000   0.3750091   0.6249821  )
       157           Al  tau( 157) = (   0.5000000   0.2500090   0.7500117  )
       158           Al  tau( 158) = (   0.6250111   0.3749837   0.7500242  )
       159           Al  tau( 159) = (   0.6250508   0.2500163   0.8750132  )
       160           Al  tau( 160) = (   0.5000000   0.3750083   0.8749869  )
       161           Al  tau( 161) = (   0.5000000   0.4999776   0.0000000  )
       162           Al  tau( 162) = (   0.6249887   0.6250025   0.0000000  )
       163           Al  tau( 163) = (   0.6250027   0.4999861   0.1249960  )
       164           Al  tau( 164) = (   0.5000000   0.6250092   0.1250044  )
       165           Al  tau( 165) = (   0.5000000   0.4999999   0.2500131  )
       166           Al  tau( 166) = (   0.6250011   0.6250088   0.2499937  )
       167           Al  tau( 167) = (   0.6249906   0.4999998   0.3750094  )
       168           Al  tau( 168) = (   0.5000000   0.6249806   0.3749971  )
       169           Al  tau( 169) = (   0.5000000   0.5000020   0.5000000  )
       170           Al  tau( 170) = (   0.6250029   0.6249806   0.5000000  )
       171           Al  tau( 171) = (   0.6249906   0.4999998   0.6249906  )
       172           Al  tau( 172) = (   0.5000000   0.6249806   0.6250029  )
       173           Al  tau( 173) = (   0.5000000   0.4999999   0.7499869  )
       174           Al  tau( 174) = (   0.6250011   0.6250088   0.7500063  )
       175           Al  tau( 175) = (   0.6250027   0.4999861   0.8750040  )
       176           Al  tau( 176) = (   0.5000000   0.6250092   0.8749956  )
       177           Al  tau( 177) = (   0.5000000   0.7499784   0.0000000  )
       178           Al  tau( 178) = (   0.6249095   0.8749896   0.0000000  )
       179           Al  tau( 179) = (   0.6249929   0.7499829   0.1249933  )
       180           Al  tau( 180) = (   0.5000000   0.8749928   0.1249990  )
       181           Al  tau( 181) = (   0.5000000   0.7499896   0.2500096  )
       182           Al  tau( 182) = (   0.6249981   0.8750033   0.2500169  )
       183           Al  tau( 183) = (   0.6250188   0.7500089   0.3749813  )
       184           Al  tau( 184) = (   0.5000000   0.8750070   0.3749875  )
       185           Al  tau( 185) = (   0.5000000   0.7499874   0.5000000  )
       186           Al  tau( 186) = (   0.6250125   0.8750070   0.5000000  )
       187           Al  tau( 187) = (   0.6250188   0.7500089   0.6250188  )
       188           Al  tau( 188) = (   0.5000000   0.8750070   0.6250125  )
       189           Al  tau( 189) = (   0.5000000   0.7499896   0.7499904  )
       190           Al  tau( 190) = (   0.6249981   0.8750033   0.7499831  )
       191           Al  tau( 191) = (   0.6249929   0.7499829   0.8750067  )
       192           Al  tau( 192) = (   0.5000000   0.8749928   0.8750010  )
       193           Al  tau( 193) = (   0.7499807   0.0001301   0.0000000  )
       194           Al  tau( 194) = (   0.8743993   0.1271137   0.0000000  )
       195           Al  tau( 195) = (   0.8735780   0.0000628   0.1264220  )
       196           Al  tau( 196) = (   0.7497993   0.1250938   0.1250776  )
       197           Al  tau( 197) = (   0.7498345   0.9999568   0.2501655  )
       198           Al  tau( 198) = (   0.8749224   0.1250938   0.2502007  )
       199           Al  tau( 199) = (   0.8750122   0.0000135   0.3750741  )
       200           Al  tau( 200) = (   0.7499987   0.1250029   0.3749928  )
       201           Al  tau( 201) = (   0.7499783   0.0000024   0.5000000  )
       202           Al  tau( 202) = (   0.8749958   0.1249906   0.5000000  )
       203           Al  tau( 203) = (   0.8750122   0.0000135   0.6249259  )
       204           Al  tau( 204) = (   0.7499987   0.1250029   0.6250072  )
       205           Al  tau( 205) = (   0.7498345   0.9999568   0.7498345  )
       206           Al  tau( 206) = (   0.8749224   0.1250938   0.7497993  )
       207           Al  tau( 207) = (   0.8735780   0.0000628   0.8735780  )
       208           Al  tau( 208) = (   0.7497993   0.1250938   0.8749224  )
       209           Al  tau( 209) = (   0.7501959   0.2501115   0.0000000  )
       210           Al  tau( 210) = (   0.8757267   0.3743545   0.0000000  )
       211           Al  tau( 211) = (   0.8755778   0.2502903   0.1244222  )
       212           Al  tau( 212) = (   0.7500662   0.3749898   0.1249795  )
       213           Al  tau( 213) = (   0.7501086   0.2500095   0.2498914  )
       214           Al  tau( 214) = (   0.8750205   0.3749898   0.2499339  )
       215           Al  tau( 215) = (   0.8750132   0.2500163   0.3749492  )
       216           Al  tau( 216) = (   0.7500242   0.3749837   0.3749889  )
       217           Al  tau( 217) = (   0.7500117   0.2500090   0.5000000  )
       218           Al  tau( 218) = (   0.8749869   0.3750083   0.5000000  )
       219           Al  tau( 219) = (   0.8750132   0.2500163   0.6250508  )
       220           Al  tau( 220) = (   0.7500242   0.3749837   0.6250111  )
       221           Al  tau( 221) = (   0.7501086   0.2500095   0.7501086  )
       222           Al  tau( 222) = (   0.8750205   0.3749898   0.7500662  )
       223           Al  tau( 223) = (   0.8755778   0.2502903   0.8755778  )
       224           Al  tau( 224) = (   0.7500662   0.3749898   0.8750205  )
       225           Al  tau( 225) = (   0.7500871   0.4998848   0.0000000  )
       226           Al  tau( 226) = (   0.8750042   0.6248671   0.0000000  )
       227           Al  tau( 227) = (   0.8750142   0.4999008   0.1249858  )
       228           Al  tau( 228) = (   0.7499958   0.6250001   0.1249882  )
       229           Al  tau( 229) = (   0.7499573   0.5000352   0.2500427  )
       230           Al  tau( 230) = (   0.8750118   0.6250001   0.2500042  )
       231           Al  tau( 231) = (   0.8750040   0.4999861   0.3749973  )
       232           Al  tau( 232) = (   0.7500063   0.6250088   0.3749989  )
       233           Al  tau( 233) = (   0.7499869   0.4999999   0.5000000  )
       234           Al  tau( 234) = (   0.8749956   0.6250092   0.5000000  )
       235           Al  tau( 235) = (   0.8750040   0.4999861   0.6250027  )
       236           Al  tau( 236) = (   0.7500063   0.6250088   0.6250011  )
       237           Al  tau( 237) = (   0.7499573   0.5000352   0.7499573  )
       238           Al  tau( 238) = (   0.8750118   0.6250001   0.7499958  )
       239           Al  tau( 239) = (   0.8750142   0.4999008   0.8750142  )
       240           Al  tau( 240) = (   0.7499958   0.6250001   0.8750118  )
       241           Al  tau( 241) = (   0.7498931   0.7498775   0.0000000  )
       242           Al  tau( 242) = (   0.8735886   0.8736216   0.0000000  )
       243           Al  tau( 243) = (   0.8749060   0.7497229   0.1250940  )
       244           Al  tau( 244) = (   0.7497306   0.8749160   0.1250785  )
       245           Al  tau( 245) = (   0.7499965   0.7499940   0.2500035  )
       246           Al  tau( 246) = (   0.8749215   0.8749160   0.2502694  )
       247           Al  tau( 247) = (   0.8750067   0.7499829   0.3750071  )
       248           Al  tau( 248) = (   0.7499831   0.8750033   0.3750019  )
       249           Al  tau( 249) = (   0.7499904   0.7499896   0.5000000  )
       250           Al  tau( 250) = (   0.8750010   0.8749928   0.5000000  )
       251           Al  tau( 251) = (   0.8750067   0.7499829   0.6249929  )
       252           Al  tau( 252) = (   0.7499831   0.8750033   0.6249981  )
       253           Al  tau( 253) = (   0.7499965   0.7499940   0.7499965  )
       254           Al  tau( 254) = (   0.8749215   0.8749160   0.7497306  )
       255           Al  tau( 255) = (   0.8749060   0.7497229   0.8749060  )
       256           Al  tau( 256) = (   0.7497306   0.8749160   0.8749215  )

   Crystallographic axes

     site n.     atom                  positions (cryst. coord.)
         1           Mg  tau(   1) = (  0.0000000  0.0000390  0.0000000  )
         2           Al  tau(   2) = (  0.1264220  0.0000628  0.1264220  )
         3           Al  tau(   3) = (  0.1256007  0.1271137  0.0000000  )
         4           Al  tau(   4) = (  0.0000000  0.1271137  0.1256007  )
         5           Al  tau(   5) = (  0.0000000  0.0001301  0.2500193  )
         6           Al  tau(   6) = (  0.1250776  0.1250938  0.2502007  )
         7           Al  tau(   7) = (  0.1249878  0.0000135  0.3750741  )
         8           Al  tau(   8) = (  0.0000000  0.1250029  0.3750345  )
         9           Al  tau(   9) = (  0.0000000  0.0000186  0.5000000  )
        10           Al  tau(  10) = (  0.1250042  0.1249906  0.5000000  )
        11           Al  tau(  11) = (  0.1249878  0.0000135  0.6249259  )
        12           Al  tau(  12) = (  0.0000000  0.1250029  0.6249655  )
        13           Al  tau(  13) = (  0.0000000  0.0001301  0.7499807  )
        14           Al  tau(  14) = (  0.1250776  0.1250938  0.7497993  )
        15           Al  tau(  15) = (  0.1264220  0.0000628  0.8735780  )
        16           Al  tau(  16) = (  0.0000000  0.1271137  0.8743993  )
        17           Si  tau(  17) = (  0.0000000  0.2506936  0.0000000  )
        18           Al  tau(  18) = (  0.1242733  0.3743545  0.0000000  )
        19           Al  tau(  19) = (  0.1244222  0.2502903  0.1244222  )
        20           Al  tau(  20) = (  0.0000000  0.3743545  0.1242733  )
        21           Al  tau(  21) = (  0.0000000  0.2501115  0.2498041  )
        22           Al  tau(  22) = (  0.1249795  0.3749898  0.2499339  )
        23           Al  tau(  23) = (  0.1249868  0.2500163  0.3749492  )
        24           Al  tau(  24) = (  0.0000000  0.3750028  0.3749627  )
        25           Al  tau(  25) = (  0.0000000  0.2500261  0.5000000  )
        26           Al  tau(  26) = (  0.1250131  0.3750083  0.5000000  )
        27           Al  tau(  27) = (  0.1249868  0.2500163  0.6250508  )
        28           Al  tau(  28) = (  0.0000000  0.3750028  0.6250373  )
        29           Al  tau(  29) = (  0.0000000  0.2501115  0.7501959  )
        30           Al  tau(  30) = (  0.1249795  0.3749898  0.7500662  )
        31           Al  tau(  31) = (  0.1244222  0.2502903  0.8755778  )
        32           Al  tau(  32) = (  0.0000000  0.3743545  0.8757267  )
        33           Al  tau(  33) = (  0.0000000  0.4997309  0.0000000  )
        34           Al  tau(  34) = (  0.1249958  0.6248671  0.0000000  )
        35           Al  tau(  35) = (  0.1249858  0.4999008  0.1249858  )
        36           Al  tau(  36) = (  0.0000000  0.6248671  0.1249958  )
        37           Al  tau(  37) = (  0.0000000  0.4998848  0.2499129  )
        38           Al  tau(  38) = (  0.1249882  0.6250001  0.2500042  )
        39           Al  tau(  39) = (  0.1249960  0.4999861  0.3749973  )
        40           Al  tau(  40) = (  0.0000000  0.6250025  0.3750113  )
        41           Al  tau(  41) = (  0.0000000  0.4999776  0.5000000  )
        42           Al  tau(  42) = (  0.1250044  0.6250092  0.5000000  )
        43           Al  tau(  43) = (  0.1249960  0.4999861  0.6250027  )
        44           Al  tau(  44) = (  0.0000000  0.6250025  0.6249887  )
        45           Al  tau(  45) = (  0.0000000  0.4998848  0.7500871  )
        46           Al  tau(  46) = (  0.1249882  0.6250001  0.7499958  )
        47           Al  tau(  47) = (  0.1249858  0.4999008  0.8750142  )
        48           Al  tau(  48) = (  0.0000000  0.6248671  0.8750042  )
        49           Al  tau(  49) = (  0.0000000  0.7498224  0.0000000  )
        50           Al  tau(  50) = (  0.1264115  0.8736216  0.0000000  )
        51           Al  tau(  51) = (  0.1250940  0.7497229  0.1250940  )
        52           Al  tau(  52) = (  0.0000000  0.8736216  0.1264115  )
        53           Al  tau(  53) = (  0.0000000  0.7498775  0.2501069  )
        54           Al  tau(  54) = (  0.1250785  0.8749160  0.2502694  )
        55           Al  tau(  55) = (  0.1249933  0.7499829  0.3750071  )
        56           Al  tau(  56) = (  0.0000000  0.8749896  0.3750905  )
        57           Al  tau(  57) = (  0.0000000  0.7499784  0.5000000  )
        58           Al  tau(  58) = (  0.1249990  0.8749928  0.5000000  )
        59           Al  tau(  59) = (  0.1249933  0.7499829  0.6249929  )
        60           Al  tau(  60) = (  0.0000000  0.8749896  0.6249095  )
        61           Al  tau(  61) = (  0.0000000  0.7498775  0.7498931  )
        62           Al  tau(  62) = (  0.1250785  0.8749160  0.7497306  )
        63           Al  tau(  63) = (  0.1250940  0.7497229  0.8749060  )
        64           Al  tau(  64) = (  0.0000000  0.8736216  0.8735886  )
        65           Al  tau(  65) = (  0.2500193  0.0001301  0.0000000  )
        66           Al  tau(  66) = (  0.3750345  0.1250029  0.0000000  )
        67           Al  tau(  67) = (  0.3750741  0.0000135  0.1249878  )
        68           Al  tau(  68) = (  0.2502007  0.1250938  0.1250776  )
        69           Al  tau(  69) = (  0.2501655  0.9999568  0.2501655  )
        70           Al  tau(  70) = (  0.3749928  0.1250029  0.2500013  )
        71           Al  tau(  71) = (  0.3750090  0.0000012  0.3750090  )
        72           Al  tau(  72) = (  0.2500013  0.1250029  0.3749928  )
        73           Al  tau(  73) = (  0.2500217  0.0000024  0.5000000  )
        74           Al  tau(  74) = (  0.3750122  0.1250039  0.5000000  )
        75           Al  tau(  75) = (  0.3750090  0.0000012  0.6249910  )
        76           Al  tau(  76) = (  0.2500013  0.1250029  0.6250072  )
        77           Al  tau(  77) = (  0.2501655  0.9999568  0.7498345  )
        78           Al  tau(  78) = (  0.3749928  0.1250029  0.7499987  )
        79           Al  tau(  79) = (  0.3750741  0.0000135  0.8750122  )
        80           Al  tau(  80) = (  0.2502007  0.1250938  0.8749224  )
        81           Al  tau(  81) = (  0.2498041  0.2501115  0.0000000  )
        82           Al  tau(  82) = (  0.3749627  0.3750028  0.0000000  )
        83           Al  tau(  83) = (  0.3749492  0.2500163  0.1249868  )
        84           Al  tau(  84) = (  0.2499339  0.3749898  0.1249795  )
        85           Al  tau(  85) = (  0.2498914  0.2500095  0.2498914  )
        86           Al  tau(  86) = (  0.3749889  0.3749837  0.2499758  )
        87           Al  tau(  87) = (  0.3750046  0.2499902  0.3750046  )
        88           Al  tau(  88) = (  0.2499758  0.3749837  0.3749889  )
        89           Al  tau(  89) = (  0.2499883  0.2500090  0.5000000  )
        90           Al  tau(  90) = (  0.3750179  0.3750091  0.5000000  )
        91           Al  tau(  91) = (  0.3750046  0.2499902  0.6249955  )
        92           Al  tau(  92) = (  0.2499758  0.3749837  0.6250111  )
        93           Al  tau(  93) = (  0.2498914  0.2500095  0.7501086  )
        94           Al  tau(  94) = (  0.3749889  0.3749837  0.7500242  )
        95           Al  tau(  95) = (  0.3749492  0.2500163  0.8750132  )
        96           Al  tau(  96) = (  0.2499339  0.3749898  0.8750205  )
        97           Al  tau(  97) = (  0.2499129  0.4998848  0.0000000  )
        98           Al  tau(  98) = (  0.3750113  0.6250025  0.0000000  )
        99           Al  tau(  99) = (  0.3749973  0.4999861  0.1249960  )
       100           Al  tau( 100) = (  0.2500042  0.6250001  0.1249882  )
       101           Al  tau( 101) = (  0.2500427  0.5000352  0.2500427  )
       102           Al  tau( 102) = (  0.3749989  0.6250088  0.2499937  )
       103           Al  tau( 103) = (  0.3750094  0.4999998  0.3750094  )
       104           Al  tau( 104) = (  0.2499937  0.6250088  0.3749989  )
       105           Al  tau( 105) = (  0.2500131  0.4999999  0.5000000  )
       106           Al  tau( 106) = (  0.3749971  0.6249806  0.5000000  )
       107           Al  tau( 107) = (  0.3750094  0.4999998  0.6249906  )
       108           Al  tau( 108) = (  0.2499937  0.6250088  0.6250011  )
       109           Al  tau( 109) = (  0.2500427  0.5000352  0.7499573  )
       110           Al  tau( 110) = (  0.3749989  0.6250088  0.7500063  )
       111           Al  tau( 111) = (  0.3749973  0.4999861  0.8750040  )
       112           Al  tau( 112) = (  0.2500042  0.6250001  0.8750118  )
       113           Al  tau( 113) = (  0.2501069  0.7498775  0.0000000  )
       114           Al  tau( 114) = (  0.3750905  0.8749896  0.0000000  )
       115           Al  tau( 115) = (  0.3750071  0.7499829  0.1249933  )
       116           Al  tau( 116) = (  0.2502694  0.8749160  0.1250785  )
       117           Al  tau( 117) = (  0.2500035  0.7499940  0.2500035  )
       118           Al  tau( 118) = (  0.3750019  0.8750033  0.2500169  )
       119           Al  tau( 119) = (  0.3749813  0.7500089  0.3749813  )
       120           Al  tau( 120) = (  0.2500169  0.8750033  0.3750019  )
       121           Al  tau( 121) = (  0.2500096  0.7499896  0.5000000  )
       122           Al  tau( 122) = (  0.3749875  0.8750070  0.5000000  )
       123           Al  tau( 123) = (  0.3749813  0.7500089  0.6250188  )
       124           Al  tau( 124) = (  0.2500169  0.8750033  0.6249981  )
       125           Al  tau( 125) = (  0.2500035  0.7499940  0.7499965  )
       126           Al  tau( 126) = (  0.3750019  0.8750033  0.7499831  )
       127           Al  tau( 127) = (  0.3750071  0.7499829  0.8750067  )
       128           Al  tau( 128) = (  0.2502694  0.8749160  0.8749215  )
       129           Al  tau( 129) = (  0.5000000  0.0000186  0.0000000  )
       130           Al  tau( 130) = (  0.6249655  0.1250029  0.0000000  )
       131           Al  tau( 131) = (  0.6249259  0.0000135  0.1249878  )
       132           Al  tau( 132) = (  0.5000000  0.1249906  0.1250042  )
       133           Al  tau( 133) = (  0.5000000  0.0000024  0.2500217  )
       134           Al  tau( 134) = (  0.6250072  0.1250029  0.2500013  )
       135           Al  tau( 135) = (  0.6249910  0.0000012  0.3750090  )
       136           Al  tau( 136) = (  0.5000000  0.1250039  0.3750122  )
       137           Al  tau( 137) = (  0.5000000  0.9999981  0.5000000  )
       138           Al  tau( 138) = (  0.6249878  0.1250039  0.5000000  )
       139           Al  tau( 139) = (  0.6249910  0.0000012  0.6249910  )
       140           Al  tau( 140) = (  0.5000000  0.1250039  0.6249878  )
       141           Al  tau( 141) = (  0.5000000  0.0000024  0.7499783  )
       142           Al  tau( 142) = (  0.6250072  0.1250029  0.7499987  )
       143           Al  tau( 143) = (  0.6249259  0.0000135  0.8750122  )
       144           Al  tau( 144) = (  0.5000000  0.1249906  0.8749958  )
       145           Al  tau( 145) = (  0.5000000  0.2500261  0.0000000  )
       146           Al  tau( 146) = (  0.6250373  0.3750028  0.0000000  )
       147           Al  tau( 147) = (  0.6250508  0.2500163  0.1249868  )
       148           Al  tau( 148) = (  0.5000000  0.3750083  0.1250131  )
       149           Al  tau( 149) = (  0.5000000  0.2500090  0.2499883  )
       150           Al  tau( 150) = (  0.6250111  0.3749837  0.2499758  )
       151           Al  tau( 151) = (  0.6249955  0.2499902  0.3750046  )
       152           Al  tau( 152) = (  0.5000000  0.3750091  0.3750179  )
       153           Al  tau( 153) = (  0.5000000  0.2500139  0.5000000  )
       154           Al  tau( 154) = (  0.6249821  0.3750091  0.5000000  )
       155           Al  tau( 155) = (  0.6249955  0.2499902  0.6249955  )
       156           Al  tau( 156) = (  0.5000000  0.3750091  0.6249821  )
       157           Al  tau( 157) = (  0.5000000  0.2500090  0.7500117  )
       158           Al  tau( 158) = (  0.6250111  0.3749837  0.7500242  )
       159           Al  tau( 159) = (  0.6250508  0.2500163  0.8750132  )
       160           Al  tau( 160) = (  0.5000000  0.3750083  0.8749869  )
       161           Al  tau( 161) = (  0.5000000  0.4999776  0.0000000  )
       162           Al  tau( 162) = (  0.6249887  0.6250025  0.0000000  )
       163           Al  tau( 163) = (  0.6250027  0.4999861  0.1249960  )
       164           Al  tau( 164) = (  0.5000000  0.6250092  0.1250044  )
       165           Al  tau( 165) = (  0.5000000  0.4999999  0.2500131  )
       166           Al  tau( 166) = (  0.6250011  0.6250088  0.2499937  )
       167           Al  tau( 167) = (  0.6249906  0.4999998  0.3750094  )
       168           Al  tau( 168) = (  0.5000000  0.6249806  0.3749971  )
       169           Al  tau( 169) = (  0.5000000  0.5000020  0.5000000  )
       170           Al  tau( 170) = (  0.6250029  0.6249806  0.5000000  )
       171           Al  tau( 171) = (  0.6249906  0.4999998  0.6249906  )
       172           Al  tau( 172) = (  0.5000000  0.6249806  0.6250029  )
       173           Al  tau( 173) = (  0.5000000  0.4999999  0.7499869  )
       174           Al  tau( 174) = (  0.6250011  0.6250088  0.7500063  )
       175           Al  tau( 175) = (  0.6250027  0.4999861  0.8750040  )
       176           Al  tau( 176) = (  0.5000000  0.6250092  0.8749956  )
       177           Al  tau( 177) = (  0.5000000  0.7499784  0.0000000  )
       178           Al  tau( 178) = (  0.6249095  0.8749896  0.0000000  )
       179           Al  tau( 179) = (  0.6249929  0.7499829  0.1249933  )
       180           Al  tau( 180) = (  0.5000000  0.8749928  0.1249990  )
       181           Al  tau( 181) = (  0.5000000  0.7499896  0.2500096  )
       182           Al  tau( 182) = (  0.6249981  0.8750033  0.2500169  )
       183           Al  tau( 183) = (  0.6250188  0.7500089  0.3749813  )
       184           Al  tau( 184) = (  0.5000000  0.8750070  0.3749875  )
       185           Al  tau( 185) = (  0.5000000  0.7499874  0.5000000  )
       186           Al  tau( 186) = (  0.6250125  0.8750070  0.5000000  )
       187           Al  tau( 187) = (  0.6250188  0.7500089  0.6250188  )
       188           Al  tau( 188) = (  0.5000000  0.8750070  0.6250125  )
       189           Al  tau( 189) = (  0.5000000  0.7499896  0.7499904  )
       190           Al  tau( 190) = (  0.6249981  0.8750033  0.7499831  )
       191           Al  tau( 191) = (  0.6249929  0.7499829  0.8750067  )
       192           Al  tau( 192) = (  0.5000000  0.8749928  0.8750010  )
       193           Al  tau( 193) = (  0.7499807  0.0001301  0.0000000  )
       194           Al  tau( 194) = (  0.8743993  0.1271137  0.0000000  )
       195           Al  tau( 195) = (  0.8735780  0.0000628  0.1264220  )
       196           Al  tau( 196) = (  0.7497993  0.1250938  0.1250776  )
       197           Al  tau( 197) = (  0.7498345  0.9999568  0.2501655  )
       198           Al  tau( 198) = (  0.8749224  0.1250938  0.2502007  )
       199           Al  tau( 199) = (  0.8750122  0.0000135  0.3750741  )
       200           Al  tau( 200) = (  0.7499987  0.1250029  0.3749928  )
       201           Al  tau( 201) = (  0.7499783  0.0000024  0.5000000  )
       202           Al  tau( 202) = (  0.8749958  0.1249906  0.5000000  )
       203           Al  tau( 203) = (  0.8750122  0.0000135  0.6249259  )
       204           Al  tau( 204) = (  0.7499987  0.1250029  0.6250072  )
       205           Al  tau( 205) = (  0.7498345  0.9999568  0.7498345  )
       206           Al  tau( 206) = (  0.8749224  0.1250938  0.7497993  )
       207           Al  tau( 207) = (  0.8735780  0.0000628  0.8735780  )
       208           Al  tau( 208) = (  0.7497993  0.1250938  0.8749224  )
       209           Al  tau( 209) = (  0.7501959  0.2501115  0.0000000  )
       210           Al  tau( 210) = (  0.8757267  0.3743545  0.0000000  )
       211           Al  tau( 211) = (  0.8755778  0.2502903  0.1244222  )
       212           Al  tau( 212) = (  0.7500662  0.3749898  0.1249795  )
       213           Al  tau( 213) = (  0.7501086  0.2500095  0.2498914  )
       214           Al  tau( 214) = (  0.8750205  0.3749898  0.2499339  )
       215           Al  tau( 215) = (  0.8750132  0.2500163  0.3749492  )
       216           Al  tau( 216) = (  0.7500242  0.3749837  0.3749889  )
       217           Al  tau( 217) = (  0.7500117  0.2500090  0.5000000  )
       218           Al  tau( 218) = (  0.8749869  0.3750083  0.5000000  )
       219           Al  tau( 219) = (  0.8750132  0.2500163  0.6250508  )
       220           Al  tau( 220) = (  0.7500242  0.3749837  0.6250111  )
       221           Al  tau( 221) = (  0.7501086  0.2500095  0.7501086  )
       222           Al  tau( 222) = (  0.8750205  0.3749898  0.7500662  )
       223           Al  tau( 223) = (  0.8755778  0.2502903  0.8755778  )
       224           Al  tau( 224) = (  0.7500662  0.3749898  0.8750205  )
       225           Al  tau( 225) = (  0.7500871  0.4998848  0.0000000  )
       226           Al  tau( 226) = (  0.8750042  0.6248671  0.0000000  )
       227           Al  tau( 227) = (  0.8750142  0.4999008  0.1249858  )
       228           Al  tau( 228) = (  0.7499958  0.6250001  0.1249882  )
       229           Al  tau( 229) = (  0.7499573  0.5000352  0.2500427  )
       230           Al  tau( 230) = (  0.8750118  0.6250001  0.2500042  )
       231           Al  tau( 231) = (  0.8750040  0.4999861  0.3749973  )
       232           Al  tau( 232) = (  0.7500063  0.6250088  0.3749989  )
       233           Al  tau( 233) = (  0.7499869  0.4999999  0.5000000  )
       234           Al  tau( 234) = (  0.8749956  0.6250092  0.5000000  )
       235           Al  tau( 235) = (  0.8750040  0.4999861  0.6250027  )
       236           Al  tau( 236) = (  0.7500063  0.6250088  0.6250011  )
       237           Al  tau( 237) = (  0.7499573  0.5000352  0.7499573  )
       238           Al  tau( 238) = (  0.8750118  0.6250001  0.7499958  )
       239           Al  tau( 239) = (  0.8750142  0.4999008  0.8750142  )
       240           Al  tau( 240) = (  0.7499958  0.6250001  0.8750118  )
       241           Al  tau( 241) = (  0.7498931  0.7498775  0.0000000  )
       242           Al  tau( 242) = (  0.8735886  0.8736216  0.0000000  )
       243           Al  tau( 243) = (  0.8749060  0.7497229  0.1250940  )
       244           Al  tau( 244) = (  0.7497306  0.8749160  0.1250785  )
       245           Al  tau( 245) = (  0.7499965  0.7499940  0.2500035  )
       246           Al  tau( 246) = (  0.8749215  0.8749160  0.2502694  )
       247           Al  tau( 247) = (  0.8750067  0.7499829  0.3750071  )
       248           Al  tau( 248) = (  0.7499831  0.8750033  0.3750019  )
       249           Al  tau( 249) = (  0.7499904  0.7499896  0.5000000  )
       250           Al  tau( 250) = (  0.8750010  0.8749928  0.5000000  )
       251           Al  tau( 251) = (  0.8750067  0.7499829  0.6249929  )
       252           Al  tau( 252) = (  0.7499831  0.8750033  0.6249981  )
       253           Al  tau( 253) = (  0.7499965  0.7499940  0.7499965  )
       254           Al  tau( 254) = (  0.8749215  0.8749160  0.7497306  )
       255           Al  tau( 255) = (  0.8749060  0.7497229  0.8749060  )
       256           Al  tau( 256) = (  0.7497306  0.8749160  0.8749215  )

     number of k points=    63  Methfessel-Paxton smearing, width (Ry)=  0.0441
                       cart. coord. in units 2pi/alat
        k(    1) = (   0.0000000   0.0000000   0.0000000), wk =   0.0160000
        k(    2) = (   0.0000000   0.0000000   0.2000000), wk =   0.0320000
        k(    3) = (   0.0000000   0.0000000   0.4000000), wk =   0.0320000
        k(    4) = (   0.0000000   0.2000000   0.0000000), wk =   0.0320000
        k(    5) = (   0.0000000   0.2000000   0.2000000), wk =   0.0320000
        k(    6) = (   0.0000000   0.2000000   0.4000000), wk =   0.0320000
        k(    7) = (   0.0000000   0.2000000  -0.4000000), wk =   0.0320000
        k(    8) = (   0.0000000   0.2000000  -0.2000000), wk =   0.0320000
        k(    9) = (   0.0000000   0.4000000   0.0000000), wk =   0.0320000
        k(   10) = (   0.0000000   0.4000000   0.2000000), wk =   0.0320000
        k(   11) = (   0.0000000   0.4000000   0.4000000), wk =   0.0320000
        k(   12) = (   0.0000000   0.4000000  -0.4000000), wk =   0.0320000
        k(   13) = (   0.0000000   0.4000000  -0.2000000), wk =   0.0320000
        k(   14) = (   0.2000000   0.0000000   0.0000000), wk =   0.0320000
        k(   15) = (   0.2000000   0.0000000   0.2000000), wk =   0.0320000
        k(   16) = (   0.2000000   0.0000000   0.4000000), wk =   0.0320000
        k(   17) = (   0.2000000   0.0000000  -0.4000000), wk =   0.0320000
        k(   18) = (   0.2000000   0.0000000  -0.2000000), wk =   0.0320000
        k(   19) = (   0.2000000   0.2000000   0.0000000), wk =   0.0320000
        k(   20) = (   0.2000000   0.2000000   0.2000000), wk =   0.0320000
        k(   21) = (   0.2000000   0.2000000   0.4000000), wk =   0.0320000
        k(   22) = (   0.2000000   0.2000000  -0.4000000), wk =   0.0320000
        k(   23) = (   0.2000000   0.2000000  -0.2000000), wk =   0.0320000
        k(   24) = (   0.2000000   0.4000000   0.0000000), wk =   0.0320000
        k(   25) = (   0.2000000   0.4000000   0.2000000), wk =   0.0320000
        k(   26) = (   0.2000000   0.4000000   0.4000000), wk =   0.0320000
        k(   27) = (   0.2000000   0.4000000  -0.4000000), wk =   0.0320000
        k(   28) = (   0.2000000   0.4000000  -0.2000000), wk =   0.0320000
        k(   29) = (   0.2000000  -0.4000000   0.0000000), wk =   0.0320000
        k(   30) = (   0.2000000  -0.4000000   0.2000000), wk =   0.0320000
        k(   31) = (   0.2000000  -0.4000000   0.4000000), wk =   0.0320000
        k(   32) = (   0.2000000  -0.4000000  -0.4000000), wk =   0.0320000
        k(   33) = (   0.2000000  -0.4000000  -0.2000000), wk =   0.0320000
        k(   34) = (   0.2000000  -0.2000000   0.0000000), wk =   0.0320000
        k(   35) = (   0.2000000  -0.2000000   0.2000000), wk =   0.0320000
        k(   36) = (   0.2000000  -0.2000000   0.4000000), wk =   0.0320000
        k(   37) = (   0.2000000  -0.2000000  -0.4000000), wk =   0.0320000
        k(   38) = (   0.2000000  -0.2000000  -0.2000000), wk =   0.0320000
        k(   39) = (   0.4000000   0.0000000   0.0000000), wk =   0.0320000
        k(   40) = (   0.4000000   0.0000000   0.2000000), wk =   0.0320000
        k(   41) = (   0.4000000   0.0000000   0.4000000), wk =   0.0320000
        k(   42) = (   0.4000000   0.0000000  -0.4000000), wk =   0.0320000
        k(   43) = (   0.4000000   0.0000000  -0.2000000), wk =   0.0320000
        k(   44) = (   0.4000000   0.2000000   0.0000000), wk =   0.0320000
        k(   45) = (   0.4000000   0.2000000   0.2000000), wk =   0.0320000
        k(   46) = (   0.4000000   0.2000000   0.4000000), wk =   0.0320000
        k(   47) = (   0.4000000   0.2000000  -0.4000000), wk =   0.0320000
        k(   48) = (   0.4000000   0.2000000  -0.2000000), wk =   0.0320000
        k(   49) = (   0.4000000   0.4000000   0.0000000), wk =   0.0320000
        k(   50) = (   0.4000000   0.4000000   0.2000000), wk =   0.0320000
        k(   51) = (   0.4000000   0.4000000   0.4000000), wk =   0.0320000
        k(   52) = (   0.4000000   0.4000000  -0.4000000), wk =   0.0320000
        k(   53) = (   0.4000000   0.4000000  -0.2000000), wk =   0.0320000
        k(   54) = (   0.4000000  -0.4000000   0.0000000), wk =   0.0320000
        k(   55) = (   0.4000000  -0.4000000   0.2000000), wk =   0.0320000
        k(   56) = (   0.4000000  -0.4000000   0.4000000), wk =   0.0320000
        k(   57) = (   0.4000000  -0.4000000  -0.4000000), wk =   0.0320000
        k(   58) = (   0.4000000  -0.4000000  -0.2000000), wk =   0.0320000
        k(   59) = (   0.4000000  -0.2000000   0.0000000), wk =   0.0320000
        k(   60) = (   0.4000000  -0.2000000   0.2000000), wk =   0.0320000
        k(   61) = (   0.4000000  -0.2000000   0.4000000), wk =   0.0320000
        k(   62) = (   0.4000000  -0.2000000  -0.4000000), wk =   0.0320000
        k(   63) = (   0.4000000  -0.2000000  -0.2000000), wk =   0.0320000

                       cryst. coord.
        k(    1) = (   0.0000000   0.0000000   0.0000000), wk =   0.0160000
        k(    2) = (   0.0000000   0.0000000   0.2000000), wk =   0.0320000
        k(    3) = (   0.0000000   0.0000000   0.4000000), wk =   0.0320000
        k(    4) = (   0.0000000   0.2000000   0.0000000), wk =   0.0320000
        k(    5) = (   0.0000000   0.2000000   0.2000000), wk =   0.0320000
        k(    6) = (   0.0000000   0.2000000   0.4000000), wk =   0.0320000
        k(    7) = (   0.0000000   0.2000000  -0.4000000), wk =   0.0320000
        k(    8) = (   0.0000000   0.2000000  -0.2000000), wk =   0.0320000
        k(    9) = (   0.0000000   0.4000000   0.0000000), wk =   0.0320000
        k(   10) = (   0.0000000   0.4000000   0.2000000), wk =   0.0320000
        k(   11) = (   0.0000000   0.4000000   0.4000000), wk =   0.0320000
        k(   12) = (   0.0000000   0.4000000  -0.4000000), wk =   0.0320000
        k(   13) = (   0.0000000   0.4000000  -0.2000000), wk =   0.0320000
        k(   14) = (   0.2000000   0.0000000   0.0000000), wk =   0.0320000
        k(   15) = (   0.2000000   0.0000000   0.2000000), wk =   0.0320000
        k(   16) = (   0.2000000   0.0000000   0.4000000), wk =   0.0320000
        k(   17) = (   0.2000000   0.0000000  -0.4000000), wk =   0.0320000
        k(   18) = (   0.2000000   0.0000000  -0.2000000), wk =   0.0320000
        k(   19) = (   0.2000000   0.2000000   0.0000000), wk =   0.0320000
        k(   20) = (   0.2000000   0.2000000   0.2000000), wk =   0.0320000
        k(   21) = (   0.2000000   0.2000000   0.4000000), wk =   0.0320000
        k(   22) = (   0.2000000   0.2000000  -0.4000000), wk =   0.0320000
        k(   23) = (   0.2000000   0.2000000  -0.2000000), wk =   0.0320000
        k(   24) = (   0.2000000   0.4000000   0.0000000), wk =   0.0320000
        k(   25) = (   0.2000000   0.4000000   0.2000000), wk =   0.0320000
        k(   26) = (   0.2000000   0.4000000   0.4000000), wk =   0.0320000
        k(   27) = (   0.2000000   0.4000000  -0.4000000), wk =   0.0320000
        k(   28) = (   0.2000000   0.4000000  -0.2000000), wk =   0.0320000
        k(   29) = (   0.2000000  -0.4000000   0.0000000), wk =   0.0320000
        k(   30) = (   0.2000000  -0.4000000   0.2000000), wk =   0.0320000
        k(   31) = (   0.2000000  -0.4000000   0.4000000), wk =   0.0320000
        k(   32) = (   0.2000000  -0.4000000  -0.4000000), wk =   0.0320000
        k(   33) = (   0.2000000  -0.4000000  -0.2000000), wk =   0.0320000
        k(   34) = (   0.2000000  -0.2000000   0.0000000), wk =   0.0320000
        k(   35) = (   0.2000000  -0.2000000   0.2000000), wk =   0.0320000
        k(   36) = (   0.2000000  -0.2000000   0.4000000), wk =   0.0320000
        k(   37) = (   0.2000000  -0.2000000  -0.4000000), wk =   0.0320000
        k(   38) = (   0.2000000  -0.2000000  -0.2000000), wk =   0.0320000
        k(   39) = (   0.4000000   0.0000000   0.0000000), wk =   0.0320000
        k(   40) = (   0.4000000   0.0000000   0.2000000), wk =   0.0320000
        k(   41) = (   0.4000000   0.0000000   0.4000000), wk =   0.0320000
        k(   42) = (   0.4000000   0.0000000  -0.4000000), wk =   0.0320000
        k(   43) = (   0.4000000   0.0000000  -0.2000000), wk =   0.0320000
        k(   44) = (   0.4000000   0.2000000   0.0000000), wk =   0.0320000
        k(   45) = (   0.4000000   0.2000000   0.2000000), wk =   0.0320000
        k(   46) = (   0.4000000   0.2000000   0.4000000), wk =   0.0320000
        k(   47) = (   0.4000000   0.2000000  -0.4000000), wk =   0.0320000
        k(   48) = (   0.4000000   0.2000000  -0.2000000), wk =   0.0320000
        k(   49) = (   0.4000000   0.4000000   0.0000000), wk =   0.0320000
        k(   50) = (   0.4000000   0.4000000   0.2000000), wk =   0.0320000
        k(   51) = (   0.4000000   0.4000000   0.4000000), wk =   0.0320000
        k(   52) = (   0.4000000   0.4000000  -0.4000000), wk =   0.0320000
        k(   53) = (   0.4000000   0.4000000  -0.2000000), wk =   0.0320000
        k(   54) = (   0.4000000  -0.4000000   0.0000000), wk =   0.0320000
        k(   55) = (   0.4000000  -0.4000000   0.2000000), wk =   0.0320000
        k(   56) = (   0.4000000  -0.4000000   0.4000000), wk =   0.0320000
        k(   57) = (   0.4000000  -0.4000000  -0.4000000), wk =   0.0320000
        k(   58) = (   0.4000000  -0.4000000  -0.2000000), wk =   0.0320000
        k(   59) = (   0.4000000  -0.2000000   0.0000000), wk =   0.0320000
        k(   60) = (   0.4000000  -0.2000000   0.2000000), wk =   0.0320000
        k(   61) = (   0.4000000  -0.2000000   0.4000000), wk =   0.0320000
        k(   62) = (   0.4000000  -0.2000000  -0.4000000), wk =   0.0320000
        k(   63) = (   0.4000000  -0.2000000  -0.2000000), wk =   0.0320000

     Dense  grid:  3895379 G-vectors     FFT dimensions: ( 200, 200, 200)

     Smooth grid:   985619 G-vectors     FFT dimensions: ( 125, 125, 125)

     Dynamical RAM for                 wfc:      96.29 MB

     Dynamical RAM for     wfc (w. buffer):    1636.97 MB

     Dynamical RAM for           str. fact:      19.81 MB

     Dynamical RAM for           local pot:       0.00 MB

     Dynamical RAM for          nlocal pot:     960.42 MB

     Dynamical RAM for                qrad:      23.47 MB

     Dynamical RAM for          rho,v,vnew:      40.87 MB

     Dynamical RAM for               rhoin:      13.62 MB

     Dynamical RAM for            rho*nmix:     105.67 MB

     Dynamical RAM for           G-vectors:      25.60 MB

     Dynamical RAM for          h,s,v(r/c):      38.91 MB

     Dynamical RAM for          <psi|beta>:      32.34 MB

     Dynamical RAM for                 psi:     385.17 MB

     Dynamical RAM for                hpsi:     385.17 MB

     Dynamical RAM for                spsi:     385.17 MB

     Dynamical RAM for      wfcinit/wfcrot:     451.79 MB

     Dynamical RAM for           addusdens:     731.43 MB

     Dynamical RAM for          addusforce:    1576.13 MB

     Dynamical RAM for         addusstress:     334.34 MB

     Estimated static dynamical RAM per process >       2.82 GB

     Estimated max dynamical RAM per process >       4.36 GB

     Estimated total dynamical RAM >     156.94 GB

     Initial potential from superposition of free atoms

     starting charge  767.41680, renormalised to  768.00000
     Starting wfcs are 1024 randomized atomic wfcs
