
     Program PWSCF v.6.3 starts on 26Feb2020 at 23:13:54 

     This program is part of the open-source Quantum ESPRESSO suite
     for quantum simulation of materials; please cite
         "P. Giannozzi et al., J. Phys.:Condens. Matter 21 395502 (2009);
         "P. Giannozzi et al., J. Phys.:Condens. Matter 29 465901 (2017);
          URL http://www.quantum-espresso.org", 
     in publications or presentations arising from this work. More details at
     http://www.quantum-espresso.org/quote

 *** WARNING: using old-style file format, will disappear from next version ***

     Parallel version (MPI & OpenMP), running on     288 processor cores
     Number of MPI processes:               288
     Threads/MPI process:                     1

     MPI processes distributed on     8 nodes
     K-points division:     npool     =      36
     R & G space division:  proc/nbgrp/npool/nimage =       8
     Reading input from aiida.in
Warning: card &IONS ignored
Warning: card   !PRESS_CONV_THR = 0.05                 ! JUST FOR VOLUME RELAXATIONS ignored
Warning: card / ignored

     Current dimensions of program PWSCF are:
     Max number of different atomic species (ntypx) = 10
     Max number of k-points (npk) =  40000
     Max angular momentum in pseudopotentials (lmaxx) =  3
               file Al.pbe-n-kjpaw_psl.1.0.0.UPF: wavefunction(s)  3S 3P renormalized

     Subspace diagonalization in iterative solution of the eigenvalue problem:
     one sub-group per band group will be used
     scalapack distributed-memory algorithm (size of sub-group:  2*  2 procs)

 
     Parallelization info
     --------------------
     sticks:   dense  smooth     PW     G-vecs:    dense   smooth      PW
     Min        3740    1497    390               486920   123201   16474
     Max        3741    1498    391               486925   123204   16481
     Sum       29921   11977   3125              3895379   985619  131827
 


     bravais-lattice index     =            0
     lattice parameter (alat)  =      30.6665  a.u.
     unit-cell volume          =   28839.7502 (a.u.)^3
     number of atoms/cell      =          255
     number of atomic types    =            2
     number of electrons       =       766.00
     number of Kohn-Sham states=          460
     kinetic-energy cutoff     =      40.0000  Ry
     charge density cutoff     =     400.0000  Ry
     convergence threshold     =      1.0E-12
     mixing beta               =       0.4000
     number of iterations used =            8  local-TF  mixing
     Exchange-correlation      = PBE ( 1  4  3  4 0 0)

     celldm(1)=  30.666473  celldm(2)=   0.000000  celldm(3)=   0.000000
     celldm(4)=   0.000000  celldm(5)=   0.000000  celldm(6)=   0.000000

     crystal axes: (cart. coord. in units of alat)
               a(1) = (   1.000000   0.000000   0.000000 )  
               a(2) = (   0.000000   1.000000   0.000000 )  
               a(3) = (   0.000000   0.000000   1.000000 )  

     reciprocal axes: (cart. coord. in units 2 pi/alat)
               b(1) = (  1.000000  0.000000  0.000000 )  
               b(2) = (  0.000000  1.000000  0.000000 )  
               b(3) = (  0.000000  0.000000  1.000000 )  


     PseudoPot. # 1 for Al read from file:
     /users/aglensk/Dropbox/Albert/scripts/dotfiles/scripts/potentials/quantum_espresso/pseudo_SSSPefV1.1_alalloy/Al.pbe-n-kjpaw_psl.1.0.0.UPF
     MD5 check sum: cfc449ca30b5f3223ec38ddd88ac046d
     Pseudo is Projector augmented-wave + core cor, Zval =  3.0
     Generated using "atomic" code by A. Dal Corso v.5.1
     Shape of augmentation charge: PSQ
     Using radial grid of 1135 points,  6 beta functions with: 
                l(1) =   0
                l(2) =   0
                l(3) =   1
                l(4) =   1
                l(5) =   2
                l(6) =   2
     Q(r) pseudized with 0 coefficients 


     PseudoPot. # 2 for Si read from file:
     /users/aglensk/Dropbox/Albert/scripts/dotfiles/scripts/potentials/quantum_espresso/pseudo_SSSPefV1.1_alalloy/Si.pbe-n-rrkjus_psl.1.0.0.UPF
     MD5 check sum: 0b0bb1205258b0d07b9f9672cf965d36
     Pseudo is Ultrasoft + core correction, Zval =  4.0
     Generated using "atomic" code by A. Dal Corso v.5.1
     Using radial grid of 1141 points,  6 beta functions with: 
                l(1) =   0
                l(2) =   0
                l(3) =   1
                l(4) =   1
                l(5) =   2
                l(6) =   2
     Q(r) pseudized with 0 coefficients 


     atomic species   valence    mass     pseudopotential
        Al             3.00    26.98154     Al( 1.00)
        Si             4.00    28.08500     Si( 1.00)

     No symmetry found


                                    s                        frac. trans.

      isym =  1     identity                                     

 cryst.   s( 1) = (     1          0          0      )
                  (     0          1          0      )
                  (     0          0          1      )

 cart.    s( 1) = (  1.0000000  0.0000000  0.0000000 )
                  (  0.0000000  1.0000000  0.0000000 )
                  (  0.0000000  0.0000000  1.0000000 )


   Cartesian axes

     site n.     atom                  positions (alat units)
         1           Al  tau(   1) = (   0.1230471   0.0000000   0.1230471  )
         2           Al  tau(   2) = (   0.1230471   0.1230471   0.0000000  )
         3           Al  tau(   3) = (   0.0000000   0.1230471   0.1230471  )
         4           Al  tau(   4) = (   0.0000000   0.0000000   0.2497421  )
         5           Al  tau(   5) = (   0.1250363   0.1250363   0.2502015  )
         6           Al  tau(   6) = (   0.1249760   0.0000000   0.3750544  )
         7           Al  tau(   7) = (   0.0000000   0.1249760   0.3750544  )
         8           Al  tau(   8) = (   0.0000000   0.0000000   0.5000000  )
         9           Al  tau(   9) = (   0.1249997   0.1249997   0.5000000  )
        10           Al  tau(  10) = (   0.1249760   0.0000000   0.6249456  )
        11           Al  tau(  11) = (   0.0000000   0.1249760   0.6249456  )
        12           Al  tau(  12) = (   0.0000000   0.0000000   0.7502579  )
        13           Al  tau(  13) = (   0.1250363   0.1250363   0.7497985  )
        14           Al  tau(  14) = (   0.1230471   0.0000000   0.8769529  )
        15           Al  tau(  15) = (   0.0000000   0.1230471   0.8769529  )
        16           Al  tau(  16) = (   0.0000000   0.2497421   0.0000000  )
        17           Al  tau(  17) = (   0.1249760   0.3750544   0.0000000  )
        18           Al  tau(  18) = (   0.1250363   0.2502015   0.1250363  )
        19           Al  tau(  19) = (   0.0000000   0.3750544   0.1249760  )
        20           Al  tau(  20) = (   0.0000000   0.2496115   0.2496115  )
        21           Al  tau(  21) = (   0.1249676   0.3749673   0.2500178  )
        22           Al  tau(  22) = (   0.1249676   0.2500178   0.3749673  )
        23           Al  tau(  23) = (   0.0000000   0.3749938   0.3749938  )
        24           Al  tau(  24) = (   0.0000000   0.2500377   0.5000000  )
        25           Al  tau(  25) = (   0.1250615   0.3750295   0.5000000  )
        26           Al  tau(  26) = (   0.1249676   0.2500178   0.6250327  )
        27           Al  tau(  27) = (   0.0000000   0.3749938   0.6250062  )
        28           Al  tau(  28) = (   0.0000000   0.2496115   0.7503885  )
        29           Al  tau(  29) = (   0.1249676   0.3749673   0.7499822  )
        30           Al  tau(  30) = (   0.1250363   0.2502015   0.8749638  )
        31           Al  tau(  31) = (   0.0000000   0.3750544   0.8750240  )
        32           Al  tau(  32) = (   0.0000000   0.5000000   0.0000000  )
        33           Al  tau(  33) = (   0.1249760   0.6249456   0.0000000  )
        34           Al  tau(  34) = (   0.1249997   0.5000000   0.1249997  )
        35           Al  tau(  35) = (   0.0000000   0.6249456   0.1249760  )
        36           Al  tau(  36) = (   0.0000000   0.5000000   0.2500377  )
        37           Al  tau(  37) = (   0.1249676   0.6250327   0.2500178  )
        38           Al  tau(  38) = (   0.1250615   0.5000000   0.3750295  )
        39           Al  tau(  39) = (   0.0000000   0.6250062   0.3749938  )
        40           Al  tau(  40) = (   0.0000000   0.5000000   0.5000000  )
        41           Al  tau(  41) = (   0.1250615   0.6249706   0.5000000  )
        42           Al  tau(  42) = (   0.1250615   0.5000000   0.6249706  )
        43           Al  tau(  43) = (   0.0000000   0.6250062   0.6250062  )
        44           Al  tau(  44) = (   0.0000000   0.5000000   0.7499623  )
        45           Al  tau(  45) = (   0.1249676   0.6250327   0.7499822  )
        46           Al  tau(  46) = (   0.1249997   0.5000000   0.8750004  )
        47           Al  tau(  47) = (   0.0000000   0.6249456   0.8750240  )
        48           Al  tau(  48) = (   0.0000000   0.7502579   0.0000000  )
        49           Al  tau(  49) = (   0.1230471   0.8769529   0.0000000  )
        50           Al  tau(  50) = (   0.1250363   0.7497985   0.1250363  )
        51           Al  tau(  51) = (   0.0000000   0.8769529   0.1230471  )
        52           Al  tau(  52) = (   0.0000000   0.7503885   0.2496115  )
        53           Al  tau(  53) = (   0.1250363   0.8749638   0.2502015  )
        54           Al  tau(  54) = (   0.1249676   0.7499822   0.3749673  )
        55           Al  tau(  55) = (   0.0000000   0.8750240   0.3750544  )
        56           Al  tau(  56) = (   0.0000000   0.7499623   0.5000000  )
        57           Al  tau(  57) = (   0.1249997   0.8750004   0.5000000  )
        58           Al  tau(  58) = (   0.1249676   0.7499822   0.6250327  )
        59           Al  tau(  59) = (   0.0000000   0.8750240   0.6249456  )
        60           Al  tau(  60) = (   0.0000000   0.7503885   0.7503885  )
        61           Al  tau(  61) = (   0.1250363   0.8749638   0.7497985  )
        62           Al  tau(  62) = (   0.1250363   0.7497985   0.8749638  )
        63           Al  tau(  63) = (   0.0000000   0.8769529   0.8769529  )
        64           Al  tau(  64) = (   0.2497421   0.0000000   0.0000000  )
        65           Al  tau(  65) = (   0.3750544   0.1249760   0.0000000  )
        66           Al  tau(  66) = (   0.3750544   0.0000000   0.1249760  )
        67           Al  tau(  67) = (   0.2502015   0.1250363   0.1250363  )
        68           Al  tau(  68) = (   0.2496115   0.0000000   0.2496115  )
        69           Al  tau(  69) = (   0.3749673   0.1249676   0.2500178  )
        70           Al  tau(  70) = (   0.3749938   0.0000000   0.3749938  )
        71           Al  tau(  71) = (   0.2500178   0.1249676   0.3749673  )
        72           Al  tau(  72) = (   0.2500377   0.0000000   0.5000000  )
        73           Al  tau(  73) = (   0.3750295   0.1250615   0.5000000  )
        74           Al  tau(  74) = (   0.3749938   0.0000000   0.6250062  )
        75           Al  tau(  75) = (   0.2500178   0.1249676   0.6250327  )
        76           Al  tau(  76) = (   0.2496115   0.0000000   0.7503885  )
        77           Al  tau(  77) = (   0.3749673   0.1249676   0.7499822  )
        78           Al  tau(  78) = (   0.3750544   0.0000000   0.8750240  )
        79           Al  tau(  79) = (   0.2502015   0.1250363   0.8749638  )
        80           Al  tau(  80) = (   0.2496115   0.2496115   0.0000000  )
        81           Al  tau(  81) = (   0.3749938   0.3749938   0.0000000  )
        82           Al  tau(  82) = (   0.3749673   0.2500178   0.1249676  )
        83           Al  tau(  83) = (   0.2500178   0.3749673   0.1249676  )
        84           Al  tau(  84) = (   0.2500793   0.2500793   0.2500793  )
        85           Al  tau(  85) = (   0.3750053   0.3750053   0.2500665  )
        86           Al  tau(  86) = (   0.3750053   0.2500665   0.3750053  )
        87           Al  tau(  87) = (   0.2500665   0.3750053   0.3750053  )
        88           Al  tau(  88) = (   0.2501390   0.2501390   0.5000000  )
        89           Al  tau(  89) = (   0.3757472   0.3757472   0.5000000  )
        90           Al  tau(  90) = (   0.3750053   0.2500665   0.6249947  )
        91           Al  tau(  91) = (   0.2500665   0.3750053   0.6249947  )
        92           Al  tau(  92) = (   0.2500793   0.2500793   0.7499207  )
        93           Al  tau(  93) = (   0.3750053   0.3750053   0.7499335  )
        94           Al  tau(  94) = (   0.3749673   0.2500178   0.8750324  )
        95           Al  tau(  95) = (   0.2500178   0.3749673   0.8750324  )
        96           Al  tau(  96) = (   0.2500377   0.5000000   0.0000000  )
        97           Al  tau(  97) = (   0.3749938   0.6250062   0.0000000  )
        98           Al  tau(  98) = (   0.3750295   0.5000000   0.1250615  )
        99           Al  tau(  99) = (   0.2500178   0.6250327   0.1249676  )
       100           Al  tau( 100) = (   0.2501390   0.5000000   0.2501390  )
       101           Al  tau( 101) = (   0.3750053   0.6249947   0.2500665  )
       102           Al  tau( 102) = (   0.3757472   0.5000000   0.3757472  )
       103           Al  tau( 103) = (   0.2500665   0.6249947   0.3750053  )
       104           Al  tau( 104) = (   0.2503687   0.5000000   0.5000000  )
       105           Al  tau( 105) = (   0.3757472   0.6242528   0.5000000  )
       106           Al  tau( 106) = (   0.3757472   0.5000000   0.6242528  )
       107           Al  tau( 107) = (   0.2500665   0.6249947   0.6249947  )
       108           Al  tau( 108) = (   0.2501390   0.5000000   0.7498610  )
       109           Al  tau( 109) = (   0.3750053   0.6249947   0.7499335  )
       110           Al  tau( 110) = (   0.3750295   0.5000000   0.8749385  )
       111           Al  tau( 111) = (   0.2500178   0.6250327   0.8750324  )
       112           Al  tau( 112) = (   0.2496115   0.7503885   0.0000000  )
       113           Al  tau( 113) = (   0.3750544   0.8750240   0.0000000  )
       114           Al  tau( 114) = (   0.3749673   0.7499822   0.1249676  )
       115           Al  tau( 115) = (   0.2502015   0.8749638   0.1250363  )
       116           Al  tau( 116) = (   0.2500793   0.7499207   0.2500793  )
       117           Al  tau( 117) = (   0.3749673   0.8750324   0.2500178  )
       118           Al  tau( 118) = (   0.3750053   0.7499335   0.3750053  )
       119           Al  tau( 119) = (   0.2500178   0.8750324   0.3749673  )
       120           Al  tau( 120) = (   0.2501390   0.7498610   0.5000000  )
       121           Al  tau( 121) = (   0.3750295   0.8749385   0.5000000  )
       122           Al  tau( 122) = (   0.3750053   0.7499335   0.6249947  )
       123           Al  tau( 123) = (   0.2500178   0.8750324   0.6250327  )
       124           Al  tau( 124) = (   0.2500793   0.7499207   0.7499207  )
       125           Al  tau( 125) = (   0.3749673   0.8750324   0.7499822  )
       126           Al  tau( 126) = (   0.3749673   0.7499822   0.8750324  )
       127           Al  tau( 127) = (   0.2502015   0.8749638   0.8749638  )
       128           Al  tau( 128) = (   0.5000000   0.0000000   0.0000000  )
       129           Al  tau( 129) = (   0.6249456   0.1249760   0.0000000  )
       130           Al  tau( 130) = (   0.6249456   0.0000000   0.1249760  )
       131           Al  tau( 131) = (   0.5000000   0.1249997   0.1249997  )
       132           Al  tau( 132) = (   0.5000000   0.0000000   0.2500377  )
       133           Al  tau( 133) = (   0.6250327   0.1249676   0.2500178  )
       134           Al  tau( 134) = (   0.6250062   0.0000000   0.3749938  )
       135           Al  tau( 135) = (   0.5000000   0.1250615   0.3750295  )
       136           Al  tau( 136) = (   0.5000000   0.0000000   0.5000000  )
       137           Al  tau( 137) = (   0.6249706   0.1250615   0.5000000  )
       138           Al  tau( 138) = (   0.6250062   0.0000000   0.6250062  )
       139           Al  tau( 139) = (   0.5000000   0.1250615   0.6249706  )
       140           Al  tau( 140) = (   0.5000000   0.0000000   0.7499623  )
       141           Al  tau( 141) = (   0.6250327   0.1249676   0.7499822  )
       142           Al  tau( 142) = (   0.6249456   0.0000000   0.8750240  )
       143           Al  tau( 143) = (   0.5000000   0.1249997   0.8750004  )
       144           Al  tau( 144) = (   0.5000000   0.2500377   0.0000000  )
       145           Al  tau( 145) = (   0.6250062   0.3749938   0.0000000  )
       146           Al  tau( 146) = (   0.6250327   0.2500178   0.1249676  )
       147           Al  tau( 147) = (   0.5000000   0.3750295   0.1250615  )
       148           Al  tau( 148) = (   0.5000000   0.2501390   0.2501390  )
       149           Al  tau( 149) = (   0.6249947   0.3750053   0.2500665  )
       150           Al  tau( 150) = (   0.6249947   0.2500665   0.3750053  )
       151           Al  tau( 151) = (   0.5000000   0.3757472   0.3757472  )
       152           Al  tau( 152) = (   0.5000000   0.2503687   0.5000000  )
       153           Al  tau( 153) = (   0.6242528   0.3757472   0.5000000  )
       154           Al  tau( 154) = (   0.6249947   0.2500665   0.6249947  )
       155           Al  tau( 155) = (   0.5000000   0.3757472   0.6242528  )
       156           Al  tau( 156) = (   0.5000000   0.2501390   0.7498610  )
       157           Al  tau( 157) = (   0.6249947   0.3750053   0.7499335  )
       158           Al  tau( 158) = (   0.6250327   0.2500178   0.8750324  )
       159           Al  tau( 159) = (   0.5000000   0.3750295   0.8749385  )
       160           Al  tau( 160) = (   0.5000000   0.5000000   0.0000000  )
       161           Al  tau( 161) = (   0.6250062   0.6250062   0.0000000  )
       162           Al  tau( 162) = (   0.6249706   0.5000000   0.1250615  )
       163           Al  tau( 163) = (   0.5000000   0.6249706   0.1250615  )
       164           Al  tau( 164) = (   0.5000000   0.5000000   0.2503687  )
       165           Al  tau( 165) = (   0.6249947   0.6249947   0.2500665  )
       166           Al  tau( 166) = (   0.6242528   0.5000000   0.3757472  )
       167           Al  tau( 167) = (   0.5000000   0.6242528   0.3757472  )
       168           Si  tau( 168) = (   0.5000000   0.5000000   0.5000000  )
       169           Al  tau( 169) = (   0.6242528   0.6242528   0.5000000  )
       170           Al  tau( 170) = (   0.6242528   0.5000000   0.6242528  )
       171           Al  tau( 171) = (   0.5000000   0.6242528   0.6242528  )
       172           Al  tau( 172) = (   0.5000000   0.5000000   0.7496313  )
       173           Al  tau( 173) = (   0.6249947   0.6249947   0.7499335  )
       174           Al  tau( 174) = (   0.6249706   0.5000000   0.8749385  )
       175           Al  tau( 175) = (   0.5000000   0.6249706   0.8749385  )
       176           Al  tau( 176) = (   0.5000000   0.7499623   0.0000000  )
       177           Al  tau( 177) = (   0.6249456   0.8750240   0.0000000  )
       178           Al  tau( 178) = (   0.6250327   0.7499822   0.1249676  )
       179           Al  tau( 179) = (   0.5000000   0.8750004   0.1249997  )
       180           Al  tau( 180) = (   0.5000000   0.7498610   0.2501390  )
       181           Al  tau( 181) = (   0.6250327   0.8750324   0.2500178  )
       182           Al  tau( 182) = (   0.6249947   0.7499335   0.3750053  )
       183           Al  tau( 183) = (   0.5000000   0.8749385   0.3750295  )
       184           Al  tau( 184) = (   0.5000000   0.7496313   0.5000000  )
       185           Al  tau( 185) = (   0.6249706   0.8749385   0.5000000  )
       186           Al  tau( 186) = (   0.6249947   0.7499335   0.6249947  )
       187           Al  tau( 187) = (   0.5000000   0.8749385   0.6249706  )
       188           Al  tau( 188) = (   0.5000000   0.7498610   0.7498610  )
       189           Al  tau( 189) = (   0.6250327   0.8750324   0.7499822  )
       190           Al  tau( 190) = (   0.6250327   0.7499822   0.8750324  )
       191           Al  tau( 191) = (   0.5000000   0.8750004   0.8750004  )
       192           Al  tau( 192) = (   0.7502579   0.0000000   0.0000000  )
       193           Al  tau( 193) = (   0.8769529   0.1230471   0.0000000  )
       194           Al  tau( 194) = (   0.8769529   0.0000000   0.1230471  )
       195           Al  tau( 195) = (   0.7497985   0.1250363   0.1250363  )
       196           Al  tau( 196) = (   0.7503885   0.0000000   0.2496115  )
       197           Al  tau( 197) = (   0.8749638   0.1250363   0.2502015  )
       198           Al  tau( 198) = (   0.8750240   0.0000000   0.3750544  )
       199           Al  tau( 199) = (   0.7499822   0.1249676   0.3749673  )
       200           Al  tau( 200) = (   0.7499623   0.0000000   0.5000000  )
       201           Al  tau( 201) = (   0.8750004   0.1249997   0.5000000  )
       202           Al  tau( 202) = (   0.8750240   0.0000000   0.6249456  )
       203           Al  tau( 203) = (   0.7499822   0.1249676   0.6250327  )
       204           Al  tau( 204) = (   0.7503885   0.0000000   0.7503885  )
       205           Al  tau( 205) = (   0.8749638   0.1250363   0.7497985  )
       206           Al  tau( 206) = (   0.8769529   0.0000000   0.8769529  )
       207           Al  tau( 207) = (   0.7497985   0.1250363   0.8749638  )
       208           Al  tau( 208) = (   0.7503885   0.2496115   0.0000000  )
       209           Al  tau( 209) = (   0.8750240   0.3750544   0.0000000  )
       210           Al  tau( 210) = (   0.8749638   0.2502015   0.1250363  )
       211           Al  tau( 211) = (   0.7499822   0.3749673   0.1249676  )
       212           Al  tau( 212) = (   0.7499207   0.2500793   0.2500793  )
       213           Al  tau( 213) = (   0.8750324   0.3749673   0.2500178  )
       214           Al  tau( 214) = (   0.8750324   0.2500178   0.3749673  )
       215           Al  tau( 215) = (   0.7499335   0.3750053   0.3750053  )
       216           Al  tau( 216) = (   0.7498610   0.2501390   0.5000000  )
       217           Al  tau( 217) = (   0.8749385   0.3750295   0.5000000  )
       218           Al  tau( 218) = (   0.8750324   0.2500178   0.6250327  )
       219           Al  tau( 219) = (   0.7499335   0.3750053   0.6249947  )
       220           Al  tau( 220) = (   0.7499207   0.2500793   0.7499207  )
       221           Al  tau( 221) = (   0.8750324   0.3749673   0.7499822  )
       222           Al  tau( 222) = (   0.8749638   0.2502015   0.8749638  )
       223           Al  tau( 223) = (   0.7499822   0.3749673   0.8750324  )
       224           Al  tau( 224) = (   0.7499623   0.5000000   0.0000000  )
       225           Al  tau( 225) = (   0.8750240   0.6249456   0.0000000  )
       226           Al  tau( 226) = (   0.8750004   0.5000000   0.1249997  )
       227           Al  tau( 227) = (   0.7499822   0.6250327   0.1249676  )
       228           Al  tau( 228) = (   0.7498610   0.5000000   0.2501390  )
       229           Al  tau( 229) = (   0.8750324   0.6250327   0.2500178  )
       230           Al  tau( 230) = (   0.8749385   0.5000000   0.3750295  )
       231           Al  tau( 231) = (   0.7499335   0.6249947   0.3750053  )
       232           Al  tau( 232) = (   0.7496313   0.5000000   0.5000000  )
       233           Al  tau( 233) = (   0.8749385   0.6249706   0.5000000  )
       234           Al  tau( 234) = (   0.8749385   0.5000000   0.6249706  )
       235           Al  tau( 235) = (   0.7499335   0.6249947   0.6249947  )
       236           Al  tau( 236) = (   0.7498610   0.5000000   0.7498610  )
       237           Al  tau( 237) = (   0.8750324   0.6250327   0.7499822  )
       238           Al  tau( 238) = (   0.8750004   0.5000000   0.8750004  )
       239           Al  tau( 239) = (   0.7499822   0.6250327   0.8750324  )
       240           Al  tau( 240) = (   0.7503885   0.7503885   0.0000000  )
       241           Al  tau( 241) = (   0.8769529   0.8769529   0.0000000  )
       242           Al  tau( 242) = (   0.8749638   0.7497985   0.1250363  )
       243           Al  tau( 243) = (   0.7497985   0.8749638   0.1250363  )
       244           Al  tau( 244) = (   0.7499207   0.7499207   0.2500793  )
       245           Al  tau( 245) = (   0.8749638   0.8749638   0.2502015  )
       246           Al  tau( 246) = (   0.8750324   0.7499822   0.3749673  )
       247           Al  tau( 247) = (   0.7499822   0.8750324   0.3749673  )
       248           Al  tau( 248) = (   0.7498610   0.7498610   0.5000000  )
       249           Al  tau( 249) = (   0.8750004   0.8750004   0.5000000  )
       250           Al  tau( 250) = (   0.8750324   0.7499822   0.6250327  )
       251           Al  tau( 251) = (   0.7499822   0.8750324   0.6250327  )
       252           Al  tau( 252) = (   0.7499207   0.7499207   0.7499207  )
       253           Al  tau( 253) = (   0.8749638   0.8749638   0.7497985  )
       254           Al  tau( 254) = (   0.8749638   0.7497985   0.8749638  )
       255           Al  tau( 255) = (   0.7497985   0.8749638   0.8749638  )

   Crystallographic axes

     site n.     atom                  positions (cryst. coord.)
         1           Al  tau(   1) = (  0.1230471  0.0000000  0.1230471  )
         2           Al  tau(   2) = (  0.1230471  0.1230471  0.0000000  )
         3           Al  tau(   3) = (  0.0000000  0.1230471  0.1230471  )
         4           Al  tau(   4) = (  0.0000000  0.0000000  0.2497421  )
         5           Al  tau(   5) = (  0.1250363  0.1250363  0.2502015  )
         6           Al  tau(   6) = (  0.1249760  0.0000000  0.3750544  )
         7           Al  tau(   7) = (  0.0000000  0.1249760  0.3750544  )
         8           Al  tau(   8) = (  0.0000000  0.0000000  0.5000000  )
         9           Al  tau(   9) = (  0.1249997  0.1249997  0.5000000  )
        10           Al  tau(  10) = (  0.1249760  0.0000000  0.6249456  )
        11           Al  tau(  11) = (  0.0000000  0.1249760  0.6249456  )
        12           Al  tau(  12) = (  0.0000000  0.0000000  0.7502579  )
        13           Al  tau(  13) = (  0.1250363  0.1250363  0.7497985  )
        14           Al  tau(  14) = (  0.1230471  0.0000000  0.8769529  )
        15           Al  tau(  15) = (  0.0000000  0.1230471  0.8769529  )
        16           Al  tau(  16) = (  0.0000000  0.2497421  0.0000000  )
        17           Al  tau(  17) = (  0.1249760  0.3750544  0.0000000  )
        18           Al  tau(  18) = (  0.1250363  0.2502015  0.1250363  )
        19           Al  tau(  19) = (  0.0000000  0.3750544  0.1249760  )
        20           Al  tau(  20) = (  0.0000000  0.2496115  0.2496115  )
        21           Al  tau(  21) = (  0.1249676  0.3749673  0.2500178  )
        22           Al  tau(  22) = (  0.1249676  0.2500178  0.3749673  )
        23           Al  tau(  23) = (  0.0000000  0.3749938  0.3749938  )
        24           Al  tau(  24) = (  0.0000000  0.2500377  0.5000000  )
        25           Al  tau(  25) = (  0.1250615  0.3750295  0.5000000  )
        26           Al  tau(  26) = (  0.1249676  0.2500178  0.6250327  )
        27           Al  tau(  27) = (  0.0000000  0.3749938  0.6250062  )
        28           Al  tau(  28) = (  0.0000000  0.2496115  0.7503885  )
        29           Al  tau(  29) = (  0.1249676  0.3749673  0.7499822  )
        30           Al  tau(  30) = (  0.1250363  0.2502015  0.8749638  )
        31           Al  tau(  31) = (  0.0000000  0.3750544  0.8750240  )
        32           Al  tau(  32) = (  0.0000000  0.5000000  0.0000000  )
        33           Al  tau(  33) = (  0.1249760  0.6249456  0.0000000  )
        34           Al  tau(  34) = (  0.1249997  0.5000000  0.1249997  )
        35           Al  tau(  35) = (  0.0000000  0.6249456  0.1249760  )
        36           Al  tau(  36) = (  0.0000000  0.5000000  0.2500377  )
        37           Al  tau(  37) = (  0.1249676  0.6250327  0.2500178  )
        38           Al  tau(  38) = (  0.1250615  0.5000000  0.3750295  )
        39           Al  tau(  39) = (  0.0000000  0.6250062  0.3749938  )
        40           Al  tau(  40) = (  0.0000000  0.5000000  0.5000000  )
        41           Al  tau(  41) = (  0.1250615  0.6249706  0.5000000  )
        42           Al  tau(  42) = (  0.1250615  0.5000000  0.6249706  )
        43           Al  tau(  43) = (  0.0000000  0.6250062  0.6250062  )
        44           Al  tau(  44) = (  0.0000000  0.5000000  0.7499623  )
        45           Al  tau(  45) = (  0.1249676  0.6250327  0.7499822  )
        46           Al  tau(  46) = (  0.1249997  0.5000000  0.8750004  )
        47           Al  tau(  47) = (  0.0000000  0.6249456  0.8750240  )
        48           Al  tau(  48) = (  0.0000000  0.7502579  0.0000000  )
        49           Al  tau(  49) = (  0.1230471  0.8769529  0.0000000  )
        50           Al  tau(  50) = (  0.1250363  0.7497985  0.1250363  )
        51           Al  tau(  51) = (  0.0000000  0.8769529  0.1230471  )
        52           Al  tau(  52) = (  0.0000000  0.7503885  0.2496115  )
        53           Al  tau(  53) = (  0.1250363  0.8749638  0.2502015  )
        54           Al  tau(  54) = (  0.1249676  0.7499822  0.3749673  )
        55           Al  tau(  55) = (  0.0000000  0.8750240  0.3750544  )
        56           Al  tau(  56) = (  0.0000000  0.7499623  0.5000000  )
        57           Al  tau(  57) = (  0.1249997  0.8750004  0.5000000  )
        58           Al  tau(  58) = (  0.1249676  0.7499822  0.6250327  )
        59           Al  tau(  59) = (  0.0000000  0.8750240  0.6249456  )
        60           Al  tau(  60) = (  0.0000000  0.7503885  0.7503885  )
        61           Al  tau(  61) = (  0.1250363  0.8749638  0.7497985  )
        62           Al  tau(  62) = (  0.1250363  0.7497985  0.8749638  )
        63           Al  tau(  63) = (  0.0000000  0.8769529  0.8769529  )
        64           Al  tau(  64) = (  0.2497421  0.0000000  0.0000000  )
        65           Al  tau(  65) = (  0.3750544  0.1249760  0.0000000  )
        66           Al  tau(  66) = (  0.3750544  0.0000000  0.1249760  )
        67           Al  tau(  67) = (  0.2502015  0.1250363  0.1250363  )
        68           Al  tau(  68) = (  0.2496115  0.0000000  0.2496115  )
        69           Al  tau(  69) = (  0.3749673  0.1249676  0.2500178  )
        70           Al  tau(  70) = (  0.3749938  0.0000000  0.3749938  )
        71           Al  tau(  71) = (  0.2500178  0.1249676  0.3749673  )
        72           Al  tau(  72) = (  0.2500377  0.0000000  0.5000000  )
        73           Al  tau(  73) = (  0.3750295  0.1250615  0.5000000  )
        74           Al  tau(  74) = (  0.3749938  0.0000000  0.6250062  )
        75           Al  tau(  75) = (  0.2500178  0.1249676  0.6250327  )
        76           Al  tau(  76) = (  0.2496115  0.0000000  0.7503885  )
        77           Al  tau(  77) = (  0.3749673  0.1249676  0.7499822  )
        78           Al  tau(  78) = (  0.3750544  0.0000000  0.8750240  )
        79           Al  tau(  79) = (  0.2502015  0.1250363  0.8749638  )
        80           Al  tau(  80) = (  0.2496115  0.2496115  0.0000000  )
        81           Al  tau(  81) = (  0.3749938  0.3749938  0.0000000  )
        82           Al  tau(  82) = (  0.3749673  0.2500178  0.1249676  )
        83           Al  tau(  83) = (  0.2500178  0.3749673  0.1249676  )
        84           Al  tau(  84) = (  0.2500793  0.2500793  0.2500793  )
        85           Al  tau(  85) = (  0.3750053  0.3750053  0.2500665  )
        86           Al  tau(  86) = (  0.3750053  0.2500665  0.3750053  )
        87           Al  tau(  87) = (  0.2500665  0.3750053  0.3750053  )
        88           Al  tau(  88) = (  0.2501390  0.2501390  0.5000000  )
        89           Al  tau(  89) = (  0.3757472  0.3757472  0.5000000  )
        90           Al  tau(  90) = (  0.3750053  0.2500665  0.6249947  )
        91           Al  tau(  91) = (  0.2500665  0.3750053  0.6249947  )
        92           Al  tau(  92) = (  0.2500793  0.2500793  0.7499207  )
        93           Al  tau(  93) = (  0.3750053  0.3750053  0.7499335  )
        94           Al  tau(  94) = (  0.3749673  0.2500178  0.8750324  )
        95           Al  tau(  95) = (  0.2500178  0.3749673  0.8750324  )
        96           Al  tau(  96) = (  0.2500377  0.5000000  0.0000000  )
        97           Al  tau(  97) = (  0.3749938  0.6250062  0.0000000  )
        98           Al  tau(  98) = (  0.3750295  0.5000000  0.1250615  )
        99           Al  tau(  99) = (  0.2500178  0.6250327  0.1249676  )
       100           Al  tau( 100) = (  0.2501390  0.5000000  0.2501390  )
       101           Al  tau( 101) = (  0.3750053  0.6249947  0.2500665  )
       102           Al  tau( 102) = (  0.3757472  0.5000000  0.3757472  )
       103           Al  tau( 103) = (  0.2500665  0.6249947  0.3750053  )
       104           Al  tau( 104) = (  0.2503687  0.5000000  0.5000000  )
       105           Al  tau( 105) = (  0.3757472  0.6242528  0.5000000  )
       106           Al  tau( 106) = (  0.3757472  0.5000000  0.6242528  )
       107           Al  tau( 107) = (  0.2500665  0.6249947  0.6249947  )
       108           Al  tau( 108) = (  0.2501390  0.5000000  0.7498610  )
       109           Al  tau( 109) = (  0.3750053  0.6249947  0.7499335  )
       110           Al  tau( 110) = (  0.3750295  0.5000000  0.8749385  )
       111           Al  tau( 111) = (  0.2500178  0.6250327  0.8750324  )
       112           Al  tau( 112) = (  0.2496115  0.7503885  0.0000000  )
       113           Al  tau( 113) = (  0.3750544  0.8750240  0.0000000  )
       114           Al  tau( 114) = (  0.3749673  0.7499822  0.1249676  )
       115           Al  tau( 115) = (  0.2502015  0.8749638  0.1250363  )
       116           Al  tau( 116) = (  0.2500793  0.7499207  0.2500793  )
       117           Al  tau( 117) = (  0.3749673  0.8750324  0.2500178  )
       118           Al  tau( 118) = (  0.3750053  0.7499335  0.3750053  )
       119           Al  tau( 119) = (  0.2500178  0.8750324  0.3749673  )
       120           Al  tau( 120) = (  0.2501390  0.7498610  0.5000000  )
       121           Al  tau( 121) = (  0.3750295  0.8749385  0.5000000  )
       122           Al  tau( 122) = (  0.3750053  0.7499335  0.6249947  )
       123           Al  tau( 123) = (  0.2500178  0.8750324  0.6250327  )
       124           Al  tau( 124) = (  0.2500793  0.7499207  0.7499207  )
       125           Al  tau( 125) = (  0.3749673  0.8750324  0.7499822  )
       126           Al  tau( 126) = (  0.3749673  0.7499822  0.8750324  )
       127           Al  tau( 127) = (  0.2502015  0.8749638  0.8749638  )
       128           Al  tau( 128) = (  0.5000000  0.0000000  0.0000000  )
       129           Al  tau( 129) = (  0.6249456  0.1249760  0.0000000  )
       130           Al  tau( 130) = (  0.6249456  0.0000000  0.1249760  )
       131           Al  tau( 131) = (  0.5000000  0.1249997  0.1249997  )
       132           Al  tau( 132) = (  0.5000000  0.0000000  0.2500377  )
       133           Al  tau( 133) = (  0.6250327  0.1249676  0.2500178  )
       134           Al  tau( 134) = (  0.6250062  0.0000000  0.3749938  )
       135           Al  tau( 135) = (  0.5000000  0.1250615  0.3750295  )
       136           Al  tau( 136) = (  0.5000000  0.0000000  0.5000000  )
       137           Al  tau( 137) = (  0.6249706  0.1250615  0.5000000  )
       138           Al  tau( 138) = (  0.6250062  0.0000000  0.6250062  )
       139           Al  tau( 139) = (  0.5000000  0.1250615  0.6249706  )
       140           Al  tau( 140) = (  0.5000000  0.0000000  0.7499623  )
       141           Al  tau( 141) = (  0.6250327  0.1249676  0.7499822  )
       142           Al  tau( 142) = (  0.6249456  0.0000000  0.8750240  )
       143           Al  tau( 143) = (  0.5000000  0.1249997  0.8750004  )
       144           Al  tau( 144) = (  0.5000000  0.2500377  0.0000000  )
       145           Al  tau( 145) = (  0.6250062  0.3749938  0.0000000  )
       146           Al  tau( 146) = (  0.6250327  0.2500178  0.1249676  )
       147           Al  tau( 147) = (  0.5000000  0.3750295  0.1250615  )
       148           Al  tau( 148) = (  0.5000000  0.2501390  0.2501390  )
       149           Al  tau( 149) = (  0.6249947  0.3750053  0.2500665  )
       150           Al  tau( 150) = (  0.6249947  0.2500665  0.3750053  )
       151           Al  tau( 151) = (  0.5000000  0.3757472  0.3757472  )
       152           Al  tau( 152) = (  0.5000000  0.2503687  0.5000000  )
       153           Al  tau( 153) = (  0.6242528  0.3757472  0.5000000  )
       154           Al  tau( 154) = (  0.6249947  0.2500665  0.6249947  )
       155           Al  tau( 155) = (  0.5000000  0.3757472  0.6242528  )
       156           Al  tau( 156) = (  0.5000000  0.2501390  0.7498610  )
       157           Al  tau( 157) = (  0.6249947  0.3750053  0.7499335  )
       158           Al  tau( 158) = (  0.6250327  0.2500178  0.8750324  )
       159           Al  tau( 159) = (  0.5000000  0.3750295  0.8749385  )
       160           Al  tau( 160) = (  0.5000000  0.5000000  0.0000000  )
       161           Al  tau( 161) = (  0.6250062  0.6250062  0.0000000  )
       162           Al  tau( 162) = (  0.6249706  0.5000000  0.1250615  )
       163           Al  tau( 163) = (  0.5000000  0.6249706  0.1250615  )
       164           Al  tau( 164) = (  0.5000000  0.5000000  0.2503687  )
       165           Al  tau( 165) = (  0.6249947  0.6249947  0.2500665  )
       166           Al  tau( 166) = (  0.6242528  0.5000000  0.3757472  )
       167           Al  tau( 167) = (  0.5000000  0.6242528  0.3757472  )
       168           Si  tau( 168) = (  0.5000000  0.5000000  0.5000000  )
       169           Al  tau( 169) = (  0.6242528  0.6242528  0.5000000  )
       170           Al  tau( 170) = (  0.6242528  0.5000000  0.6242528  )
       171           Al  tau( 171) = (  0.5000000  0.6242528  0.6242528  )
       172           Al  tau( 172) = (  0.5000000  0.5000000  0.7496313  )
       173           Al  tau( 173) = (  0.6249947  0.6249947  0.7499335  )
       174           Al  tau( 174) = (  0.6249706  0.5000000  0.8749385  )
       175           Al  tau( 175) = (  0.5000000  0.6249706  0.8749385  )
       176           Al  tau( 176) = (  0.5000000  0.7499623  0.0000000  )
       177           Al  tau( 177) = (  0.6249456  0.8750240  0.0000000  )
       178           Al  tau( 178) = (  0.6250327  0.7499822  0.1249676  )
       179           Al  tau( 179) = (  0.5000000  0.8750004  0.1249997  )
       180           Al  tau( 180) = (  0.5000000  0.7498610  0.2501390  )
       181           Al  tau( 181) = (  0.6250327  0.8750324  0.2500178  )
       182           Al  tau( 182) = (  0.6249947  0.7499335  0.3750053  )
       183           Al  tau( 183) = (  0.5000000  0.8749385  0.3750295  )
       184           Al  tau( 184) = (  0.5000000  0.7496313  0.5000000  )
       185           Al  tau( 185) = (  0.6249706  0.8749385  0.5000000  )
       186           Al  tau( 186) = (  0.6249947  0.7499335  0.6249947  )
       187           Al  tau( 187) = (  0.5000000  0.8749385  0.6249706  )
       188           Al  tau( 188) = (  0.5000000  0.7498610  0.7498610  )
       189           Al  tau( 189) = (  0.6250327  0.8750324  0.7499822  )
       190           Al  tau( 190) = (  0.6250327  0.7499822  0.8750324  )
       191           Al  tau( 191) = (  0.5000000  0.8750004  0.8750004  )
       192           Al  tau( 192) = (  0.7502579  0.0000000  0.0000000  )
       193           Al  tau( 193) = (  0.8769529  0.1230471  0.0000000  )
       194           Al  tau( 194) = (  0.8769529  0.0000000  0.1230471  )
       195           Al  tau( 195) = (  0.7497985  0.1250363  0.1250363  )
       196           Al  tau( 196) = (  0.7503885  0.0000000  0.2496115  )
       197           Al  tau( 197) = (  0.8749638  0.1250363  0.2502015  )
       198           Al  tau( 198) = (  0.8750240  0.0000000  0.3750544  )
       199           Al  tau( 199) = (  0.7499822  0.1249676  0.3749673  )
       200           Al  tau( 200) = (  0.7499623  0.0000000  0.5000000  )
       201           Al  tau( 201) = (  0.8750004  0.1249997  0.5000000  )
       202           Al  tau( 202) = (  0.8750240  0.0000000  0.6249456  )
       203           Al  tau( 203) = (  0.7499822  0.1249676  0.6250327  )
       204           Al  tau( 204) = (  0.7503885  0.0000000  0.7503885  )
       205           Al  tau( 205) = (  0.8749638  0.1250363  0.7497985  )
       206           Al  tau( 206) = (  0.8769529  0.0000000  0.8769529  )
       207           Al  tau( 207) = (  0.7497985  0.1250363  0.8749638  )
       208           Al  tau( 208) = (  0.7503885  0.2496115  0.0000000  )
       209           Al  tau( 209) = (  0.8750240  0.3750544  0.0000000  )
       210           Al  tau( 210) = (  0.8749638  0.2502015  0.1250363  )
       211           Al  tau( 211) = (  0.7499822  0.3749673  0.1249676  )
       212           Al  tau( 212) = (  0.7499207  0.2500793  0.2500793  )
       213           Al  tau( 213) = (  0.8750324  0.3749673  0.2500178  )
       214           Al  tau( 214) = (  0.8750324  0.2500178  0.3749673  )
       215           Al  tau( 215) = (  0.7499335  0.3750053  0.3750053  )
       216           Al  tau( 216) = (  0.7498610  0.2501390  0.5000000  )
       217           Al  tau( 217) = (  0.8749385  0.3750295  0.5000000  )
       218           Al  tau( 218) = (  0.8750324  0.2500178  0.6250327  )
       219           Al  tau( 219) = (  0.7499335  0.3750053  0.6249947  )
       220           Al  tau( 220) = (  0.7499207  0.2500793  0.7499207  )
       221           Al  tau( 221) = (  0.8750324  0.3749673  0.7499822  )
       222           Al  tau( 222) = (  0.8749638  0.2502015  0.8749638  )
       223           Al  tau( 223) = (  0.7499822  0.3749673  0.8750324  )
       224           Al  tau( 224) = (  0.7499623  0.5000000  0.0000000  )
       225           Al  tau( 225) = (  0.8750240  0.6249456  0.0000000  )
       226           Al  tau( 226) = (  0.8750004  0.5000000  0.1249997  )
       227           Al  tau( 227) = (  0.7499822  0.6250327  0.1249676  )
       228           Al  tau( 228) = (  0.7498610  0.5000000  0.2501390  )
       229           Al  tau( 229) = (  0.8750324  0.6250327  0.2500178  )
       230           Al  tau( 230) = (  0.8749385  0.5000000  0.3750295  )
       231           Al  tau( 231) = (  0.7499335  0.6249947  0.3750053  )
       232           Al  tau( 232) = (  0.7496313  0.5000000  0.5000000  )
       233           Al  tau( 233) = (  0.8749385  0.6249706  0.5000000  )
       234           Al  tau( 234) = (  0.8749385  0.5000000  0.6249706  )
       235           Al  tau( 235) = (  0.7499335  0.6249947  0.6249947  )
       236           Al  tau( 236) = (  0.7498610  0.5000000  0.7498610  )
       237           Al  tau( 237) = (  0.8750324  0.6250327  0.7499822  )
       238           Al  tau( 238) = (  0.8750004  0.5000000  0.8750004  )
       239           Al  tau( 239) = (  0.7499822  0.6250327  0.8750324  )
       240           Al  tau( 240) = (  0.7503885  0.7503885  0.0000000  )
       241           Al  tau( 241) = (  0.8769529  0.8769529  0.0000000  )
       242           Al  tau( 242) = (  0.8749638  0.7497985  0.1250363  )
       243           Al  tau( 243) = (  0.7497985  0.8749638  0.1250363  )
       244           Al  tau( 244) = (  0.7499207  0.7499207  0.2500793  )
       245           Al  tau( 245) = (  0.8749638  0.8749638  0.2502015  )
       246           Al  tau( 246) = (  0.8750324  0.7499822  0.3749673  )
       247           Al  tau( 247) = (  0.7499822  0.8750324  0.3749673  )
       248           Al  tau( 248) = (  0.7498610  0.7498610  0.5000000  )
       249           Al  tau( 249) = (  0.8750004  0.8750004  0.5000000  )
       250           Al  tau( 250) = (  0.8750324  0.7499822  0.6250327  )
       251           Al  tau( 251) = (  0.7499822  0.8750324  0.6250327  )
       252           Al  tau( 252) = (  0.7499207  0.7499207  0.7499207  )
       253           Al  tau( 253) = (  0.8749638  0.8749638  0.7497985  )
       254           Al  tau( 254) = (  0.8749638  0.7497985  0.8749638  )
       255           Al  tau( 255) = (  0.7497985  0.8749638  0.8749638  )

     number of k points=    63  Methfessel-Paxton smearing, width (Ry)=  0.0441
                       cart. coord. in units 2pi/alat
        k(    1) = (   0.0000000   0.0000000   0.0000000), wk =   0.0160000
        k(    2) = (   0.0000000   0.0000000   0.2000000), wk =   0.0320000
        k(    3) = (   0.0000000   0.0000000   0.4000000), wk =   0.0320000
        k(    4) = (   0.0000000   0.2000000   0.0000000), wk =   0.0320000
        k(    5) = (   0.0000000   0.2000000   0.2000000), wk =   0.0320000
        k(    6) = (   0.0000000   0.2000000   0.4000000), wk =   0.0320000
        k(    7) = (   0.0000000   0.2000000  -0.4000000), wk =   0.0320000
        k(    8) = (   0.0000000   0.2000000  -0.2000000), wk =   0.0320000
        k(    9) = (   0.0000000   0.4000000   0.0000000), wk =   0.0320000
        k(   10) = (   0.0000000   0.4000000   0.2000000), wk =   0.0320000
        k(   11) = (   0.0000000   0.4000000   0.4000000), wk =   0.0320000
        k(   12) = (   0.0000000   0.4000000  -0.4000000), wk =   0.0320000
        k(   13) = (   0.0000000   0.4000000  -0.2000000), wk =   0.0320000
        k(   14) = (   0.2000000   0.0000000   0.0000000), wk =   0.0320000
        k(   15) = (   0.2000000   0.0000000   0.2000000), wk =   0.0320000
        k(   16) = (   0.2000000   0.0000000   0.4000000), wk =   0.0320000
        k(   17) = (   0.2000000   0.0000000  -0.4000000), wk =   0.0320000
        k(   18) = (   0.2000000   0.0000000  -0.2000000), wk =   0.0320000
        k(   19) = (   0.2000000   0.2000000   0.0000000), wk =   0.0320000
        k(   20) = (   0.2000000   0.2000000   0.2000000), wk =   0.0320000
        k(   21) = (   0.2000000   0.2000000   0.4000000), wk =   0.0320000
        k(   22) = (   0.2000000   0.2000000  -0.4000000), wk =   0.0320000
        k(   23) = (   0.2000000   0.2000000  -0.2000000), wk =   0.0320000
        k(   24) = (   0.2000000   0.4000000   0.0000000), wk =   0.0320000
        k(   25) = (   0.2000000   0.4000000   0.2000000), wk =   0.0320000
        k(   26) = (   0.2000000   0.4000000   0.4000000), wk =   0.0320000
        k(   27) = (   0.2000000   0.4000000  -0.4000000), wk =   0.0320000
        k(   28) = (   0.2000000   0.4000000  -0.2000000), wk =   0.0320000
        k(   29) = (   0.2000000  -0.4000000   0.0000000), wk =   0.0320000
        k(   30) = (   0.2000000  -0.4000000   0.2000000), wk =   0.0320000
        k(   31) = (   0.2000000  -0.4000000   0.4000000), wk =   0.0320000
        k(   32) = (   0.2000000  -0.4000000  -0.4000000), wk =   0.0320000
        k(   33) = (   0.2000000  -0.4000000  -0.2000000), wk =   0.0320000
        k(   34) = (   0.2000000  -0.2000000   0.0000000), wk =   0.0320000
        k(   35) = (   0.2000000  -0.2000000   0.2000000), wk =   0.0320000
        k(   36) = (   0.2000000  -0.2000000   0.4000000), wk =   0.0320000
        k(   37) = (   0.2000000  -0.2000000  -0.4000000), wk =   0.0320000
        k(   38) = (   0.2000000  -0.2000000  -0.2000000), wk =   0.0320000
        k(   39) = (   0.4000000   0.0000000   0.0000000), wk =   0.0320000
        k(   40) = (   0.4000000   0.0000000   0.2000000), wk =   0.0320000
        k(   41) = (   0.4000000   0.0000000   0.4000000), wk =   0.0320000
        k(   42) = (   0.4000000   0.0000000  -0.4000000), wk =   0.0320000
        k(   43) = (   0.4000000   0.0000000  -0.2000000), wk =   0.0320000
        k(   44) = (   0.4000000   0.2000000   0.0000000), wk =   0.0320000
        k(   45) = (   0.4000000   0.2000000   0.2000000), wk =   0.0320000
        k(   46) = (   0.4000000   0.2000000   0.4000000), wk =   0.0320000
        k(   47) = (   0.4000000   0.2000000  -0.4000000), wk =   0.0320000
        k(   48) = (   0.4000000   0.2000000  -0.2000000), wk =   0.0320000
        k(   49) = (   0.4000000   0.4000000   0.0000000), wk =   0.0320000
        k(   50) = (   0.4000000   0.4000000   0.2000000), wk =   0.0320000
        k(   51) = (   0.4000000   0.4000000   0.4000000), wk =   0.0320000
        k(   52) = (   0.4000000   0.4000000  -0.4000000), wk =   0.0320000
        k(   53) = (   0.4000000   0.4000000  -0.2000000), wk =   0.0320000
        k(   54) = (   0.4000000  -0.4000000   0.0000000), wk =   0.0320000
        k(   55) = (   0.4000000  -0.4000000   0.2000000), wk =   0.0320000
        k(   56) = (   0.4000000  -0.4000000   0.4000000), wk =   0.0320000
        k(   57) = (   0.4000000  -0.4000000  -0.4000000), wk =   0.0320000
        k(   58) = (   0.4000000  -0.4000000  -0.2000000), wk =   0.0320000
        k(   59) = (   0.4000000  -0.2000000   0.0000000), wk =   0.0320000
        k(   60) = (   0.4000000  -0.2000000   0.2000000), wk =   0.0320000
        k(   61) = (   0.4000000  -0.2000000   0.4000000), wk =   0.0320000
        k(   62) = (   0.4000000  -0.2000000  -0.4000000), wk =   0.0320000
        k(   63) = (   0.4000000  -0.2000000  -0.2000000), wk =   0.0320000

                       cryst. coord.
        k(    1) = (   0.0000000   0.0000000   0.0000000), wk =   0.0160000
        k(    2) = (   0.0000000   0.0000000   0.2000000), wk =   0.0320000
        k(    3) = (   0.0000000   0.0000000   0.4000000), wk =   0.0320000
        k(    4) = (   0.0000000   0.2000000   0.0000000), wk =   0.0320000
        k(    5) = (   0.0000000   0.2000000   0.2000000), wk =   0.0320000
        k(    6) = (   0.0000000   0.2000000   0.4000000), wk =   0.0320000
        k(    7) = (   0.0000000   0.2000000  -0.4000000), wk =   0.0320000
        k(    8) = (   0.0000000   0.2000000  -0.2000000), wk =   0.0320000
        k(    9) = (   0.0000000   0.4000000   0.0000000), wk =   0.0320000
        k(   10) = (   0.0000000   0.4000000   0.2000000), wk =   0.0320000
        k(   11) = (   0.0000000   0.4000000   0.4000000), wk =   0.0320000
        k(   12) = (   0.0000000   0.4000000  -0.4000000), wk =   0.0320000
        k(   13) = (   0.0000000   0.4000000  -0.2000000), wk =   0.0320000
        k(   14) = (   0.2000000   0.0000000   0.0000000), wk =   0.0320000
        k(   15) = (   0.2000000   0.0000000   0.2000000), wk =   0.0320000
        k(   16) = (   0.2000000   0.0000000   0.4000000), wk =   0.0320000
        k(   17) = (   0.2000000   0.0000000  -0.4000000), wk =   0.0320000
        k(   18) = (   0.2000000   0.0000000  -0.2000000), wk =   0.0320000
        k(   19) = (   0.2000000   0.2000000   0.0000000), wk =   0.0320000
        k(   20) = (   0.2000000   0.2000000   0.2000000), wk =   0.0320000
        k(   21) = (   0.2000000   0.2000000   0.4000000), wk =   0.0320000
        k(   22) = (   0.2000000   0.2000000  -0.4000000), wk =   0.0320000
        k(   23) = (   0.2000000   0.2000000  -0.2000000), wk =   0.0320000
        k(   24) = (   0.2000000   0.4000000   0.0000000), wk =   0.0320000
        k(   25) = (   0.2000000   0.4000000   0.2000000), wk =   0.0320000
        k(   26) = (   0.2000000   0.4000000   0.4000000), wk =   0.0320000
        k(   27) = (   0.2000000   0.4000000  -0.4000000), wk =   0.0320000
        k(   28) = (   0.2000000   0.4000000  -0.2000000), wk =   0.0320000
        k(   29) = (   0.2000000  -0.4000000   0.0000000), wk =   0.0320000
        k(   30) = (   0.2000000  -0.4000000   0.2000000), wk =   0.0320000
        k(   31) = (   0.2000000  -0.4000000   0.4000000), wk =   0.0320000
        k(   32) = (   0.2000000  -0.4000000  -0.4000000), wk =   0.0320000
        k(   33) = (   0.2000000  -0.4000000  -0.2000000), wk =   0.0320000
        k(   34) = (   0.2000000  -0.2000000   0.0000000), wk =   0.0320000
        k(   35) = (   0.2000000  -0.2000000   0.2000000), wk =   0.0320000
        k(   36) = (   0.2000000  -0.2000000   0.4000000), wk =   0.0320000
        k(   37) = (   0.2000000  -0.2000000  -0.4000000), wk =   0.0320000
        k(   38) = (   0.2000000  -0.2000000  -0.2000000), wk =   0.0320000
        k(   39) = (   0.4000000   0.0000000   0.0000000), wk =   0.0320000
        k(   40) = (   0.4000000   0.0000000   0.2000000), wk =   0.0320000
        k(   41) = (   0.4000000   0.0000000   0.4000000), wk =   0.0320000
        k(   42) = (   0.4000000   0.0000000  -0.4000000), wk =   0.0320000
        k(   43) = (   0.4000000   0.0000000  -0.2000000), wk =   0.0320000
        k(   44) = (   0.4000000   0.2000000   0.0000000), wk =   0.0320000
        k(   45) = (   0.4000000   0.2000000   0.2000000), wk =   0.0320000
        k(   46) = (   0.4000000   0.2000000   0.4000000), wk =   0.0320000
        k(   47) = (   0.4000000   0.2000000  -0.4000000), wk =   0.0320000
        k(   48) = (   0.4000000   0.2000000  -0.2000000), wk =   0.0320000
        k(   49) = (   0.4000000   0.4000000   0.0000000), wk =   0.0320000
        k(   50) = (   0.4000000   0.4000000   0.2000000), wk =   0.0320000
        k(   51) = (   0.4000000   0.4000000   0.4000000), wk =   0.0320000
        k(   52) = (   0.4000000   0.4000000  -0.4000000), wk =   0.0320000
        k(   53) = (   0.4000000   0.4000000  -0.2000000), wk =   0.0320000
        k(   54) = (   0.4000000  -0.4000000   0.0000000), wk =   0.0320000
        k(   55) = (   0.4000000  -0.4000000   0.2000000), wk =   0.0320000
        k(   56) = (   0.4000000  -0.4000000   0.4000000), wk =   0.0320000
        k(   57) = (   0.4000000  -0.4000000  -0.4000000), wk =   0.0320000
        k(   58) = (   0.4000000  -0.4000000  -0.2000000), wk =   0.0320000
        k(   59) = (   0.4000000  -0.2000000   0.0000000), wk =   0.0320000
        k(   60) = (   0.4000000  -0.2000000   0.2000000), wk =   0.0320000
        k(   61) = (   0.4000000  -0.2000000   0.4000000), wk =   0.0320000
        k(   62) = (   0.4000000  -0.2000000  -0.4000000), wk =   0.0320000
        k(   63) = (   0.4000000  -0.2000000  -0.2000000), wk =   0.0320000

     Dense  grid:  3895379 G-vectors     FFT dimensions: ( 200, 200, 200)

     Smooth grid:   985619 G-vectors     FFT dimensions: ( 125, 125, 125)

     Dynamical RAM for                 wfc:     108.09 MB

     Dynamical RAM for     wfc (w. buffer):     324.28 MB

     Dynamical RAM for           str. fact:      14.86 MB

     Dynamical RAM for           local pot:       0.00 MB

     Dynamical RAM for          nlocal pot:    1078.58 MB

     Dynamical RAM for                qrad:      15.65 MB

     Dynamical RAM for          rho,v,vnew:      45.18 MB

     Dynamical RAM for               rhoin:      15.06 MB

     Dynamical RAM for            rho*nmix:     118.88 MB

     Dynamical RAM for           G-vectors:      28.80 MB

     Dynamical RAM for          h,s,v(r/c):      38.75 MB

     Dynamical RAM for          <psi|beta>:      32.22 MB

     Dynamical RAM for                 psi:     432.37 MB

     Dynamical RAM for                hpsi:     432.37 MB

     Dynamical RAM for                spsi:     432.37 MB

     Dynamical RAM for      wfcinit/wfcrot:     503.19 MB

     Dynamical RAM for           addusdens:      98.03 MB

     Dynamical RAM for          addusforce:     200.56 MB

     Dynamical RAM for         addusstress:      45.09 MB

     Estimated static dynamical RAM per process >       1.66 GB

     Estimated max dynamical RAM per process >       3.00 GB

     Estimated total dynamical RAM >     863.38 GB

     Initial potential from superposition of free atoms

     starting charge  765.41773, renormalised to  766.00000
     Starting wfcs are 1020 randomized atomic wfcs
     Checking if some PAW data can be deallocated... 
       PAW data deallocated on    1 nodes for type:  1

     total cpu time spent up to now is      200.6 secs

     Self-consistent Calculation

     iteration #  1     ecut=    40.00 Ry     beta= 0.40
     Davidson diagonalization with overlap
     ethr =  1.00E-02,  avg # of iterations =  3.0

     Threshold (ethr) on eigenvalues was too large:
     Diagonalizing with lowered threshold

     Davidson diagonalization with overlap
     ethr =  1.89E-04,  avg # of iterations =  8.8

     total cpu time spent up to now is     1003.4 secs

     total energy              =  -10045.22081639 Ry
     Harris-Foulkes estimate   =  -10045.38988999 Ry
     estimated scf accuracy    <       1.48544854 Ry

     iteration #  2     ecut=    40.00 Ry     beta= 0.40
     Davidson diagonalization with overlap
     ethr =  1.94E-04,  avg # of iterations =  1.1

     total cpu time spent up to now is     1227.1 secs

     total energy              =  -10045.00937224 Ry
     Harris-Foulkes estimate   =  -10045.22790553 Ry
     estimated scf accuracy    <       0.77634191 Ry

     iteration #  3     ecut=    40.00 Ry     beta= 0.40
     Davidson diagonalization with overlap
     ethr =  1.01E-04,  avg # of iterations =  1.1

     total cpu time spent up to now is     1452.2 secs

     total energy              =  -10045.02675600 Ry
     Harris-Foulkes estimate   =  -10045.02897543 Ry
     estimated scf accuracy    <       0.00376915 Ry

     iteration #  4     ecut=    40.00 Ry     beta= 0.40
     Davidson diagonalization with overlap
     c_bands:  3 eigenvalues not converged
     ethr =  4.92E-07,  avg # of iterations = 18.1

     total cpu time spent up to now is     2135.7 secs

     total energy              =  -10045.03068865 Ry
     Harris-Foulkes estimate   =  -10045.03060437 Ry
     estimated scf accuracy    <       0.00693811 Ry

     iteration #  5     ecut=    40.00 Ry     beta= 0.40
     Davidson diagonalization with overlap
     c_bands:  1 eigenvalues not converged
     ethr =  4.92E-07,  avg # of iterations =  7.4

     total cpu time spent up to now is     2421.2 secs

     total energy              =  -10045.02812604 Ry
     Harris-Foulkes estimate   =  -10045.03069279 Ry
     estimated scf accuracy    <       0.00784308 Ry

     iteration #  6     ecut=    40.00 Ry     beta= 0.40
     Davidson diagonalization with overlap
     ethr =  4.92E-07,  avg # of iterations =  6.6

     total cpu time spent up to now is     2798.7 secs

     total energy              =  -10045.02944010 Ry
     Harris-Foulkes estimate   =  -10045.03002656 Ry
     estimated scf accuracy    <       0.00658683 Ry

     iteration #  7     ecut=    40.00 Ry     beta= 0.40
     Davidson diagonalization with overlap
     ethr =  4.92E-07,  avg # of iterations =  1.8

     total cpu time spent up to now is     3053.5 secs

     total energy              =  -10045.02951507 Ry
     Harris-Foulkes estimate   =  -10045.02957993 Ry
     estimated scf accuracy    <       0.00186896 Ry

     iteration #  8     ecut=    40.00 Ry     beta= 0.40
     Davidson diagonalization with overlap
     ethr =  2.44E-07,  avg # of iterations =  1.3

     total cpu time spent up to now is     3303.8 secs

     total energy              =  -10045.02941973 Ry
     Harris-Foulkes estimate   =  -10045.02953903 Ry
     estimated scf accuracy    <       0.00119739 Ry

     iteration #  9     ecut=    40.00 Ry     beta= 0.40
     Davidson diagonalization with overlap
     ethr =  1.56E-07,  avg # of iterations =  3.0

     total cpu time spent up to now is     3545.7 secs

     total energy              =  -10045.02949482 Ry
     Harris-Foulkes estimate   =  -10045.02949345 Ry
     estimated scf accuracy    <       0.00005389 Ry

     iteration # 10     ecut=    40.00 Ry     beta= 0.40
     Davidson diagonalization with overlap
     ethr =  7.04E-09,  avg # of iterations =  4.0

     total cpu time spent up to now is     3854.3 secs

     total energy              =  -10045.02949950 Ry
     Harris-Foulkes estimate   =  -10045.02950586 Ry
     estimated scf accuracy    <       0.00004156 Ry

     iteration # 11     ecut=    40.00 Ry     beta= 0.40
     Davidson diagonalization with overlap
     ethr =  5.43E-09,  avg # of iterations =  2.0

     total cpu time spent up to now is     4095.9 secs

     total energy              =  -10045.02950275 Ry
     Harris-Foulkes estimate   =  -10045.02950288 Ry
     estimated scf accuracy    <       0.00000061 Ry

     iteration # 12     ecut=    40.00 Ry     beta= 0.40
     Davidson diagonalization with overlap
     ethr =  7.98E-11,  avg # of iterations =  5.6

     total cpu time spent up to now is     4549.6 secs

     total energy              =  -10045.02950152 Ry
     Harris-Foulkes estimate   =  -10045.02950260 Ry
     estimated scf accuracy    <       0.00000907 Ry

     iteration # 13     ecut=    40.00 Ry     beta= 0.40
     Davidson diagonalization with overlap
     ethr =  7.98E-11,  avg # of iterations =  4.0

     total cpu time spent up to now is     4855.4 secs

     total energy              =  -10045.02950160 Ry
     Harris-Foulkes estimate   =  -10045.02950175 Ry
     estimated scf accuracy    <       0.00000057 Ry

     iteration # 14     ecut=    40.00 Ry     beta= 0.40
     Davidson diagonalization with overlap
     ethr =  7.38E-11,  avg # of iterations =  3.2

     total cpu time spent up to now is     5122.1 secs

     total energy              =  -10045.02950162 Ry
     Harris-Foulkes estimate   =  -10045.02950165 Ry
     estimated scf accuracy    <       0.00000024 Ry

     iteration # 15     ecut=    40.00 Ry     beta= 0.40
     Davidson diagonalization with overlap
     ethr =  3.07E-11,  avg # of iterations =  2.0

     total cpu time spent up to now is     5352.7 secs

     total energy              =  -10045.02950160 Ry
     Harris-Foulkes estimate   =  -10045.02950161 Ry
     estimated scf accuracy    <       0.00000002 Ry

     iteration # 16     ecut=    40.00 Ry     beta= 0.40
     Davidson diagonalization with overlap
     ethr =  2.47E-12,  avg # of iterations =  4.0

     total cpu time spent up to now is     5730.7 secs

     total energy              =  -10045.02950152 Ry
     Harris-Foulkes estimate   =  -10045.02950155 Ry
     estimated scf accuracy    <       0.00000026 Ry

     iteration # 17     ecut=    40.00 Ry     beta= 0.40
     Davidson diagonalization with overlap
     ethr =  2.47E-12,  avg # of iterations =  3.8

     total cpu time spent up to now is     6026.3 secs

     total energy              =  -10045.02950148 Ry
     Harris-Foulkes estimate   =  -10045.02950148 Ry
     estimated scf accuracy    <       0.00000002 Ry

     iteration # 18     ecut=    40.00 Ry     beta= 0.40
     Davidson diagonalization with overlap
     ethr =  2.47E-12,  avg # of iterations =  2.8

     total cpu time spent up to now is     6291.1 secs

     total energy              =  -10045.02950146 Ry
     Harris-Foulkes estimate   =  -10045.02950146 Ry
     estimated scf accuracy    <          5.8E-09 Ry

     iteration # 19     ecut=    40.00 Ry     beta= 0.40
     Davidson diagonalization with overlap
     ethr =  7.58E-13,  avg # of iterations =  2.0

     total cpu time spent up to now is     6523.2 secs

     total energy              =  -10045.02950145 Ry
     Harris-Foulkes estimate   =  -10045.02950145 Ry
     estimated scf accuracy    <          3.4E-10 Ry

     iteration # 20     ecut=    40.00 Ry     beta= 0.40
     Davidson diagonalization with overlap
     ethr =  1.00E-13,  avg # of iterations =  3.9

     total cpu time spent up to now is     6795.5 secs

     total energy              =  -10045.02950144 Ry
     Harris-Foulkes estimate   =  -10045.02950144 Ry
     estimated scf accuracy    <          3.7E-12 Ry

     iteration # 21     ecut=    40.00 Ry     beta= 0.40
     Davidson diagonalization with overlap
     ethr =  1.00E-13,  avg # of iterations =  1.0

     total cpu time spent up to now is     7017.9 secs

     total energy              =  -10045.02950144 Ry
     Harris-Foulkes estimate   =  -10045.02950144 Ry
     estimated scf accuracy    <          5.5E-12 Ry

     iteration # 22     ecut=    40.00 Ry     beta= 0.40
     Davidson diagonalization with overlap
     ethr =  1.00E-13,  avg # of iterations =  1.0

     total cpu time spent up to now is     7241.5 secs

     total energy              =  -10045.02950144 Ry
     Harris-Foulkes estimate   =  -10045.02950144 Ry
     estimated scf accuracy    <          9.5E-12 Ry

     iteration # 23     ecut=    40.00 Ry     beta= 0.40
     Davidson diagonalization with overlap
     ethr =  1.00E-13,  avg # of iterations =  1.0

     total cpu time spent up to now is     7464.5 secs

     total energy              =  -10045.02950143 Ry
     Harris-Foulkes estimate   =  -10045.02950143 Ry
     estimated scf accuracy    <          2.8E-12 Ry

     iteration # 24     ecut=    40.00 Ry     beta= 0.40
     Davidson diagonalization with overlap
     ethr =  1.00E-13,  avg # of iterations =  1.0

     total cpu time spent up to now is     7687.1 secs

     total energy              =  -10045.02950143 Ry
     Harris-Foulkes estimate   =  -10045.02950143 Ry
     estimated scf accuracy    <          2.5E-12 Ry

     iteration # 25     ecut=    40.00 Ry     beta= 0.40
     Davidson diagonalization with overlap
     ethr =  1.00E-13,  avg # of iterations =  1.0

     total cpu time spent up to now is     7910.1 secs

     End of self-consistent calculation

          k = 0.0000 0.0000 0.0000 (123065 PWs)   bands (ev):

    -3.3275  -2.8755  -2.7476  -2.7476  -2.7420  -2.7420  -2.7420  -2.2613
    -2.1895  -2.1895  -2.1874  -2.1874  -2.1874  -2.1849  -2.1849  -2.1849
    -2.1736  -2.1736  -2.1736  -1.6332  -1.6238  -1.6238  -1.6238  -1.6226
    -1.6226  -1.6226  -1.6174  -1.1532  -1.0703  -1.0703  -1.0703  -1.0680
    -1.0680  -0.6825  -0.5261  -0.5258  -0.5258  -0.5258  -0.5252  -0.5252
    -0.5252  -0.5248  -0.5248  -0.5248  -0.5228  -0.5228  -0.5135  -0.5135
    -0.5129  -0.5129  -0.5129  -0.5110  -0.5110  -0.5110  -0.5073  -0.5073
    -0.5073   0.0237   0.0237   0.0259   0.0259   0.0259   0.0286   0.0286
     0.0290   0.0290   0.0290   0.0315   0.0315   0.0315   0.0340   0.0340
     0.0340   0.0358   0.0482   0.0482   0.0482   0.0506   0.0506   0.0506
     0.2821   1.0045   1.1212   1.1212   1.1212   1.1262   1.1262   1.1262
     1.1267   1.1267   1.1333   1.1333   1.1333   1.6593   1.6593   1.6627
     1.6627   1.6637   1.6637   1.6637   1.6645   1.6654   1.6654   1.6654
     1.6692   1.6692   1.6692   1.6707   1.6707   1.6707   1.6728   1.6728
     1.6730   1.6730   1.6730   1.6742   1.6820   1.6826   1.6826   1.6826
     1.6840   1.6840   1.6840   2.1975   2.1975   2.1994   2.2001   2.2001
     2.2001   2.2041   2.2041   2.2041   2.2048   2.2048   2.2048   2.2065
     2.2065   2.2065   2.2111   2.2111   2.2111   2.2173   2.2173   2.2296
     2.2296   2.2296   2.2971   2.7405   2.7405   2.7405   2.7408   2.7413
     2.7413   2.7413   2.7441   2.7441   2.7459   2.7459   2.7484   2.7484
     2.7484   2.7487   2.7487   2.7487   2.7571   2.7571   2.7571   2.7784
     2.7784   2.7784   2.9408   3.2019   3.2187   3.2187   3.2187   3.3927
     3.3927   3.3927   3.4172   3.7832   3.8012   3.8012   3.8012   3.8139
     3.8142   3.8142   3.8150   3.8150   3.8150   3.8164   3.8164   3.8164
     3.8186   3.8186   3.8186   3.8195   3.8195   3.8195   3.8229   3.8229
     3.8229   3.8320   3.8320   4.2370   4.2370   4.2401   4.2401   4.2401
     4.2402   4.2402   4.2402   4.2402   4.2403   4.2429   4.2429   4.2429
     4.2461   4.2461   4.2461   4.2565   4.2565   4.2565   4.2578   4.2578
     4.3326   4.3326   4.3326   4.4683   4.4712   4.4712   4.4712   4.4714
     4.4714   4.4714   4.4721   4.4721   4.4721   4.4747   4.4747   4.4800
     4.4800   4.4800   4.4827   4.4827   4.4954   4.4954   4.4954   4.4998
     4.4998   4.4998   4.8390   4.8584   4.8584   4.8584   5.3677   5.3677
     5.3677   5.3706   5.3706   5.3706   5.3781   5.3781   5.3781   5.3998
     5.3998   5.3998   5.8330   5.8330   5.8330   5.8840   5.8843   5.8843
     5.8843   5.8881   5.8881   5.8975   5.8975   5.8975   5.9436   5.9499
     5.9570   5.9570   5.9570   5.9581   5.9581   5.9581   5.9584   5.9584
     5.9584   5.9596   5.9596   5.9614   5.9614   5.9624   5.9624   5.9624
     5.9970   5.9970   5.9970   6.0680   6.0680   6.0680   6.1617   6.1617
     6.2179   6.4016   6.4137   6.4137   6.4137   6.4143   6.4143   6.4143
     6.4157   6.4157   6.4364   6.4364   6.4364   6.6881   6.6881   6.6929
     6.6955   6.6955   6.6955   6.6957   6.6957   6.6957   6.7031   6.7303
     6.7303   6.8600   6.8600   6.8600   6.9196   6.9196   6.9196   6.9237
     6.9237   6.9237   6.9264   6.9264   6.9264   6.9274   6.9902   7.0015
     7.0015   7.0015   7.0023   7.0023   7.0063   7.0063   7.0063   7.0081
     7.0081   7.0081   7.0084   7.0084   7.0084   7.0108   7.0108   7.0351
     7.0351   7.0351   7.1107   7.1107   7.1107   7.3330   7.3330   7.3330
     7.3370   7.3370   7.3370   7.3378   7.3378   7.3378   7.3601   7.3601
     7.4267   7.4297   7.4297   7.4297   7.4304   7.4321   7.4321   7.4394
     7.4394   7.4394   7.4399   7.4399   7.4399   7.4401   7.4401   7.4401
     7.4571   7.4571   7.4807   7.4807   7.4807   7.5356   7.5356   7.5356
     7.6690   7.9576   7.9576   7.9604   7.9707   7.9707   7.9707   8.4366
     8.5611   8.5777   8.5777   8.5777   8.5781   8.5781   8.5790   8.5790
     8.5790   8.5795   8.5795   8.5810   8.5810   8.5810   8.5828   8.5828
     8.5828   8.6060   8.6060   8.6060   8.6261   8.6261   8.6261   8.6970
     8.7950   8.7950   8.7980   8.7980   8.7980   8.8723   8.8723   8.8724
     8.8791   8.8791   8.8798   8.8798   8.8798   8.8826   8.8826   8.8826
     8.8836   8.8836   8.8836   8.8921   8.8921   8.8921   8.8959   8.8987
     8.8987   8.8987   8.9311   8.9311

     occupation numbers 
     1.0000   1.0000   1.0000   1.0000   1.0000   1.0000   1.0000   1.0000
     1.0000   1.0000   1.0000   1.0000   1.0000   1.0000   1.0000   1.0000
     1.0000   1.0000   1.0000   1.0000   1.0000   1.0000   1.0000   1.0000
     1.0000   1.0000   1.0000   1.0000   1.0000   1.0000   1.0000   1.0000
     1.0000   1.0000   1.0000   1.0000   1.0000   1.0000   1.0000   1.0000
     1.0000   1.0000   1.0000   1.0000   1.0000   1.0000   1.0000   1.0000
     1.0000   1.0000   1.0000   1.0000   1.0000   1.0000   1.0000   1.0000
     1.0000   1.0000   1.0000   1.0000   1.0000   1.0000   1.0000   1.0000
     1.0000   1.0000   1.0000   1.0000   1.0000   1.0000   1.0000   1.0000
     1.0000   1.0000   1.0000   1.0000   1.0000   1.0000   1.0000   1.0000
     1.0000   1.0000   1.0000   1.0000   1.0000   1.0000   1.0000   1.0000
     1.0000   1.0000   1.0000   1.0000   1.0000   1.0000   1.0000   1.0000
     1.0000   1.0000   1.0000   1.0000   1.0000   1.0000   1.0000   1.0000
     1.0000   1.0000   1.0000   1.0000   1.0000   1.0000   1.0000   1.0000
     1.0000   1.0000   1.0000   1.0000   1.0000   1.0000   1.0000   1.0000
     1.0000   1.0000   1.0000   1.0000   1.0000   1.0000   1.0000   1.0000
     1.0000   1.0000   1.0000   1.0000   1.0000   1.0000   1.0000   1.0000
     1.0000   1.0000   1.0000   1.0000   1.0000   1.0000   1.0000   1.0000
     1.0000   1.0000   1.0000   1.0000   1.0000   1.0000   1.0000   1.0000
     1.0000   1.0000   1.0000   1.0000   1.0000   1.0000   1.0000   1.0000
     1.0000   1.0000   1.0000   1.0000   1.0000   1.0000   1.0000   1.0000
     1.0000   1.0000   1.0000   1.0000   1.0000   1.0000   1.0000   1.0000
     1.0000   1.0000   1.0000   1.0000   1.0000   1.0000   1.0000   1.0000
     1.0000   1.0000   1.0000   1.0000   1.0000   1.0000   1.0000   1.0000
     1.0000   1.0000   1.0000   1.0000   1.0000   1.0000   1.0000   1.0000
     1.0000   1.0000   1.0000   1.0000   1.0000   1.0000   1.0000   1.0000
     1.0000   1.0000   1.0000   1.0000   1.0000   1.0000   1.0000   1.0000
     1.0000   1.0000   1.0000   1.0000   1.0000   1.0000   1.0000   1.0000
     1.0000   1.0000   1.0000   1.0000   1.0000   1.0000   1.0000   1.0000
     1.0000   1.0000   1.0000   1.0000   1.0000   1.0000   1.0000   1.0000
     1.0000   1.0000   1.0000   1.0000   1.0000   1.0000   1.0000   1.0000
     1.0000   1.0000   1.0000   1.0000   1.0000   1.0000   1.0000   1.0000
     1.0000   1.0000   1.0000   1.0000   1.0000   1.0000   1.0000   1.0000
     1.0000   1.0000   1.0000   1.0000   1.0000   1.0001   1.0001   1.0001
     1.0001   1.0001   1.0001   1.0001   1.0001   1.0001   1.0001   1.0001
     1.0001   1.0001   1.0001   1.0001   1.0001   1.0001   1.0001   1.0001
     1.0001   1.0001   1.0001   1.0001   1.0001   1.0001   1.0001   1.0001
     1.0001   1.0001   1.0001   1.0003   1.0003   1.0003   1.0006   1.0006
     1.0009   1.0033   1.0036   1.0036   1.0036   1.0036   1.0036   1.0036
     1.0036   1.0036   1.0041   1.0041   1.0041   1.0156   1.0156   1.0160
     1.0161   1.0161   1.0161   1.0162   1.0162   1.0162   1.0167   1.0186
     1.0186   1.0284   1.0284   1.0284   1.0324   1.0324   1.0324   1.0326
     1.0326   1.0326   1.0327   1.0327   1.0327   1.0328   1.0352   1.0354
     1.0354   1.0354   1.0354   1.0354   1.0354   1.0354   1.0354   1.0354
     1.0354   1.0354   1.0354   1.0354   1.0354   1.0355   1.0355   1.0353
     1.0353   1.0353   1.0306   1.0306   1.0306   0.9579   0.9579   0.9579
     0.9555   0.9555   0.9555   0.9550   0.9550   0.9550   0.9409   0.9409
     0.8904   0.8878   0.8878   0.8878   0.8872   0.8857   0.8857   0.8793
     0.8793   0.8793   0.8789   0.8789   0.8789   0.8787   0.8787   0.8787
     0.8632   0.8632   0.8403   0.8403   0.8403   0.7817   0.7817   0.7817
     0.6126   0.2253   0.2253   0.2221   0.2104   0.2104   0.2104  -0.0344
    -0.0334  -0.0325  -0.0325  -0.0325  -0.0325  -0.0325  -0.0324  -0.0324
    -0.0324  -0.0324  -0.0324  -0.0323  -0.0323  -0.0323  -0.0322  -0.0322
    -0.0322  -0.0307  -0.0307  -0.0307  -0.0294  -0.0294  -0.0294  -0.0240
    -0.0167  -0.0167  -0.0165  -0.0165  -0.0165  -0.0119  -0.0119  -0.0119
    -0.0115  -0.0115  -0.0114  -0.0114  -0.0114  -0.0113  -0.0113  -0.0113
    -0.0112  -0.0112  -0.0112  -0.0108  -0.0108  -0.0108  -0.0106  -0.0104
    -0.0104  -0.0104  -0.0088  -0.0088

          k = 0.0000 0.0000 0.2000 (123202 PWs)   bands (ev):

    -3.3067  -2.9718  -2.8189  -2.7252  -2.7197  -2.7197  -2.5300  -2.3895
    -2.3838  -2.3838  -2.3712  -2.2016  -2.1626  -2.1583  -2.1583  -1.9960
    -1.9431  -1.9375  -1.9375  -1.8282  -1.8230  -1.8230  -1.7753  -1.5116
    -1.3869  -1.3835  -1.3792  -1.3792  -1.1282  -1.0485  -1.0485  -1.0459
    -0.9439  -0.9380  -0.9380  -0.9167  -0.7668  -0.7160  -0.7160  -0.7140
    -0.6324  -0.5548  -0.5037  -0.4981  -0.4981  -0.4973  -0.4937  -0.4937
    -0.4909  -0.3882  -0.3820  -0.3820  -0.3463  -0.3143  -0.2773  -0.2773
    -0.2727  -0.1732  -0.1673  -0.1673  -0.1667  -0.1594  -0.1508  -0.1508
    -0.1156  -0.0618  -0.0560  -0.0560  -0.0157   0.2665   0.2722   0.2722
     0.2729   0.2797   0.2837   0.2837   0.3509   0.4909   0.4959   0.4959
     0.5385   0.6815   0.7127   0.7127   0.7151   1.0324   1.0896   1.1458
     1.1458   1.1478   1.2506   1.2564   1.2564   1.2570   1.2638   1.2685
     1.2685   1.2960   1.4348   1.4755   1.4791   1.4791   1.5587   1.5750
     1.5801   1.5801   1.5844   1.5844   1.5870   1.6189   1.6859   1.6886
     1.6886   1.7366   1.8921   1.9090   1.9090   1.9093   1.9918   2.0115
     2.0140   2.0140   2.0946   2.1192   2.1208   2.1234   2.1234   2.1252
     2.1252   2.1256   2.1265   2.1265   2.1329   2.1508   2.2259   2.2281
     2.2293   2.2293   2.2329   2.2455   2.2455   2.3030   2.3463   2.4406
     2.4406   2.4441   2.4459   2.5496   2.5522   2.5533   2.5533   2.5577
     2.5770   2.5770   2.6466   2.8415   2.8635   2.8688   2.8688   2.8772
     2.8792   2.8792   2.8894   2.9801   2.9829   2.9839   2.9839   2.9880
     3.0049   3.0049   3.1001   3.2030   3.2030   3.2048   3.2068   3.3911
     3.4033   3.4078   3.4078   3.4113   3.4113   3.4122   3.4292   3.7220
     3.7277   3.7277   3.7289   3.7313   3.7313   3.7335   3.7403   3.7576
     3.7576   3.7598   3.7810   3.8362   3.8362   3.8372   3.8376   3.8381
     3.8381   3.8439   3.8624   3.9356   3.9387   3.9403   3.9403   3.9443
     3.9746   3.9746   4.0375   4.1487   4.1488   4.1488   4.1488   4.1572
     4.1724   4.1724   4.2063   4.2662   4.2809   4.2809   4.2883   4.4253
     4.4565   4.4709   4.4709   4.4761   4.6074   4.6083   4.6084   4.6084
     4.6169   4.6308   4.6308   4.6756   4.8229   4.8246   4.8246   4.8249
     4.8288   4.8351   4.8351   4.8780   4.8780   4.8831   4.9684   4.9746
     4.9746   5.0119   5.0228   5.0286   5.0286   5.0288   5.0368   5.0368
     5.0368   5.1470   5.1974   5.1974   5.3505   5.3542   5.3542   5.3594
     5.3912   5.3985   5.4032   5.4032   5.4891   5.4935   5.4935   5.5015
     5.5544   5.5544   5.5557   5.5566   5.5594   5.5594   5.5632   5.5977
     5.5977   5.6569   5.7008   5.7095   5.7514   5.7514   5.8387   5.8552
     5.8552   5.8745   6.1136   6.1208   6.1208   6.1208   6.1375   6.1830
     6.3647   6.3865   6.3865   6.3884   6.3997   6.3997   6.3998   6.4019
     6.4037   6.4040   6.4040   6.4045   6.4142   6.4157   6.4192   6.4192
     6.4693   6.4784   6.4958   6.4958   6.5094   6.5132   6.5333   6.5333
     6.5381   6.5551   6.5551   6.5628   6.6073   6.6151   6.6240   6.6240
     6.6595   6.7159   6.7159   6.7251   6.7413   6.8080   6.8104   6.8104
     6.8153   6.8653   6.8653   6.8671   6.8766   6.9211   6.9400   6.9400
     6.9415   6.9446   6.9497   7.0438   7.0502   7.0632   7.0638   7.0638
     7.0700   7.0700   7.0705   7.0790   7.1052   7.1052   7.1145   7.1271
     7.1340   7.1340   7.1832   7.2202   7.2376   7.2449   7.2449   7.2551
     7.2677   7.2757   7.2757   7.3424   7.3424   7.3428   7.3842   7.3842
     7.4074   7.5420   7.5420   7.5442   7.5553   7.6418   7.6456   7.6467
     7.6467   7.6504   7.6553   7.6553   7.6621   7.6692   7.6744   7.6943
     7.6943   7.7374   7.7418   7.7418   7.7993   7.8031   7.8724   7.8792
     7.8888   7.8888   7.9425   7.9773   7.9784   7.9784   7.9784   7.9879
     8.0201   8.0201   8.0211   8.1668   8.1792   8.1792   8.1801   8.1819
     8.1900   8.2169   8.2169   8.4878   8.4878   8.5014   8.5091   8.6014
     8.6048   8.6048   8.6058   8.6331   8.6382   8.6398   8.6398   8.7008
     8.7054   8.7054   8.7187   8.9157   8.9219   8.9219   8.9967   9.0048
     9.0228   9.0246   9.0252   9.0252   9.0260   9.0301   9.0301   9.1220
     9.1220   9.1354   9.1376   9.1622   9.1668   9.1668   9.1826   9.2168
     9.2172   9.2183   9.2224   9.2233

     occupation numbers 
     1.0000   1.0000   1.0000   1.0000   1.0000   1.0000   1.0000   1.0000
     1.0000   1.0000   1.0000   1.0000   1.0000   1.0000   1.0000   1.0000
     1.0000   1.0000   1.0000   1.0000   1.0000   1.0000   1.0000   1.0000
     1.0000   1.0000   1.0000   1.0000   1.0000   1.0000   1.0000   1.0000
     1.0000   1.0000   1.0000   1.0000   1.0000   1.0000   1.0000   1.0000
     1.0000   1.0000   1.0000   1.0000   1.0000   1.0000   1.0000   1.0000
     1.0000   1.0000   1.0000   1.0000   1.0000   1.0000   1.0000   1.0000
     1.0000   1.0000   1.0000   1.0000   1.0000   1.0000   1.0000   1.0000
     1.0000   1.0000   1.0000   1.0000   1.0000   1.0000   1.0000   1.0000
     1.0000   1.0000   1.0000   1.0000   1.0000   1.0000   1.0000   1.0000
     1.0000   1.0000   1.0000   1.0000   1.0000   1.0000   1.0000   1.0000
     1.0000   1.0000   1.0000   1.0000   1.0000   1.0000   1.0000   1.0000
     1.0000   1.0000   1.0000   1.0000   1.0000   1.0000   1.0000   1.0000
     1.0000   1.0000   1.0000   1.0000   1.0000   1.0000   1.0000   1.0000
     1.0000   1.0000   1.0000   1.0000   1.0000   1.0000   1.0000   1.0000
     1.0000   1.0000   1.0000   1.0000   1.0000   1.0000   1.0000   1.0000
     1.0000   1.0000   1.0000   1.0000   1.0000   1.0000   1.0000   1.0000
     1.0000   1.0000   1.0000   1.0000   1.0000   1.0000   1.0000   1.0000
     1.0000   1.0000   1.0000   1.0000   1.0000   1.0000   1.0000   1.0000
     1.0000   1.0000   1.0000   1.0000   1.0000   1.0000   1.0000   1.0000
     1.0000   1.0000   1.0000   1.0000   1.0000   1.0000   1.0000   1.0000
[...]
     atom   74 type  1   force =    -0.00000002    0.00000000    0.00000001
     atom   75 type  1   force =    -0.00000001   -0.00000000    0.00000003
     atom   76 type  1   force =    -0.00000008    0.00000000    0.00000007
     atom   77 type  1   force =    -0.00000004    0.00000000    0.00000001
     atom   78 type  1   force =    -0.00000009    0.00000001    0.00000001
     atom   79 type  1   force =    -0.00000010   -0.00000005    0.00000004
     atom   80 type  1   force =    -0.00000007   -0.00000007   -0.00000000
     atom   81 type  1   force =    -0.00000002   -0.00000001   -0.00000001
     atom   82 type  1   force =    -0.00000004   -0.00000001   -0.00000000
     atom   83 type  1   force =    -0.00000002   -0.00000003   -0.00000000
     atom   84 type  1   force =    -0.00000003   -0.00000002   -0.00000002
     atom   85 type  1   force =     0.00000003    0.00000003    0.00000006
     atom   86 type  1   force =     0.00000003    0.00000006    0.00000004
     atom   87 type  1   force =     0.00000005    0.00000003    0.00000003
     atom   88 type  1   force =     0.00000004    0.00000004    0.00000000
     atom   89 type  1   force =     0.00000005    0.00000005    0.00000001
     atom   90 type  1   force =     0.00000003    0.00000006   -0.00000003
     atom   91 type  1   force =     0.00000006    0.00000003   -0.00000003
     atom   92 type  1   force =    -0.00000002   -0.00000002    0.00000002
     atom   93 type  1   force =     0.00000003    0.00000003   -0.00000006
     atom   94 type  1   force =    -0.00000004   -0.00000001   -0.00000001
     atom   95 type  1   force =    -0.00000001   -0.00000003   -0.00000001
     atom   96 type  1   force =    -0.00000001   -0.00000000   -0.00000000
     atom   97 type  1   force =    -0.00000001    0.00000001   -0.00000000
     atom   98 type  1   force =     0.00000001    0.00000000    0.00000004
     atom   99 type  1   force =    -0.00000002    0.00000003   -0.00000000
     atom  100 type  1   force =     0.00000003   -0.00000000    0.00000003
     atom  101 type  1   force =     0.00000003   -0.00000003    0.00000005
     atom  102 type  1   force =     0.00000005   -0.00000000    0.00000005
     atom  103 type  1   force =     0.00000005   -0.00000003    0.00000003
     atom  104 type  1   force =     0.00000008    0.00000000    0.00000001
     atom  105 type  1   force =     0.00000005   -0.00000005    0.00000001
     atom  106 type  1   force =     0.00000006   -0.00000000   -0.00000004
     atom  107 type  1   force =     0.00000006   -0.00000003   -0.00000003
     atom  108 type  1   force =     0.00000004   -0.00000000   -0.00000004
     atom  109 type  1   force =     0.00000003   -0.00000004   -0.00000006
     atom  110 type  1   force =     0.00000001   -0.00000000   -0.00000005
     atom  111 type  1   force =    -0.00000002    0.00000003   -0.00000001
     atom  112 type  1   force =    -0.00000008    0.00000007   -0.00000000
     atom  113 type  1   force =    -0.00000009    0.00000002    0.00000000
     atom  114 type  1   force =    -0.00000003    0.00000001    0.00000000
     atom  115 type  1   force =    -0.00000010    0.00000005   -0.00000005
     atom  116 type  1   force =    -0.00000003    0.00000002   -0.00000002
     atom  117 type  1   force =    -0.00000003    0.00000000   -0.00000001
     atom  118 type  1   force =     0.00000003   -0.00000005    0.00000004
     atom  119 type  1   force =    -0.00000002    0.00000000   -0.00000002
     atom  120 type  1   force =     0.00000004   -0.00000003    0.00000001
     atom  121 type  1   force =     0.00000001   -0.00000004    0.00000000
     atom  122 type  1   force =     0.00000002   -0.00000006   -0.00000003
     atom  123 type  1   force =    -0.00000002   -0.00000000    0.00000003
     atom  124 type  1   force =    -0.00000003    0.00000002    0.00000002
     atom  125 type  1   force =    -0.00000004   -0.00000000    0.00000001
     atom  126 type  1   force =    -0.00000004    0.00000001   -0.00000001
     atom  127 type  1   force =    -0.00000011    0.00000005    0.00000004
     atom  128 type  1   force =    -0.00000000    0.00000000    0.00000001
     atom  129 type  1   force =     0.00000009   -0.00000002    0.00000000
     atom  130 type  1   force =     0.00000009   -0.00000000   -0.00000002
     atom  131 type  1   force =     0.00000000   -0.00000000    0.00000000
     atom  132 type  1   force =    -0.00000000   -0.00000000   -0.00000001
     atom  133 type  1   force =     0.00000003   -0.00000000   -0.00000002
     atom  134 type  1   force =     0.00000001   -0.00000001   -0.00000001
     atom  135 type  1   force =    -0.00000000    0.00000004    0.00000002
     atom  136 type  1   force =    -0.00000001   -0.00000000   -0.00000000
     atom  137 type  1   force =    -0.00000002    0.00000005    0.00000000
     atom  138 type  1   force =     0.00000001    0.00000000    0.00000000
     atom  139 type  1   force =    -0.00000001    0.00000005   -0.00000002
     atom  140 type  1   force =    -0.00000001    0.00000000   -0.00000000
     atom  141 type  1   force =     0.00000003    0.00000001    0.00000001
     atom  142 type  1   force =     0.00000009    0.00000000    0.00000002
     atom  143 type  1   force =    -0.00000001    0.00000001   -0.00000000
     atom  144 type  1   force =    -0.00000001   -0.00000001   -0.00000001
     atom  145 type  1   force =     0.00000001   -0.00000001   -0.00000001
     atom  146 type  1   force =     0.00000003   -0.00000002   -0.00000000
     atom  147 type  1   force =    -0.00000001    0.00000002    0.00000004
     atom  148 type  1   force =    -0.00000000    0.00000004    0.00000004
     atom  149 type  1   force =    -0.00000003    0.00000004    0.00000007
     atom  150 type  1   force =    -0.00000003    0.00000006    0.00000004
     atom  151 type  1   force =     0.00000000    0.00000005    0.00000006
     atom  152 type  1   force =     0.00000000    0.00000008    0.00000001
     atom  153 type  1   force =    -0.00000005    0.00000006    0.00000001
     atom  154 type  1   force =    -0.00000003    0.00000007   -0.00000004
     atom  155 type  1   force =     0.00000000    0.00000006   -0.00000005
     atom  156 type  1   force =    -0.00000001    0.00000005   -0.00000005
     atom  157 type  1   force =    -0.00000004    0.00000004   -0.00000007
     atom  158 type  1   force =     0.00000003   -0.00000001   -0.00000001
     atom  159 type  1   force =    -0.00000001    0.00000001   -0.00000006
     atom  160 type  1   force =    -0.00000000    0.00000000   -0.00000000
     atom  161 type  1   force =     0.00000001    0.00000002   -0.00000000
     atom  162 type  1   force =    -0.00000002    0.00000001    0.00000005
     atom  163 type  1   force =    -0.00000000   -0.00000001    0.00000004
     atom  164 type  1   force =    -0.00000000    0.00000001    0.00000009
     atom  165 type  1   force =    -0.00000003   -0.00000003    0.00000006
     atom  166 type  1   force =    -0.00000005    0.00000000    0.00000006
     atom  167 type  1   force =     0.00000000   -0.00000005    0.00000006
     atom  168 type  2   force =     0.00000001   -0.00000000    0.00000002
     atom  169 type  1   force =    -0.00000005   -0.00000006    0.00000001
     atom  170 type  1   force =    -0.00000005   -0.00000000   -0.00000005
     atom  171 type  1   force =     0.00000000   -0.00000006   -0.00000005
     atom  172 type  1   force =    -0.00000000   -0.00000000   -0.00000010
     atom  173 type  1   force =    -0.00000003   -0.00000004   -0.00000007
     atom  174 type  1   force =    -0.00000001    0.00000000   -0.00000005
     atom  175 type  1   force =    -0.00000000   -0.00000002   -0.00000005
     atom  176 type  1   force =    -0.00000000    0.00000000    0.00000000
     atom  177 type  1   force =     0.00000009    0.00000002    0.00000001
     atom  178 type  1   force =     0.00000003    0.00000002   -0.00000000
     atom  179 type  1   force =     0.00000000   -0.00000000    0.00000000
     atom  180 type  1   force =    -0.00000000   -0.00000004    0.00000004
     atom  181 type  1   force =     0.00000003    0.00000000   -0.00000002
     atom  182 type  1   force =    -0.00000003   -0.00000006    0.00000004
     atom  183 type  1   force =    -0.00000000   -0.00000004    0.00000002
     atom  184 type  1   force =     0.00000000   -0.00000008   -0.00000000
     atom  185 type  1   force =    -0.00000001   -0.00000005   -0.00000000
     atom  186 type  1   force =    -0.00000003   -0.00000007   -0.00000004
     atom  187 type  1   force =    -0.00000001   -0.00000004   -0.00000002
     atom  188 type  1   force =    -0.00000001   -0.00000005   -0.00000004
     atom  189 type  1   force =     0.00000003   -0.00000000    0.00000001
     atom  190 type  1   force =     0.00000003    0.00000001    0.00000000
     atom  191 type  1   force =    -0.00000000   -0.00000001   -0.00000000
     atom  192 type  1   force =     0.00000013   -0.00000000    0.00000000
     atom  193 type  1   force =     0.00000005   -0.00000007   -0.00000000
     atom  194 type  1   force =     0.00000005   -0.00000000   -0.00000006
     atom  195 type  1   force =     0.00000010   -0.00000005   -0.00000005
     atom  196 type  1   force =     0.00000007   -0.00000000   -0.00000008
     atom  197 type  1   force =     0.00000005   -0.00000004   -0.00000010
     atom  198 type  1   force =     0.00000002   -0.00000000   -0.00000008
     atom  199 type  1   force =     0.00000001    0.00000000   -0.00000003
     atom  200 type  1   force =     0.00000000   -0.00000001    0.00000000
     atom  201 type  1   force =    -0.00000000    0.00000001    0.00000000
     atom  202 type  1   force =     0.00000002   -0.00000000    0.00000009
     atom  203 type  1   force =     0.00000001    0.00000000    0.00000003
     atom  204 type  1   force =     0.00000008   -0.00000000    0.00000007
     atom  205 type  1   force =     0.00000005   -0.00000005    0.00000010
     atom  206 type  1   force =     0.00000006   -0.00000000    0.00000006
     atom  207 type  1   force =     0.00000010   -0.00000005    0.00000005
     atom  208 type  1   force =     0.00000007   -0.00000008   -0.00000000
     atom  209 type  1   force =     0.00000002   -0.00000009   -0.00000000
     atom  210 type  1   force =     0.00000005   -0.00000010   -0.00000004
     atom  211 type  1   force =     0.00000002   -0.00000003    0.00000000
     atom  212 type  1   force =     0.00000003   -0.00000002   -0.00000002
     atom  213 type  1   force =     0.00000001   -0.00000003   -0.00000001
     atom  214 type  1   force =     0.00000001   -0.00000001   -0.00000003
     atom  215 type  1   force =    -0.00000005    0.00000004    0.00000004
     atom  216 type  1   force =    -0.00000004    0.00000005    0.00000001
     atom  217 type  1   force =    -0.00000005    0.00000001    0.00000000
     atom  218 type  1   force =    -0.00000000   -0.00000001    0.00000003
     atom  219 type  1   force =    -0.00000006    0.00000004   -0.00000004
     atom  220 type  1   force =     0.00000002   -0.00000001    0.00000002
     atom  221 type  1   force =    -0.00000000   -0.00000003    0.00000001
     atom  222 type  1   force =     0.00000005   -0.00000010    0.00000004
     atom  223 type  1   force =     0.00000001   -0.00000003   -0.00000001
     atom  224 type  1   force =     0.00000000    0.00000000   -0.00000001
     atom  225 type  1   force =     0.00000002    0.00000010   -0.00000000
     atom  226 type  1   force =     0.00000000    0.00000000    0.00000001
     atom  227 type  1   force =     0.00000002    0.00000004    0.00000000
     atom  228 type  1   force =    -0.00000004    0.00000000    0.00000005
     atom  229 type  1   force =     0.00000000    0.00000003   -0.00000001
     atom  230 type  1   force =    -0.00000004   -0.00000000    0.00000002
     atom  231 type  1   force =    -0.00000006   -0.00000003    0.00000004
     atom  232 type  1   force =    -0.00000009   -0.00000000    0.00000001
     atom  233 type  1   force =    -0.00000005   -0.00000002    0.00000000
     atom  234 type  1   force =    -0.00000005   -0.00000000   -0.00000001
     atom  235 type  1   force =    -0.00000006   -0.00000004   -0.00000004
     atom  236 type  1   force =    -0.00000004   -0.00000000   -0.00000005
     atom  237 type  1   force =    -0.00000000    0.00000003    0.00000001
     atom  238 type  1   force =    -0.00000001    0.00000000   -0.00000001
     atom  239 type  1   force =     0.00000002    0.00000003   -0.00000001
     atom  240 type  1   force =     0.00000008    0.00000008   -0.00000000
     atom  241 type  1   force =     0.00000006    0.00000005   -0.00000000
     atom  242 type  1   force =     0.00000005    0.00000010   -0.00000006
     atom  243 type  1   force =     0.00000010    0.00000005   -0.00000005
     atom  244 type  1   force =     0.00000002    0.00000002   -0.00000002
     atom  245 type  1   force =     0.00000004    0.00000004   -0.00000010
     atom  246 type  1   force =    -0.00000000    0.00000001   -0.00000002
     atom  247 type  1   force =     0.00000001   -0.00000000   -0.00000003
     atom  248 type  1   force =    -0.00000004   -0.00000005    0.00000000
     atom  249 type  1   force =    -0.00000001   -0.00000001    0.00000001
     atom  250 type  1   force =    -0.00000000    0.00000001    0.00000003
     atom  251 type  1   force =     0.00000002   -0.00000000    0.00000003
     atom  252 type  1   force =     0.00000003    0.00000002    0.00000002
     atom  253 type  1   force =     0.00000005    0.00000004    0.00000010
     atom  254 type  1   force =     0.00000005    0.00000010    0.00000005
     atom  255 type  1   force =     0.00000011    0.00000004    0.00000005

     Total force =     0.007381     Total SCF correction =     0.000001


     Computing stress (Cartesian axis) and pressure

          total   stress  (Ry/bohr**3)                   (kbar)     P=  -11.26
  -0.00007655  -0.00000000   0.00000000        -11.26     -0.00      0.00
  -0.00000000  -0.00007655   0.00000000         -0.00    -11.26      0.00
   0.00000000   0.00000000  -0.00007655          0.00      0.00    -11.26

     kinetic stress (kbar)   1431.78     -0.00      0.00
                               -0.00   1431.78      0.00
                                0.00      0.00   1431.78

     local   stress (kbar)    614.00     -0.00      0.00
                               -0.00    614.00     -0.00
                                0.00     -0.00    614.00

     nonloc. stress (kbar)   1037.16      0.00     -0.00
                                0.00   1037.16     -0.00
                               -0.00     -0.00   1037.16

     hartree stress (kbar)      6.74      0.00      0.00
                                0.00      6.74     -0.00
                                0.00     -0.00      6.74

     exc-cor stress (kbar)    511.48      0.00     -0.00
                                0.00    511.48      0.00
                               -0.00      0.00    511.48

     corecor stress (kbar)  -1279.82     -0.00      0.00
                               -0.00  -1279.82     -0.00
                                0.00     -0.00  -1279.82

     ewald   stress (kbar)  -2332.59     -0.00     -0.00
                               -0.00  -2332.59     -0.00
                               -0.00     -0.00  -2332.59

     hubbard stress (kbar)      0.00      0.00      0.00
                                0.00      0.00      0.00
                                0.00      0.00      0.00

     london  stress (kbar)      0.00      0.00      0.00
                                0.00      0.00      0.00
                                0.00      0.00      0.00

     DFT-D3  stress (kbar)      0.00      0.00      0.00
                                0.00      0.00      0.00
                                0.00      0.00      0.00

     XDM     stress (kbar)      0.00      0.00      0.00
                                0.00      0.00      0.00
                                0.00      0.00      0.00

     dft-nl  stress (kbar)      0.00      0.00      0.00
                                0.00      0.00      0.00
                                0.00      0.00      0.00

     TS-vdW  stress (kbar)      0.00      0.00      0.00
                                0.00      0.00      0.00
                                0.00      0.00      0.00



     Writing output data file aiida.save/
 
     init_run     :    196.46s CPU    198.62s WALL (       1 calls)
     electrons    :   7649.33s CPU   7709.89s WALL (       1 calls)
     forces       :     93.10s CPU     94.00s WALL (       1 calls)
     stress       :   1258.36s CPU   1259.94s WALL (       1 calls)

     Called by init_run:
     wfcinit      :    181.50s CPU    183.25s WALL (       1 calls)
     wfcinit:atom :      0.38s CPU      0.57s WALL (       2 calls)
     wfcinit:wfcr :    178.87s CPU    179.67s WALL (       2 calls)
     potinit      :      2.30s CPU      2.48s WALL (       1 calls)
     hinit0       :      2.92s CPU      2.99s WALL (       1 calls)

     Called by electrons:
     c_bands      :   6650.00s CPU   6699.79s WALL (      26 calls)
     sum_band     :    913.15s CPU    917.64s WALL (      26 calls)
     v_of_rho     :     41.30s CPU     42.90s WALL (      26 calls)
     v_h          :      3.82s CPU      3.84s WALL (      26 calls)
     v_xc         :     39.83s CPU     41.48s WALL (      28 calls)
     newd         :      8.79s CPU     10.78s WALL (      26 calls)
     PAW_pot      :      4.61s CPU      5.21s WALL (      26 calls)
     mix_rho      :     26.12s CPU     27.97s WALL (      26 calls)

     Called by c_bands:
     init_us_2    :     90.35s CPU     90.89s WALL (     110 calls)
     cegterg      :   5713.30s CPU   5760.45s WALL (      52 calls)

     Called by sum_band:
     sum_band:bec :      1.64s CPU      1.65s WALL (      52 calls)
     addusdens    :      6.77s CPU      9.44s WALL (      26 calls)

     Called by *egterg:
     h_psi        :   3745.71s CPU   3761.56s WALL (     254 calls)
     s_psi        :   1119.17s CPU   1121.28s WALL (     254 calls)
     g_psi        :      4.81s CPU      4.81s WALL (     200 calls)
     cdiaghg      :    327.13s CPU    333.10s WALL (     250 calls)
     cegterg:over :    286.43s CPU    288.16s WALL (     200 calls)
     cegterg:upda :    198.50s CPU    206.90s WALL (     200 calls)
     cegterg:last :    112.59s CPU    112.66s WALL (      54 calls)
     cdiaghg:chol :     14.43s CPU     14.54s WALL (     250 calls)
     cdiaghg:inve :      6.54s CPU      6.54s WALL (     250 calls)
     cdiaghg:para :     73.85s CPU     75.12s WALL (     500 calls)

     Called by h_psi:
     h_psi:pot    :   3740.72s CPU   3749.04s WALL (     254 calls)
     h_psi:calbec :   1096.87s CPU   1096.98s WALL (     254 calls)
     vloc_psi     :   1518.07s CPU   1523.77s WALL (     254 calls)
     add_vuspsi   :   1125.79s CPU   1128.28s WALL (     254 calls)

     General routines
     calbec       :   1610.66s CPU   1610.83s WALL (     316 calls)
     fft          :     45.38s CPU     47.02s WALL (     363 calls)
     ffts         :     11.88s CPU     11.90s WALL (     392 calls)
     fftw         :   1575.21s CPU   1580.83s WALL (  143354 calls)
     interpolate  :      4.17s CPU      4.49s WALL (      26 calls)
 
     Parallel routines
     fft_scatt_xy :    543.10s CPU    544.72s WALL (  144109 calls)
     fft_scatt_yz :    304.98s CPU    307.37s WALL (  144109 calls)

     PAW routines
     PAW_pot      :      4.61s CPU      5.21s WALL (      26 calls)
 
     PWSCF        :      2h36m CPU      2h38m WALL

 
   This run was terminated on:   1:52:13  27Feb2020            

=------------------------------------------------------------------------------=
   JOB DONE.
=------------------------------------------------------------------------------=
