begin
comment 255 atoms, species Al254Si
lattice     30.6664728719     0.0000000000     0.0000000000
lattice      0.0000000000    30.6664728719     0.0000000000
lattice      0.0000000000     0.0000000000    30.6664728719
atom      3.7734205541     0.0000000000     3.7734205541   Al  0.0 0.0    8.92099933e-05  1.99999985e-08  8.92449933e-05
atom      3.7734205541     3.7734205541     0.0000000000   Al  0.0 0.0    8.92799933e-05  8.92199933e-05  2.49999981e-08
atom      0.0000000000     3.7734205541     3.7734205541   Al  0.0 0.0   -1.49999989e-08  8.92049933e-05  8.92499933e-05
atom      0.0000000000     0.0000000000     7.6587093346   Al  0.0 0.0   -9.99999925e-09  9.99999925e-09  9.76399927e-05
atom      3.8344223020     3.8344223020     7.6727975123   Al  0.0 0.0   -1.61359988e-04 -1.61384988e-04 -4.04099970e-04
atom      3.8325731136     0.0000000000    11.5015955831   Al  0.0 0.0   -4.31299968e-05  4.99999962e-09 -1.89249986e-05
atom      0.0000000000     3.8325731136    11.5015955831   Al  0.0 0.0   -4.49999966e-08 -4.31199968e-05 -1.89049986e-05
atom      0.0000000000     0.0000000000    15.3332364360   Al  0.0 0.0    4.99999962e-09  2.49999981e-08 -1.49999989e-08
atom      3.8332999090     3.8332999090    15.3332364360   Al  0.0 0.0    6.54499951e-05  6.54849951e-05  1.99999985e-08
atom      3.8325731136     0.0000000000    19.1648772888   Al  0.0 0.0   -4.30999968e-05 -4.99999962e-09  1.89449986e-05
atom      0.0000000000     3.8325731136    19.1648772888   Al  0.0 0.0    2.49999981e-08 -4.31349968e-05  1.89049986e-05
atom      0.0000000000     0.0000000000    23.0077635373   Al  0.0 0.0    2.99999977e-08 -0.00000000e+00 -9.76449927e-05
atom      3.8344223020     3.8344223020    22.9936753596   Al  0.0 0.0   -1.61344988e-04 -1.61354988e-04  4.04114970e-04
atom      3.7734205541     0.0000000000    26.8930523178   Al  0.0 0.0    8.92399933e-05 -1.49999989e-08 -8.92399933e-05
atom      0.0000000000     3.7734205541    26.8930523178   Al  0.0 0.0    9.99999925e-09  8.92149933e-05 -8.92599933e-05
atom      0.0000000000     7.6587093346     0.0000000000   Al  0.0 0.0   -1.49999989e-08  9.77099927e-05  1.99999985e-08
atom      3.8325731136    11.5015955831     0.0000000000   Al  0.0 0.0   -4.31049968e-05 -1.89049986e-05  1.99999985e-08
atom      3.8344223020     7.6727975123     3.8344223020   Al  0.0 0.0   -1.61324988e-04 -4.04089970e-04 -1.61339988e-04
atom      0.0000000000    11.5015955831     3.8325731136   Al  0.0 0.0    1.49999989e-08 -1.88849986e-05 -4.31299968e-05
atom      0.0000000000     7.6547042933     7.6547042933   Al  0.0 0.0   -1.49999989e-08 -4.70334965e-04 -4.70319965e-04
atom      3.8323155153    11.4989245333     7.6671640812   Al  0.0 0.0   -1.19149991e-05  2.77499979e-06  3.85899971e-05
atom      3.8323155153     7.6671640812    11.4989245333   Al  0.0 0.0   -1.19499991e-05  3.86049971e-05  2.81999979e-06
atom      0.0000000000    11.4997371948    11.4997371948   Al  0.0 0.0    4.99999962e-09 -9.61049928e-05 -9.60799928e-05
atom      0.0000000000     7.6677743440    15.3332364360   Al  0.0 0.0   -9.99999925e-09  7.59149943e-05 -9.99999925e-09
atom      3.8351950971    11.5008319879    15.3332364360   Al  0.0 0.0    7.35499945e-05  2.22249983e-05  1.49999989e-08
atom      3.8323155153     7.6671640812    19.1675483386   Al  0.0 0.0   -1.19299991e-05  3.85799971e-05 -2.82999979e-06
atom      0.0000000000    11.4997371948    19.1667356771   Al  0.0 0.0    0.00000000e+00 -9.60899928e-05  9.61199928e-05
atom      0.0000000000     7.6547042933    23.0117685786   Al  0.0 0.0    1.99999985e-08 -4.70329965e-04  4.70344965e-04
atom      3.8323155153    11.4989245333    22.9993087907   Al  0.0 0.0   -1.19399991e-05  2.86499978e-06 -3.85749971e-05
atom      3.8344223020     7.6727975123    26.8320536366   Al  0.0 0.0   -1.61324988e-04 -4.04089970e-04  1.61309988e-04
atom      0.0000000000    11.5015955831    26.8338997583   Al  0.0 0.0   -4.99999962e-08 -1.88649986e-05  4.31049968e-05
atom      0.0000000000    15.3332364360     0.0000000000   Al  0.0 0.0   -1.49999989e-08  0.00000000e+00  2.49999981e-08
atom      3.8325731136    19.1648772888     0.0000000000   Al  0.0 0.0   -4.30949968e-05  1.89099986e-05  2.49999981e-08
atom      3.8332999090    15.3332364360     3.8332999090   Al  0.0 0.0    6.54999951e-05  4.99999962e-09  6.54549951e-05
atom      0.0000000000    19.1648772888     3.8325731136   Al  0.0 0.0    2.49999981e-08  1.89199986e-05 -4.31099968e-05
atom      0.0000000000    15.3332364360     7.6677743440   Al  0.0 0.0   -3.99999970e-08  9.99999925e-09  7.58999943e-05
atom      3.8323155153    19.1675483386     7.6671640812   Al  0.0 0.0   -1.19499991e-05 -2.84999979e-06  3.85749971e-05
atom      3.8351950971    15.3332364360    11.5008319879   Al  0.0 0.0    7.35449945e-05  9.99999925e-09  2.22049983e-05
atom      0.0000000000    19.1667356771    11.4997371948   Al  0.0 0.0   -2.99999977e-08  9.61299928e-05 -9.60949928e-05
atom      0.0000000000    15.3332364360    15.3332364360   Al  0.0 0.0   -9.99999925e-09  4.99999962e-09  4.99999962e-09
atom      3.8351950971    19.1656439506    15.3332364360   Al  0.0 0.0    7.35249945e-05 -2.22199983e-05  2.99999977e-08
atom      3.8351950971    15.3332364360    19.1656439506   Al  0.0 0.0    7.35649945e-05 -2.99999977e-08 -2.22299983e-05
atom      0.0000000000    19.1667356771    19.1667356771   Al  0.0 0.0   -0.00000000e+00  9.61099928e-05  9.61049928e-05
atom      0.0000000000    15.3332364360    22.9986985279   Al  0.0 0.0    1.49999989e-08 -2.99999977e-08 -7.58699943e-05
atom      3.8323155153    19.1675483386    22.9993087907   Al  0.0 0.0   -1.19149991e-05 -2.83999979e-06 -3.85649971e-05
atom      3.8332999090    15.3332364360    26.8331760295   Al  0.0 0.0    6.55149951e-05 -0.00000000e+00 -6.55399951e-05
atom      0.0000000000    19.1648772888    26.8338997583   Al  0.0 0.0    1.99999985e-08  1.89199986e-05  4.31099968e-05
atom      0.0000000000    23.0077635373     0.0000000000   Al  0.0 0.0    1.49999989e-08 -9.77099927e-05  1.49999989e-08
atom      3.7734205541    26.8930523178     0.0000000000   Al  0.0 0.0    8.92399933e-05 -8.92199933e-05 -0.00000000e+00
atom      3.8344223020    22.9936753596     3.8344223020   Al  0.0 0.0   -1.61339988e-04  4.04109970e-04 -1.61344988e-04
atom      0.0000000000    26.8930523178     3.7734205541   Al  0.0 0.0    2.49999981e-08 -8.92049933e-05  8.92749933e-05
atom      0.0000000000    23.0117685786     7.6547042933   Al  0.0 0.0   -1.49999989e-08  4.70314965e-04 -4.70369965e-04
atom      3.8344223020    26.8320536366     7.6727975123   Al  0.0 0.0   -1.61339988e-04  1.61334988e-04 -4.04089970e-04
atom      3.8323155153    22.9993087907    11.4989245333   Al  0.0 0.0   -1.19449991e-05 -3.85649971e-05  2.83499979e-06
atom      0.0000000000    26.8338997583    11.5015955831   Al  0.0 0.0    2.49999981e-08  4.31399968e-05 -1.88699986e-05
atom      0.0000000000    22.9986985279    15.3332364360   Al  0.0 0.0   -1.49999989e-08 -7.58949943e-05 -1.99999985e-08
atom      3.8332999090    26.8331760295    15.3332364360   Al  0.0 0.0    6.54599951e-05 -6.55099951e-05  1.49999989e-08
atom      3.8323155153    22.9993087907    19.1675483386   Al  0.0 0.0   -1.19249991e-05 -3.85499971e-05 -2.82499979e-06
atom      0.0000000000    26.8338997583    19.1648772888   Al  0.0 0.0    2.49999981e-08  4.31249968e-05  1.89299986e-05
atom      0.0000000000    23.0117685786    23.0117685786   Al  0.0 0.0    2.99999977e-08  4.70369965e-04  4.70374965e-04
atom      3.8344223020    26.8320536366    22.9936753596   Al  0.0 0.0   -1.61389988e-04  1.61309988e-04  4.04109970e-04
atom      3.8344223020    22.9936753596    26.8320536366   Al  0.0 0.0   -1.61319988e-04  4.04139970e-04  1.61284988e-04
atom      0.0000000000    26.8930523178    26.8930523178   Al  0.0 0.0    2.49999981e-08 -8.92099933e-05 -8.92799933e-05
atom      7.6587093346     0.0000000000     0.0000000000   Al  0.0 0.0    9.76599927e-05  9.99999925e-09 -4.99999962e-09
atom     11.5015955831     3.8325731136     0.0000000000   Al  0.0 0.0   -1.88999986e-05 -4.31199968e-05  5.49999959e-08
atom     11.5015955831     0.0000000000     3.8325731136   Al  0.0 0.0   -1.89099986e-05  1.99999985e-08 -4.31099968e-05
atom      7.6727975123     3.8344223020     3.8344223020   Al  0.0 0.0   -4.04069970e-04 -1.61359988e-04 -1.61349988e-04
atom      7.6547042933     0.0000000000     7.6547042933   Al  0.0 0.0   -4.70319965e-04  3.49999974e-08 -4.70369965e-04
atom     11.4989245333     3.8323155153     7.6671640812   Al  0.0 0.0    2.79999979e-06 -1.19599991e-05  3.85899971e-05
atom     11.4997371948     0.0000000000    11.4997371948   Al  0.0 0.0   -9.60749928e-05  2.49999981e-08 -9.61149928e-05
atom      7.6671640812     3.8323155153    11.4989245333   Al  0.0 0.0    3.85699971e-05 -1.19499991e-05  2.82499979e-06
atom      7.6677743440     0.0000000000    15.3332364360   Al  0.0 0.0    7.59399943e-05  3.49999974e-08  3.49999974e-08
atom     11.5008319879     3.8351950971    15.3332364360   Al  0.0 0.0    2.21649983e-05  7.35149945e-05 -1.99999985e-08
atom     11.4997371948     0.0000000000    19.1667356771   Al  0.0 0.0   -9.61049928e-05 -9.99999925e-09  9.61249928e-05
atom      7.6671640812     3.8323155153    19.1675483386   Al  0.0 0.0    3.85949971e-05 -1.19799991e-05 -2.81499979e-06
atom      7.6547042933     0.0000000000    23.0117685786   Al  0.0 0.0   -4.70324965e-04 -0.00000000e+00  4.70339965e-04
atom     11.4989245333     3.8323155153    22.9993087907   Al  0.0 0.0    2.77999979e-06 -1.19649991e-05 -3.85849971e-05
atom     11.5015955831     0.0000000000    26.8338997583   Al  0.0 0.0   -1.88899986e-05 -0.00000000e+00  4.31049968e-05
atom      7.6727975123     3.8344223020    26.8320536366   Al  0.0 0.0   -4.04084970e-04 -1.61334988e-04  1.61334988e-04
atom      7.6547042933     7.6547042933     0.0000000000   Al  0.0 0.0   -4.70344965e-04 -4.70364965e-04  1.49999989e-08
atom     11.4997371948    11.4997371948     0.0000000000   Al  0.0 0.0   -9.61149928e-05 -9.60799928e-05  4.99999962e-09
atom     11.4989245333     7.6671640812     3.8323155153   Al  0.0 0.0    2.82999979e-06  3.85949971e-05 -1.19649991e-05
atom      7.6671640812    11.4989245333     3.8323155153   Al  0.0 0.0    3.85999971e-05  2.83499979e-06 -1.19849991e-05
atom      7.6690500693     7.6690500693     7.6690500693   Al  0.0 0.0    1.51249989e-05  1.51299989e-05  1.51099989e-05
atom     11.5000898593    11.5000898593     7.6686575384   Al  0.0 0.0    1.03299992e-04  1.03259992e-04  1.54619988e-04
atom     11.5000898593     7.6686575384    11.5000898593   Al  0.0 0.0    1.03324992e-04  1.54644988e-04  1.03269992e-04
atom      7.6686575384    11.5000898593    11.5000898593   Al  0.0 0.0    1.54609988e-04  1.03289992e-04  1.03264992e-04
atom      7.6708808577     7.6708808577    15.3332364360   Al  0.0 0.0    1.62124988e-04  1.62114988e-04  2.49999981e-08
atom     11.5228413155    11.5228413155    15.3332364360   Al  0.0 0.0   -1.38039990e-04 -1.38054990e-04 -2.99999977e-08
atom     11.5000898593     7.6686575384    19.1663830126   Al  0.0 0.0    1.03294992e-04  1.54629988e-04 -1.03259992e-04
atom      7.6686575384    11.5000898593    19.1663830126   Al  0.0 0.0    1.54599988e-04  1.03319992e-04 -1.03244992e-04
atom      7.6690500693     7.6690500693    22.9974228026   Al  0.0 0.0    1.51149989e-05  1.50949989e-05 -1.51049989e-05
atom     11.5000898593    11.5000898593    22.9978153335   Al  0.0 0.0    1.03224992e-04  1.03324992e-04 -1.54659988e-04
atom     11.4989245333     7.6671640812    26.8341573566   Al  0.0 0.0    2.80999979e-06  3.85999971e-05  1.19649991e-05
atom      7.6671640812    11.4989245333    26.8341573566   Al  0.0 0.0    3.85849971e-05  2.85999979e-06  1.19349991e-05
atom      7.6677743440    15.3332364360     0.0000000000   Al  0.0 0.0    7.58749943e-05 -9.99999925e-09  0.00000000e+00
atom     11.4997371948    19.1667356771     0.0000000000   Al  0.0 0.0   -9.60799928e-05  9.60699928e-05  9.99999925e-09
atom     11.5008319879    15.3332364360     3.8351950971   Al  0.0 0.0    2.22299983e-05 -4.99999962e-09  7.34999945e-05
atom      7.6671640812    19.1675483386     3.8323155153   Al  0.0 0.0    3.85899971e-05 -2.82499979e-06 -1.19499991e-05
atom      7.6708808577    15.3332364360     7.6708808577   Al  0.0 0.0    1.62074988e-04 -4.99999962e-09  1.62094988e-04
atom     11.5000898593    19.1663830126     7.6686575384   Al  0.0 0.0    1.03319992e-04 -1.03269992e-04  1.54619988e-04
atom     11.5228413155    15.3332364360    11.5228413155   Al  0.0 0.0   -1.37994990e-04 -1.99999985e-08 -1.38054990e-04
atom      7.6686575384    19.1663830126    11.5000898593   Al  0.0 0.0    1.54584988e-04 -1.03229992e-04  1.03284992e-04
atom      7.6779249465    15.3332364360    15.3332364360   Al  0.0 0.0    8.93899933e-05 -4.49999966e-08  3.49999974e-08
atom     11.5228413155    19.1436315564    15.3332364360   Al  0.0 0.0   -1.38014990e-04  1.38054990e-04  1.49999989e-08
atom     11.5228413155    15.3332364360    19.1436315564   Al  0.0 0.0   -1.38039990e-04 -1.99999985e-08  1.38059990e-04
atom      7.6686575384    19.1663830126    19.1663830126   Al  0.0 0.0    1.54599988e-04 -1.03269992e-04 -1.03214992e-04
atom      7.6708808577    15.3332364360    22.9955920142   Al  0.0 0.0    1.62079988e-04 -5.99999955e-08 -1.62124988e-04
atom     11.5000898593    19.1663830126    22.9978153335   Al  0.0 0.0    1.03269992e-04 -1.03254992e-04 -1.54649988e-04
atom     11.5008319879    15.3332364360    26.8312777748   Al  0.0 0.0    2.21849983e-05 -3.49999974e-08 -7.34899945e-05
atom      7.6671640812    19.1675483386    26.8341573566   Al  0.0 0.0    3.85999971e-05 -2.84999979e-06  1.19899991e-05
atom      7.6547042933    23.0117685786     0.0000000000   Al  0.0 0.0   -4.70334965e-04  4.70369965e-04  1.49999989e-08
atom     11.5015955831    26.8338997583     0.0000000000   Al  0.0 0.0   -1.89099986e-05  4.30999968e-05  9.99999925e-09
atom     11.4989245333    22.9993087907     3.8323155153   Al  0.0 0.0    2.80499979e-06 -3.85649971e-05 -1.19399991e-05
atom      7.6727975123    26.8320536366     3.8344223020   Al  0.0 0.0   -4.04084970e-04  1.61299988e-04 -1.61379988e-04
atom      7.6690500693    22.9974228026     7.6690500693   Al  0.0 0.0    1.50949989e-05 -1.51449989e-05  1.50599989e-05
atom     11.4989245333    26.8341573566     7.6671640812   Al  0.0 0.0    2.86999978e-06  1.19799991e-05  3.85549971e-05
atom     11.5000898593    22.9978153335    11.5000898593   Al  0.0 0.0    1.03294992e-04 -1.54674988e-04  1.03284992e-04
atom      7.6671640812    26.8341573566    11.4989245333   Al  0.0 0.0    3.85799971e-05  1.19799991e-05  2.80499979e-06
atom      7.6708808577    22.9955920142    15.3332364360   Al  0.0 0.0    1.62104988e-04 -1.62114988e-04  4.49999966e-08
atom     11.5008319879    26.8312777748    15.3332364360   Al  0.0 0.0    2.22149983e-05 -7.34899945e-05  1.99999985e-08
atom     11.5000898593    22.9978153335    19.1663830126   Al  0.0 0.0    1.03249992e-04 -1.54644988e-04 -1.03229992e-04
atom      7.6671640812    26.8341573566    19.1675483386   Al  0.0 0.0    3.85699971e-05  1.19249991e-05 -2.80999979e-06
atom      7.6690500693    22.9974228026    22.9974228026   Al  0.0 0.0    1.51049989e-05 -1.50749989e-05 -1.51099989e-05
atom     11.4989245333    26.8341573566    22.9993087907   Al  0.0 0.0    2.79499979e-06  1.19449991e-05 -3.85899971e-05
atom     11.4989245333    22.9993087907    26.8341573566   Al  0.0 0.0    2.79999979e-06 -3.85649971e-05  1.19649991e-05
atom      7.6727975123    26.8320536366    26.8320536366   Al  0.0 0.0   -4.04109970e-04  1.61299988e-04  1.61294988e-04
atom     15.3332364360     0.0000000000     0.0000000000   Al  0.0 0.0   -5.99999955e-08  2.49999981e-08  1.99999985e-08
atom     19.1648772888     3.8325731136     0.0000000000   Al  0.0 0.0    1.89249986e-05 -4.31449968e-05  2.99999977e-08
atom     19.1648772888     0.0000000000     3.8325731136   Al  0.0 0.0    1.89349986e-05  5.99999955e-08 -4.30949968e-05
atom     15.3332364360     3.8332999090     3.8332999090   Al  0.0 0.0   -0.00000000e+00  6.54899951e-05  6.54449951e-05
atom     15.3332364360     0.0000000000     7.6677743440   Al  0.0 0.0   -1.49999989e-08 -4.99999962e-09  7.59299943e-05
atom     19.1675483386     3.8323155153     7.6671640812   Al  0.0 0.0   -2.81499979e-06 -1.19849991e-05  3.85849971e-05
atom     19.1667356771     0.0000000000    11.4997371948   Al  0.0 0.0    9.61499928e-05  1.49999989e-08 -9.61149928e-05
atom     15.3332364360     3.8351950971    11.5008319879   Al  0.0 0.0   -1.49999989e-08  7.35249945e-05  2.21849983e-05
atom     15.3332364360     0.0000000000    15.3332364360   Al  0.0 0.0   -3.99999970e-08  0.00000000e+00  1.49999989e-08
atom     19.1656439506     3.8351950971    15.3332364360   Al  0.0 0.0   -2.22099983e-05  7.34999945e-05 -7.49999944e-08
atom     19.1667356771     0.0000000000    19.1667356771   Al  0.0 0.0    9.61349928e-05  1.49999989e-08  9.61199928e-05
atom     15.3332364360     3.8351950971    19.1656439506   Al  0.0 0.0   -9.99999925e-09  7.34999945e-05 -2.21899983e-05
atom     15.3332364360     0.0000000000    22.9986985279   Al  0.0 0.0   -3.99999970e-08  9.99999925e-09 -7.59149943e-05
atom     19.1675483386     3.8323155153    22.9993087907   Al  0.0 0.0   -2.82499979e-06 -1.19799991e-05 -3.85699971e-05
atom     19.1648772888     0.0000000000    26.8338997583   Al  0.0 0.0    1.89899986e-05  9.99999925e-09  4.31049968e-05
atom     15.3332364360     3.8332999090    26.8331760295   Al  0.0 0.0   -4.99999962e-09  6.54749951e-05 -6.54699951e-05
atom     15.3332364360     7.6677743440     0.0000000000   Al  0.0 0.0   -5.99999955e-08  7.58599943e-05  3.49999974e-08
atom     19.1667356771    11.4997371948     0.0000000000   Al  0.0 0.0    9.61099928e-05 -9.60649928e-05  9.99999925e-09
atom     19.1675483386     7.6671640812     3.8323155153   Al  0.0 0.0   -2.82999979e-06  3.85999971e-05 -1.19799991e-05
atom     15.3332364360    11.5008319879     3.8351950971   Al  0.0 0.0   -1.99999985e-08  2.22099983e-05  7.34749945e-05
atom     15.3332364360     7.6708808577     7.6708808577   Al  0.0 0.0   -3.49999974e-08  1.62089988e-04  1.62169988e-04
atom     19.1663830126    11.5000898593     7.6686575384   Al  0.0 0.0   -1.03249992e-04  1.03279992e-04  1.54624988e-04
atom     19.1663830126     7.6686575384    11.5000898593   Al  0.0 0.0   -1.03264992e-04  1.54609988e-04  1.03264992e-04
atom     15.3332364360    11.5228413155    11.5228413155   Al  0.0 0.0   -2.99999977e-08 -1.38064990e-04 -1.38064990e-04
atom     15.3332364360     7.6779249465    15.3332364360   Al  0.0 0.0   -2.99999977e-08  8.94199933e-05 -2.49999981e-08
atom     19.1436315564    11.5228413155    15.3332364360   Al  0.0 0.0    1.38049990e-04 -1.38049990e-04 -1.49999989e-08
atom     19.1663830126     7.6686575384    19.1663830126   Al  0.0 0.0   -1.03259992e-04  1.54649988e-04 -1.03269992e-04
atom     15.3332364360    11.5228413155    19.1436315564   Al  0.0 0.0   -4.99999962e-09 -1.38009990e-04  1.38064990e-04
atom     15.3332364360     7.6708808577    22.9955920142   Al  0.0 0.0   -3.99999970e-08  1.62114988e-04 -1.62129988e-04
atom     19.1663830126    11.5000898593    22.9978153335   Al  0.0 0.0   -1.03254992e-04  1.03314992e-04 -1.54639988e-04
atom     19.1675483386     7.6671640812    26.8341573566   Al  0.0 0.0   -2.81499979e-06  3.85899971e-05  1.19399991e-05
atom     15.3332364360    11.5008319879    26.8312777748   Al  0.0 0.0   -1.99999985e-08  2.22249983e-05 -7.34949945e-05
atom     15.3332364360    15.3332364360     0.0000000000   Al  0.0 0.0   -9.99999925e-09 -0.00000000e+00  4.99999962e-09
atom     19.1667356771    19.1667356771     0.0000000000   Al  0.0 0.0    9.61299928e-05  9.60899928e-05 -1.99999985e-08
atom     19.1656439506    15.3332364360     3.8351950971   Al  0.0 0.0   -2.22199983e-05 -4.99999962e-09  7.34999945e-05
atom     15.3332364360    19.1656439506     3.8351950971   Al  0.0 0.0   -3.49999974e-08 -2.22449983e-05  7.35349945e-05
atom     15.3332364360    15.3332364360     7.6779249465   Al  0.0 0.0   -4.99999962e-09  1.99999985e-08  8.94549933e-05
atom     19.1663830126    19.1663830126     7.6686575384   Al  0.0 0.0   -1.03284992e-04 -1.03254992e-04  1.54604988e-04
atom     19.1436315564    15.3332364360    11.5228413155   Al  0.0 0.0    1.38029990e-04 -4.99999962e-09 -1.38064990e-04
atom     15.3332364360    19.1436315564    11.5228413155   Al  0.0 0.0   -2.99999977e-08  1.38039990e-04 -1.38084990e-04
atom     15.3332364360    15.3332364360    15.3332364360   Si  0.0 0.0    0.00000000e+00 -1.49999989e-08  9.99999925e-09
atom     19.1436315564    19.1436315564    15.3332364360   Al  0.0 0.0    1.38049990e-04  1.38044990e-04 -9.99999925e-09
atom     19.1436315564    15.3332364360    19.1436315564   Al  0.0 0.0    1.37984990e-04 -4.99999962e-09  1.38039990e-04
atom     15.3332364360    19.1436315564    19.1436315564   Al  0.0 0.0   -4.99999962e-09  1.38034990e-04  1.38049990e-04
atom     15.3332364360    15.3332364360    22.9885479254   Al  0.0 0.0   -1.99999985e-08 -4.49999966e-08 -8.94949933e-05
atom     19.1663830126    19.1663830126    22.9978153335   Al  0.0 0.0   -1.03209992e-04 -1.03249992e-04 -1.54684988e-04
atom     19.1656439506    15.3332364360    26.8312777748   Al  0.0 0.0   -2.22149983e-05 -4.49999966e-08 -7.34999945e-05
atom     15.3332364360    19.1656439506    26.8312777748   Al  0.0 0.0    0.00000000e+00 -2.22449983e-05 -7.34349945e-05
atom     15.3332364360    22.9986985279     0.0000000000   Al  0.0 0.0    4.99999962e-09 -7.58449943e-05  4.99999962e-09
atom     19.1648772888    26.8338997583     0.0000000000   Al  0.0 0.0    1.89499986e-05  4.30949968e-05  1.49999989e-08
atom     19.1675483386    22.9993087907     3.8323155153   Al  0.0 0.0   -2.80999979e-06 -3.85799971e-05 -1.19449991e-05
atom     15.3332364360    26.8331760295     3.8332999090   Al  0.0 0.0   -3.99999970e-08 -6.54899951e-05  6.54749951e-05
atom     15.3332364360    22.9955920142     7.6708808577   Al  0.0 0.0   -9.99999925e-09 -1.62129988e-04  1.62114988e-04
atom     19.1675483386    26.8341573566     7.6671640812   Al  0.0 0.0   -2.80999979e-06  1.19699991e-05  3.85849971e-05
atom     19.1663830126    22.9978153335    11.5000898593   Al  0.0 0.0   -1.03234992e-04 -1.54684988e-04  1.03289992e-04
atom     15.3332364360    26.8312777748    11.5008319879   Al  0.0 0.0   -1.49999989e-08 -7.34599945e-05  2.21599983e-05
atom     15.3332364360    22.9885479254    15.3332364360   Al  0.0 0.0   -4.99999962e-09 -8.94549933e-05 -4.99999962e-09
atom     19.1656439506    26.8312777748    15.3332364360   Al  0.0 0.0   -2.21799983e-05 -7.35099945e-05 -1.49999989e-08
atom     19.1663830126    22.9978153335    19.1663830126   Al  0.0 0.0   -1.03269992e-04 -1.54684988e-04 -1.03254992e-04
atom     15.3332364360    26.8312777748    19.1656439506   Al  0.0 0.0   -4.49999966e-08 -7.34899945e-05 -2.21949983e-05
atom     15.3332364360    22.9955920142    22.9955920142   Al  0.0 0.0   -3.49999974e-08 -1.62034988e-04 -1.62129988e-04
atom     19.1675483386    26.8341573566    22.9993087907   Al  0.0 0.0   -2.79999979e-06  1.19299991e-05 -3.85549971e-05
atom     19.1675483386    22.9993087907    26.8341573566   Al  0.0 0.0   -2.79999979e-06 -3.85649971e-05  1.19449991e-05
atom     15.3332364360    26.8331760295    26.8331760295   Al  0.0 0.0   -4.49999966e-08 -6.55199951e-05 -6.55049951e-05
atom     23.0077635373     0.0000000000     0.0000000000   Al  0.0 0.0   -9.76999927e-05  4.99999962e-09  1.49999989e-08
atom     26.8930523178     3.7734205541     0.0000000000   Al  0.0 0.0   -8.92299933e-05  8.92199933e-05 -4.99999962e-09
atom     26.8930523178     0.0000000000     3.7734205541   Al  0.0 0.0   -8.92249933e-05  1.99999985e-08  8.92399933e-05
atom     22.9936753596     3.8344223020     3.8344223020   Al  0.0 0.0    4.04099970e-04 -1.61324988e-04 -1.61359988e-04
atom     23.0117685786     0.0000000000     7.6547042933   Al  0.0 0.0    4.70324965e-04  1.49999989e-08 -4.70314965e-04
atom     26.8320536366     3.8344223020     7.6727975123   Al  0.0 0.0    1.61309988e-04 -1.61359988e-04 -4.04094970e-04
atom     26.8338997583     0.0000000000    11.5015955831   Al  0.0 0.0    4.31249968e-05  9.99999925e-09 -1.89199986e-05
atom     22.9993087907     3.8323155153    11.4989245333   Al  0.0 0.0   -3.85849971e-05 -1.19299991e-05  2.80499979e-06
atom     22.9986985279     0.0000000000    15.3332364360   Al  0.0 0.0   -7.59299943e-05  9.99999925e-09 -1.99999985e-08
atom     26.8331760295     3.8332999090    15.3332364360   Al  0.0 0.0   -6.55199951e-05  6.54749951e-05 -5.49999959e-08
atom     26.8338997583     0.0000000000    19.1648772888   Al  0.0 0.0    4.31549968e-05  9.99999925e-09  1.89199986e-05
atom     22.9993087907     3.8323155153    19.1675483386   Al  0.0 0.0   -3.85599971e-05 -1.19849991e-05 -2.85999979e-06
atom     23.0117685786     0.0000000000    23.0117685786   Al  0.0 0.0    4.70314965e-04 -4.99999962e-09  4.70409965e-04
atom     26.8320536366     3.8344223020    22.9936753596   Al  0.0 0.0    1.61344988e-04 -1.61369988e-04  4.04119970e-04
atom     26.8930523178     0.0000000000    26.8930523178   Al  0.0 0.0   -8.92249933e-05  4.99999962e-09 -8.92499933e-05
atom     22.9936753596     3.8344223020    26.8320536366   Al  0.0 0.0    4.04114970e-04 -1.61374988e-04  1.61314988e-04
atom     23.0117685786     7.6547042933     0.0000000000   Al  0.0 0.0    4.70364965e-04 -4.70354965e-04  2.49999981e-08
atom     26.8338997583    11.5015955831     0.0000000000   Al  0.0 0.0    4.31249968e-05 -1.89149986e-05 -2.99999977e-08
atom     26.8320536366     7.6727975123     3.8344223020   Al  0.0 0.0    1.61279988e-04 -4.04114970e-04 -1.61364988e-04
atom     22.9993087907    11.4989245333     3.8323155153   Al  0.0 0.0   -3.85799971e-05  2.82999979e-06 -1.19499991e-05
atom     22.9974228026     7.6690500693     7.6690500693   Al  0.0 0.0   -1.50649989e-05  1.50899989e-05  1.51699989e-05
atom     26.8341573566    11.4989245333     7.6671640812   Al  0.0 0.0    1.19499991e-05  2.79999979e-06  3.85849971e-05
atom     26.8341573566     7.6671640812    11.4989245333   Al  0.0 0.0    1.19049991e-05  3.85449971e-05  2.77999979e-06
atom     22.9978153335    11.5000898593    11.5000898593   Al  0.0 0.0   -1.54609988e-04  1.03244992e-04  1.03304992e-04
atom     22.9955920142     7.6708808577    15.3332364360   Al  0.0 0.0   -1.62114988e-04  1.62109988e-04 -7.99999940e-08
atom     26.8312777748    11.5008319879    15.3332364360   Al  0.0 0.0   -7.34949945e-05  2.22149983e-05 -1.99999985e-08
atom     26.8341573566     7.6671640812    19.1675483386   Al  0.0 0.0    1.19999991e-05  3.85749971e-05 -2.85999979e-06
atom     22.9978153335    11.5000898593    19.1663830126   Al  0.0 0.0   -1.54654988e-04  1.03274992e-04 -1.03234992e-04
atom     22.9974228026     7.6690500693    22.9974228026   Al  0.0 0.0   -1.51049989e-05  1.51399989e-05 -1.50649989e-05
atom     26.8341573566    11.4989245333    22.9993087907   Al  0.0 0.0    1.19549991e-05  2.82499979e-06 -3.85299971e-05
atom     26.8320536366     7.6727975123    26.8320536366   Al  0.0 0.0    1.61294988e-04 -4.04069970e-04  1.61319988e-04
atom     22.9993087907    11.4989245333    26.8341573566   Al  0.0 0.0   -3.85999971e-05  2.81999979e-06  1.19699991e-05
atom     22.9986985279    15.3332364360     0.0000000000   Al  0.0 0.0   -7.58549943e-05  9.99999925e-09  2.99999977e-08
atom     26.8338997583    19.1648772888     0.0000000000   Al  0.0 0.0    4.31449968e-05  1.88799986e-05 -2.99999977e-08
atom     26.8331760295    15.3332364360     3.8332999090   Al  0.0 0.0   -6.55299951e-05  4.99999962e-09  6.54749951e-05
atom     22.9993087907    19.1675483386     3.8323155153   Al  0.0 0.0   -3.85949971e-05 -2.85999979e-06 -1.19499991e-05
atom     22.9955920142    15.3332364360     7.6708808577   Al  0.0 0.0   -1.62069988e-04  2.49999981e-08  1.62149988e-04
atom     26.8341573566    19.1675483386     7.6671640812   Al  0.0 0.0    1.19149991e-05 -2.85499979e-06  3.85749971e-05
atom     26.8312777748    15.3332364360    11.5008319879   Al  0.0 0.0   -7.35299945e-05  3.49999974e-08  2.21999983e-05
atom     22.9978153335    19.1663830126    11.5000898593   Al  0.0 0.0   -1.54644988e-04 -1.03294992e-04  1.03249992e-04
atom     22.9885479254    15.3332364360    15.3332364360   Al  0.0 0.0   -8.94299933e-05  4.99999962e-09 -5.49999959e-08
atom     26.8312777748    19.1656439506    15.3332364360   Al  0.0 0.0   -7.35099945e-05 -2.22299983e-05 -2.99999977e-08
atom     26.8312777748    15.3332364360    19.1656439506   Al  0.0 0.0   -7.34649945e-05  9.99999925e-09 -2.22249983e-05
atom     22.9978153335    19.1663830126    19.1663830126   Al  0.0 0.0   -1.54659988e-04 -1.03249992e-04 -1.03279992e-04
atom     22.9955920142    15.3332364360    22.9955920142   Al  0.0 0.0   -1.62089988e-04 -2.99999977e-08 -1.62049988e-04
atom     26.8341573566    19.1675483386    22.9993087907   Al  0.0 0.0    1.20049991e-05 -2.85499979e-06 -3.85649971e-05
atom     26.8331760295    15.3332364360    26.8331760295   Al  0.0 0.0   -6.55149951e-05 -2.49999981e-08 -6.54999951e-05
atom     22.9993087907    19.1675483386    26.8341573566   Al  0.0 0.0   -3.85649971e-05 -2.86499978e-06  1.19549991e-05
atom     23.0117685786    23.0117685786     0.0000000000   Al  0.0 0.0    4.70339965e-04  4.70369965e-04  4.99999962e-09
atom     26.8930523178    26.8930523178     0.0000000000   Al  0.0 0.0   -8.92649933e-05 -8.92199933e-05  0.00000000e+00
atom     26.8320536366    22.9936753596     3.8344223020   Al  0.0 0.0    1.61314988e-04  4.04119970e-04 -1.61334988e-04
atom     22.9936753596    26.8320536366     3.8344223020   Al  0.0 0.0    4.04104970e-04  1.61329988e-04 -1.61319988e-04
atom     22.9974228026    22.9974228026     7.6690500693   Al  0.0 0.0   -1.51049989e-05 -1.51099989e-05  1.50999989e-05
atom     26.8320536366    26.8320536366     7.6727975123   Al  0.0 0.0    1.61319988e-04  1.61324988e-04 -4.04094970e-04
atom     26.8341573566    22.9993087907    11.4989245333   Al  0.0 0.0    1.19849991e-05 -3.85499971e-05  2.81499979e-06