
     Program PWSCF v.6.3 starts on 22Feb2020 at 14:12:30 

     This program is part of the open-source Quantum ESPRESSO suite
     for quantum simulation of materials; please cite
         "P. Giannozzi et al., J. Phys.:Condens. Matter 21 395502 (2009);
         "P. Giannozzi et al., J. Phys.:Condens. Matter 29 465901 (2017);
          URL http://www.quantum-espresso.org", 
     in publications or presentations arising from this work. More details at
     http://www.quantum-espresso.org/quote

 *** WARNING: using old-style file format, will disappear from next version ***

     Parallel version (MPI & OpenMP), running on      36 processor cores
     Number of MPI processes:                36
     Threads/MPI process:                     1

     MPI processes distributed on     1 nodes
     K-points division:     npool     =       4
     R & G space division:  proc/nbgrp/npool/nimage =       9
     Reading input from aiida.in
Warning: card &IONS ignored
Warning: card   !PRESS_CONV_THR = 0.05                 ! JUST FOR VOLUME RELAXATIONS ignored
Warning: card / ignored

     Current dimensions of program PWSCF are:
     Max number of different atomic species (ntypx) = 10
     Max number of k-points (npk) =  40000
     Max angular momentum in pseudopotentials (lmaxx) =  3
               file Mg.pbe-n-kjpaw_psl.0.3.0.UPF: wavefunction(s)  3S renormalized

     Subspace diagonalization in iterative solution of the eigenvalue problem:
     one sub-group per band group will be used
     scalapack distributed-memory algorithm (size of sub-group:  2*  2 procs)

 
     Parallelization info
     --------------------
     sticks:   dense  smooth     PW     G-vecs:    dense   smooth      PW
     Min         111      44     15                 4597     1156     231
     Max         112      45     16                 4600     1158     234
     Sum        1003     397    139                41385    10407    2093
 


     bravais-lattice index     =            0
     lattice parameter (alat)  =       6.0176  a.u.
     unit-cell volume          =     306.1469 (a.u.)^3
     number of atoms/cell      =            2
     number of atomic types    =            1
     number of electrons       =         4.00
     number of Kohn-Sham states=            6
     kinetic-energy cutoff     =      40.0000  Ry
     charge density cutoff     =     400.0000  Ry
     convergence threshold     =      1.0E-12
     mixing beta               =       0.4000
     number of iterations used =            8  local-TF  mixing
     Exchange-correlation      = SLA PW PBX PBC ( 1  4  3  4 0 0)

     celldm(1)=   6.017568  celldm(2)=   0.000000  celldm(3)=   0.000000
     celldm(4)=   0.000000  celldm(5)=   0.000000  celldm(6)=   0.000000

     crystal axes: (cart. coord. in units of alat)
               a(1) = (   1.000000   0.000000   0.000000 )  
               a(2) = (  -0.500000   0.866025   0.000000 )  
               a(3) = (   0.000000   0.000000   1.622319 )  

     reciprocal axes: (cart. coord. in units 2 pi/alat)
               b(1) = (  1.000000  0.577350  0.000000 )  
               b(2) = (  0.000000  1.154700  0.000000 )  
               b(3) = (  0.000000  0.000000  0.616402 )  


     PseudoPot. # 1 for Mg read from file:
     /users/aglensk/Dropbox/Albert/scripts/dotfiles/scripts/potentials/quantum_espresso/pseudo_SSSPefV1.1_alalloy/Mg.pbe-n-kjpaw_psl.0.3.0.UPF
     MD5 check sum: 24ecedc7f3e3cbe212e682f4413594e4
     Pseudo is Projector augmented-wave + core cor, Zval =  2.0
     Generated using "atomic" code by A. Dal Corso v.5.0.99 svn rev. 10869
     Shape of augmentation charge: PSQ
     Using radial grid of 1129 points,  4 beta functions with: 
                l(1) =   0
                l(2) =   0
                l(3) =   1
                l(4) =   1
     Q(r) pseudized with 0 coefficients 


     atomic species   valence    mass     pseudopotential
        Mg             2.00    24.30500     Mg( 1.00)

     No symmetry found


                                    s                        frac. trans.

      isym =  1     identity                                     

 cryst.   s( 1) = (     1          0          0      )
                  (     0          1          0      )
                  (     0          0          1      )

 cart.    s( 1) = (  1.0000000  0.0000000  0.0000000 )
                  (  0.0000000  1.0000000  0.0000000 )
                  (  0.0000000  0.0000000  1.0000000 )


   Cartesian axes

     site n.     atom                  positions (alat units)
         1           Mg  tau(   1) = (   0.1046782   0.2093567   0.0785086  )
         2           Mg  tau(   2) = (   0.2093567   0.1046782   0.2355260  )

   Crystallographic axes

     site n.     atom                  positions (cryst. coord.)
         1           Mg  tau(   1) = (  0.2255503  0.2417442  0.0483928  )
         2           Mg  tau(   2) = (  0.2697926  0.1208719  0.1451786  )

     number of k points=  7204  Methfessel-Paxton smearing, width (Ry)=  0.0441
                       cart. coord. in units 2pi/alat
        k(    1) = (   0.0000000   0.0000000   0.0000000), wk =   0.0001389
        k(    2) = (   0.0000000   0.0000000   0.0385251), wk =   0.0002778
        k(    3) = (   0.0000000   0.0000000   0.0770502), wk =   0.0002778
        k(    4) = (   0.0000000   0.0000000   0.1155753), wk =   0.0002778
        k(    5) = (   0.0000000   0.0000000   0.1541004), wk =   0.0002778
        k(    6) = (   0.0000000   0.0000000   0.1926255), wk =   0.0002778
        k(    7) = (   0.0000000   0.0000000   0.2311506), wk =   0.0002778
        k(    8) = (   0.0000000   0.0000000   0.2696757), wk =   0.0002778
        k(    9) = (   0.0000000   0.0000000  -0.3082008), wk =   0.0001389
        k(   10) = (   0.0000000   0.0384900   0.0000000), wk =   0.0002778
        k(   11) = (   0.0000000   0.0384900   0.0385251), wk =   0.0002778
        k(   12) = (   0.0000000   0.0384900   0.0770502), wk =   0.0002778
        k(   13) = (   0.0000000   0.0384900   0.1155753), wk =   0.0002778
        k(   14) = (   0.0000000   0.0384900   0.1541004), wk =   0.0002778
        k(   15) = (   0.0000000   0.0384900   0.1926255), wk =   0.0002778
        k(   16) = (   0.0000000   0.0384900   0.2311506), wk =   0.0002778
        k(   17) = (   0.0000000   0.0384900   0.2696757), wk =   0.0002778
        k(   18) = (   0.0000000   0.0384900  -0.3082008), wk =   0.0002778
        k(   19) = (   0.0000000   0.0384900  -0.2696757), wk =   0.0002778
        k(   20) = (   0.0000000   0.0384900  -0.2311506), wk =   0.0002778
        k(   21) = (   0.0000000   0.0384900  -0.1926255), wk =   0.0002778
        k(   22) = (   0.0000000   0.0384900  -0.1541004), wk =   0.0002778
        k(   23) = (   0.0000000   0.0384900  -0.1155753), wk =   0.0002778
        k(   24) = (   0.0000000   0.0384900  -0.0770502), wk =   0.0002778
        k(   25) = (   0.0000000   0.0384900  -0.0385251), wk =   0.0002778
        k(   26) = (   0.0000000   0.0769800   0.0000000), wk =   0.0002778
        k(   27) = (   0.0000000   0.0769800   0.0385251), wk =   0.0002778
        k(   28) = (   0.0000000   0.0769800   0.0770502), wk =   0.0002778
        k(   29) = (   0.0000000   0.0769800   0.1155753), wk =   0.0002778
        k(   30) = (   0.0000000   0.0769800   0.1541004), wk =   0.0002778
        k(   31) = (   0.0000000   0.0769800   0.1926255), wk =   0.0002778
        k(   32) = (   0.0000000   0.0769800   0.2311506), wk =   0.0002778
        k(   33) = (   0.0000000   0.0769800   0.2696757), wk =   0.0002778
        k(   34) = (   0.0000000   0.0769800  -0.3082008), wk =   0.0002778
        k(   35) = (   0.0000000   0.0769800  -0.2696757), wk =   0.0002778
        k(   36) = (   0.0000000   0.0769800  -0.2311506), wk =   0.0002778
        k(   37) = (   0.0000000   0.0769800  -0.1926255), wk =   0.0002778
        k(   38) = (   0.0000000   0.0769800  -0.1541004), wk =   0.0002778
        k(   39) = (   0.0000000   0.0769800  -0.1155753), wk =   0.0002778
        k(   40) = (   0.0000000   0.0769800  -0.0770502), wk =   0.0002778
        k(   41) = (   0.0000000   0.0769800  -0.0385251), wk =   0.0002778
        k(   42) = (   0.0000000   0.1154700   0.0000000), wk =   0.0002778
        k(   43) = (   0.0000000   0.1154700   0.0385251), wk =   0.0002778
        k(   44) = (   0.0000000   0.1154700   0.0770502), wk =   0.0002778
        k(   45) = (   0.0000000   0.1154700   0.1155753), wk =   0.0002778
        k(   46) = (   0.0000000   0.1154700   0.1541004), wk =   0.0002778
        k(   47) = (   0.0000000   0.1154700   0.1926255), wk =   0.0002778
        k(   48) = (   0.0000000   0.1154700   0.2311506), wk =   0.0002778
        k(   49) = (   0.0000000   0.1154700   0.2696757), wk =   0.0002778
        k(   50) = (   0.0000000   0.1154700  -0.3082008), wk =   0.0002778
        k(   51) = (   0.0000000   0.1154700  -0.2696757), wk =   0.0002778
        k(   52) = (   0.0000000   0.1154700  -0.2311506), wk =   0.0002778
        k(   53) = (   0.0000000   0.1154700  -0.1926255), wk =   0.0002778
        k(   54) = (   0.0000000   0.1154700  -0.1541004), wk =   0.0002778
        k(   55) = (   0.0000000   0.1154700  -0.1155753), wk =   0.0002778
        k(   56) = (   0.0000000   0.1154700  -0.0770502), wk =   0.0002778
        k(   57) = (   0.0000000   0.1154700  -0.0385251), wk =   0.0002778
        k(   58) = (   0.0000000   0.1539601   0.0000000), wk =   0.0002778
        k(   59) = (   0.0000000   0.1539601   0.0385251), wk =   0.0002778
        k(   60) = (   0.0000000   0.1539601   0.0770502), wk =   0.0002778
        k(   61) = (   0.0000000   0.1539601   0.1155753), wk =   0.0002778
        k(   62) = (   0.0000000   0.1539601   0.1541004), wk =   0.0002778
        k(   63) = (   0.0000000   0.1539601   0.1926255), wk =   0.0002778
        k(   64) = (   0.0000000   0.1539601   0.2311506), wk =   0.0002778
        k(   65) = (   0.0000000   0.1539601   0.2696757), wk =   0.0002778
        k(   66) = (   0.0000000   0.1539601  -0.3082008), wk =   0.0002778
        k(   67) = (   0.0000000   0.1539601  -0.2696757), wk =   0.0002778
        k(   68) = (   0.0000000   0.1539601  -0.2311506), wk =   0.0002778
        k(   69) = (   0.0000000   0.1539601  -0.1926255), wk =   0.0002778
        k(   70) = (   0.0000000   0.1539601  -0.1541004), wk =   0.0002778
        k(   71) = (   0.0000000   0.1539601  -0.1155753), wk =   0.0002778
        k(   72) = (   0.0000000   0.1539601  -0.0770502), wk =   0.0002778
        k(   73) = (   0.0000000   0.1539601  -0.0385251), wk =   0.0002778
        k(   74) = (   0.0000000   0.1924501   0.0000000), wk =   0.0002778
        k(   75) = (   0.0000000   0.1924501   0.0385251), wk =   0.0002778
        k(   76) = (   0.0000000   0.1924501   0.0770502), wk =   0.0002778
        k(   77) = (   0.0000000   0.1924501   0.1155753), wk =   0.0002778
        k(   78) = (   0.0000000   0.1924501   0.1541004), wk =   0.0002778
        k(   79) = (   0.0000000   0.1924501   0.1926255), wk =   0.0002778
        k(   80) = (   0.0000000   0.1924501   0.2311506), wk =   0.0002778
        k(   81) = (   0.0000000   0.1924501   0.2696757), wk =   0.0002778
        k(   82) = (   0.0000000   0.1924501  -0.3082008), wk =   0.0002778
        k(   83) = (   0.0000000   0.1924501  -0.2696757), wk =   0.0002778
        k(   84) = (   0.0000000   0.1924501  -0.2311506), wk =   0.0002778
        k(   85) = (   0.0000000   0.1924501  -0.1926255), wk =   0.0002778
        k(   86) = (   0.0000000   0.1924501  -0.1541004), wk =   0.0002778
        k(   87) = (   0.0000000   0.1924501  -0.1155753), wk =   0.0002778
        k(   88) = (   0.0000000   0.1924501  -0.0770502), wk =   0.0002778
        k(   89) = (   0.0000000   0.1924501  -0.0385251), wk =   0.0002778
        k(   90) = (   0.0000000   0.2309401   0.0000000), wk =   0.0002778
        k(   91) = (   0.0000000   0.2309401   0.0385251), wk =   0.0002778
        k(   92) = (   0.0000000   0.2309401   0.0770502), wk =   0.0002778
        k(   93) = (   0.0000000   0.2309401   0.1155753), wk =   0.0002778
        k(   94) = (   0.0000000   0.2309401   0.1541004), wk =   0.0002778
        k(   95) = (   0.0000000   0.2309401   0.1926255), wk =   0.0002778
        k(   96) = (   0.0000000   0.2309401   0.2311506), wk =   0.0002778
        k(   97) = (   0.0000000   0.2309401   0.2696757), wk =   0.0002778
        k(   98) = (   0.0000000   0.2309401  -0.3082008), wk =   0.0002778
        k(   99) = (   0.0000000   0.2309401  -0.2696757), wk =   0.0002778
        k(  100) = (   0.0000000   0.2309401  -0.2311506), wk =   0.0002778
        k(  101) = (   0.0000000   0.2309401  -0.1926255), wk =   0.0002778
        k(  102) = (   0.0000000   0.2309401  -0.1541004), wk =   0.0002778
        k(  103) = (   0.0000000   0.2309401  -0.1155753), wk =   0.0002778
        k(  104) = (   0.0000000   0.2309401  -0.0770502), wk =   0.0002778
        k(  105) = (   0.0000000   0.2309401  -0.0385251), wk =   0.0002778
        k(  106) = (   0.0000000   0.2694301   0.0000000), wk =   0.0002778
        k(  107) = (   0.0000000   0.2694301   0.0385251), wk =   0.0002778
        k(  108) = (   0.0000000   0.2694301   0.0770502), wk =   0.0002778
        k(  109) = (   0.0000000   0.2694301   0.1155753), wk =   0.0002778
        k(  110) = (   0.0000000   0.2694301   0.1541004), wk =   0.0002778
        k(  111) = (   0.0000000   0.2694301   0.1926255), wk =   0.0002778
        k(  112) = (   0.0000000   0.2694301   0.2311506), wk =   0.0002778
        k(  113) = (   0.0000000   0.2694301   0.2696757), wk =   0.0002778
        k(  114) = (   0.0000000   0.2694301  -0.3082008), wk =   0.0002778
        k(  115) = (   0.0000000   0.2694301  -0.2696757), wk =   0.0002778
        k(  116) = (   0.0000000   0.2694301  -0.2311506), wk =   0.0002778
        k(  117) = (   0.0000000   0.2694301  -0.1926255), wk =   0.0002778
        k(  118) = (   0.0000000   0.2694301  -0.1541004), wk =   0.0002778
        k(  119) = (   0.0000000   0.2694301  -0.1155753), wk =   0.0002778
        k(  120) = (   0.0000000   0.2694301  -0.0770502), wk =   0.0002778
        k(  121) = (   0.0000000   0.2694301  -0.0385251), wk =   0.0002778
        k(  122) = (   0.0000000   0.3079201   0.0000000), wk =   0.0002778
        k(  123) = (   0.0000000   0.3079201   0.0385251), wk =   0.0002778
        k(  124) = (   0.0000000   0.3079201   0.0770502), wk =   0.0002778
        k(  125) = (   0.0000000   0.3079201   0.1155753), wk =   0.0002778
        k(  126) = (   0.0000000   0.3079201   0.1541004), wk =   0.0002778
        k(  127) = (   0.0000000   0.3079201   0.1926255), wk =   0.0002778
        k(  128) = (   0.0000000   0.3079201   0.2311506), wk =   0.0002778
        k(  129) = (   0.0000000   0.3079201   0.2696757), wk =   0.0002778
        k(  130) = (   0.0000000   0.3079201  -0.3082008), wk =   0.0002778
        k(  131) = (   0.0000000   0.3079201  -0.2696757), wk =   0.0002778
        k(  132) = (   0.0000000   0.3079201  -0.2311506), wk =   0.0002778
        k(  133) = (   0.0000000   0.3079201  -0.1926255), wk =   0.0002778
        k(  134) = (   0.0000000   0.3079201  -0.1541004), wk =   0.0002778
        k(  135) = (   0.0000000   0.3079201  -0.1155753), wk =   0.0002778
        k(  136) = (   0.0000000   0.3079201  -0.0770502), wk =   0.0002778
        k(  137) = (   0.0000000   0.3079201  -0.0385251), wk =   0.0002778
        k(  138) = (   0.0000000   0.3464101   0.0000000), wk =   0.0002778
        k(  139) = (   0.0000000   0.3464101   0.0385251), wk =   0.0002778
        k(  140) = (   0.0000000   0.3464101   0.0770502), wk =   0.0002778
        k(  141) = (   0.0000000   0.3464101   0.1155753), wk =   0.0002778
        k(  142) = (   0.0000000   0.3464101   0.1541004), wk =   0.0002778
        k(  143) = (   0.0000000   0.3464101   0.1926255), wk =   0.0002778
        k(  144) = (   0.0000000   0.3464101   0.2311506), wk =   0.0002778
        k(  145) = (   0.0000000   0.3464101   0.2696757), wk =   0.0002778
        k(  146) = (   0.0000000   0.3464101  -0.3082008), wk =   0.0002778
        k(  147) = (   0.0000000   0.3464101  -0.2696757), wk =   0.0002778
        k(  148) = (   0.0000000   0.3464101  -0.2311506), wk =   0.0002778
        k(  149) = (   0.0000000   0.3464101  -0.1926255), wk =   0.0002778
        k(  150) = (   0.0000000   0.3464101  -0.1541004), wk =   0.0002778
        k(  151) = (   0.0000000   0.3464101  -0.1155753), wk =   0.0002778
        k(  152) = (   0.0000000   0.3464101  -0.0770502), wk =   0.0002778
        k(  153) = (   0.0000000   0.3464101  -0.0385251), wk =   0.0002778
        k(  154) = (   0.0000000   0.3849002   0.0000000), wk =   0.0002778
        k(  155) = (   0.0000000   0.3849002   0.0385251), wk =   0.0002778
        k(  156) = (   0.0000000   0.3849002   0.0770502), wk =   0.0002778
        k(  157) = (   0.0000000   0.3849002   0.1155753), wk =   0.0002778
        k(  158) = (   0.0000000   0.3849002   0.1541004), wk =   0.0002778
        k(  159) = (   0.0000000   0.3849002   0.1926255), wk =   0.0002778
        k(  160) = (   0.0000000   0.3849002   0.2311506), wk =   0.0002778
        k(  161) = (   0.0000000   0.3849002   0.2696757), wk =   0.0002778
        k(  162) = (   0.0000000   0.3849002  -0.3082008), wk =   0.0002778
        k(  163) = (   0.0000000   0.3849002  -0.2696757), wk =   0.0002778
        k(  164) = (   0.0000000   0.3849002  -0.2311506), wk =   0.0002778
        k(  165) = (   0.0000000   0.3849002  -0.1926255), wk =   0.0002778
        k(  166) = (   0.0000000   0.3849002  -0.1541004), wk =   0.0002778
        k(  167) = (   0.0000000   0.3849002  -0.1155753), wk =   0.0002778
        k(  168) = (   0.0000000   0.3849002  -0.0770502), wk =   0.0002778
        k(  169) = (   0.0000000   0.3849002  -0.0385251), wk =   0.0002778
        k(  170) = (   0.0000000   0.4233902   0.0000000), wk =   0.0002778
        k(  171) = (   0.0000000   0.4233902   0.0385251), wk =   0.0002778
        k(  172) = (   0.0000000   0.4233902   0.0770502), wk =   0.0002778
        k(  173) = (   0.0000000   0.4233902   0.1155753), wk =   0.0002778
        k(  174) = (   0.0000000   0.4233902   0.1541004), wk =   0.0002778
        k(  175) = (   0.0000000   0.4233902   0.1926255), wk =   0.0002778
        k(  176) = (   0.0000000   0.4233902   0.2311506), wk =   0.0002778
        k(  177) = (   0.0000000   0.4233902   0.2696757), wk =   0.0002778
        k(  178) = (   0.0000000   0.4233902  -0.3082008), wk =   0.0002778
        k(  179) = (   0.0000000   0.4233902  -0.2696757), wk =   0.0002778
        k(  180) = (   0.0000000   0.4233902  -0.2311506), wk =   0.0002778
        k(  181) = (   0.0000000   0.4233902  -0.1926255), wk =   0.0002778
        k(  182) = (   0.0000000   0.4233902  -0.1541004), wk =   0.0002778
        k(  183) = (   0.0000000   0.4233902  -0.1155753), wk =   0.0002778
        k(  184) = (   0.0000000   0.4233902  -0.0770502), wk =   0.0002778
        k(  185) = (   0.0000000   0.4233902  -0.0385251), wk =   0.0002778
        k(  186) = (   0.0000000   0.4618802   0.0000000), wk =   0.0002778
        k(  187) = (   0.0000000   0.4618802   0.0385251), wk =   0.0002778
        k(  188) = (   0.0000000   0.4618802   0.0770502), wk =   0.0002778
        k(  189) = (   0.0000000   0.4618802   0.1155753), wk =   0.0002778
        k(  190) = (   0.0000000   0.4618802   0.1541004), wk =   0.0002778
        k(  191) = (   0.0000000   0.4618802   0.1926255), wk =   0.0002778
        k(  192) = (   0.0000000   0.4618802   0.2311506), wk =   0.0002778
        k(  193) = (   0.0000000   0.4618802   0.2696757), wk =   0.0002778
        k(  194) = (   0.0000000   0.4618802  -0.3082008), wk =   0.0002778
        k(  195) = (   0.0000000   0.4618802  -0.2696757), wk =   0.0002778
        k(  196) = (   0.0000000   0.4618802  -0.2311506), wk =   0.0002778
        k(  197) = (   0.0000000   0.4618802  -0.1926255), wk =   0.0002778
        k(  198) = (   0.0000000   0.4618802  -0.1541004), wk =   0.0002778
        k(  199) = (   0.0000000   0.4618802  -0.1155753), wk =   0.0002778
        k(  200) = (   0.0000000   0.4618802  -0.0770502), wk =   0.0002778
        k(  201) = (   0.0000000   0.4618802  -0.0385251), wk =   0.0002778
        k(  202) = (   0.0000000   0.5003702   0.0000000), wk =   0.0002778
        k(  203) = (   0.0000000   0.5003702   0.0385251), wk =   0.0002778
        k(  204) = (   0.0000000   0.5003702   0.0770502), wk =   0.0002778
        k(  205) = (   0.0000000   0.5003702   0.1155753), wk =   0.0002778
        k(  206) = (   0.0000000   0.5003702   0.1541004), wk =   0.0002778
        k(  207) = (   0.0000000   0.5003702   0.1926255), wk =   0.0002778
        k(  208) = (   0.0000000   0.5003702   0.2311506), wk =   0.0002778
        k(  209) = (   0.0000000   0.5003702   0.2696757), wk =   0.0002778
        k(  210) = (   0.0000000   0.5003702  -0.3082008), wk =   0.0002778
        k(  211) = (   0.0000000   0.5003702  -0.2696757), wk =   0.0002778
        k(  212) = (   0.0000000   0.5003702  -0.2311506), wk =   0.0002778
        k(  213) = (   0.0000000   0.5003702  -0.1926255), wk =   0.0002778
        k(  214) = (   0.0000000   0.5003702  -0.1541004), wk =   0.0002778
        k(  215) = (   0.0000000   0.5003702  -0.1155753), wk =   0.0002778
        k(  216) = (   0.0000000   0.5003702  -0.0770502), wk =   0.0002778
        k(  217) = (   0.0000000   0.5003702  -0.0385251), wk =   0.0002778
        k(  218) = (   0.0000000   0.5388602   0.0000000), wk =   0.0002778
        k(  219) = (   0.0000000   0.5388602   0.0385251), wk =   0.0002778
        k(  220) = (   0.0000000   0.5388602   0.0770502), wk =   0.0002778
        k(  221) = (   0.0000000   0.5388602   0.1155753), wk =   0.0002778
        k(  222) = (   0.0000000   0.5388602   0.1541004), wk =   0.0002778
        k(  223) = (   0.0000000   0.5388602   0.1926255), wk =   0.0002778
        k(  224) = (   0.0000000   0.5388602   0.2311506), wk =   0.0002778
        k(  225) = (   0.0000000   0.5388602   0.2696757), wk =   0.0002778
        k(  226) = (   0.0000000   0.5388602  -0.3082008), wk =   0.0002778
        k(  227) = (   0.0000000   0.5388602  -0.2696757), wk =   0.0002778
        k(  228) = (   0.0000000   0.5388602  -0.2311506), wk =   0.0002778
        k(  229) = (   0.0000000   0.5388602  -0.1926255), wk =   0.0002778
        k(  230) = (   0.0000000   0.5388602  -0.1541004), wk =   0.0002778
        k(  231) = (   0.0000000   0.5388602  -0.1155753), wk =   0.0002778
        k(  232) = (   0.0000000   0.5388602  -0.0770502), wk =   0.0002778
        k(  233) = (   0.0000000   0.5388602  -0.0385251), wk =   0.0002778
        k(  234) = (   0.0000000  -0.5773502   0.0000000), wk =   0.0001389
        k(  235) = (   0.0000000  -0.5773502   0.0385251), wk =   0.0002778
        k(  236) = (   0.0000000  -0.5773502   0.0770502), wk =   0.0002778
        k(  237) = (   0.0000000  -0.5773502   0.1155753), wk =   0.0002778
        k(  238) = (   0.0000000  -0.5773502   0.1541004), wk =   0.0002778
        k(  239) = (   0.0000000  -0.5773502   0.1926255), wk =   0.0002778
        k(  240) = (   0.0000000  -0.5773502   0.2311506), wk =   0.0002778
        k(  241) = (   0.0000000  -0.5773502   0.2696757), wk =   0.0002778
        k(  242) = (   0.0000000  -0.5773502  -0.3082008), wk =   0.0001389
        k(  243) = (   0.0333333   0.0192450   0.0000000), wk =   0.0002778
        k(  244) = (   0.0333333   0.0192450   0.0385251), wk =   0.0002778
        k(  245) = (   0.0333333   0.0192450   0.0770502), wk =   0.0002778
        k(  246) = (   0.0333333   0.0192450   0.1155753), wk =   0.0002778
        k(  247) = (   0.0333333   0.0192450   0.1541004), wk =   0.0002778
        k(  248) = (   0.0333333   0.0192450   0.1926255), wk =   0.0002778
        k(  249) = (   0.0333333   0.0192450   0.2311506), wk =   0.0002778
        k(  250) = (   0.0333333   0.0192450   0.2696757), wk =   0.0002778
        k(  251) = (   0.0333333   0.0192450  -0.3082008), wk =   0.0002778
        k(  252) = (   0.0333333   0.0192450  -0.2696757), wk =   0.0002778
        k(  253) = (   0.0333333   0.0192450  -0.2311506), wk =   0.0002778
        k(  254) = (   0.0333333   0.0192450  -0.1926255), wk =   0.0002778
        k(  255) = (   0.0333333   0.0192450  -0.1541004), wk =   0.0002778
        k(  256) = (   0.0333333   0.0192450  -0.1155753), wk =   0.0002778
        k(  257) = (   0.0333333   0.0192450  -0.0770502), wk =   0.0002778
        k(  258) = (   0.0333333   0.0192450  -0.0385251), wk =   0.0002778
        k(  259) = (   0.0333333   0.0577350   0.0000000), wk =   0.0002778
        k(  260) = (   0.0333333   0.0577350   0.0385251), wk =   0.0002778
        k(  261) = (   0.0333333   0.0577350   0.0770502), wk =   0.0002778
        k(  262) = (   0.0333333   0.0577350   0.1155753), wk =   0.0002778
        k(  263) = (   0.0333333   0.0577350   0.1541004), wk =   0.0002778
        k(  264) = (   0.0333333   0.0577350   0.1926255), wk =   0.0002778
        k(  265) = (   0.0333333   0.0577350   0.2311506), wk =   0.0002778
        k(  266) = (   0.0333333   0.0577350   0.2696757), wk =   0.0002778
        k(  267) = (   0.0333333   0.0577350  -0.3082008), wk =   0.0002778
        k(  268) = (   0.0333333   0.0577350  -0.2696757), wk =   0.0002778
        k(  269) = (   0.0333333   0.0577350  -0.2311506), wk =   0.0002778
        k(  270) = (   0.0333333   0.0577350  -0.1926255), wk =   0.0002778
        k(  271) = (   0.0333333   0.0577350  -0.1541004), wk =   0.0002778
        k(  272) = (   0.0333333   0.0577350  -0.1155753), wk =   0.0002778
        k(  273) = (   0.0333333   0.0577350  -0.0770502), wk =   0.0002778
        k(  274) = (   0.0333333   0.0577350  -0.0385251), wk =   0.0002778
        k(  275) = (   0.0333333   0.0962250   0.0000000), wk =   0.0002778
        k(  276) = (   0.0333333   0.0962250   0.0385251), wk =   0.0002778
        k(  277) = (   0.0333333   0.0962250   0.0770502), wk =   0.0002778
        k(  278) = (   0.0333333   0.0962250   0.1155753), wk =   0.0002778
        k(  279) = (   0.0333333   0.0962250   0.1541004), wk =   0.0002778
        k(  280) = (   0.0333333   0.0962250   0.1926255), wk =   0.0002778
        k(  281) = (   0.0333333   0.0962250   0.2311506), wk =   0.0002778
        k(  282) = (   0.0333333   0.0962250   0.2696757), wk =   0.0002778
        k(  283) = (   0.0333333   0.0962250  -0.3082008), wk =   0.0002778
        k(  284) = (   0.0333333   0.0962250  -0.2696757), wk =   0.0002778
        k(  285) = (   0.0333333   0.0962250  -0.2311506), wk =   0.0002778
        k(  286) = (   0.0333333   0.0962250  -0.1926255), wk =   0.0002778
        k(  287) = (   0.0333333   0.0962250  -0.1541004), wk =   0.0002778
        k(  288) = (   0.0333333   0.0962250  -0.1155753), wk =   0.0002778
        k(  289) = (   0.0333333   0.0962250  -0.0770502), wk =   0.0002778
        k(  290) = (   0.0333333   0.0962250  -0.0385251), wk =   0.0002778
        k(  291) = (   0.0333333   0.1347151   0.0000000), wk =   0.0002778
        k(  292) = (   0.0333333   0.1347151   0.0385251), wk =   0.0002778
        k(  293) = (   0.0333333   0.1347151   0.0770502), wk =   0.0002778
        k(  294) = (   0.0333333   0.1347151   0.1155753), wk =   0.0002778
        k(  295) = (   0.0333333   0.1347151   0.1541004), wk =   0.0002778
        k(  296) = (   0.0333333   0.1347151   0.1926255), wk =   0.0002778
        k(  297) = (   0.0333333   0.1347151   0.2311506), wk =   0.0002778
        k(  298) = (   0.0333333   0.1347151   0.2696757), wk =   0.0002778
        k(  299) = (   0.0333333   0.1347151  -0.3082008), wk =   0.0002778
        k(  300) = (   0.0333333   0.1347151  -0.2696757), wk =   0.0002778
        k(  301) = (   0.0333333   0.1347151  -0.2311506), wk =   0.0002778
        k(  302) = (   0.0333333   0.1347151  -0.1926255), wk =   0.0002778
        k(  303) = (   0.0333333   0.1347151  -0.1541004), wk =   0.0002778
        k(  304) = (   0.0333333   0.1347151  -0.1155753), wk =   0.0002778
        k(  305) = (   0.0333333   0.1347151  -0.0770502), wk =   0.0002778
        k(  306) = (   0.0333333   0.1347151  -0.0385251), wk =   0.0002778
        k(  307) = (   0.0333333   0.1732051   0.0000000), wk =   0.0002778
        k(  308) = (   0.0333333   0.1732051   0.0385251), wk =   0.0002778
        k(  309) = (   0.0333333   0.1732051   0.0770502), wk =   0.0002778
        k(  310) = (   0.0333333   0.1732051   0.1155753), wk =   0.0002778
        k(  311) = (   0.0333333   0.1732051   0.1541004), wk =   0.0002778
        k(  312) = (   0.0333333   0.1732051   0.1926255), wk =   0.0002778
        k(  313) = (   0.0333333   0.1732051   0.2311506), wk =   0.0002778
        k(  314) = (   0.0333333   0.1732051   0.2696757), wk =   0.0002778
        k(  315) = (   0.0333333   0.1732051  -0.3082008), wk =   0.0002778
        k(  316) = (   0.0333333   0.1732051  -0.2696757), wk =   0.0002778
        k(  317) = (   0.0333333   0.1732051  -0.2311506), wk =   0.0002778
        k(  318) = (   0.0333333   0.1732051  -0.1926255), wk =   0.0002778
        k(  319) = (   0.0333333   0.1732051  -0.1541004), wk =   0.0002778
        k(  320) = (   0.0333333   0.1732051  -0.1155753), wk =   0.0002778
        k(  321) = (   0.0333333   0.1732051  -0.0770502), wk =   0.0002778
        k(  322) = (   0.0333333   0.1732051  -0.0385251), wk =   0.0002778
        k(  323) = (   0.0333333   0.2116951   0.0000000), wk =   0.0002778
        k(  324) = (   0.0333333   0.2116951   0.0385251), wk =   0.0002778
        k(  325) = (   0.0333333   0.2116951   0.0770502), wk =   0.0002778
        k(  326) = (   0.0333333   0.2116951   0.1155753), wk =   0.0002778
        k(  327) = (   0.0333333   0.2116951   0.1541004), wk =   0.0002778
        k(  328) = (   0.0333333   0.2116951   0.1926255), wk =   0.0002778
        k(  329) = (   0.0333333   0.2116951   0.2311506), wk =   0.0002778
        k(  330) = (   0.0333333   0.2116951   0.2696757), wk =   0.0002778
        k(  331) = (   0.0333333   0.2116951  -0.3082008), wk =   0.0002778
        k(  332) = (   0.0333333   0.2116951  -0.2696757), wk =   0.0002778
        k(  333) = (   0.0333333   0.2116951  -0.2311506), wk =   0.0002778
        k(  334) = (   0.0333333   0.2116951  -0.1926255), wk =   0.0002778
        k(  335) = (   0.0333333   0.2116951  -0.1541004), wk =   0.0002778
        k(  336) = (   0.0333333   0.2116951  -0.1155753), wk =   0.0002778
        k(  337) = (   0.0333333   0.2116951  -0.0770502), wk =   0.0002778
        k(  338) = (   0.0333333   0.2116951  -0.0385251), wk =   0.0002778
        k(  339) = (   0.0333333   0.2501851   0.0000000), wk =   0.0002778
        k(  340) = (   0.0333333   0.2501851   0.0385251), wk =   0.0002778
        k(  341) = (   0.0333333   0.2501851   0.0770502), wk =   0.0002778
        k(  342) = (   0.0333333   0.2501851   0.1155753), wk =   0.0002778
        k(  343) = (   0.0333333   0.2501851   0.1541004), wk =   0.0002778
        k(  344) = (   0.0333333   0.2501851   0.1926255), wk =   0.0002778
        k(  345) = (   0.0333333   0.2501851   0.2311506), wk =   0.0002778
        k(  346) = (   0.0333333   0.2501851   0.2696757), wk =   0.0002778
        k(  347) = (   0.0333333   0.2501851  -0.3082008), wk =   0.0002778
        k(  348) = (   0.0333333   0.2501851  -0.2696757), wk =   0.0002778
        k(  349) = (   0.0333333   0.2501851  -0.2311506), wk =   0.0002778
        k(  350) = (   0.0333333   0.2501851  -0.1926255), wk =   0.0002778
        k(  351) = (   0.0333333   0.2501851  -0.1541004), wk =   0.0002778
        k(  352) = (   0.0333333   0.2501851  -0.1155753), wk =   0.0002778
        k(  353) = (   0.0333333   0.2501851  -0.0770502), wk =   0.0002778
        k(  354) = (   0.0333333   0.2501851  -0.0385251), wk =   0.0002778
        k(  355) = (   0.0333333   0.2886751   0.0000000), wk =   0.0002778
        k(  356) = (   0.0333333   0.2886751   0.0385251), wk =   0.0002778
        k(  357) = (   0.0333333   0.2886751   0.0770502), wk =   0.0002778
        k(  358) = (   0.0333333   0.2886751   0.1155753), wk =   0.0002778
        k(  359) = (   0.0333333   0.2886751   0.1541004), wk =   0.0002778
        k(  360) = (   0.0333333   0.2886751   0.1926255), wk =   0.0002778
        k(  361) = (   0.0333333   0.2886751   0.2311506), wk =   0.0002778
        k(  362) = (   0.0333333   0.2886751   0.2696757), wk =   0.0002778
        k(  363) = (   0.0333333   0.2886751  -0.3082008), wk =   0.0002778
        k(  364) = (   0.0333333   0.2886751  -0.2696757), wk =   0.0002778
        k(  365) = (   0.0333333   0.2886751  -0.2311506), wk =   0.0002778
        k(  366) = (   0.0333333   0.2886751  -0.1926255), wk =   0.0002778
        k(  367) = (   0.0333333   0.2886751  -0.1541004), wk =   0.0002778
        k(  368) = (   0.0333333   0.2886751  -0.1155753), wk =   0.0002778
        k(  369) = (   0.0333333   0.2886751  -0.0770502), wk =   0.0002778
        k(  370) = (   0.0333333   0.2886751  -0.0385251), wk =   0.0002778
        k(  371) = (   0.0333333   0.3271651   0.0000000), wk =   0.0002778
        k(  372) = (   0.0333333   0.3271651   0.0385251), wk =   0.0002778
        k(  373) = (   0.0333333   0.3271651   0.0770502), wk =   0.0002778
        k(  374) = (   0.0333333   0.3271651   0.1155753), wk =   0.0002778
        k(  375) = (   0.0333333   0.3271651   0.1541004), wk =   0.0002778
        k(  376) = (   0.0333333   0.3271651   0.1926255), wk =   0.0002778
        k(  377) = (   0.0333333   0.3271651   0.2311506), wk =   0.0002778
        k(  378) = (   0.0333333   0.3271651   0.2696757), wk =   0.0002778
        k(  379) = (   0.0333333   0.3271651  -0.3082008), wk =   0.0002778
        k(  380) = (   0.0333333   0.3271651  -0.2696757), wk =   0.0002778
        k(  381) = (   0.0333333   0.3271651  -0.2311506), wk =   0.0002778
        k(  382) = (   0.0333333   0.3271651  -0.1926255), wk =   0.0002778
        k(  383) = (   0.0333333   0.3271651  -0.1541004), wk =   0.0002778
        k(  384) = (   0.0333333   0.3271651  -0.1155753), wk =   0.0002778
        k(  385) = (   0.0333333   0.3271651  -0.0770502), wk =   0.0002778
        k(  386) = (   0.0333333   0.3271651  -0.0385251), wk =   0.0002778
        k(  387) = (   0.0333333   0.3656551   0.0000000), wk =   0.0002778
        k(  388) = (   0.0333333   0.3656551   0.0385251), wk =   0.0002778
        k(  389) = (   0.0333333   0.3656551   0.0770502), wk =   0.0002778
        k(  390) = (   0.0333333   0.3656551   0.1155753), wk =   0.0002778
        k(  391) = (   0.0333333   0.3656551   0.1541004), wk =   0.0002778
        k(  392) = (   0.0333333   0.3656551   0.1926255), wk =   0.0002778
        k(  393) = (   0.0333333   0.3656551   0.2311506), wk =   0.0002778
        k(  394) = (   0.0333333   0.3656551   0.2696757), wk =   0.0002778
        k(  395) = (   0.0333333   0.3656551  -0.3082008), wk =   0.0002778
        k(  396) = (   0.0333333   0.3656551  -0.2696757), wk =   0.0002778
        k(  397) = (   0.0333333   0.3656551  -0.2311506), wk =   0.0002778
        k(  398) = (   0.0333333   0.3656551  -0.1926255), wk =   0.0002778
        k(  399) = (   0.0333333   0.3656551  -0.1541004), wk =   0.0002778
        k(  400) = (   0.0333333   0.3656551  -0.1155753), wk =   0.0002778
        k(  401) = (   0.0333333   0.3656551  -0.0770502), wk =   0.0002778
        k(  402) = (   0.0333333   0.3656551  -0.0385251), wk =   0.0002778
        k(  403) = (   0.0333333   0.4041452   0.0000000), wk =   0.0002778
        k(  404) = (   0.0333333   0.4041452   0.0385251), wk =   0.0002778
        k(  405) = (   0.0333333   0.4041452   0.0770502), wk =   0.0002778
        k(  406) = (   0.0333333   0.4041452   0.1155753), wk =   0.0002778
        k(  407) = (   0.0333333   0.4041452   0.1541004), wk =   0.0002778
        k(  408) = (   0.0333333   0.4041452   0.1926255), wk =   0.0002778
        k(  409) = (   0.0333333   0.4041452   0.2311506), wk =   0.0002778
        k(  410) = (   0.0333333   0.4041452   0.2696757), wk =   0.0002778
        k(  411) = (   0.0333333   0.4041452  -0.3082008), wk =   0.0002778
        k(  412) = (   0.0333333   0.4041452  -0.2696757), wk =   0.0002778
        k(  413) = (   0.0333333   0.4041452  -0.2311506), wk =   0.0002778
        k(  414) = (   0.0333333   0.4041452  -0.1926255), wk =   0.0002778
        k(  415) = (   0.0333333   0.4041452  -0.1541004), wk =   0.0002778
        k(  416) = (   0.0333333   0.4041452  -0.1155753), wk =   0.0002778
        k(  417) = (   0.0333333   0.4041452  -0.0770502), wk =   0.0002778
        k(  418) = (   0.0333333   0.4041452  -0.0385251), wk =   0.0002778
        k(  419) = (   0.0333333   0.4426352   0.0000000), wk =   0.0002778
        k(  420) = (   0.0333333   0.4426352   0.0385251), wk =   0.0002778
        k(  421) = (   0.0333333   0.4426352   0.0770502), wk =   0.0002778
        k(  422) = (   0.0333333   0.4426352   0.1155753), wk =   0.0002778
        k(  423) = (   0.0333333   0.4426352   0.1541004), wk =   0.0002778
        k(  424) = (   0.0333333   0.4426352   0.1926255), wk =   0.0002778
        k(  425) = (   0.0333333   0.4426352   0.2311506), wk =   0.0002778
        k(  426) = (   0.0333333   0.4426352   0.2696757), wk =   0.0002778
        k(  427) = (   0.0333333   0.4426352  -0.3082008), wk =   0.0002778
        k(  428) = (   0.0333333   0.4426352  -0.2696757), wk =   0.0002778
        k(  429) = (   0.0333333   0.4426352  -0.2311506), wk =   0.0002778
        k(  430) = (   0.0333333   0.4426352  -0.1926255), wk =   0.0002778
        k(  431) = (   0.0333333   0.4426352  -0.1541004), wk =   0.0002778
        k(  432) = (   0.0333333   0.4426352  -0.1155753), wk =   0.0002778
        k(  433) = (   0.0333333   0.4426352  -0.0770502), wk =   0.0002778
        k(  434) = (   0.0333333   0.4426352  -0.0385251), wk =   0.0002778
        k(  435) = (   0.0333333   0.4811252   0.0000000), wk =   0.0002778
        k(  436) = (   0.0333333   0.4811252   0.0385251), wk =   0.0002778
        k(  437) = (   0.0333333   0.4811252   0.0770502), wk =   0.0002778
        k(  438) = (   0.0333333   0.4811252   0.1155753), wk =   0.0002778
        k(  439) = (   0.0333333   0.4811252   0.1541004), wk =   0.0002778
        k(  440) = (   0.0333333   0.4811252   0.1926255), wk =   0.0002778
        k(  441) = (   0.0333333   0.4811252   0.2311506), wk =   0.0002778
        k(  442) = (   0.0333333   0.4811252   0.2696757), wk =   0.0002778
        k(  443) = (   0.0333333   0.4811252  -0.3082008), wk =   0.0002778
        k(  444) = (   0.0333333   0.4811252  -0.2696757), wk =   0.0002778
        k(  445) = (   0.0333333   0.4811252  -0.2311506), wk =   0.0002778
        k(  446) = (   0.0333333   0.4811252  -0.1926255), wk =   0.0002778
        k(  447) = (   0.0333333   0.4811252  -0.1541004), wk =   0.0002778
        k(  448) = (   0.0333333   0.4811252  -0.1155753), wk =   0.0002778
        k(  449) = (   0.0333333   0.4811252  -0.0770502), wk =   0.0002778
        k(  450) = (   0.0333333   0.4811252  -0.0385251), wk =   0.0002778
        k(  451) = (   0.0333333   0.5196152   0.0000000), wk =   0.0002778
        k(  452) = (   0.0333333   0.5196152   0.0385251), wk =   0.0002778
        k(  453) = (   0.0333333   0.5196152   0.0770502), wk =   0.0002778
        k(  454) = (   0.0333333   0.5196152   0.1155753), wk =   0.0002778
        k(  455) = (   0.0333333   0.5196152   0.1541004), wk =   0.0002778
        k(  456) = (   0.0333333   0.5196152   0.1926255), wk =   0.0002778
        k(  457) = (   0.0333333   0.5196152   0.2311506), wk =   0.0002778
        k(  458) = (   0.0333333   0.5196152   0.2696757), wk =   0.0002778
        k(  459) = (   0.0333333   0.5196152  -0.3082008), wk =   0.0002778
        k(  460) = (   0.0333333   0.5196152  -0.2696757), wk =   0.0002778
        k(  461) = (   0.0333333   0.5196152  -0.2311506), wk =   0.0002778
        k(  462) = (   0.0333333   0.5196152  -0.1926255), wk =   0.0002778
        k(  463) = (   0.0333333   0.5196152  -0.1541004), wk =   0.0002778
        k(  464) = (   0.0333333   0.5196152  -0.1155753), wk =   0.0002778
        k(  465) = (   0.0333333   0.5196152  -0.0770502), wk =   0.0002778
        k(  466) = (   0.0333333   0.5196152  -0.0385251), wk =   0.0002778
        k(  467) = (   0.0333333   0.5581052   0.0000000), wk =   0.0002778
        k(  468) = (   0.0333333   0.5581052   0.0385251), wk =   0.0002778
        k(  469) = (   0.0333333   0.5581052   0.0770502), wk =   0.0002778
        k(  470) = (   0.0333333   0.5581052   0.1155753), wk =   0.0002778
        k(  471) = (   0.0333333   0.5581052   0.1541004), wk =   0.0002778
        k(  472) = (   0.0333333   0.5581052   0.1926255), wk =   0.0002778
        k(  473) = (   0.0333333   0.5581052   0.2311506), wk =   0.0002778
        k(  474) = (   0.0333333   0.5581052   0.2696757), wk =   0.0002778
        k(  475) = (   0.0333333   0.5581052  -0.3082008), wk =   0.0002778
        k(  476) = (   0.0333333   0.5581052  -0.2696757), wk =   0.0002778
        k(  477) = (   0.0333333   0.5581052  -0.2311506), wk =   0.0002778
        k(  478) = (   0.0333333   0.5581052  -0.1926255), wk =   0.0002778
        k(  479) = (   0.0333333   0.5581052  -0.1541004), wk =   0.0002778
        k(  480) = (   0.0333333   0.5581052  -0.1155753), wk =   0.0002778
        k(  481) = (   0.0333333   0.5581052  -0.0770502), wk =   0.0002778
        k(  482) = (   0.0333333   0.5581052  -0.0385251), wk =   0.0002778
        k(  483) = (   0.0333333  -0.5581052   0.0000000), wk =   0.0002778
        k(  484) = (   0.0333333  -0.5581052   0.0385251), wk =   0.0002778
        k(  485) = (   0.0333333  -0.5581052   0.0770502), wk =   0.0002778
        k(  486) = (   0.0333333  -0.5581052   0.1155753), wk =   0.0002778
        k(  487) = (   0.0333333  -0.5581052   0.1541004), wk =   0.0002778
        k(  488) = (   0.0333333  -0.5581052   0.1926255), wk =   0.0002778
        k(  489) = (   0.0333333  -0.5581052   0.2311506), wk =   0.0002778
        k(  490) = (   0.0333333  -0.5581052   0.2696757), wk =   0.0002778
        k(  491) = (   0.0333333  -0.5581052  -0.3082008), wk =   0.0002778
        k(  492) = (   0.0333333  -0.5581052  -0.2696757), wk =   0.0002778
        k(  493) = (   0.0333333  -0.5581052  -0.2311506), wk =   0.0002778
        k(  494) = (   0.0333333  -0.5581052  -0.1926255), wk =   0.0002778
        k(  495) = (   0.0333333  -0.5581052  -0.1541004), wk =   0.0002778
        k(  496) = (   0.0333333  -0.5581052  -0.1155753), wk =   0.0002778
        k(  497) = (   0.0333333  -0.5581052  -0.0770502), wk =   0.0002778
        k(  498) = (   0.0333333  -0.5581052  -0.0385251), wk =   0.0002778
        k(  499) = (   0.0333333  -0.5196152   0.0000000), wk =   0.0002778
        k(  500) = (   0.0333333  -0.5196152   0.0385251), wk =   0.0002778
        k(  501) = (   0.0333333  -0.5196152   0.0770502), wk =   0.0002778
        k(  502) = (   0.0333333  -0.5196152   0.1155753), wk =   0.0002778
        k(  503) = (   0.0333333  -0.5196152   0.1541004), wk =   0.0002778
        k(  504) = (   0.0333333  -0.5196152   0.1926255), wk =   0.0002778
        k(  505) = (   0.0333333  -0.5196152   0.2311506), wk =   0.0002778
        k(  506) = (   0.0333333  -0.5196152   0.2696757), wk =   0.0002778
        k(  507) = (   0.0333333  -0.5196152  -0.3082008), wk =   0.0002778
        k(  508) = (   0.0333333  -0.5196152  -0.2696757), wk =   0.0002778
        k(  509) = (   0.0333333  -0.5196152  -0.2311506), wk =   0.0002778
        k(  510) = (   0.0333333  -0.5196152  -0.1926255), wk =   0.0002778
        k(  511) = (   0.0333333  -0.5196152  -0.1541004), wk =   0.0002778
        k(  512) = (   0.0333333  -0.5196152  -0.1155753), wk =   0.0002778
        k(  513) = (   0.0333333  -0.5196152  -0.0770502), wk =   0.0002778
        k(  514) = (   0.0333333  -0.5196152  -0.0385251), wk =   0.0002778
        k(  515) = (   0.0333333  -0.4811252   0.0000000), wk =   0.0002778
        k(  516) = (   0.0333333  -0.4811252   0.0385251), wk =   0.0002778
        k(  517) = (   0.0333333  -0.4811252   0.0770502), wk =   0.0002778
        k(  518) = (   0.0333333  -0.4811252   0.1155753), wk =   0.0002778
        k(  519) = (   0.0333333  -0.4811252   0.1541004), wk =   0.0002778
        k(  520) = (   0.0333333  -0.4811252   0.1926255), wk =   0.0002778
        k(  521) = (   0.0333333  -0.4811252   0.2311506), wk =   0.0002778
        k(  522) = (   0.0333333  -0.4811252   0.2696757), wk =   0.0002778
        k(  523) = (   0.0333333  -0.4811252  -0.3082008), wk =   0.0002778
        k(  524) = (   0.0333333  -0.4811252  -0.2696757), wk =   0.0002778
        k(  525) = (   0.0333333  -0.4811252  -0.2311506), wk =   0.0002778
        k(  526) = (   0.0333333  -0.4811252  -0.1926255), wk =   0.0002778
        k(  527) = (   0.0333333  -0.4811252  -0.1541004), wk =   0.0002778
        k(  528) = (   0.0333333  -0.4811252  -0.1155753), wk =   0.0002778
        k(  529) = (   0.0333333  -0.4811252  -0.0770502), wk =   0.0002778
        k(  530) = (   0.0333333  -0.4811252  -0.0385251), wk =   0.0002778
        k(  531) = (   0.0333333  -0.4426352   0.0000000), wk =   0.0002778
        k(  532) = (   0.0333333  -0.4426352   0.0385251), wk =   0.0002778
        k(  533) = (   0.0333333  -0.4426352   0.0770502), wk =   0.0002778
        k(  534) = (   0.0333333  -0.4426352   0.1155753), wk =   0.0002778
        k(  535) = (   0.0333333  -0.4426352   0.1541004), wk =   0.0002778
        k(  536) = (   0.0333333  -0.4426352   0.1926255), wk =   0.0002778
        k(  537) = (   0.0333333  -0.4426352   0.2311506), wk =   0.0002778
        k(  538) = (   0.0333333  -0.4426352   0.2696757), wk =   0.0002778
        k(  539) = (   0.0333333  -0.4426352  -0.3082008), wk =   0.0002778
        k(  540) = (   0.0333333  -0.4426352  -0.2696757), wk =   0.0002778
        k(  541) = (   0.0333333  -0.4426352  -0.2311506), wk =   0.0002778
        k(  542) = (   0.0333333  -0.4426352  -0.1926255), wk =   0.0002778
        k(  543) = (   0.0333333  -0.4426352  -0.1541004), wk =   0.0002778
        k(  544) = (   0.0333333  -0.4426352  -0.1155753), wk =   0.0002778
        k(  545) = (   0.0333333  -0.4426352  -0.0770502), wk =   0.0002778
        k(  546) = (   0.0333333  -0.4426352  -0.0385251), wk =   0.0002778
        k(  547) = (   0.0333333  -0.4041452   0.0000000), wk =   0.0002778
        k(  548) = (   0.0333333  -0.4041452   0.0385251), wk =   0.0002778
        k(  549) = (   0.0333333  -0.4041452   0.0770502), wk =   0.0002778
        k(  550) = (   0.0333333  -0.4041452   0.1155753), wk =   0.0002778
        k(  551) = (   0.0333333  -0.4041452   0.1541004), wk =   0.0002778
        k(  552) = (   0.0333333  -0.4041452   0.1926255), wk =   0.0002778
        k(  553) = (   0.0333333  -0.4041452   0.2311506), wk =   0.0002778
        k(  554) = (   0.0333333  -0.4041452   0.2696757), wk =   0.0002778
        k(  555) = (   0.0333333  -0.4041452  -0.3082008), wk =   0.0002778
        k(  556) = (   0.0333333  -0.4041452  -0.2696757), wk =   0.0002778
        k(  557) = (   0.0333333  -0.4041452  -0.2311506), wk =   0.0002778
        k(  558) = (   0.0333333  -0.4041452  -0.1926255), wk =   0.0002778
        k(  559) = (   0.0333333  -0.4041452  -0.1541004), wk =   0.0002778
        k(  560) = (   0.0333333  -0.4041452  -0.1155753), wk =   0.0002778
        k(  561) = (   0.0333333  -0.4041452  -0.0770502), wk =   0.0002778
        k(  562) = (   0.0333333  -0.4041452  -0.0385251), wk =   0.0002778
        k(  563) = (   0.0333333  -0.3656552   0.0000000), wk =   0.0002778
        k(  564) = (   0.0333333  -0.3656552   0.0385251), wk =   0.0002778
        k(  565) = (   0.0333333  -0.3656552   0.0770502), wk =   0.0002778
        k(  566) = (   0.0333333  -0.3656552   0.1155753), wk =   0.0002778
        k(  567) = (   0.0333333  -0.3656552   0.1541004), wk =   0.0002778
        k(  568) = (   0.0333333  -0.3656552   0.1926255), wk =   0.0002778
        k(  569) = (   0.0333333  -0.3656552   0.2311506), wk =   0.0002778
        k(  570) = (   0.0333333  -0.3656552   0.2696757), wk =   0.0002778
        k(  571) = (   0.0333333  -0.3656552  -0.3082008), wk =   0.0002778
        k(  572) = (   0.0333333  -0.3656552  -0.2696757), wk =   0.0002778
        k(  573) = (   0.0333333  -0.3656552  -0.2311506), wk =   0.0002778
        k(  574) = (   0.0333333  -0.3656552  -0.1926255), wk =   0.0002778
        k(  575) = (   0.0333333  -0.3656552  -0.1541004), wk =   0.0002778
        k(  576) = (   0.0333333  -0.3656552  -0.1155753), wk =   0.0002778
        k(  577) = (   0.0333333  -0.3656552  -0.0770502), wk =   0.0002778
        k(  578) = (   0.0333333  -0.3656552  -0.0385251), wk =   0.0002778
        k(  579) = (   0.0333333  -0.3271651   0.0000000), wk =   0.0002778
        k(  580) = (   0.0333333  -0.3271651   0.0385251), wk =   0.0002778
        k(  581) = (   0.0333333  -0.3271651   0.0770502), wk =   0.0002778
        k(  582) = (   0.0333333  -0.3271651   0.1155753), wk =   0.0002778
        k(  583) = (   0.0333333  -0.3271651   0.1541004), wk =   0.0002778
        k(  584) = (   0.0333333  -0.3271651   0.1926255), wk =   0.0002778
        k(  585) = (   0.0333333  -0.3271651   0.2311506), wk =   0.0002778
        k(  586) = (   0.0333333  -0.3271651   0.2696757), wk =   0.0002778
        k(  587) = (   0.0333333  -0.3271651  -0.3082008), wk =   0.0002778
        k(  588) = (   0.0333333  -0.3271651  -0.2696757), wk =   0.0002778
        k(  589) = (   0.0333333  -0.3271651  -0.2311506), wk =   0.0002778
        k(  590) = (   0.0333333  -0.3271651  -0.1926255), wk =   0.0002778
        k(  591) = (   0.0333333  -0.3271651  -0.1541004), wk =   0.0002778
        k(  592) = (   0.0333333  -0.3271651  -0.1155753), wk =   0.0002778
        k(  593) = (   0.0333333  -0.3271651  -0.0770502), wk =   0.0002778
        k(  594) = (   0.0333333  -0.3271651  -0.0385251), wk =   0.0002778
        k(  595) = (   0.0333333  -0.2886751   0.0000000), wk =   0.0002778
        k(  596) = (   0.0333333  -0.2886751   0.0385251), wk =   0.0002778
        k(  597) = (   0.0333333  -0.2886751   0.0770502), wk =   0.0002778
        k(  598) = (   0.0333333  -0.2886751   0.1155753), wk =   0.0002778
        k(  599) = (   0.0333333  -0.2886751   0.1541004), wk =   0.0002778
        k(  600) = (   0.0333333  -0.2886751   0.1926255), wk =   0.0002778
        k(  601) = (   0.0333333  -0.2886751   0.2311506), wk =   0.0002778
        k(  602) = (   0.0333333  -0.2886751   0.2696757), wk =   0.0002778
        k(  603) = (   0.0333333  -0.2886751  -0.3082008), wk =   0.0002778
        k(  604) = (   0.0333333  -0.2886751  -0.2696757), wk =   0.0002778
        k(  605) = (   0.0333333  -0.2886751  -0.2311506), wk =   0.0002778
        k(  606) = (   0.0333333  -0.2886751  -0.1926255), wk =   0.0002778
        k(  607) = (   0.0333333  -0.2886751  -0.1541004), wk =   0.0002778
        k(  608) = (   0.0333333  -0.2886751  -0.1155753), wk =   0.0002778
        k(  609) = (   0.0333333  -0.2886751  -0.0770502), wk =   0.0002778
        k(  610) = (   0.0333333  -0.2886751  -0.0385251), wk =   0.0002778
        k(  611) = (   0.0333333  -0.2501851   0.0000000), wk =   0.0002778
        k(  612) = (   0.0333333  -0.2501851   0.0385251), wk =   0.0002778
        k(  613) = (   0.0333333  -0.2501851   0.0770502), wk =   0.0002778
        k(  614) = (   0.0333333  -0.2501851   0.1155753), wk =   0.0002778
        k(  615) = (   0.0333333  -0.2501851   0.1541004), wk =   0.0002778
        k(  616) = (   0.0333333  -0.2501851   0.1926255), wk =   0.0002778
        k(  617) = (   0.0333333  -0.2501851   0.2311506), wk =   0.0002778
        k(  618) = (   0.0333333  -0.2501851   0.2696757), wk =   0.0002778
        k(  619) = (   0.0333333  -0.2501851  -0.3082008), wk =   0.0002778
        k(  620) = (   0.0333333  -0.2501851  -0.2696757), wk =   0.0002778
        k(  621) = (   0.0333333  -0.2501851  -0.2311506), wk =   0.0002778
        k(  622) = (   0.0333333  -0.2501851  -0.1926255), wk =   0.0002778
        k(  623) = (   0.0333333  -0.2501851  -0.1541004), wk =   0.0002778
        k(  624) = (   0.0333333  -0.2501851  -0.1155753), wk =   0.0002778
        k(  625) = (   0.0333333  -0.2501851  -0.0770502), wk =   0.0002778
        k(  626) = (   0.0333333  -0.2501851  -0.0385251), wk =   0.0002778
        k(  627) = (   0.0333333  -0.2116951   0.0000000), wk =   0.0002778
        k(  628) = (   0.0333333  -0.2116951   0.0385251), wk =   0.0002778
        k(  629) = (   0.0333333  -0.2116951   0.0770502), wk =   0.0002778
        k(  630) = (   0.0333333  -0.2116951   0.1155753), wk =   0.0002778
        k(  631) = (   0.0333333  -0.2116951   0.1541004), wk =   0.0002778
        k(  632) = (   0.0333333  -0.2116951   0.1926255), wk =   0.0002778
        k(  633) = (   0.0333333  -0.2116951   0.2311506), wk =   0.0002778
        k(  634) = (   0.0333333  -0.2116951   0.2696757), wk =   0.0002778
        k(  635) = (   0.0333333  -0.2116951  -0.3082008), wk =   0.0002778
        k(  636) = (   0.0333333  -0.2116951  -0.2696757), wk =   0.0002778
        k(  637) = (   0.0333333  -0.2116951  -0.2311506), wk =   0.0002778
        k(  638) = (   0.0333333  -0.2116951  -0.1926255), wk =   0.0002778
        k(  639) = (   0.0333333  -0.2116951  -0.1541004), wk =   0.0002778
        k(  640) = (   0.0333333  -0.2116951  -0.1155753), wk =   0.0002778
        k(  641) = (   0.0333333  -0.2116951  -0.0770502), wk =   0.0002778
        k(  642) = (   0.0333333  -0.2116951  -0.0385251), wk =   0.0002778
        k(  643) = (   0.0333333  -0.1732051   0.0000000), wk =   0.0002778
        k(  644) = (   0.0333333  -0.1732051   0.0385251), wk =   0.0002778
        k(  645) = (   0.0333333  -0.1732051   0.0770502), wk =   0.0002778
        k(  646) = (   0.0333333  -0.1732051   0.1155753), wk =   0.0002778
        k(  647) = (   0.0333333  -0.1732051   0.1541004), wk =   0.0002778
        k(  648) = (   0.0333333  -0.1732051   0.1926255), wk =   0.0002778
        k(  649) = (   0.0333333  -0.1732051   0.2311506), wk =   0.0002778
        k(  650) = (   0.0333333  -0.1732051   0.2696757), wk =   0.0002778
        k(  651) = (   0.0333333  -0.1732051  -0.3082008), wk =   0.0002778
        k(  652) = (   0.0333333  -0.1732051  -0.2696757), wk =   0.0002778
        k(  653) = (   0.0333333  -0.1732051  -0.2311506), wk =   0.0002778
        k(  654) = (   0.0333333  -0.1732051  -0.1926255), wk =   0.0002778
        k(  655) = (   0.0333333  -0.1732051  -0.1541004), wk =   0.0002778
        k(  656) = (   0.0333333  -0.1732051  -0.1155753), wk =   0.0002778
        k(  657) = (   0.0333333  -0.1732051  -0.0770502), wk =   0.0002778
        k(  658) = (   0.0333333  -0.1732051  -0.0385251), wk =   0.0002778
        k(  659) = (   0.0333333  -0.1347151   0.0000000), wk =   0.0002778
        k(  660) = (   0.0333333  -0.1347151   0.0385251), wk =   0.0002778
        k(  661) = (   0.0333333  -0.1347151   0.0770502), wk =   0.0002778
        k(  662) = (   0.0333333  -0.1347151   0.1155753), wk =   0.0002778
        k(  663) = (   0.0333333  -0.1347151   0.1541004), wk =   0.0002778
        k(  664) = (   0.0333333  -0.1347151   0.1926255), wk =   0.0002778
        k(  665) = (   0.0333333  -0.1347151   0.2311506), wk =   0.0002778
        k(  666) = (   0.0333333  -0.1347151   0.2696757), wk =   0.0002778
        k(  667) = (   0.0333333  -0.1347151  -0.3082008), wk =   0.0002778
        k(  668) = (   0.0333333  -0.1347151  -0.2696757), wk =   0.0002778
        k(  669) = (   0.0333333  -0.1347151  -0.2311506), wk =   0.0002778
        k(  670) = (   0.0333333  -0.1347151  -0.1926255), wk =   0.0002778
        k(  671) = (   0.0333333  -0.1347151  -0.1541004), wk =   0.0002778
        k(  672) = (   0.0333333  -0.1347151  -0.1155753), wk =   0.0002778
        k(  673) = (   0.0333333  -0.1347151  -0.0770502), wk =   0.0002778
        k(  674) = (   0.0333333  -0.1347151  -0.0385251), wk =   0.0002778
        k(  675) = (   0.0333333  -0.0962250   0.0000000), wk =   0.0002778
        k(  676) = (   0.0333333  -0.0962250   0.0385251), wk =   0.0002778
        k(  677) = (   0.0333333  -0.0962250   0.0770502), wk =   0.0002778
        k(  678) = (   0.0333333  -0.0962250   0.1155753), wk =   0.0002778
        k(  679) = (   0.0333333  -0.0962250   0.1541004), wk =   0.0002778
        k(  680) = (   0.0333333  -0.0962250   0.1926255), wk =   0.0002778
        k(  681) = (   0.0333333  -0.0962250   0.2311506), wk =   0.0002778
        k(  682) = (   0.0333333  -0.0962250   0.2696757), wk =   0.0002778
        k(  683) = (   0.0333333  -0.0962250  -0.3082008), wk =   0.0002778
        k(  684) = (   0.0333333  -0.0962250  -0.2696757), wk =   0.0002778
        k(  685) = (   0.0333333  -0.0962250  -0.2311506), wk =   0.0002778
        k(  686) = (   0.0333333  -0.0962250  -0.1926255), wk =   0.0002778
        k(  687) = (   0.0333333  -0.0962250  -0.1541004), wk =   0.0002778
        k(  688) = (   0.0333333  -0.0962250  -0.1155753), wk =   0.0002778
        k(  689) = (   0.0333333  -0.0962250  -0.0770502), wk =   0.0002778
        k(  690) = (   0.0333333  -0.0962250  -0.0385251), wk =   0.0002778
        k(  691) = (   0.0333333  -0.0577350   0.0000000), wk =   0.0002778
        k(  692) = (   0.0333333  -0.0577350   0.0385251), wk =   0.0002778
        k(  693) = (   0.0333333  -0.0577350   0.0770502), wk =   0.0002778
        k(  694) = (   0.0333333  -0.0577350   0.1155753), wk =   0.0002778
        k(  695) = (   0.0333333  -0.0577350   0.1541004), wk =   0.0002778
        k(  696) = (   0.0333333  -0.0577350   0.1926255), wk =   0.0002778
        k(  697) = (   0.0333333  -0.0577350   0.2311506), wk =   0.0002778
        k(  698) = (   0.0333333  -0.0577350   0.2696757), wk =   0.0002778
        k(  699) = (   0.0333333  -0.0577350  -0.3082008), wk =   0.0002778
        k(  700) = (   0.0333333  -0.0577350  -0.2696757), wk =   0.0002778
        k(  701) = (   0.0333333  -0.0577350  -0.2311506), wk =   0.0002778
        k(  702) = (   0.0333333  -0.0577350  -0.1926255), wk =   0.0002778
        k(  703) = (   0.0333333  -0.0577350  -0.1541004), wk =   0.0002778
        k(  704) = (   0.0333333  -0.0577350  -0.1155753), wk =   0.0002778
        k(  705) = (   0.0333333  -0.0577350  -0.0770502), wk =   0.0002778
        k(  706) = (   0.0333333  -0.0577350  -0.0385251), wk =   0.0002778
        k(  707) = (   0.0333333  -0.0192450   0.0000000), wk =   0.0002778
        k(  708) = (   0.0333333  -0.0192450   0.0385251), wk =   0.0002778
        k(  709) = (   0.0333333  -0.0192450   0.0770502), wk =   0.0002778
        k(  710) = (   0.0333333  -0.0192450   0.1155753), wk =   0.0002778
        k(  711) = (   0.0333333  -0.0192450   0.1541004), wk =   0.0002778
        k(  712) = (   0.0333333  -0.0192450   0.1926255), wk =   0.0002778
        k(  713) = (   0.0333333  -0.0192450   0.2311506), wk =   0.0002778
        k(  714) = (   0.0333333  -0.0192450   0.2696757), wk =   0.0002778
        k(  715) = (   0.0333333  -0.0192450  -0.3082008), wk =   0.0002778
        k(  716) = (   0.0333333  -0.0192450  -0.2696757), wk =   0.0002778
        k(  717) = (   0.0333333  -0.0192450  -0.2311506), wk =   0.0002778
        k(  718) = (   0.0333333  -0.0192450  -0.1926255), wk =   0.0002778
        k(  719) = (   0.0333333  -0.0192450  -0.1541004), wk =   0.0002778
        k(  720) = (   0.0333333  -0.0192450  -0.1155753), wk =   0.0002778
        k(  721) = (   0.0333333  -0.0192450  -0.0770502), wk =   0.0002778
        k(  722) = (   0.0333333  -0.0192450  -0.0385251), wk =   0.0002778
        k(  723) = (   0.0666667   0.0384900   0.0000000), wk =   0.0002778
        k(  724) = (   0.0666667   0.0384900   0.0385251), wk =   0.0002778
        k(  725) = (   0.0666667   0.0384900   0.0770502), wk =   0.0002778
        k(  726) = (   0.0666667   0.0384900   0.1155753), wk =   0.0002778
        k(  727) = (   0.0666667   0.0384900   0.1541004), wk =   0.0002778
        k(  728) = (   0.0666667   0.0384900   0.1926255), wk =   0.0002778
        k(  729) = (   0.0666667   0.0384900   0.2311506), wk =   0.0002778
        k(  730) = (   0.0666667   0.0384900   0.2696757), wk =   0.0002778
        k(  731) = (   0.0666667   0.0384900  -0.3082008), wk =   0.0002778
        k(  732) = (   0.0666667   0.0384900  -0.2696757), wk =   0.0002778
        k(  733) = (   0.0666667   0.0384900  -0.2311506), wk =   0.0002778
        k(  734) = (   0.0666667   0.0384900  -0.1926255), wk =   0.0002778
        k(  735) = (   0.0666667   0.0384900  -0.1541004), wk =   0.0002778
        k(  736) = (   0.0666667   0.0384900  -0.1155753), wk =   0.0002778
        k(  737) = (   0.0666667   0.0384900  -0.0770502), wk =   0.0002778
        k(  738) = (   0.0666667   0.0384900  -0.0385251), wk =   0.0002778
        k(  739) = (   0.0666667   0.0769800   0.0000000), wk =   0.0002778
        k(  740) = (   0.0666667   0.0769800   0.0385251), wk =   0.0002778
        k(  741) = (   0.0666667   0.0769800   0.0770502), wk =   0.0002778
        k(  742) = (   0.0666667   0.0769800   0.1155753), wk =   0.0002778
        k(  743) = (   0.0666667   0.0769800   0.1541004), wk =   0.0002778
        k(  744) = (   0.0666667   0.0769800   0.1926255), wk =   0.0002778
        k(  745) = (   0.0666667   0.0769800   0.2311506), wk =   0.0002778
        k(  746) = (   0.0666667   0.0769800   0.2696757), wk =   0.0002778
        k(  747) = (   0.0666667   0.0769800  -0.3082008), wk =   0.0002778
        k(  748) = (   0.0666667   0.0769800  -0.2696757), wk =   0.0002778
        k(  749) = (   0.0666667   0.0769800  -0.2311506), wk =   0.0002778
        k(  750) = (   0.0666667   0.0769800  -0.1926255), wk =   0.0002778
        k(  751) = (   0.0666667   0.0769800  -0.1541004), wk =   0.0002778
        k(  752) = (   0.0666667   0.0769800  -0.1155753), wk =   0.0002778
        k(  753) = (   0.0666667   0.0769800  -0.0770502), wk =   0.0002778
        k(  754) = (   0.0666667   0.0769800  -0.0385251), wk =   0.0002778
        k(  755) = (   0.0666667   0.1154700   0.0000000), wk =   0.0002778
        k(  756) = (   0.0666667   0.1154700   0.0385251), wk =   0.0002778
        k(  757) = (   0.0666667   0.1154700   0.0770502), wk =   0.0002778
        k(  758) = (   0.0666667   0.1154700   0.1155753), wk =   0.0002778
        k(  759) = (   0.0666667   0.1154700   0.1541004), wk =   0.0002778
        k(  760) = (   0.0666667   0.1154700   0.1926255), wk =   0.0002778
        k(  761) = (   0.0666667   0.1154700   0.2311506), wk =   0.0002778
        k(  762) = (   0.0666667   0.1154700   0.2696757), wk =   0.0002778
        k(  763) = (   0.0666667   0.1154700  -0.3082008), wk =   0.0002778
        k(  764) = (   0.0666667   0.1154700  -0.2696757), wk =   0.0002778
        k(  765) = (   0.0666667   0.1154700  -0.2311506), wk =   0.0002778
        k(  766) = (   0.0666667   0.1154700  -0.1926255), wk =   0.0002778
        k(  767) = (   0.0666667   0.1154700  -0.1541004), wk =   0.0002778
        k(  768) = (   0.0666667   0.1154700  -0.1155753), wk =   0.0002778
        k(  769) = (   0.0666667   0.1154700  -0.0770502), wk =   0.0002778
        k(  770) = (   0.0666667   0.1154700  -0.0385251), wk =   0.0002778
        k(  771) = (   0.0666667   0.1539601   0.0000000), wk =   0.0002778
        k(  772) = (   0.0666667   0.1539601   0.0385251), wk =   0.0002778
        k(  773) = (   0.0666667   0.1539601   0.0770502), wk =   0.0002778
        k(  774) = (   0.0666667   0.1539601   0.1155753), wk =   0.0002778
        k(  775) = (   0.0666667   0.1539601   0.1541004), wk =   0.0002778
        k(  776) = (   0.0666667   0.1539601   0.1926255), wk =   0.0002778
        k(  777) = (   0.0666667   0.1539601   0.2311506), wk =   0.0002778
        k(  778) = (   0.0666667   0.1539601   0.2696757), wk =   0.0002778
        k(  779) = (   0.0666667   0.1539601  -0.3082008), wk =   0.0002778
        k(  780) = (   0.0666667   0.1539601  -0.2696757), wk =   0.0002778
        k(  781) = (   0.0666667   0.1539601  -0.2311506), wk =   0.0002778
        k(  782) = (   0.0666667   0.1539601  -0.1926255), wk =   0.0002778
        k(  783) = (   0.0666667   0.1539601  -0.1541004), wk =   0.0002778
        k(  784) = (   0.0666667   0.1539601  -0.1155753), wk =   0.0002778
        k(  785) = (   0.0666667   0.1539601  -0.0770502), wk =   0.0002778
        k(  786) = (   0.0666667   0.1539601  -0.0385251), wk =   0.0002778
        k(  787) = (   0.0666667   0.1924501   0.0000000), wk =   0.0002778
        k(  788) = (   0.0666667   0.1924501   0.0385251), wk =   0.0002778
        k(  789) = (   0.0666667   0.1924501   0.0770502), wk =   0.0002778
        k(  790) = (   0.0666667   0.1924501   0.1155753), wk =   0.0002778
        k(  791) = (   0.0666667   0.1924501   0.1541004), wk =   0.0002778
        k(  792) = (   0.0666667   0.1924501   0.1926255), wk =   0.0002778
        k(  793) = (   0.0666667   0.1924501   0.2311506), wk =   0.0002778
        k(  794) = (   0.0666667   0.1924501   0.2696757), wk =   0.0002778
        k(  795) = (   0.0666667   0.1924501  -0.3082008), wk =   0.0002778
        k(  796) = (   0.0666667   0.1924501  -0.2696757), wk =   0.0002778
        k(  797) = (   0.0666667   0.1924501  -0.2311506), wk =   0.0002778
        k(  798) = (   0.0666667   0.1924501  -0.1926255), wk =   0.0002778
        k(  799) = (   0.0666667   0.1924501  -0.1541004), wk =   0.0002778
        k(  800) = (   0.0666667   0.1924501  -0.1155753), wk =   0.0002778
        k(  801) = (   0.0666667   0.1924501  -0.0770502), wk =   0.0002778
        k(  802) = (   0.0666667   0.1924501  -0.0385251), wk =   0.0002778
        k(  803) = (   0.0666667   0.2309401   0.0000000), wk =   0.0002778
        k(  804) = (   0.0666667   0.2309401   0.0385251), wk =   0.0002778
        k(  805) = (   0.0666667   0.2309401   0.0770502), wk =   0.0002778
        k(  806) = (   0.0666667   0.2309401   0.1155753), wk =   0.0002778
        k(  807) = (   0.0666667   0.2309401   0.1541004), wk =   0.0002778
        k(  808) = (   0.0666667   0.2309401   0.1926255), wk =   0.0002778
        k(  809) = (   0.0666667   0.2309401   0.2311506), wk =   0.0002778
        k(  810) = (   0.0666667   0.2309401   0.2696757), wk =   0.0002778
        k(  811) = (   0.0666667   0.2309401  -0.3082008), wk =   0.0002778
        k(  812) = (   0.0666667   0.2309401  -0.2696757), wk =   0.0002778
        k(  813) = (   0.0666667   0.2309401  -0.2311506), wk =   0.0002778
        k(  814) = (   0.0666667   0.2309401  -0.1926255), wk =   0.0002778
        k(  815) = (   0.0666667   0.2309401  -0.1541004), wk =   0.0002778
        k(  816) = (   0.0666667   0.2309401  -0.1155753), wk =   0.0002778
        k(  817) = (   0.0666667   0.2309401  -0.0770502), wk =   0.0002778
        k(  818) = (   0.0666667   0.2309401  -0.0385251), wk =   0.0002778
        k(  819) = (   0.0666667   0.2694301   0.0000000), wk =   0.0002778
        k(  820) = (   0.0666667   0.2694301   0.0385251), wk =   0.0002778
        k(  821) = (   0.0666667   0.2694301   0.0770502), wk =   0.0002778
        k(  822) = (   0.0666667   0.2694301   0.1155753), wk =   0.0002778
        k(  823) = (   0.0666667   0.2694301   0.1541004), wk =   0.0002778
        k(  824) = (   0.0666667   0.2694301   0.1926255), wk =   0.0002778
        k(  825) = (   0.0666667   0.2694301   0.2311506), wk =   0.0002778
        k(  826) = (   0.0666667   0.2694301   0.2696757), wk =   0.0002778
        k(  827) = (   0.0666667   0.2694301  -0.3082008), wk =   0.0002778
        k(  828) = (   0.0666667   0.2694301  -0.2696757), wk =   0.0002778
        k(  829) = (   0.0666667   0.2694301  -0.2311506), wk =   0.0002778
        k(  830) = (   0.0666667   0.2694301  -0.1926255), wk =   0.0002778
        k(  831) = (   0.0666667   0.2694301  -0.1541004), wk =   0.0002778
        k(  832) = (   0.0666667   0.2694301  -0.1155753), wk =   0.0002778
        k(  833) = (   0.0666667   0.2694301  -0.0770502), wk =   0.0002778
        k(  834) = (   0.0666667   0.2694301  -0.0385251), wk =   0.0002778
        k(  835) = (   0.0666667   0.3079201   0.0000000), wk =   0.0002778
        k(  836) = (   0.0666667   0.3079201   0.0385251), wk =   0.0002778
        k(  837) = (   0.0666667   0.3079201   0.0770502), wk =   0.0002778
        k(  838) = (   0.0666667   0.3079201   0.1155753), wk =   0.0002778
        k(  839) = (   0.0666667   0.3079201   0.1541004), wk =   0.0002778
        k(  840) = (   0.0666667   0.3079201   0.1926255), wk =   0.0002778
        k(  841) = (   0.0666667   0.3079201   0.2311506), wk =   0.0002778
        k(  842) = (   0.0666667   0.3079201   0.2696757), wk =   0.0002778
        k(  843) = (   0.0666667   0.3079201  -0.3082008), wk =   0.0002778
        k(  844) = (   0.0666667   0.3079201  -0.2696757), wk =   0.0002778
        k(  845) = (   0.0666667   0.3079201  -0.2311506), wk =   0.0002778
        k(  846) = (   0.0666667   0.3079201  -0.1926255), wk =   0.0002778
        k(  847) = (   0.0666667   0.3079201  -0.1541004), wk =   0.0002778
        k(  848) = (   0.0666667   0.3079201  -0.1155753), wk =   0.0002778
        k(  849) = (   0.0666667   0.3079201  -0.0770502), wk =   0.0002778
        k(  850) = (   0.0666667   0.3079201  -0.0385251), wk =   0.0002778
        k(  851) = (   0.0666667   0.3464101   0.0000000), wk =   0.0002778
        k(  852) = (   0.0666667   0.3464101   0.0385251), wk =   0.0002778
        k(  853) = (   0.0666667   0.3464101   0.0770502), wk =   0.0002778
        k(  854) = (   0.0666667   0.3464101   0.1155753), wk =   0.0002778
        k(  855) = (   0.0666667   0.3464101   0.1541004), wk =   0.0002778
        k(  856) = (   0.0666667   0.3464101   0.1926255), wk =   0.0002778
        k(  857) = (   0.0666667   0.3464101   0.2311506), wk =   0.0002778
        k(  858) = (   0.0666667   0.3464101   0.2696757), wk =   0.0002778
        k(  859) = (   0.0666667   0.3464101  -0.3082008), wk =   0.0002778
        k(  860) = (   0.0666667   0.3464101  -0.2696757), wk =   0.0002778
        k(  861) = (   0.0666667   0.3464101  -0.2311506), wk =   0.0002778
        k(  862) = (   0.0666667   0.3464101  -0.1926255), wk =   0.0002778
        k(  863) = (   0.0666667   0.3464101  -0.1541004), wk =   0.0002778
        k(  864) = (   0.0666667   0.3464101  -0.1155753), wk =   0.0002778
        k(  865) = (   0.0666667   0.3464101  -0.0770502), wk =   0.0002778
        k(  866) = (   0.0666667   0.3464101  -0.0385251), wk =   0.0002778
        k(  867) = (   0.0666667   0.3849001   0.0000000), wk =   0.0002778
        k(  868) = (   0.0666667   0.3849001   0.0385251), wk =   0.0002778
        k(  869) = (   0.0666667   0.3849001   0.0770502), wk =   0.0002778
        k(  870) = (   0.0666667   0.3849001   0.1155753), wk =   0.0002778
        k(  871) = (   0.0666667   0.3849001   0.1541004), wk =   0.0002778
        k(  872) = (   0.0666667   0.3849001   0.1926255), wk =   0.0002778
        k(  873) = (   0.0666667   0.3849001   0.2311506), wk =   0.0002778
        k(  874) = (   0.0666667   0.3849001   0.2696757), wk =   0.0002778
        k(  875) = (   0.0666667   0.3849001  -0.3082008), wk =   0.0002778
        k(  876) = (   0.0666667   0.3849001  -0.2696757), wk =   0.0002778
        k(  877) = (   0.0666667   0.3849001  -0.2311506), wk =   0.0002778
        k(  878) = (   0.0666667   0.3849001  -0.1926255), wk =   0.0002778
        k(  879) = (   0.0666667   0.3849001  -0.1541004), wk =   0.0002778
        k(  880) = (   0.0666667   0.3849001  -0.1155753), wk =   0.0002778
        k(  881) = (   0.0666667   0.3849001  -0.0770502), wk =   0.0002778
        k(  882) = (   0.0666667   0.3849001  -0.0385251), wk =   0.0002778
        k(  883) = (   0.0666667   0.4233902   0.0000000), wk =   0.0002778
        k(  884) = (   0.0666667   0.4233902   0.0385251), wk =   0.0002778
        k(  885) = (   0.0666667   0.4233902   0.0770502), wk =   0.0002778
        k(  886) = (   0.0666667   0.4233902   0.1155753), wk =   0.0002778
        k(  887) = (   0.0666667   0.4233902   0.1541004), wk =   0.0002778
        k(  888) = (   0.0666667   0.4233902   0.1926255), wk =   0.0002778
        k(  889) = (   0.0666667   0.4233902   0.2311506), wk =   0.0002778
        k(  890) = (   0.0666667   0.4233902   0.2696757), wk =   0.0002778
        k(  891) = (   0.0666667   0.4233902  -0.3082008), wk =   0.0002778
        k(  892) = (   0.0666667   0.4233902  -0.2696757), wk =   0.0002778
        k(  893) = (   0.0666667   0.4233902  -0.2311506), wk =   0.0002778
        k(  894) = (   0.0666667   0.4233902  -0.1926255), wk =   0.0002778
        k(  895) = (   0.0666667   0.4233902  -0.1541004), wk =   0.0002778
        k(  896) = (   0.0666667   0.4233902  -0.1155753), wk =   0.0002778
        k(  897) = (   0.0666667   0.4233902  -0.0770502), wk =   0.0002778
        k(  898) = (   0.0666667   0.4233902  -0.0385251), wk =   0.0002778
        k(  899) = (   0.0666667   0.4618802   0.0000000), wk =   0.0002778
        k(  900) = (   0.0666667   0.4618802   0.0385251), wk =   0.0002778
        k(  901) = (   0.0666667   0.4618802   0.0770502), wk =   0.0002778
        k(  902) = (   0.0666667   0.4618802   0.1155753), wk =   0.0002778
        k(  903) = (   0.0666667   0.4618802   0.1541004), wk =   0.0002778
        k(  904) = (   0.0666667   0.4618802   0.1926255), wk =   0.0002778
        k(  905) = (   0.0666667   0.4618802   0.2311506), wk =   0.0002778
        k(  906) = (   0.0666667   0.4618802   0.2696757), wk =   0.0002778
        k(  907) = (   0.0666667   0.4618802  -0.3082008), wk =   0.0002778
        k(  908) = (   0.0666667   0.4618802  -0.2696757), wk =   0.0002778
        k(  909) = (   0.0666667   0.4618802  -0.2311506), wk =   0.0002778
        k(  910) = (   0.0666667   0.4618802  -0.1926255), wk =   0.0002778
        k(  911) = (   0.0666667   0.4618802  -0.1541004), wk =   0.0002778
        k(  912) = (   0.0666667   0.4618802  -0.1155753), wk =   0.0002778
        k(  913) = (   0.0666667   0.4618802  -0.0770502), wk =   0.0002778
        k(  914) = (   0.0666667   0.4618802  -0.0385251), wk =   0.0002778
        k(  915) = (   0.0666667   0.5003702   0.0000000), wk =   0.0002778
        k(  916) = (   0.0666667   0.5003702   0.0385251), wk =   0.0002778
        k(  917) = (   0.0666667   0.5003702   0.0770502), wk =   0.0002778
        k(  918) = (   0.0666667   0.5003702   0.1155753), wk =   0.0002778
        k(  919) = (   0.0666667   0.5003702   0.1541004), wk =   0.0002778
        k(  920) = (   0.0666667   0.5003702   0.1926255), wk =   0.0002778
        k(  921) = (   0.0666667   0.5003702   0.2311506), wk =   0.0002778
        k(  922) = (   0.0666667   0.5003702   0.2696757), wk =   0.0002778
        k(  923) = (   0.0666667   0.5003702  -0.3082008), wk =   0.0002778
        k(  924) = (   0.0666667   0.5003702  -0.2696757), wk =   0.0002778
        k(  925) = (   0.0666667   0.5003702  -0.2311506), wk =   0.0002778
        k(  926) = (   0.0666667   0.5003702  -0.1926255), wk =   0.0002778
        k(  927) = (   0.0666667   0.5003702  -0.1541004), wk =   0.0002778
        k(  928) = (   0.0666667   0.5003702  -0.1155753), wk =   0.0002778
        k(  929) = (   0.0666667   0.5003702  -0.0770502), wk =   0.0002778
        k(  930) = (   0.0666667   0.5003702  -0.0385251), wk =   0.0002778
        k(  931) = (   0.0666667   0.5388602   0.0000000), wk =   0.0002778
        k(  932) = (   0.0666667   0.5388602   0.0385251), wk =   0.0002778
        k(  933) = (   0.0666667   0.5388602   0.0770502), wk =   0.0002778
        k(  934) = (   0.0666667   0.5388602   0.1155753), wk =   0.0002778
        k(  935) = (   0.0666667   0.5388602   0.1541004), wk =   0.0002778
        k(  936) = (   0.0666667   0.5388602   0.1926255), wk =   0.0002778
        k(  937) = (   0.0666667   0.5388602   0.2311506), wk =   0.0002778
        k(  938) = (   0.0666667   0.5388602   0.2696757), wk =   0.0002778
        k(  939) = (   0.0666667   0.5388602  -0.3082008), wk =   0.0002778
        k(  940) = (   0.0666667   0.5388602  -0.2696757), wk =   0.0002778
        k(  941) = (   0.0666667   0.5388602  -0.2311506), wk =   0.0002778
        k(  942) = (   0.0666667   0.5388602  -0.1926255), wk =   0.0002778
        k(  943) = (   0.0666667   0.5388602  -0.1541004), wk =   0.0002778
        k(  944) = (   0.0666667   0.5388602  -0.1155753), wk =   0.0002778
        k(  945) = (   0.0666667   0.5388602  -0.0770502), wk =   0.0002778
        k(  946) = (   0.0666667   0.5388602  -0.0385251), wk =   0.0002778
        k(  947) = (   0.0666667   0.5773502   0.0000000), wk =   0.0002778
        k(  948) = (   0.0666667   0.5773502   0.0385251), wk =   0.0002778
        k(  949) = (   0.0666667   0.5773502   0.0770502), wk =   0.0002778
        k(  950) = (   0.0666667   0.5773502   0.1155753), wk =   0.0002778
        k(  951) = (   0.0666667   0.5773502   0.1541004), wk =   0.0002778
        k(  952) = (   0.0666667   0.5773502   0.1926255), wk =   0.0002778
        k(  953) = (   0.0666667   0.5773502   0.2311506), wk =   0.0002778
        k(  954) = (   0.0666667   0.5773502   0.2696757), wk =   0.0002778
        k(  955) = (   0.0666667   0.5773502  -0.3082008), wk =   0.0002778
        k(  956) = (   0.0666667   0.5773502  -0.2696757), wk =   0.0002778
        k(  957) = (   0.0666667   0.5773502  -0.2311506), wk =   0.0002778
        k(  958) = (   0.0666667   0.5773502  -0.1926255), wk =   0.0002778
        k(  959) = (   0.0666667   0.5773502  -0.1541004), wk =   0.0002778
        k(  960) = (   0.0666667   0.5773502  -0.1155753), wk =   0.0002778
        k(  961) = (   0.0666667   0.5773502  -0.0770502), wk =   0.0002778
        k(  962) = (   0.0666667   0.5773502  -0.0385251), wk =   0.0002778
        k(  963) = (   0.0666667  -0.5388602   0.0000000), wk =   0.0002778
        k(  964) = (   0.0666667  -0.5388602   0.0385251), wk =   0.0002778
        k(  965) = (   0.0666667  -0.5388602   0.0770502), wk =   0.0002778
        k(  966) = (   0.0666667  -0.5388602   0.1155753), wk =   0.0002778
        k(  967) = (   0.0666667  -0.5388602   0.1541004), wk =   0.0002778
        k(  968) = (   0.0666667  -0.5388602   0.1926255), wk =   0.0002778
        k(  969) = (   0.0666667  -0.5388602   0.2311506), wk =   0.0002778
        k(  970) = (   0.0666667  -0.5388602   0.2696757), wk =   0.0002778
        k(  971) = (   0.0666667  -0.5388602  -0.3082008), wk =   0.0002778
        k(  972) = (   0.0666667  -0.5388602  -0.2696757), wk =   0.0002778
        k(  973) = (   0.0666667  -0.5388602  -0.2311506), wk =   0.0002778
        k(  974) = (   0.0666667  -0.5388602  -0.1926255), wk =   0.0002778
        k(  975) = (   0.0666667  -0.5388602  -0.1541004), wk =   0.0002778
        k(  976) = (   0.0666667  -0.5388602  -0.1155753), wk =   0.0002778
        k(  977) = (   0.0666667  -0.5388602  -0.0770502), wk =   0.0002778
        k(  978) = (   0.0666667  -0.5388602  -0.0385251), wk =   0.0002778
        k(  979) = (   0.0666667  -0.5003702   0.0000000), wk =   0.0002778
        k(  980) = (   0.0666667  -0.5003702   0.0385251), wk =   0.0002778
        k(  981) = (   0.0666667  -0.5003702   0.0770502), wk =   0.0002778
        k(  982) = (   0.0666667  -0.5003702   0.1155753), wk =   0.0002778
        k(  983) = (   0.0666667  -0.5003702   0.1541004), wk =   0.0002778
        k(  984) = (   0.0666667  -0.5003702   0.1926255), wk =   0.0002778
        k(  985) = (   0.0666667  -0.5003702   0.2311506), wk =   0.0002778
[...]
        k( 7020) = (  -0.5000000   0.1333333   0.0000000), wk =   0.0002778
        k( 7021) = (  -0.5000000   0.1333333   0.0625000), wk =   0.0002778
        k( 7022) = (  -0.5000000   0.1333333   0.1250000), wk =   0.0002778
        k( 7023) = (  -0.5000000   0.1333333   0.1875000), wk =   0.0002778
        k( 7024) = (  -0.5000000   0.1333333   0.2500000), wk =   0.0002778
        k( 7025) = (  -0.5000000   0.1333333   0.3125000), wk =   0.0002778
        k( 7026) = (  -0.5000000   0.1333333   0.3750000), wk =   0.0002778
        k( 7027) = (  -0.5000000   0.1333333   0.4375000), wk =   0.0002778
        k( 7028) = (  -0.5000000   0.1333333  -0.5000000), wk =   0.0002778
        k( 7029) = (  -0.5000000   0.1333333  -0.4375000), wk =   0.0002778
        k( 7030) = (  -0.5000000   0.1333333  -0.3750000), wk =   0.0002778
        k( 7031) = (  -0.5000000   0.1333333  -0.3125000), wk =   0.0002778
        k( 7032) = (  -0.5000000   0.1333333  -0.2500000), wk =   0.0002778
        k( 7033) = (  -0.5000000   0.1333333  -0.1875000), wk =   0.0002778
        k( 7034) = (  -0.5000000   0.1333333  -0.1250000), wk =   0.0002778
        k( 7035) = (  -0.5000000   0.1333333  -0.0625000), wk =   0.0002778
        k( 7036) = (  -0.5000000   0.1666667   0.0000000), wk =   0.0002778
        k( 7037) = (  -0.5000000   0.1666667   0.0625000), wk =   0.0002778
        k( 7038) = (  -0.5000000   0.1666667   0.1250000), wk =   0.0002778
        k( 7039) = (  -0.5000000   0.1666667   0.1875000), wk =   0.0002778
        k( 7040) = (  -0.5000000   0.1666667   0.2500000), wk =   0.0002778
        k( 7041) = (  -0.5000000   0.1666667   0.3125000), wk =   0.0002778
        k( 7042) = (  -0.5000000   0.1666667   0.3750000), wk =   0.0002778
        k( 7043) = (  -0.5000000   0.1666667   0.4375000), wk =   0.0002778
        k( 7044) = (  -0.5000000   0.1666667  -0.5000000), wk =   0.0002778
        k( 7045) = (  -0.5000000   0.1666667  -0.4375000), wk =   0.0002778
        k( 7046) = (  -0.5000000   0.1666667  -0.3750000), wk =   0.0002778
        k( 7047) = (  -0.5000000   0.1666667  -0.3125000), wk =   0.0002778
        k( 7048) = (  -0.5000000   0.1666667  -0.2500000), wk =   0.0002778
        k( 7049) = (  -0.5000000   0.1666667  -0.1875000), wk =   0.0002778
        k( 7050) = (  -0.5000000   0.1666667  -0.1250000), wk =   0.0002778
        k( 7051) = (  -0.5000000   0.1666667  -0.0625000), wk =   0.0002778
        k( 7052) = (  -0.5000000   0.2000000   0.0000000), wk =   0.0002778
        k( 7053) = (  -0.5000000   0.2000000   0.0625000), wk =   0.0002778
        k( 7054) = (  -0.5000000   0.2000000   0.1250000), wk =   0.0002778
        k( 7055) = (  -0.5000000   0.2000000   0.1875000), wk =   0.0002778
        k( 7056) = (  -0.5000000   0.2000000   0.2500000), wk =   0.0002778
        k( 7057) = (  -0.5000000   0.2000000   0.3125000), wk =   0.0002778
        k( 7058) = (  -0.5000000   0.2000000   0.3750000), wk =   0.0002778
        k( 7059) = (  -0.5000000   0.2000000   0.4375000), wk =   0.0002778
        k( 7060) = (  -0.5000000   0.2000000  -0.5000000), wk =   0.0002778
        k( 7061) = (  -0.5000000   0.2000000  -0.4375000), wk =   0.0002778
        k( 7062) = (  -0.5000000   0.2000000  -0.3750000), wk =   0.0002778
        k( 7063) = (  -0.5000000   0.2000000  -0.3125000), wk =   0.0002778
        k( 7064) = (  -0.5000000   0.2000000  -0.2500000), wk =   0.0002778
        k( 7065) = (  -0.5000000   0.2000000  -0.1875000), wk =   0.0002778
        k( 7066) = (  -0.5000000   0.2000000  -0.1250000), wk =   0.0002778
        k( 7067) = (  -0.5000000   0.2000000  -0.0625000), wk =   0.0002778
        k( 7068) = (  -0.5000000   0.2333333   0.0000000), wk =   0.0002778
        k( 7069) = (  -0.5000000   0.2333333   0.0625000), wk =   0.0002778
        k( 7070) = (  -0.5000000   0.2333333   0.1250000), wk =   0.0002778
        k( 7071) = (  -0.5000000   0.2333333   0.1875000), wk =   0.0002778
        k( 7072) = (  -0.5000000   0.2333333   0.2500000), wk =   0.0002778
        k( 7073) = (  -0.5000000   0.2333333   0.3125000), wk =   0.0002778
        k( 7074) = (  -0.5000000   0.2333333   0.3750000), wk =   0.0002778
        k( 7075) = (  -0.5000000   0.2333333   0.4375000), wk =   0.0002778
        k( 7076) = (  -0.5000000   0.2333333  -0.5000000), wk =   0.0002778
        k( 7077) = (  -0.5000000   0.2333333  -0.4375000), wk =   0.0002778
        k( 7078) = (  -0.5000000   0.2333333  -0.3750000), wk =   0.0002778
        k( 7079) = (  -0.5000000   0.2333333  -0.3125000), wk =   0.0002778
        k( 7080) = (  -0.5000000   0.2333333  -0.2500000), wk =   0.0002778
        k( 7081) = (  -0.5000000   0.2333333  -0.1875000), wk =   0.0002778
        k( 7082) = (  -0.5000000   0.2333333  -0.1250000), wk =   0.0002778
        k( 7083) = (  -0.5000000   0.2333333  -0.0625000), wk =   0.0002778
        k( 7084) = (  -0.5000000   0.2666667   0.0000000), wk =   0.0002778
        k( 7085) = (  -0.5000000   0.2666667   0.0625000), wk =   0.0002778
        k( 7086) = (  -0.5000000   0.2666667   0.1250000), wk =   0.0002778
        k( 7087) = (  -0.5000000   0.2666667   0.1875000), wk =   0.0002778
        k( 7088) = (  -0.5000000   0.2666667   0.2500000), wk =   0.0002778
        k( 7089) = (  -0.5000000   0.2666667   0.3125000), wk =   0.0002778
        k( 7090) = (  -0.5000000   0.2666667   0.3750000), wk =   0.0002778
        k( 7091) = (  -0.5000000   0.2666667   0.4375000), wk =   0.0002778
        k( 7092) = (  -0.5000000   0.2666667  -0.5000000), wk =   0.0002778
        k( 7093) = (  -0.5000000   0.2666667  -0.4375000), wk =   0.0002778
        k( 7094) = (  -0.5000000   0.2666667  -0.3750000), wk =   0.0002778
        k( 7095) = (  -0.5000000   0.2666667  -0.3125000), wk =   0.0002778
        k( 7096) = (  -0.5000000   0.2666667  -0.2500000), wk =   0.0002778
        k( 7097) = (  -0.5000000   0.2666667  -0.1875000), wk =   0.0002778
        k( 7098) = (  -0.5000000   0.2666667  -0.1250000), wk =   0.0002778
        k( 7099) = (  -0.5000000   0.2666667  -0.0625000), wk =   0.0002778
        k( 7100) = (  -0.5000000   0.3000000   0.0000000), wk =   0.0002778
        k( 7101) = (  -0.5000000   0.3000000   0.0625000), wk =   0.0002778
        k( 7102) = (  -0.5000000   0.3000000   0.1250000), wk =   0.0002778
        k( 7103) = (  -0.5000000   0.3000000   0.1875000), wk =   0.0002778
        k( 7104) = (  -0.5000000   0.3000000   0.2500000), wk =   0.0002778
        k( 7105) = (  -0.5000000   0.3000000   0.3125000), wk =   0.0002778
        k( 7106) = (  -0.5000000   0.3000000   0.3750000), wk =   0.0002778
        k( 7107) = (  -0.5000000   0.3000000   0.4375000), wk =   0.0002778
        k( 7108) = (  -0.5000000   0.3000000  -0.5000000), wk =   0.0002778
        k( 7109) = (  -0.5000000   0.3000000  -0.4375000), wk =   0.0002778
        k( 7110) = (  -0.5000000   0.3000000  -0.3750000), wk =   0.0002778
        k( 7111) = (  -0.5000000   0.3000000  -0.3125000), wk =   0.0002778
        k( 7112) = (  -0.5000000   0.3000000  -0.2500000), wk =   0.0002778
        k( 7113) = (  -0.5000000   0.3000000  -0.1875000), wk =   0.0002778
        k( 7114) = (  -0.5000000   0.3000000  -0.1250000), wk =   0.0002778
        k( 7115) = (  -0.5000000   0.3000000  -0.0625000), wk =   0.0002778
        k( 7116) = (  -0.5000000   0.3333333   0.0000000), wk =   0.0002778
        k( 7117) = (  -0.5000000   0.3333333   0.0625000), wk =   0.0002778
        k( 7118) = (  -0.5000000   0.3333333   0.1250000), wk =   0.0002778
        k( 7119) = (  -0.5000000   0.3333333   0.1875000), wk =   0.0002778
        k( 7120) = (  -0.5000000   0.3333333   0.2500000), wk =   0.0002778
        k( 7121) = (  -0.5000000   0.3333333   0.3125000), wk =   0.0002778
        k( 7122) = (  -0.5000000   0.3333333   0.3750000), wk =   0.0002778
        k( 7123) = (  -0.5000000   0.3333333   0.4375000), wk =   0.0002778
        k( 7124) = (  -0.5000000   0.3333333  -0.5000000), wk =   0.0002778
        k( 7125) = (  -0.5000000   0.3333333  -0.4375000), wk =   0.0002778
        k( 7126) = (  -0.5000000   0.3333333  -0.3750000), wk =   0.0002778
        k( 7127) = (  -0.5000000   0.3333333  -0.3125000), wk =   0.0002778
        k( 7128) = (  -0.5000000   0.3333333  -0.2500000), wk =   0.0002778
        k( 7129) = (  -0.5000000   0.3333333  -0.1875000), wk =   0.0002778
        k( 7130) = (  -0.5000000   0.3333333  -0.1250000), wk =   0.0002778
        k( 7131) = (  -0.5000000   0.3333333  -0.0625000), wk =   0.0002778
        k( 7132) = (  -0.5000000   0.3666667   0.0000000), wk =   0.0002778
        k( 7133) = (  -0.5000000   0.3666667   0.0625000), wk =   0.0002778
        k( 7134) = (  -0.5000000   0.3666667   0.1250000), wk =   0.0002778
        k( 7135) = (  -0.5000000   0.3666667   0.1875000), wk =   0.0002778
        k( 7136) = (  -0.5000000   0.3666667   0.2500000), wk =   0.0002778
        k( 7137) = (  -0.5000000   0.3666667   0.3125000), wk =   0.0002778
        k( 7138) = (  -0.5000000   0.3666667   0.3750000), wk =   0.0002778
        k( 7139) = (  -0.5000000   0.3666667   0.4375000), wk =   0.0002778
        k( 7140) = (  -0.5000000   0.3666667  -0.5000000), wk =   0.0002778
        k( 7141) = (  -0.5000000   0.3666667  -0.4375000), wk =   0.0002778
        k( 7142) = (  -0.5000000   0.3666667  -0.3750000), wk =   0.0002778
        k( 7143) = (  -0.5000000   0.3666667  -0.3125000), wk =   0.0002778
        k( 7144) = (  -0.5000000   0.3666667  -0.2500000), wk =   0.0002778
        k( 7145) = (  -0.5000000   0.3666667  -0.1875000), wk =   0.0002778
        k( 7146) = (  -0.5000000   0.3666667  -0.1250000), wk =   0.0002778
        k( 7147) = (  -0.5000000   0.3666667  -0.0625000), wk =   0.0002778
        k( 7148) = (  -0.5000000   0.4000000   0.0000000), wk =   0.0002778
        k( 7149) = (  -0.5000000   0.4000000   0.0625000), wk =   0.0002778
        k( 7150) = (  -0.5000000   0.4000000   0.1250000), wk =   0.0002778
        k( 7151) = (  -0.5000000   0.4000000   0.1875000), wk =   0.0002778
        k( 7152) = (  -0.5000000   0.4000000   0.2500000), wk =   0.0002778
        k( 7153) = (  -0.5000000   0.4000000   0.3125000), wk =   0.0002778
        k( 7154) = (  -0.5000000   0.4000000   0.3750000), wk =   0.0002778
        k( 7155) = (  -0.5000000   0.4000000   0.4375000), wk =   0.0002778
        k( 7156) = (  -0.5000000   0.4000000  -0.5000000), wk =   0.0002778
        k( 7157) = (  -0.5000000   0.4000000  -0.4375000), wk =   0.0002778
        k( 7158) = (  -0.5000000   0.4000000  -0.3750000), wk =   0.0002778
        k( 7159) = (  -0.5000000   0.4000000  -0.3125000), wk =   0.0002778
        k( 7160) = (  -0.5000000   0.4000000  -0.2500000), wk =   0.0002778
        k( 7161) = (  -0.5000000   0.4000000  -0.1875000), wk =   0.0002778
        k( 7162) = (  -0.5000000   0.4000000  -0.1250000), wk =   0.0002778
        k( 7163) = (  -0.5000000   0.4000000  -0.0625000), wk =   0.0002778
        k( 7164) = (  -0.5000000   0.4333333   0.0000000), wk =   0.0002778
        k( 7165) = (  -0.5000000   0.4333333   0.0625000), wk =   0.0002778
        k( 7166) = (  -0.5000000   0.4333333   0.1250000), wk =   0.0002778
        k( 7167) = (  -0.5000000   0.4333333   0.1875000), wk =   0.0002778
        k( 7168) = (  -0.5000000   0.4333333   0.2500000), wk =   0.0002778
        k( 7169) = (  -0.5000000   0.4333333   0.3125000), wk =   0.0002778
        k( 7170) = (  -0.5000000   0.4333333   0.3750000), wk =   0.0002778
        k( 7171) = (  -0.5000000   0.4333333   0.4375000), wk =   0.0002778
        k( 7172) = (  -0.5000000   0.4333333  -0.5000000), wk =   0.0002778
        k( 7173) = (  -0.5000000   0.4333333  -0.4375000), wk =   0.0002778
        k( 7174) = (  -0.5000000   0.4333333  -0.3750000), wk =   0.0002778
        k( 7175) = (  -0.5000000   0.4333333  -0.3125000), wk =   0.0002778
        k( 7176) = (  -0.5000000   0.4333333  -0.2500000), wk =   0.0002778
        k( 7177) = (  -0.5000000   0.4333333  -0.1875000), wk =   0.0002778
        k( 7178) = (  -0.5000000   0.4333333  -0.1250000), wk =   0.0002778
        k( 7179) = (  -0.5000000   0.4333333  -0.0625000), wk =   0.0002778
        k( 7180) = (  -0.5000000   0.4666667   0.0000000), wk =   0.0002778
        k( 7181) = (  -0.5000000   0.4666667   0.0625000), wk =   0.0002778
        k( 7182) = (  -0.5000000   0.4666667   0.1250000), wk =   0.0002778
        k( 7183) = (  -0.5000000   0.4666667   0.1875000), wk =   0.0002778
        k( 7184) = (  -0.5000000   0.4666667   0.2500000), wk =   0.0002778
        k( 7185) = (  -0.5000000   0.4666667   0.3125000), wk =   0.0002778
        k( 7186) = (  -0.5000000   0.4666667   0.3750000), wk =   0.0002778
        k( 7187) = (  -0.5000000   0.4666667   0.4375000), wk =   0.0002778
        k( 7188) = (  -0.5000000   0.4666667  -0.5000000), wk =   0.0002778
        k( 7189) = (  -0.5000000   0.4666667  -0.4375000), wk =   0.0002778
        k( 7190) = (  -0.5000000   0.4666667  -0.3750000), wk =   0.0002778
        k( 7191) = (  -0.5000000   0.4666667  -0.3125000), wk =   0.0002778
        k( 7192) = (  -0.5000000   0.4666667  -0.2500000), wk =   0.0002778
        k( 7193) = (  -0.5000000   0.4666667  -0.1875000), wk =   0.0002778
        k( 7194) = (  -0.5000000   0.4666667  -0.1250000), wk =   0.0002778
        k( 7195) = (  -0.5000000   0.4666667  -0.0625000), wk =   0.0002778
        k( 7196) = (  -0.5000000  -0.5000000   0.0000000), wk =   0.0001389
        k( 7197) = (  -0.5000000  -0.5000000   0.0625000), wk =   0.0002778
        k( 7198) = (  -0.5000000  -0.5000000   0.1250000), wk =   0.0002778
        k( 7199) = (  -0.5000000  -0.5000000   0.1875000), wk =   0.0002778
        k( 7200) = (  -0.5000000  -0.5000000   0.2500000), wk =   0.0002778
        k( 7201) = (  -0.5000000  -0.5000000   0.3125000), wk =   0.0002778
        k( 7202) = (  -0.5000000  -0.5000000   0.3750000), wk =   0.0002778
        k( 7203) = (  -0.5000000  -0.5000000   0.4375000), wk =   0.0002778
        k( 7204) = (  -0.5000000  -0.5000000  -0.5000000), wk =   0.0001389

     Dense  grid:    41385 G-vectors     FFT dimensions: (  40,  40,  64)

     Smooth grid:    10407 G-vectors     FFT dimensions: (  25,  25,  40)

     Dynamical RAM for                 wfc:       0.01 MB

     Dynamical RAM for     wfc (w. buffer):      23.92 MB

     Dynamical RAM for           str. fact:       0.07 MB

     Dynamical RAM for           local pot:       0.00 MB

     Dynamical RAM for          nlocal pot:       0.04 MB

     Dynamical RAM for                qrad:       0.44 MB

     Dynamical RAM for          rho,v,vnew:       0.50 MB

     Dynamical RAM for               rhoin:       0.17 MB

     Dynamical RAM for            rho*nmix:       1.12 MB

     Dynamical RAM for           G-vectors:       0.27 MB

     Dynamical RAM for          h,s,v(r/c):       0.01 MB

     Dynamical RAM for          <psi|beta>:       0.00 MB

     Dynamical RAM for                 psi:       0.05 MB

     Dynamical RAM for                hpsi:       0.05 MB

     Dynamical RAM for                spsi:       0.05 MB

     Dynamical RAM for      wfcinit/wfcrot:       0.04 MB

     Dynamical RAM for           addusdens:       0.84 MB

     Dynamical RAM for          addusforce:       0.86 MB

     Dynamical RAM for         addusstress:       0.90 MB

     Estimated static dynamical RAM per process >      27.16 MB

     Estimated max dynamical RAM per process >      29.08 MB

     Estimated total dynamical RAM >       1.02 GB

     Initial potential from superposition of free atoms

     starting charge    3.99815, renormalised to    4.00000
     Starting wfcs are    8 randomized atomic wfcs
     Checking if some PAW data can be deallocated... 

     total cpu time spent up to now is        4.2 secs

     Self-consistent Calculation

     iteration #  1     ecut=    40.00 Ry     beta= 0.40
     Davidson diagonalization with overlap

 %%%%%%%%%%%%%%%%%%%%%%%%%%%%%%%%%%%%%%%%%%%%%%%%%%%%%%%%%%%%%%%%%%%%%%%%%%%%%%
     Error in routine  cdiaghg (7):
      problems computing cholesky
 %%%%%%%%%%%%%%%%%%%%%%%%%%%%%%%%%%%%%%%%%%%%%%%%%%%%%%%%%%%%%%%%%%%%%%%%%%%%%%

     stopping ...

 %%%%%%%%%%%%%%%%%%%%%%%%%%%%%%%%%%%%%%%%%%%%%%%%%%%%%%%%%%%%%%%%%%%%%%%%%%%%%%
     Error in routine  cdiaghg (7):
      problems computing cholesky
 %%%%%%%%%%%%%%%%%%%%%%%%%%%%%%%%%%%%%%%%%%%%%%%%%%%%%%%%%%%%%%%%%%%%%%%%%%%%%%

     stopping ...

 %%%%%%%%%%%%%%%%%%%%%%%%%%%%%%%%%%%%%%%%%%%%%%%%%%%%%%%%%%%%%%%%%%%%%%%%%%%%%%
     Error in routine  cdiaghg (7):
      problems computing cholesky
 %%%%%%%%%%%%%%%%%%%%%%%%%%%%%%%%%%%%%%%%%%%%%%%%%%%%%%%%%%%%%%%%%%%%%%%%%%%%%%

     stopping ...

 %%%%%%%%%%%%%%%%%%%%%%%%%%%%%%%%%%%%%%%%%%%%%%%%%%%%%%%%%%%%%%%%%%%%%%%%%%%%%%
     Error in routine  cdiaghg (7):
      problems computing cholesky
 %%%%%%%%%%%%%%%%%%%%%%%%%%%%%%%%%%%%%%%%%%%%%%%%%%%%%%%%%%%%%%%%%%%%%%%%%%%%%%

     stopping ...

 %%%%%%%%%%%%%%%%%%%%%%%%%%%%%%%%%%%%%%%%%%%%%%%%%%%%%%%%%%%%%%%%%%%%%%%%%%%%%%
     Error in routine  cdiaghg (7):
      problems computing cholesky
 %%%%%%%%%%%%%%%%%%%%%%%%%%%%%%%%%%%%%%%%%%%%%%%%%%%%%%%%%%%%%%%%%%%%%%%%%%%%%%

     stopping ...

 %%%%%%%%%%%%%%%%%%%%%%%%%%%%%%%%%%%%%%%%%%%%%%%%%%%%%%%%%%%%%%%%%%%%%%%%%%%%%%
     Error in routine  cdiaghg (7):
      problems computing cholesky
 %%%%%%%%%%%%%%%%%%%%%%%%%%%%%%%%%%%%%%%%%%%%%%%%%%%%%%%%%%%%%%%%%%%%%%%%%%%%%%

     stopping ...

 %%%%%%%%%%%%%%%%%%%%%%%%%%%%%%%%%%%%%%%%%%%%%%%%%%%%%%%%%%%%%%%%%%%%%%%%%%%%%%
     Error in routine  cdiaghg (7):
      problems computing cholesky
 %%%%%%%%%%%%%%%%%%%%%%%%%%%%%%%%%%%%%%%%%%%%%%%%%%%%%%%%%%%%%%%%%%%%%%%%%%%%%%

     stopping ...

 %%%%%%%%%%%%%%%%%%%%%%%%%%%%%%%%%%%%%%%%%%%%%%%%%%%%%%%%%%%%%%%%%%%%%%%%%%%%%%
     Error in routine  cdiaghg (7):
      problems computing cholesky
 %%%%%%%%%%%%%%%%%%%%%%%%%%%%%%%%%%%%%%%%%%%%%%%%%%%%%%%%%%%%%%%%%%%%%%%%%%%%%%

     stopping ...

 %%%%%%%%%%%%%%%%%%%%%%%%%%%%%%%%%%%%%%%%%%%%%%%%%%%%%%%%%%%%%%%%%%%%%%%%%%%%%%
     Error in routine  cdiaghg (9):
      problems computing cholesky
 %%%%%%%%%%%%%%%%%%%%%%%%%%%%%%%%%%%%%%%%%%%%%%%%%%%%%%%%%%%%%%%%%%%%%%%%%%%%%%

     stopping ...

 %%%%%%%%%%%%%%%%%%%%%%%%%%%%%%%%%%%%%%%%%%%%%%%%%%%%%%%%%%%%%%%%%%%%%%%%%%%%%%
     Error in routine  cdiaghg (9):
      problems computing cholesky
 %%%%%%%%%%%%%%%%%%%%%%%%%%%%%%%%%%%%%%%%%%%%%%%%%%%%%%%%%%%%%%%%%%%%%%%%%%%%%%

     stopping ...

 %%%%%%%%%%%%%%%%%%%%%%%%%%%%%%%%%%%%%%%%%%%%%%%%%%%%%%%%%%%%%%%%%%%%%%%%%%%%%%
     Error in routine  cdiaghg (9):
      problems computing cholesky
 %%%%%%%%%%%%%%%%%%%%%%%%%%%%%%%%%%%%%%%%%%%%%%%%%%%%%%%%%%%%%%%%%%%%%%%%%%%%%%

     stopping ...

 %%%%%%%%%%%%%%%%%%%%%%%%%%%%%%%%%%%%%%%%%%%%%%%%%%%%%%%%%%%%%%%%%%%%%%%%%%%%%%
     Error in routine  cdiaghg (9):
      problems computing cholesky
 %%%%%%%%%%%%%%%%%%%%%%%%%%%%%%%%%%%%%%%%%%%%%%%%%%%%%%%%%%%%%%%%%%%%%%%%%%%%%%

     stopping ...

 %%%%%%%%%%%%%%%%%%%%%%%%%%%%%%%%%%%%%%%%%%%%%%%%%%%%%%%%%%%%%%%%%%%%%%%%%%%%%%
     Error in routine  cdiaghg (9):
      problems computing cholesky
 %%%%%%%%%%%%%%%%%%%%%%%%%%%%%%%%%%%%%%%%%%%%%%%%%%%%%%%%%%%%%%%%%%%%%%%%%%%%%%

     stopping ...

 %%%%%%%%%%%%%%%%%%%%%%%%%%%%%%%%%%%%%%%%%%%%%%%%%%%%%%%%%%%%%%%%%%%%%%%%%%%%%%
     Error in routine  cdiaghg (9):
      problems computing cholesky
 %%%%%%%%%%%%%%%%%%%%%%%%%%%%%%%%%%%%%%%%%%%%%%%%%%%%%%%%%%%%%%%%%%%%%%%%%%%%%%

     stopping ...

 %%%%%%%%%%%%%%%%%%%%%%%%%%%%%%%%%%%%%%%%%%%%%%%%%%%%%%%%%%%%%%%%%%%%%%%%%%%%%%
     Error in routine  cdiaghg (9):
      problems computing cholesky
 %%%%%%%%%%%%%%%%%%%%%%%%%%%%%%%%%%%%%%%%%%%%%%%%%%%%%%%%%%%%%%%%%%%%%%%%%%%%%%

     stopping ...

 %%%%%%%%%%%%%%%%%%%%%%%%%%%%%%%%%%%%%%%%%%%%%%%%%%%%%%%%%%%%%%%%%%%%%%%%%%%%%%
     Error in routine  cdiaghg (9):
      problems computing cholesky
 %%%%%%%%%%%%%%%%%%%%%%%%%%%%%%%%%%%%%%%%%%%%%%%%%%%%%%%%%%%%%%%%%%%%%%%%%%%%%%

     stopping ...
