
     Program PWSCF v.6.3 starts on 22Feb2020 at 14:12:20 

     This program is part of the open-source Quantum ESPRESSO suite
     for quantum simulation of materials; please cite
         "P. Giannozzi et al., J. Phys.:Condens. Matter 21 395502 (2009);
         "P. Giannozzi et al., J. Phys.:Condens. Matter 29 465901 (2017);
          URL http://www.quantum-espresso.org", 
     in publications or presentations arising from this work. More details at
     http://www.quantum-espresso.org/quote

 *** WARNING: using old-style file format, will disappear from next version ***

     Parallel version (MPI & OpenMP), running on      36 processor cores
     Number of MPI processes:                36
     Threads/MPI process:                     1

     MPI processes distributed on     1 nodes
     K-points division:     npool     =       4
     R & G space division:  proc/nbgrp/npool/nimage =       9
     Reading input from aiida.in
Warning: card &IONS ignored
Warning: card   !PRESS_CONV_THR = 0.05                 ! JUST FOR VOLUME RELAXATIONS ignored
Warning: card / ignored

     Current dimensions of program PWSCF are:
     Max number of different atomic species (ntypx) = 10
     Max number of k-points (npk) =  40000
     Max angular momentum in pseudopotentials (lmaxx) =  3
               file Mg.pbe-n-kjpaw_psl.0.3.0.UPF: wavefunction(s)  3S renormalized
               file Al.pbe-n-kjpaw_psl.1.0.0.UPF: wavefunction(s)  3S 3P renormalized

     Subspace diagonalization in iterative solution of the eigenvalue problem:
     one sub-group per band group will be used
     scalapack distributed-memory algorithm (size of sub-group:  2*  2 procs)

 
     Parallelization info
     --------------------
     sticks:   dense  smooth     PW     G-vecs:    dense   smooth      PW
     Min        6215    2488    723               308211    78008   12154
     Max        6216    2489    724               308212    78009   12155
     Sum       55941   22399   6511              2773903   702073  109391
 


     bravais-lattice index     =            0
     lattice parameter (alat)  =     228.9356  a.u.
     unit-cell volume          =   20526.5310 (a.u.)^3
     number of atoms/cell      =          176
     number of atomic types    =            3
     number of electrons       =       520.00
     number of Kohn-Sham states=          312
     kinetic-energy cutoff     =      40.0000  Ry
     charge density cutoff     =     400.0000  Ry
     convergence threshold     =      1.0E-12
     mixing beta               =       0.4000
     number of iterations used =            8  local-TF  mixing
     Exchange-correlation      = SLA PW PBX PBC ( 1  4  3  4 0 0)

     celldm(1)= 228.935565  celldm(2)=   0.000000  celldm(3)=   0.000000
     celldm(4)=   0.000000  celldm(5)=   0.000000  celldm(6)=   0.000000

     crystal axes: (cart. coord. in units of alat)
               a(1) = (   1.000000   0.000000   0.000000 )  
               a(2) = (   0.000000   0.033488   0.000000 )  
               a(3) = (  -0.013932   0.000000   0.051084 )  

     reciprocal axes: (cart. coord. in units 2 pi/alat)
               b(1) = (  1.000000  0.000000  0.272727 )  
               b(2) = (  0.000000 29.861101  0.000000 )  
               b(3) = (  0.000000  0.000000 19.575751 )  


     PseudoPot. # 1 for Mg read from file:
     /users/aglensk/Dropbox/Albert/scripts/dotfiles/scripts/potentials/quantum_espresso/pseudo_SSSPefV1.1_alalloy/Mg.pbe-n-kjpaw_psl.0.3.0.UPF
     MD5 check sum: 24ecedc7f3e3cbe212e682f4413594e4
     Pseudo is Projector augmented-wave + core cor, Zval =  2.0
     Generated using "atomic" code by A. Dal Corso v.5.0.99 svn rev. 10869
     Shape of augmentation charge: PSQ
     Using radial grid of 1129 points,  4 beta functions with: 
                l(1) =   0
                l(2) =   0
                l(3) =   1
                l(4) =   1
     Q(r) pseudized with 0 coefficients 


     PseudoPot. # 2 for Si read from file:
     /users/aglensk/Dropbox/Albert/scripts/dotfiles/scripts/potentials/quantum_espresso/pseudo_SSSPefV1.1_alalloy/Si.pbe-n-rrkjus_psl.1.0.0.UPF
     MD5 check sum: 0b0bb1205258b0d07b9f9672cf965d36
     Pseudo is Ultrasoft + core correction, Zval =  4.0
     Generated using "atomic" code by A. Dal Corso v.5.1
     Using radial grid of 1141 points,  6 beta functions with: 
                l(1) =   0
                l(2) =   0
                l(3) =   1
                l(4) =   1
                l(5) =   2
                l(6) =   2
     Q(r) pseudized with 0 coefficients 


     PseudoPot. # 3 for Al read from file:
     /users/aglensk/Dropbox/Albert/scripts/dotfiles/scripts/potentials/quantum_espresso/pseudo_SSSPefV1.1_alalloy/Al.pbe-n-kjpaw_psl.1.0.0.UPF
     MD5 check sum: cfc449ca30b5f3223ec38ddd88ac046d
     Pseudo is Projector augmented-wave + core cor, Zval =  3.0
     Generated using "atomic" code by A. Dal Corso v.5.1
     Shape of augmentation charge: PSQ
     Using radial grid of 1135 points,  6 beta functions with: 
                l(1) =   0
                l(2) =   0
                l(3) =   1
                l(4) =   1
                l(5) =   2
                l(6) =   2
     Q(r) pseudized with 0 coefficients 


     atomic species   valence    mass     pseudopotential
        Mg             2.00    24.30500     Mg( 1.00)
        Si             4.00    28.08500     Si( 1.00)
        Al             3.00    26.98154     Al( 1.00)

     No symmetry found


                                    s                        frac. trans.

      isym =  1     identity                                     

 cryst.   s( 1) = (     1          0          0      )
                  (     0          1          0      )
                  (     0          0          1      )

 cart.    s( 1) = (  1.0000000  0.0000000 -0.0000000 )
                  (  0.0000000  1.0000000  0.0000000 )
                  (  0.0000000  0.0000000  1.0000000 )


   Cartesian axes

     site n.     atom                  positions (alat units)
         1           Mg  tau(   1) = (   0.0171130   0.0000000   0.0493039  )
         2           Mg  tau(   2) = (   0.0355350   0.0167442   0.0165986  )
         3           Mg  tau(   3) = (   0.0377878   0.0167442   0.0446822  )
         4           Mg  tau(   4) = (   0.0743982   0.0000000   0.0028900  )
         5           Mg  tau(   5) = (   0.0765279   0.0000000   0.0311382  )
         6           Si  tau(   6) = (   0.0290969   0.0000000   0.0316425  )
         7           Si  tau(   7) = (   0.0518665   0.0000000   0.0094066  )
         8           Al  tau(   8) = (   0.0500237   0.0000000   0.0302323  )
         9           Al  tau(   9) = (   0.0621216   0.0167442   0.0174497  )
        10           Si  tau(  10) = (   0.0604251   0.0167442   0.0382594  )
        11           Si  tau(  11) = (   0.0830645   0.0167442   0.0159420  )
        12           Mg  tau(  12) = (   0.0814136   0.0167442   0.0496324  )
        13           Mg  tau(  13) = (   0.1001951   0.0000000   0.0170236  )
        14           Mg  tau(  14) = (   0.1023526   0.0000000   0.0452278  )
        15           Mg  tau(  15) = (   0.0092263   0.0167442   0.0026641  )
        16           Mg  tau(  16) = (   0.0118858   0.0167442   0.0303200  )
        17           Si  tau(  17) = (   0.0936757   0.0167442   0.0322269  )
        18           Si  tau(  18) = (   0.1163644   0.0167442   0.0098726  )
        19           Al  tau(  19) = (   0.9860585   0.0167442   0.0296415  )
        20           Al  tau(  20) = (   0.1267002   0.0000000   0.0178912  )
        21           Si  tau(  21) = (  -0.0026362   0.0000000   0.0377388  )
        22           Si  tau(  22) = (   0.0179842   0.0000000   0.0153749  )
        23           Mg  tau(  23) = (   0.1459779   0.0000000   0.0500533  )
        24           Mg  tau(  24) = (   0.1647784   0.0167442   0.0174570  )
        25           Mg  tau(  25) = (   0.1669930   0.0167442   0.0456595  )
        26           Mg  tau(  26) = (   0.2034954   0.0000000   0.0037232  )
        27           Mg  tau(  27) = (   0.2056874   0.0000000   0.0319321  )
        28           Si  tau(  28) = (   0.1582841   0.0000000   0.0326679  )
        29           Si  tau(  29) = (   0.1809142   0.0000000   0.0102760  )
        30           Al  tau(  30) = (   0.1792147   0.0000000   0.0311029  )
        31           Al  tau(  31) = (   0.1912414   0.0167442   0.0182786  )
        32           Si  tau(  32) = (   0.1895463   0.0167442   0.0391008  )
        33           Si  tau(  33) = (   0.2121459   0.0167442   0.0166883  )
        34           Mg  tau(  34) = (   0.2105083   0.0167442   0.0503709  )
        35           Mg  tau(  35) = (   0.2292541   0.0000000   0.0177212  )
        36           Mg  tau(  36) = (   0.2314187   0.0000000   0.0459317  )
        37           Mg  tau(  37) = (   0.1389593   0.0167442   0.0033689  )
        38           Mg  tau(  38) = (   0.1411082   0.0167442   0.0315708  )
        39           Si  tau(  39) = (   0.2227788   0.0167442   0.0329529  )
        40           Si  tau(  40) = (   0.2454225   0.0167442   0.0105537  )
        41           Al  tau(  41) = (   0.1145966   0.0167442   0.0307018  )
        42           Al  tau(  42) = (   0.2557797   0.0000000   0.0185427  )
        43           Si  tau(  43) = (   0.1249353   0.0000000   0.0387231  )
        44           Si  tau(  44) = (   0.1476437   0.0000000   0.0163867  )
        45           Mg  tau(  45) = (   0.2751349   0.0000000   0.0506598  )
        46           Mg  tau(  46) = (   0.2940165   0.0167442   0.0180708  )
        47           Mg  tau(  47) = (   0.2962237   0.0167442   0.0462830  )
        48           Mg  tau(  48) = (   0.3330040   0.0000000   0.0043978  )
        49           Mg  tau(  49) = (   0.3352252   0.0000000   0.0326026  )
        50           Si  tau(  50) = (   0.2874755   0.0000000   0.0332618  )
        51           Si  tau(  51) = (   0.3103014   0.0000000   0.0109303  )
        52           Al  tau(  52) = (   0.3085029   0.0000000   0.0317612  )
        53           Al  tau(  53) = (   0.3207431   0.0167442   0.0189139  )
        54           Si  tau(  54) = (   0.3189432   0.0167442   0.0397475  )
        55           Si  tau(  55) = (   0.3418093   0.0167442   0.0174496  )
        56           Mg  tau(  56) = (   0.3541388   0.0167442   0.0000338  )
        57           Mg  tau(  57) = (   0.3591275   0.0000000   0.0185509  )
        58           Mg  tau(  58) = (   0.3613435   0.0000000   0.0467683  )
        59           Mg  tau(  59) = (   0.2679992   0.0167442   0.0039977  )
        60           Mg  tau(  60) = (   0.2702147   0.0167442   0.0321720  )
        61           Si  tau(  61) = (   0.3525534   0.0167442   0.0337112  )
        62           Si  tau(  62) = (   0.3754205   0.0167442   0.0114311  )
        63           Al  tau(  63) = (   0.2436903   0.0167442   0.0313729  )
        64           Al  tau(  64) = (   0.3858738   0.0000000   0.0194332  )
        65           Si  tau(  65) = (   0.2540366   0.0000000   0.0393705  )
        66           Si  tau(  66) = (   0.2767717   0.0000000   0.0170008  )
        67           Mg  tau(  67) = (   0.4192989   0.0000000   0.0006128  )
        68           Mg  tau(  68) = (   0.4243178   0.0167442   0.0191395  )
        69           Mg  tau(  69) = (   0.4264855   0.0167442   0.0473881  )
        70           Mg  tau(  70) = (   0.4633827   0.0000000   0.0056368  )
        71           Mg  tau(  71) = (   0.4656394   0.0000000   0.0337491  )
        72           Si  tau(  72) = (   0.4176958   0.0000000   0.0342730  )
        73           Si  tau(  73) = (   0.4405701   0.0000000   0.0120452  )
        74           Al  tau(  74) = (   0.4387881   0.0000000   0.0328953  )
        75           Al  tau(  75) = (   0.4510955   0.0167442   0.0200572  )
        76           Si  tau(  76) = (   0.4491751   0.0167442   0.0409053  )
        77           Si  tau(  77) = (   0.4721829   0.0167442   0.0188087  )
        78           Mg  tau(  78) = (   0.4842774   0.0167442   0.0011267  )
        79           Mg  tau(  79) = (   0.4896108   0.0000000   0.0201705  )
        80           Mg  tau(  80) = (   0.4923138   0.0000000   0.0477954  )
        81           Mg  tau(  81) = (   0.3981491   0.0167442   0.0049354  )
        82           Mg  tau(  82) = (   0.4003714   0.0167442   0.0331566  )
        83           Si  tau(  83) = (   0.4833918   0.0167442   0.0350038  )
        84           Si  tau(  84) = (   0.5042754   0.0167442   0.0127987  )
        85           Al  tau(  85) = (   0.3736262   0.0167442   0.0322704  )
        86           Al  tau(  86) = (   0.5157288   0.0000000   0.0208263  )
        87           Si  tau(  87) = (   0.3840715   0.0000000   0.0402746  )
        88           Si  tau(  88) = (   0.4069426   0.0000000   0.0180087  )
        89           Al  tau(  89) = (   0.5431197   0.0000000   0.0386881  )
        90           Al  tau(  90) = (   0.5476282   0.0167442   0.0014944  )
        91           Al  tau(  91) = (   0.5570619   0.0167442   0.0477560  )
        92           Al  tau(  92) = (   0.5615701   0.0000000   0.0105725  )
        93           Al  tau(  93) = (   0.5848749   0.0000000   0.0058030  )
        94           Al  tau(  94) = (   0.5755711   0.0167442   0.0197680  )
        95           Al  tau(  95) = (   0.5988199   0.0167442   0.0149608  )
        96           Al  tau(  96) = (   0.6127428   0.0000000   0.0241278  )
        97           Al  tau(  97) = (   0.5053867   0.0167442   0.0341491  )
        98           Al  tau(  98) = (   0.5295224   0.0167442   0.0297918  )
        99           Al  tau(  99) = (   0.5188449   0.0000000   0.0433565  )
       100           Al  tau( 100) = (   0.5381766   0.0000000   0.0153936  )
       101           Al  tau( 101) = (   0.5523851   0.0167442   0.0245754  )
       102           Al  tau( 102) = (   0.5662223   0.0000000   0.0337201  )
       103           Al  tau( 103) = (   0.5895043   0.0000000   0.0289196  )
       104           Al  tau( 104) = (   0.5802214   0.0167442   0.0428974  )
       105           Al  tau( 105) = (   0.6034674   0.0167442   0.0381004  )
       106           Al  tau( 106) = (   0.6080910   0.0000000   0.0009730  )
       107           Al  tau( 107) = (   0.6173963   0.0000000   0.0472805  )
       108           Al  tau( 108) = (   0.6220389   0.0167442   0.0101612  )
       109           Al  tau( 109) = (   0.6359710   0.0000000   0.0193478  )
       110           Al  tau( 110) = (   0.5244448   0.0167442   0.0059226  )
       111           Al  tau( 111) = (   0.6638366   0.0000000   0.0377330  )
       112           Al  tau( 112) = (   0.6684820   0.0167442   0.0006128  )
       113           Al  tau( 113) = (   0.6777499   0.0167442   0.0469258  )
       114           Al  tau( 114) = (   0.6824005   0.0000000   0.0098051  )
       115           Al  tau( 115) = (   0.7055690   0.0000000   0.0050280  )
       116           Al  tau( 116) = (   0.6962994   0.0167442   0.0189945  )
       117           Al  tau( 117) = (   0.7194163   0.0167442   0.0142044  )
       118           Al  tau( 118) = (   0.7332169   0.0000000   0.0233682  )
       119           Al  tau( 119) = (   0.6266817   0.0167442   0.0333151  )
       120           Al  tau( 120) = (   0.6499111   0.0167442   0.0285409  )
       121           Al  tau( 121) = (   0.6406177   0.0000000   0.0425030  )
       122           Al  tau( 122) = (   0.6591985   0.0000000   0.0145781  )
       123           Al  tau( 123) = (   0.6731224   0.0167442   0.0237712  )
       124           Al  tau( 124) = (   0.6870265   0.0000000   0.0329610  )
       125           Al  tau( 125) = (   0.7101613   0.0000000   0.0281744  )
       126           Al  tau( 126) = (   0.7009022   0.0167442   0.0421441  )
       127           Al  tau( 127) = (   0.7239774   0.0167442   0.0373427  )
       128           Al  tau( 128) = (   0.7286651   0.0000000   0.0002324  )
       129           Al  tau( 129) = (   0.7377552   0.0000000   0.0464990  )
       130           Al  tau( 130) = (   0.7424532   0.0167442   0.0093922  )
       131           Al  tau( 131) = (   0.7562225   0.0000000   0.0185434  )
       132           Al  tau( 132) = (   0.6452685   0.0167442   0.0053884  )
       133           Al  tau( 133) = (   0.7838209   0.0000000   0.0368440  )
       134           Al  tau( 134) = (   0.7745708   0.0167442   0.0508212  )
       135           Al  tau( 135) = (   0.7976366   0.0167442   0.0459912  )
       136           Al  tau( 136) = (   0.8023213   0.0000000   0.0088867  )
       137           Al  tau( 137) = (   0.8253651   0.0000000   0.0040494  )
       138           Al  tau( 138) = (   0.8161227   0.0167442   0.0180295  )
       139           Al  tau( 139) = (   0.8391546   0.0167442   0.0131993  )
       140           Al  tau( 140) = (   0.8529725   0.0000000   0.0223543  )
       141           Al  tau( 141) = (   0.7469888   0.0167442   0.0325215  )
       142           Al  tau( 142) = (   0.7700081   0.0167442   0.0276930  )
       143           Al  tau( 143) = (   0.7607654   0.0000000   0.0416710  )
       144           Al  tau( 144) = (   0.7792536   0.0000000   0.0137156  )
       145           Al  tau( 145) = (   0.7930721   0.0167442   0.0228659  )
       146           Al  tau( 146) = (   0.8068831   0.0000000   0.0320101  )
       147           Al  tau( 147) = (   0.8299118   0.0000000   0.0271715  )
       148           Al  tau( 148) = (   0.8206677   0.0167442   0.0411553  )
       149           Al  tau( 149) = (   0.8437180   0.0167442   0.0363320  )
       150           Al  tau( 150) = (   0.8344754   0.0000000   0.0503029  )
       151           Al  tau( 151) = (   0.8575483   0.0000000   0.0454790  )
       152           Al  tau( 152) = (   0.8622369   0.0167442   0.0083794  )
       153           Al  tau( 153) = (   0.8760380   0.0000000   0.0175246  )
       154           Al  tau( 154) = (   0.7654589   0.0167442   0.0045654  )
       155           Al  tau( 155) = (   0.9036269   0.0000000   0.0357731  )
       156           Al  tau( 156) = (   0.8944147   0.0167442   0.0497652  )
       157           Al  tau( 157) = (   0.9174268   0.0167442   0.0448749  )
       158           Al  tau( 158) = (   0.9221394   0.0000000   0.0078038  )
       159           Al  tau( 159) = (   0.9450950   0.0000000   0.0029345  )
       160           Al  tau( 160) = (   0.9360000   0.0167442   0.0169462  )
       161           Al  tau( 161) = (   0.9589449   0.0167442   0.0118986  )
       162           Al  tau( 162) = (   0.9724002   0.0000000   0.0207896  )
       163           Al  tau( 163) = (   0.8668117   0.0167442   0.0315068  )
       164           Al  tau( 164) = (   0.8898603   0.0167442   0.0266462  )
       165           Al  tau( 165) = (   0.8805945   0.0000000   0.0406388  )
       166           Al  tau( 166) = (   0.8990786   0.0000000   0.0126609  )
       167           Al  tau( 167) = (   0.9129110   0.0167442   0.0217892  )
       168           Al  tau( 168) = (   0.9267031   0.0000000   0.0309160  )
       169           Al  tau( 169) = (   0.9497114   0.0000000   0.0260602  )
       170           Al  tau( 170) = (   0.9405299   0.0167442   0.0400639  )
       171           Al  tau( 171) = (   0.9637020   0.0167442   0.0351322  )
       172           Al  tau( 172) = (   0.9543419   0.0000000   0.0490848  )
       173           Al  tau( 173) = (   0.9772874   0.0000000   0.0445788  )
       174           Al  tau( 174) = (   0.9829804   0.0167442   0.0071412  )
       175           Al  tau( 175) = (  -0.0037567   0.0000000   0.0163439  )
       176           Al  tau( 176) = (   0.8853055   0.0167442   0.0035356  )

   Crystallographic axes

     site n.     atom                  positions (cryst. coord.)
         1           Mg  tau(   1) = (  0.0305595  0.0000000  0.9651603  )
         2           Mg  tau(   2) = (  0.0400619  0.5000000  0.3249296  )
         3           Mg  tau(   3) = (  0.0499738  0.5000000  0.8746869  )
         4           Mg  tau(   4) = (  0.0751863  0.0000000  0.0565739  )
         5           Mg  tau(   5) = (  0.0850201  0.0000000  0.6095540  )
         6           Si  tau(   6) = (  0.0377267  0.0000000  0.6194256  )
         7           Si  tau(   7) = (  0.0544319  0.0000000  0.1841415  )
         8           Al  tau(   8) = (  0.0582689  0.0000000  0.5918209  )
         9           Al  tau(   9) = (  0.0668806  0.5000000  0.3415907  )
        10           Si  tau(  10) = (  0.0708595  0.5000000  0.7489572  )
        11           Si  tau(  11) = (  0.0874123  0.5000000  0.3120764  )
        12           Mg  tau(  12) = (  0.0949497  0.5000000  0.9715916  )
        13           Mg  tau(  13) = (  0.1048379  0.0000000  0.3332489  )
        14           Mg  tau(  14) = (  0.1146875  0.0000000  0.8853686  )
        15           Mg  tau(  15) = (  0.0099529  0.5000000  0.0521524  )
        16           Mg  tau(  16) = (  0.0201549  0.5000000  0.5935375  )
        17           Si  tau(  17) = (  0.1024648  0.5000000  0.6308652  )
        18           Si  tau(  18) = (  0.1190569  0.5000000  0.1932640  )
        19           Al  tau(  19) = (  0.9941426  0.5000000  0.5802551  )
        20           Al  tau(  20) = (  0.1315797  0.0000000  0.3502343  )
        21           Si  tau(  21) = (  0.0076562  0.0000000  0.7387653  )
        22           Si  tau(  22) = (  0.0221773  0.0000000  0.3009759  )
        23           Mg  tau(  23) = (  0.1596288  0.0000000  0.9798305  )
        24           Mg  tau(  24) = (  0.1695394  0.5000000  0.3417341  )
        25           Mg  tau(  25) = (  0.1794456  0.5000000  0.8938197  )
        26           Mg  tau(  26) = (  0.2045108  0.0000000  0.0728850  )
        27           Mg  tau(  27) = (  0.2143961  0.0000000  0.6250945  )
        28           Si  tau(  28) = (  0.1671935  0.0000000  0.6394996  )
        29           Si  tau(  29) = (  0.1837167  0.0000000  0.2011604  )
        30           Al  tau(  30) = (  0.1876973  0.0000000  0.6088633  )
        31           Al  tau(  31) = (  0.1962265  0.5000000  0.3578167  )
        32           Si  tau(  32) = (  0.2002101  0.5000000  0.7654272  )
        33           Si  tau(  33) = (  0.2166973  0.5000000  0.3266864  )
        34           Mg  tau(  34) = (  0.2242458  0.5000000  0.9860478  )
        35           Mg  tau(  35) = (  0.2340872  0.0000000  0.3469062  )
        36           Mg  tau(  36) = (  0.2439455  0.0000000  0.8991484  )
        37           Mg  tau(  37) = (  0.1398781  0.5000000  0.0659493  )
        38           Mg  tau(  38) = (  0.1497184  0.5000000  0.6180217  )
        39           Si  tau(  39) = (  0.2317659  0.5000000  0.6450769  )
        40           Si  tau(  40) = (  0.2483008  0.5000000  0.2065959  )
        41           Al  tau(  41) = (  0.1229698  0.5000000  0.6010109  )
        42           Al  tau(  42) = (  0.2608368  0.0000000  0.3629875  )
        43           Si  tau(  43) = (  0.1354962  0.0000000  0.7580343  )
        44           Si  tau(  44) = (  0.1521128  0.0000000  0.3207829  )
        45           Mg  tau(  45) = (  0.2889512  0.0000000  0.9917030  )
        46           Mg  tau(  46) = (  0.2989449  0.5000000  0.3537491  )
        47           Mg  tau(  47) = (  0.3088464  0.5000000  0.9060253  )
        48           Mg  tau(  48) = (  0.3342034  0.0000000  0.0860902  )
        49           Mg  tau(  49) = (  0.3441168  0.0000000  0.6382196  )
        50           Si  tau(  50) = (  0.2965469  0.0000000  0.6511244  )
        51           Si  tau(  51) = (  0.3132824  0.0000000  0.2139696  )
        52           Al  tau(  52) = (  0.3171651  0.0000000  0.6217498  )
        53           Al  tau(  53) = (  0.3259014  0.5000000  0.3702542  )
        54           Si  tau(  54) = (  0.3297835  0.5000000  0.7780873  )
        55           Si  tau(  55) = (  0.3465683  0.5000000  0.3415882  )
        56           Mg  tau(  56) = (  0.3541480  0.5000000  0.0006608  )
        57           Mg  tau(  57) = (  0.3641868  0.0000000  0.3631472  )
        58           Mg  tau(  58) = (  0.3740985  0.0000000  0.9155250  )
        59           Mg  tau(  59) = (  0.2690895  0.5000000  0.0782578  )
        60           Mg  tau(  60) = (  0.2789889  0.5000000  0.6297905  )
        61           Si  tau(  61) = (  0.3617473  0.5000000  0.6599222  )
        62           Si  tau(  62) = (  0.3785381  0.5000000  0.2237729  )
        63           Al  tau(  63) = (  0.2522466  0.5000000  0.6141482  )
        64           Al  tau(  64) = (  0.3911737  0.0000000  0.3804194  )
        65           Si  tau(  65) = (  0.2647740  0.0000000  0.7707066  )
        66           Si  tau(  66) = (  0.2814083  0.0000000  0.3328040  )
        67           Mg  tau(  67) = (  0.4194660  0.0000000  0.0119968  )
        68           Mg  tau(  68) = (  0.4295376  0.5000000  0.3746704  )
        69           Mg  tau(  69) = (  0.4394095  0.5000000  0.9276575  )
        70           Mg  tau(  70) = (  0.4649200  0.0000000  0.1103451  )
        71           Mg  tau(  71) = (  0.4748437  0.0000000  0.6606633  )
        72           Si  tau(  72) = (  0.4270429  0.0000000  0.6709189  )
        73           Si  tau(  73) = (  0.4438552  0.0000000  0.2357941  )
        74           Al  tau(  74) = (  0.4477596  0.0000000  0.6439504  )
        75           Al  tau(  75) = (  0.4565657  0.5000000  0.3926351  )
        76           Si  tau(  76) = (  0.4603311  0.5000000  0.8007524  )
        77           Si  tau(  77) = (  0.4773126  0.5000000  0.3681953  )
        78           Mg  tau(  78) = (  0.4845847  0.5000000  0.0220553  )
        79           Mg  tau(  79) = (  0.4951119  0.0000000  0.3948530  )
        80           Mg  tau(  80) = (  0.5053489  0.0000000  0.9356314  )
        81           Mg  tau(  81) = (  0.3994951  0.5000000  0.0966149  )
        82           Mg  tau(  82) = (  0.4094141  0.5000000  0.6490654  )
        83           Si  tau(  83) = (  0.4929382  0.5000000  0.6852251  )
        84           Si  tau(  84) = (  0.5077660  0.5000000  0.2505437  )
        85           Al  tau(  85) = (  0.3824272  0.5000000  0.6317177  )
        86           Al  tau(  86) = (  0.5214087  0.0000000  0.4076895  )
        87           Si  tau(  87) = (  0.3950555  0.0000000  0.7884061  )
        88           Si  tau(  88) = (  0.4118541  0.0000000  0.3525337  )
        89           Al  tau(  89) = (  0.5536710  0.0000000  0.7573488  )
        90           Al  tau(  90) = (  0.5480358  0.5000000  0.0292536  )
        91           Al  tau(  91) = (  0.5700863  0.5000000  0.9348602  )
        92           Al  tau(  92) = (  0.5644535  0.0000000  0.2069653  )
        93           Al  tau(  93) = (  0.5864576  0.0000000  0.1135989  )
        94           Al  tau(  94) = (  0.5809623  0.5000000  0.3869726  )
        95           Al  tau(  95) = (  0.6029001  0.5000000  0.2928693  )
        96           Al  tau(  96) = (  0.6193231  0.0000000  0.4723192  )
        97           Al  tau(  97) = (  0.5147001  0.5000000  0.6684946  )
        98           Al  tau(  98) = (  0.5376474  0.5000000  0.5831971  )
        99           Al  tau(  99) = (  0.5306694  0.0000000  0.8487359  )
       100           Al  tau( 100) = (  0.5423749  0.0000000  0.3013406  )
       101           Al  tau( 101) = (  0.5590874  0.5000000  0.4810810  )
       102           Al  tau( 102) = (  0.5754187  0.0000000  0.6600969  )
       103           Al  tau( 103) = (  0.5973915  0.0000000  0.5661232  )
       104           Al  tau( 104) = (  0.5919207  0.5000000  0.8397495  )
       105           Al  tau( 105) = (  0.6138584  0.5000000  0.7458435  )
       106           Al  tau( 106) = (  0.6083563  0.0000000  0.0190468  )
       107           Al  tau( 107) = (  0.6302909  0.0000000  0.9255507  )
       108           Al  tau( 108) = (  0.6248101  0.5000000  0.1989133  )
       109           Al  tau( 109) = (  0.6412477  0.0000000  0.3787477  )
       110           Al  tau( 110) = (  0.5260601  0.5000000  0.1159394  )
       111           Al  tau( 111) = (  0.6741274  0.0000000  0.7386520  )
       112           Al  tau( 112) = (  0.6686491  0.5000000  0.0119960  )
       113           Al  tau( 113) = (  0.6905478  0.5000000  0.9186070  )
       114           Al  tau( 114) = (  0.6850746  0.0000000  0.1919422  )
       115           Al  tau( 115) = (  0.7069403  0.0000000  0.0984276  )
       116           Al  tau( 116) = (  0.7014797  0.5000000  0.3718320  )
       117           Al  tau( 117) = (  0.7232903  0.5000000  0.2780618  )
       118           Al  tau( 118) = (  0.7395901  0.0000000  0.4574491  )
       119           Al  tau( 119) = (  0.6357676  0.5000000  0.6521676  )
       120           Al  tau( 120) = (  0.6576950  0.5000000  0.5587101  )
       121           Al  tau( 121) = (  0.6522095  0.0000000  0.8320278  )
       122           Al  tau( 122) = (  0.6631744  0.0000000  0.2853775  )
       123           Al  tau( 123) = (  0.6796055  0.5000000  0.4653385  )
       124           Al  tau( 124) = (  0.6960158  0.0000000  0.6452360  )
       125           Al  tau( 125) = (  0.7178452  0.0000000  0.5515342  )
       126           Al  tau( 126) = (  0.7123960  0.5000000  0.8250015  )
       127           Al  tau( 127) = (  0.7341617  0.5000000  0.7310111  )
       128           Al  tau( 128) = (  0.7287284  0.0000000  0.0045485  )
       129           Al  tau( 129) = (  0.7504368  0.0000000  0.9102528  )
       130           Al  tau( 130) = (  0.7450147  0.5000000  0.1838593  )
       131           Al  tau( 131) = (  0.7612798  0.0000000  0.3630015  )
       132           Al  tau( 132) = (  0.6467380  0.5000000  0.1054817  )
       133           Al  tau( 133) = (  0.7938693  0.0000000  0.7212498  )
       134           Al  tau( 134) = (  0.7884312  0.5000000  0.9948640  )
       135           Al  tau( 135) = (  0.8101796  0.5000000  0.9003120  )
       136           Al  tau( 136) = (  0.8047450  0.0000000  0.1739640  )
       137           Al  tau( 137) = (  0.8264695  0.0000000  0.0792698  )
       138           Al  tau( 138) = (  0.8210399  0.5000000  0.3529413  )
       139           Al  tau( 139) = (  0.8427544  0.5000000  0.2583867  )
       140           Al  tau( 140) = (  0.8590692  0.0000000  0.4376029  )
       141           Al  tau( 141) = (  0.7558583  0.5000000  0.6366323  )
       142           Al  tau( 142) = (  0.7775608  0.5000000  0.5421119  )
       143           Al  tau( 143) = (  0.7721302  0.0000000  0.8157409  )
       144           Al  tau( 144) = (  0.7829942  0.0000000  0.2684938  )
       145           Al  tau( 145) = (  0.7993082  0.5000000  0.4476179  )
       146           Al  tau( 146) = (  0.8156131  0.0000000  0.6266218  )
       147           Al  tau( 147) = (  0.8373222  0.0000000  0.5319025  )
       148           Al  tau( 148) = (  0.8318919  0.5000000  0.8056463  )
       149           Al  tau( 149) = (  0.8536268  0.5000000  0.7112266  )
       150           Al  tau( 150) = (  0.8481944  0.0000000  0.9847176  )
       151           Al  tau( 151) = (  0.8699516  0.0000000  0.8902849  )
       152           Al  tau( 152) = (  0.8645222  0.5000000  0.1640338  )
       153           Al  tau( 153) = (  0.8808175  0.0000000  0.3430574  )
       154           Al  tau( 154) = (  0.7667040  0.5000000  0.0893713  )
       155           Al  tau( 155) = (  0.9133832  0.0000000  0.7002856  )
       156           Al  tau( 156) = (  0.9079870  0.5000000  0.9741904  )
       157           Al  tau( 157) = (  0.9296654  0.5000000  0.8784598  )
       158           Al  tau( 158) = (  0.9242677  0.0000000  0.1527661  )
       159           Al  tau( 159) = (  0.9458953  0.0000000  0.0574455  )
       160           Al  tau( 160) = (  0.9406217  0.5000000  0.3317346  )
       161           Al  tau( 161) = (  0.9621899  0.5000000  0.2329231  )
       162           Al  tau( 162) = (  0.9780701  0.0000000  0.4069722  )
       163           Al  tau( 163) = (  0.8754044  0.5000000  0.6167693  )
       164           Al  tau( 164) = (  0.8971274  0.5000000  0.5216187  )
       165           Al  tau( 165) = (  0.8916778  0.0000000  0.7955348  )
       166           Al  tau( 166) = (  0.9025316  0.0000000  0.2478474  )
       167           Al  tau( 167) = (  0.9188535  0.5000000  0.4265399  )
       168           Al  tau( 168) = (  0.9351347  0.0000000  0.6052037  )
       169           Al  tau( 169) = (  0.9568188  0.0000000  0.5101482  )
       170           Al  tau( 170) = (  0.9514565  0.5000000  0.7842810  )
       171           Al  tau( 171) = (  0.9732835  0.5000000  0.6877383  )
       172           Al  tau( 172) = (  0.9677287  0.0000000  0.9608711  )
       173           Al  tau( 173) = (  0.9894452  0.0000000  0.8726627  )
       174           Al  tau( 174) = (  0.9849280  0.5000000  0.1397937  )
       175           Al  tau( 175) = (  0.0007008  0.0000000  0.3199444  )
       176           Al  tau( 176) = (  0.8862698  0.5000000  0.0692130  )

     number of k points=   131  Methfessel-Paxton smearing, width (Ry)=  0.0441
                       cart. coord. in units 2pi/alat
        k(    1) = (   0.0000000   0.0000000   0.0000000), wk =   0.0076923
        k(    2) = (   0.0000000   0.0000000   1.5058270), wk =   0.0153846
        k(    3) = (   0.0000000   0.0000000   3.0116539), wk =   0.0153846
        k(    4) = (   0.0000000   0.0000000   4.5174809), wk =   0.0153846
        k(    5) = (   0.0000000   0.0000000   6.0233079), wk =   0.0153846
        k(    6) = (   0.0000000   0.0000000   7.5291348), wk =   0.0153846
        k(    7) = (   0.0000000   0.0000000   9.0349618), wk =   0.0153846
        k(    8) = (   0.0000000   1.4930550   0.0000000), wk =   0.0153846
        k(    9) = (   0.0000000   1.4930550   1.5058270), wk =   0.0153846
        k(   10) = (   0.0000000   1.4930550   3.0116539), wk =   0.0153846
        k(   11) = (   0.0000000   1.4930550   4.5174809), wk =   0.0153846
        k(   12) = (   0.0000000   1.4930550   6.0233079), wk =   0.0153846
        k(   13) = (   0.0000000   1.4930550   7.5291348), wk =   0.0153846
        k(   14) = (   0.0000000   1.4930550   9.0349618), wk =   0.0153846
        k(   15) = (   0.0000000   1.4930550  -9.0349618), wk =   0.0153846
        k(   16) = (   0.0000000   1.4930550  -7.5291348), wk =   0.0153846
        k(   17) = (   0.0000000   1.4930550  -6.0233079), wk =   0.0153846
        k(   18) = (   0.0000000   1.4930550  -4.5174809), wk =   0.0153846
        k(   19) = (   0.0000000   1.4930550  -3.0116539), wk =   0.0153846
        k(   20) = (   0.0000000   1.4930550  -1.5058270), wk =   0.0153846
        k(   21) = (   0.0000000   2.9861101   0.0000000), wk =   0.0153846
        k(   22) = (   0.0000000   2.9861101   1.5058270), wk =   0.0153846
        k(   23) = (   0.0000000   2.9861101   3.0116539), wk =   0.0153846
        k(   24) = (   0.0000000   2.9861101   4.5174809), wk =   0.0153846
        k(   25) = (   0.0000000   2.9861101   6.0233079), wk =   0.0153846
        k(   26) = (   0.0000000   2.9861101   7.5291348), wk =   0.0153846
        k(   27) = (   0.0000000   2.9861101   9.0349618), wk =   0.0153846
        k(   28) = (   0.0000000   2.9861101  -9.0349618), wk =   0.0153846
        k(   29) = (   0.0000000   2.9861101  -7.5291348), wk =   0.0153846
        k(   30) = (   0.0000000   2.9861101  -6.0233079), wk =   0.0153846
        k(   31) = (   0.0000000   2.9861101  -4.5174809), wk =   0.0153846
        k(   32) = (   0.0000000   2.9861101  -3.0116539), wk =   0.0153846
        k(   33) = (   0.0000000   2.9861101  -1.5058270), wk =   0.0153846
        k(   34) = (   0.0000000   4.4791651   0.0000000), wk =   0.0153846
        k(   35) = (   0.0000000   4.4791651   1.5058270), wk =   0.0153846
        k(   36) = (   0.0000000   4.4791651   3.0116539), wk =   0.0153846
        k(   37) = (   0.0000000   4.4791651   4.5174809), wk =   0.0153846
        k(   38) = (   0.0000000   4.4791651   6.0233079), wk =   0.0153846
        k(   39) = (   0.0000000   4.4791651   7.5291348), wk =   0.0153846
        k(   40) = (   0.0000000   4.4791651   9.0349618), wk =   0.0153846
        k(   41) = (   0.0000000   4.4791651  -9.0349618), wk =   0.0153846
        k(   42) = (   0.0000000   4.4791651  -7.5291348), wk =   0.0153846
        k(   43) = (   0.0000000   4.4791651  -6.0233079), wk =   0.0153846
        k(   44) = (   0.0000000   4.4791651  -4.5174809), wk =   0.0153846
        k(   45) = (   0.0000000   4.4791651  -3.0116539), wk =   0.0153846
        k(   46) = (   0.0000000   4.4791651  -1.5058270), wk =   0.0153846
        k(   47) = (   0.0000000   5.9722202   0.0000000), wk =   0.0153846
        k(   48) = (   0.0000000   5.9722202   1.5058270), wk =   0.0153846
        k(   49) = (   0.0000000   5.9722202   3.0116539), wk =   0.0153846
        k(   50) = (   0.0000000   5.9722202   4.5174809), wk =   0.0153846
        k(   51) = (   0.0000000   5.9722202   6.0233079), wk =   0.0153846
        k(   52) = (   0.0000000   5.9722202   7.5291348), wk =   0.0153846
        k(   53) = (   0.0000000   5.9722202   9.0349618), wk =   0.0153846
        k(   54) = (   0.0000000   5.9722202  -9.0349618), wk =   0.0153846
        k(   55) = (   0.0000000   5.9722202  -7.5291348), wk =   0.0153846
        k(   56) = (   0.0000000   5.9722202  -6.0233079), wk =   0.0153846
        k(   57) = (   0.0000000   5.9722202  -4.5174809), wk =   0.0153846
        k(   58) = (   0.0000000   5.9722202  -3.0116539), wk =   0.0153846
        k(   59) = (   0.0000000   5.9722202  -1.5058270), wk =   0.0153846
        k(   60) = (   0.0000000   7.4652752   0.0000000), wk =   0.0153846
        k(   61) = (   0.0000000   7.4652752   1.5058270), wk =   0.0153846
        k(   62) = (   0.0000000   7.4652752   3.0116539), wk =   0.0153846
        k(   63) = (   0.0000000   7.4652752   4.5174809), wk =   0.0153846
        k(   64) = (   0.0000000   7.4652752   6.0233079), wk =   0.0153846
        k(   65) = (   0.0000000   7.4652752   7.5291348), wk =   0.0153846
        k(   66) = (   0.0000000   7.4652752   9.0349618), wk =   0.0153846
        k(   67) = (   0.0000000   7.4652752  -9.0349618), wk =   0.0153846
        k(   68) = (   0.0000000   7.4652752  -7.5291348), wk =   0.0153846
        k(   69) = (   0.0000000   7.4652752  -6.0233079), wk =   0.0153846
        k(   70) = (   0.0000000   7.4652752  -4.5174809), wk =   0.0153846
        k(   71) = (   0.0000000   7.4652752  -3.0116539), wk =   0.0153846
        k(   72) = (   0.0000000   7.4652752  -1.5058270), wk =   0.0153846
        k(   73) = (   0.0000000   8.9583302   0.0000000), wk =   0.0153846
        k(   74) = (   0.0000000   8.9583302   1.5058270), wk =   0.0153846
        k(   75) = (   0.0000000   8.9583302   3.0116539), wk =   0.0153846
        k(   76) = (   0.0000000   8.9583302   4.5174809), wk =   0.0153846
        k(   77) = (   0.0000000   8.9583302   6.0233079), wk =   0.0153846
        k(   78) = (   0.0000000   8.9583302   7.5291348), wk =   0.0153846
        k(   79) = (   0.0000000   8.9583302   9.0349618), wk =   0.0153846
        k(   80) = (   0.0000000   8.9583302  -9.0349618), wk =   0.0153846
        k(   81) = (   0.0000000   8.9583302  -7.5291348), wk =   0.0153846
        k(   82) = (   0.0000000   8.9583302  -6.0233079), wk =   0.0153846
        k(   83) = (   0.0000000   8.9583302  -4.5174809), wk =   0.0153846
        k(   84) = (   0.0000000   8.9583302  -3.0116539), wk =   0.0153846
        k(   85) = (   0.0000000   8.9583302  -1.5058270), wk =   0.0153846
        k(   86) = (   0.0000000  10.4513853   0.0000000), wk =   0.0153846
        k(   87) = (   0.0000000  10.4513853   1.5058270), wk =   0.0153846
        k(   88) = (   0.0000000  10.4513853   3.0116539), wk =   0.0153846
        k(   89) = (   0.0000000  10.4513853   4.5174809), wk =   0.0153846
        k(   90) = (   0.0000000  10.4513853   6.0233079), wk =   0.0153846
        k(   91) = (   0.0000000  10.4513853   7.5291348), wk =   0.0153846
        k(   92) = (   0.0000000  10.4513853   9.0349618), wk =   0.0153846
        k(   93) = (   0.0000000  10.4513853  -9.0349618), wk =   0.0153846
        k(   94) = (   0.0000000  10.4513853  -7.5291348), wk =   0.0153846
        k(   95) = (   0.0000000  10.4513853  -6.0233079), wk =   0.0153846
        k(   96) = (   0.0000000  10.4513853  -4.5174809), wk =   0.0153846
        k(   97) = (   0.0000000  10.4513853  -3.0116539), wk =   0.0153846
        k(   98) = (   0.0000000  10.4513853  -1.5058270), wk =   0.0153846
        k(   99) = (   0.0000000  11.9444403   0.0000000), wk =   0.0153846
        k(  100) = (   0.0000000  11.9444403   1.5058270), wk =   0.0153846
        k(  101) = (   0.0000000  11.9444403   3.0116539), wk =   0.0153846
        k(  102) = (   0.0000000  11.9444403   4.5174809), wk =   0.0153846
        k(  103) = (   0.0000000  11.9444403   6.0233079), wk =   0.0153846
        k(  104) = (   0.0000000  11.9444403   7.5291348), wk =   0.0153846
        k(  105) = (   0.0000000  11.9444403   9.0349618), wk =   0.0153846
        k(  106) = (   0.0000000  11.9444403  -9.0349618), wk =   0.0153846
        k(  107) = (   0.0000000  11.9444403  -7.5291348), wk =   0.0153846
        k(  108) = (   0.0000000  11.9444403  -6.0233079), wk =   0.0153846
        k(  109) = (   0.0000000  11.9444403  -4.5174809), wk =   0.0153846
        k(  110) = (   0.0000000  11.9444403  -3.0116539), wk =   0.0153846
        k(  111) = (   0.0000000  11.9444403  -1.5058270), wk =   0.0153846
        k(  112) = (   0.0000000  13.4374954   0.0000000), wk =   0.0153846
        k(  113) = (   0.0000000  13.4374954   1.5058270), wk =   0.0153846
        k(  114) = (   0.0000000  13.4374954   3.0116539), wk =   0.0153846
        k(  115) = (   0.0000000  13.4374954   4.5174809), wk =   0.0153846
        k(  116) = (   0.0000000  13.4374954   6.0233079), wk =   0.0153846
        k(  117) = (   0.0000000  13.4374954   7.5291348), wk =   0.0153846
        k(  118) = (   0.0000000  13.4374954   9.0349618), wk =   0.0153846
        k(  119) = (   0.0000000  13.4374954  -9.0349618), wk =   0.0153846
        k(  120) = (   0.0000000  13.4374954  -7.5291348), wk =   0.0153846
        k(  121) = (   0.0000000  13.4374954  -6.0233079), wk =   0.0153846
        k(  122) = (   0.0000000  13.4374954  -4.5174809), wk =   0.0153846
        k(  123) = (   0.0000000  13.4374954  -3.0116539), wk =   0.0153846
        k(  124) = (   0.0000000  13.4374954  -1.5058270), wk =   0.0153846
        k(  125) = (   0.0000000 -14.9305504   0.0000000), wk =   0.0076923
        k(  126) = (   0.0000000 -14.9305504   1.5058270), wk =   0.0153846
        k(  127) = (   0.0000000 -14.9305504   3.0116539), wk =   0.0153846
        k(  128) = (   0.0000000 -14.9305504   4.5174809), wk =   0.0153846
        k(  129) = (   0.0000000 -14.9305504   6.0233079), wk =   0.0153846
        k(  130) = (   0.0000000 -14.9305504   7.5291348), wk =   0.0153846
        k(  131) = (   0.0000000 -14.9305504   9.0349618), wk =   0.0153846

                       cryst. coord.
        k(    1) = (   0.0000000   0.0000000   0.0000000), wk =   0.0076923
        k(    2) = (   0.0000000   0.0000000   0.0769231), wk =   0.0153846
        k(    3) = (   0.0000000   0.0000000   0.1538462), wk =   0.0153846
        k(    4) = (   0.0000000   0.0000000   0.2307692), wk =   0.0153846
        k(    5) = (   0.0000000   0.0000000   0.3076923), wk =   0.0153846
        k(    6) = (   0.0000000   0.0000000   0.3846154), wk =   0.0153846
        k(    7) = (   0.0000000   0.0000000   0.4615385), wk =   0.0153846
        k(    8) = (   0.0000000   0.0500000   0.0000000), wk =   0.0153846
        k(    9) = (   0.0000000   0.0500000   0.0769231), wk =   0.0153846
        k(   10) = (   0.0000000   0.0500000   0.1538462), wk =   0.0153846
        k(   11) = (   0.0000000   0.0500000   0.2307692), wk =   0.0153846
        k(   12) = (   0.0000000   0.0500000   0.3076923), wk =   0.0153846
        k(   13) = (   0.0000000   0.0500000   0.3846154), wk =   0.0153846
        k(   14) = (   0.0000000   0.0500000   0.4615385), wk =   0.0153846
        k(   15) = (   0.0000000   0.0500000  -0.4615385), wk =   0.0153846
        k(   16) = (   0.0000000   0.0500000  -0.3846154), wk =   0.0153846
        k(   17) = (   0.0000000   0.0500000  -0.3076923), wk =   0.0153846
        k(   18) = (   0.0000000   0.0500000  -0.2307692), wk =   0.0153846
        k(   19) = (   0.0000000   0.0500000  -0.1538462), wk =   0.0153846
        k(   20) = (   0.0000000   0.0500000  -0.0769231), wk =   0.0153846
        k(   21) = (   0.0000000   0.1000000   0.0000000), wk =   0.0153846
        k(   22) = (   0.0000000   0.1000000   0.0769231), wk =   0.0153846
        k(   23) = (   0.0000000   0.1000000   0.1538462), wk =   0.0153846
        k(   24) = (   0.0000000   0.1000000   0.2307692), wk =   0.0153846
        k(   25) = (   0.0000000   0.1000000   0.3076923), wk =   0.0153846
        k(   26) = (   0.0000000   0.1000000   0.3846154), wk =   0.0153846
        k(   27) = (   0.0000000   0.1000000   0.4615385), wk =   0.0153846
        k(   28) = (   0.0000000   0.1000000  -0.4615385), wk =   0.0153846
        k(   29) = (   0.0000000   0.1000000  -0.3846154), wk =   0.0153846
        k(   30) = (   0.0000000   0.1000000  -0.3076923), wk =   0.0153846
        k(   31) = (   0.0000000   0.1000000  -0.2307692), wk =   0.0153846
        k(   32) = (   0.0000000   0.1000000  -0.1538462), wk =   0.0153846
        k(   33) = (   0.0000000   0.1000000  -0.0769231), wk =   0.0153846
        k(   34) = (   0.0000000   0.1500000   0.0000000), wk =   0.0153846
        k(   35) = (   0.0000000   0.1500000   0.0769231), wk =   0.0153846
        k(   36) = (   0.0000000   0.1500000   0.1538462), wk =   0.0153846
        k(   37) = (   0.0000000   0.1500000   0.2307692), wk =   0.0153846
        k(   38) = (   0.0000000   0.1500000   0.3076923), wk =   0.0153846
        k(   39) = (   0.0000000   0.1500000   0.3846154), wk =   0.0153846
        k(   40) = (   0.0000000   0.1500000   0.4615385), wk =   0.0153846
        k(   41) = (   0.0000000   0.1500000  -0.4615385), wk =   0.0153846
        k(   42) = (   0.0000000   0.1500000  -0.3846154), wk =   0.0153846
        k(   43) = (   0.0000000   0.1500000  -0.3076923), wk =   0.0153846
        k(   44) = (   0.0000000   0.1500000  -0.2307692), wk =   0.0153846
        k(   45) = (   0.0000000   0.1500000  -0.1538462), wk =   0.0153846
        k(   46) = (   0.0000000   0.1500000  -0.0769231), wk =   0.0153846
        k(   47) = (   0.0000000   0.2000000   0.0000000), wk =   0.0153846
        k(   48) = (   0.0000000   0.2000000   0.0769231), wk =   0.0153846
        k(   49) = (   0.0000000   0.2000000   0.1538462), wk =   0.0153846
        k(   50) = (   0.0000000   0.2000000   0.2307692), wk =   0.0153846
        k(   51) = (   0.0000000   0.2000000   0.3076923), wk =   0.0153846
        k(   52) = (   0.0000000   0.2000000   0.3846154), wk =   0.0153846
        k(   53) = (   0.0000000   0.2000000   0.4615385), wk =   0.0153846
        k(   54) = (   0.0000000   0.2000000  -0.4615385), wk =   0.0153846
        k(   55) = (   0.0000000   0.2000000  -0.3846154), wk =   0.0153846
        k(   56) = (   0.0000000   0.2000000  -0.3076923), wk =   0.0153846
        k(   57) = (   0.0000000   0.2000000  -0.2307692), wk =   0.0153846
        k(   58) = (   0.0000000   0.2000000  -0.1538462), wk =   0.0153846
        k(   59) = (   0.0000000   0.2000000  -0.0769231), wk =   0.0153846
        k(   60) = (   0.0000000   0.2500000   0.0000000), wk =   0.0153846
        k(   61) = (   0.0000000   0.2500000   0.0769231), wk =   0.0153846
        k(   62) = (   0.0000000   0.2500000   0.1538462), wk =   0.0153846
        k(   63) = (   0.0000000   0.2500000   0.2307692), wk =   0.0153846
        k(   64) = (   0.0000000   0.2500000   0.3076923), wk =   0.0153846
        k(   65) = (   0.0000000   0.2500000   0.3846154), wk =   0.0153846
        k(   66) = (   0.0000000   0.2500000   0.4615385), wk =   0.0153846
        k(   67) = (   0.0000000   0.2500000  -0.4615385), wk =   0.0153846
        k(   68) = (   0.0000000   0.2500000  -0.3846154), wk =   0.0153846
        k(   69) = (   0.0000000   0.2500000  -0.3076923), wk =   0.0153846
        k(   70) = (   0.0000000   0.2500000  -0.2307692), wk =   0.0153846
        k(   71) = (   0.0000000   0.2500000  -0.1538462), wk =   0.0153846
        k(   72) = (   0.0000000   0.2500000  -0.0769231), wk =   0.0153846
        k(   73) = (   0.0000000   0.3000000   0.0000000), wk =   0.0153846
        k(   74) = (   0.0000000   0.3000000   0.0769231), wk =   0.0153846
        k(   75) = (   0.0000000   0.3000000   0.1538462), wk =   0.0153846
        k(   76) = (   0.0000000   0.3000000   0.2307692), wk =   0.0153846
        k(   77) = (   0.0000000   0.3000000   0.3076923), wk =   0.0153846
        k(   78) = (   0.0000000   0.3000000   0.3846154), wk =   0.0153846
        k(   79) = (   0.0000000   0.3000000   0.4615385), wk =   0.0153846
        k(   80) = (   0.0000000   0.3000000  -0.4615385), wk =   0.0153846
        k(   81) = (   0.0000000   0.3000000  -0.3846154), wk =   0.0153846
        k(   82) = (   0.0000000   0.3000000  -0.3076923), wk =   0.0153846
        k(   83) = (   0.0000000   0.3000000  -0.2307692), wk =   0.0153846
        k(   84) = (   0.0000000   0.3000000  -0.1538462), wk =   0.0153846
        k(   85) = (   0.0000000   0.3000000  -0.0769231), wk =   0.0153846
        k(   86) = (   0.0000000   0.3500000   0.0000000), wk =   0.0153846
        k(   87) = (   0.0000000   0.3500000   0.0769231), wk =   0.0153846
        k(   88) = (   0.0000000   0.3500000   0.1538462), wk =   0.0153846
        k(   89) = (   0.0000000   0.3500000   0.2307692), wk =   0.0153846
        k(   90) = (   0.0000000   0.3500000   0.3076923), wk =   0.0153846
        k(   91) = (   0.0000000   0.3500000   0.3846154), wk =   0.0153846
        k(   92) = (   0.0000000   0.3500000   0.4615385), wk =   0.0153846
        k(   93) = (   0.0000000   0.3500000  -0.4615385), wk =   0.0153846
        k(   94) = (   0.0000000   0.3500000  -0.3846154), wk =   0.0153846
        k(   95) = (   0.0000000   0.3500000  -0.3076923), wk =   0.0153846
        k(   96) = (   0.0000000   0.3500000  -0.2307692), wk =   0.0153846
        k(   97) = (   0.0000000   0.3500000  -0.1538462), wk =   0.0153846
        k(   98) = (   0.0000000   0.3500000  -0.0769231), wk =   0.0153846
        k(   99) = (   0.0000000   0.4000000   0.0000000), wk =   0.0153846
        k(  100) = (   0.0000000   0.4000000   0.0769231), wk =   0.0153846
        k(  101) = (   0.0000000   0.4000000   0.1538462), wk =   0.0153846
        k(  102) = (   0.0000000   0.4000000   0.2307692), wk =   0.0153846
        k(  103) = (   0.0000000   0.4000000   0.3076923), wk =   0.0153846
        k(  104) = (   0.0000000   0.4000000   0.3846154), wk =   0.0153846
        k(  105) = (   0.0000000   0.4000000   0.4615385), wk =   0.0153846
        k(  106) = (   0.0000000   0.4000000  -0.4615385), wk =   0.0153846
        k(  107) = (   0.0000000   0.4000000  -0.3846154), wk =   0.0153846
        k(  108) = (   0.0000000   0.4000000  -0.3076923), wk =   0.0153846
        k(  109) = (   0.0000000   0.4000000  -0.2307692), wk =   0.0153846
        k(  110) = (   0.0000000   0.4000000  -0.1538462), wk =   0.0153846
        k(  111) = (   0.0000000   0.4000000  -0.0769231), wk =   0.0153846
        k(  112) = (   0.0000000   0.4500000   0.0000000), wk =   0.0153846
        k(  113) = (   0.0000000   0.4500000   0.0769231), wk =   0.0153846
        k(  114) = (   0.0000000   0.4500000   0.1538462), wk =   0.0153846
        k(  115) = (   0.0000000   0.4500000   0.2307692), wk =   0.0153846
        k(  116) = (   0.0000000   0.4500000   0.3076923), wk =   0.0153846
        k(  117) = (   0.0000000   0.4500000   0.3846154), wk =   0.0153846
        k(  118) = (   0.0000000   0.4500000   0.4615385), wk =   0.0153846
        k(  119) = (   0.0000000   0.4500000  -0.4615385), wk =   0.0153846
        k(  120) = (   0.0000000   0.4500000  -0.3846154), wk =   0.0153846
        k(  121) = (   0.0000000   0.4500000  -0.3076923), wk =   0.0153846
        k(  122) = (   0.0000000   0.4500000  -0.2307692), wk =   0.0153846
        k(  123) = (   0.0000000   0.4500000  -0.1538462), wk =   0.0153846
        k(  124) = (   0.0000000   0.4500000  -0.0769231), wk =   0.0153846
        k(  125) = (   0.0000000  -0.5000000   0.0000000), wk =   0.0076923
        k(  126) = (   0.0000000  -0.5000000   0.0769231), wk =   0.0153846
        k(  127) = (   0.0000000  -0.5000000   0.1538462), wk =   0.0153846
        k(  128) = (   0.0000000  -0.5000000   0.2307692), wk =   0.0153846
        k(  129) = (   0.0000000  -0.5000000   0.3076923), wk =   0.0153846
        k(  130) = (   0.0000000  -0.5000000   0.3846154), wk =   0.0153846
        k(  131) = (   0.0000000  -0.5000000   0.4615385), wk =   0.0153846

     Dense  grid:  2773903 G-vectors     FFT dimensions: (1458,  50,  80)

     Smooth grid:   702073 G-vectors     FFT dimensions: ( 960,  32,  50)

     Dynamical RAM for                 wfc:      46.38 MB

     Dynamical RAM for     wfc (w. buffer):    1577.05 MB

     Dynamical RAM for           str. fact:      14.11 MB

     Dynamical RAM for           local pot:       0.00 MB

     Dynamical RAM for          nlocal pot:     411.51 MB

     Dynamical RAM for                qrad:     175.14 MB

     Dynamical RAM for          rho,v,vnew:      29.13 MB

     Dynamical RAM for               rhoin:       9.71 MB

     Dynamical RAM for            rho*nmix:      75.25 MB

     Dynamical RAM for           G-vectors:      18.23 MB

     Dynamical RAM for          h,s,v(r/c):      17.82 MB

     Dynamical RAM for          <psi|beta>:      13.18 MB

     Dynamical RAM for                 psi:     185.54 MB

     Dynamical RAM for                hpsi:     185.54 MB

     Dynamical RAM for                spsi:     185.54 MB

     Dynamical RAM for      wfcinit/wfcrot:     220.67 MB

     Dynamical RAM for           addusdens:     344.49 MB

     Dynamical RAM for          addusforce:     840.16 MB

     Dynamical RAM for         addusstress:     238.09 MB

     Estimated static dynamical RAM per process >       2.30 GB

     Estimated max dynamical RAM per process >       3.12 GB

     Estimated total dynamical RAM >     112.29 GB

     Initial potential from superposition of free atoms

     starting charge  519.70697, renormalised to  520.00000
     Starting wfcs are  704 randomized atomic wfcs
