
     Program PWSCF v.6.3 starts on 22Feb2020 at  9:12:18 

     This program is part of the open-source Quantum ESPRESSO suite
     for quantum simulation of materials; please cite
         "P. Giannozzi et al., J. Phys.:Condens. Matter 21 395502 (2009);
         "P. Giannozzi et al., J. Phys.:Condens. Matter 29 465901 (2017);
          URL http://www.quantum-espresso.org", 
     in publications or presentations arising from this work. More details at
     http://www.quantum-espresso.org/quote

 *** WARNING: using old-style file format, will disappear from next version ***

     Parallel version (MPI & OpenMP), running on      36 processor cores
     Number of MPI processes:                36
     Threads/MPI process:                     1

     MPI processes distributed on     1 nodes
     K-points division:     npool     =       4
     R & G space division:  proc/nbgrp/npool/nimage =       9
     Reading input from aiida.in
Warning: card &IONS ignored
Warning: card   !PRESS_CONV_THR = 0.05                 ! JUST FOR VOLUME RELAXATIONS ignored
Warning: card / ignored

     Current dimensions of program PWSCF are:
     Max number of different atomic species (ntypx) = 10
     Max number of k-points (npk) =  40000
     Max angular momentum in pseudopotentials (lmaxx) =  3
               file Al.pbe-n-kjpaw_psl.1.0.0.UPF: wavefunction(s)  3S 3P renormalized
               file Mg.pbe-n-kjpaw_psl.0.3.0.UPF: wavefunction(s)  3S renormalized

     Subspace diagonalization in iterative solution of the eigenvalue problem:
     one sub-group per band group will be used
     scalapack distributed-memory algorithm (size of sub-group:  2*  2 procs)

 
     Parallelization info
     --------------------
     sticks:   dense  smooth     PW     G-vecs:    dense   smooth      PW
     Min         786     315     91                40222    10180    1588
     Max         787     316     92                40226    10181    1590
     Sum        7077    2841    821               362009    91623   14301
 


     bravais-lattice index     =            0
     lattice parameter (alat)  =      28.5890  a.u.
     unit-cell volume          =    2680.0922 (a.u.)^3
     number of atoms/cell      =           22
     number of atomic types    =            3
     number of electrons       =        66.00
     number of Kohn-Sham states=           40
     kinetic-energy cutoff     =      40.0000  Ry
     charge density cutoff     =     400.0000  Ry
     convergence threshold     =      1.0E-12
     mixing beta               =       0.4000
     number of iterations used =            8  local-TF  mixing
     Exchange-correlation      = PBE ( 1  4  3  4 0 0)

     celldm(1)=  28.588964  celldm(2)=   0.000000  celldm(3)=   0.000000
     celldm(4)=   0.000000  celldm(5)=   0.000000  celldm(6)=   0.000000

     crystal axes: (cart. coord. in units of alat)
               a(1) = (   0.958425   0.000000  -0.285344 )  
               a(2) = (   0.000000   0.272436   0.000220 )  
               a(3) = (   0.000000   0.000136   0.439270 )  

     reciprocal axes: (cart. coord. in units 2 pi/alat)
               b(1) = (  1.043378  0.000000  0.000000 )  
               b(2) = ( -0.000339  3.670584 -0.001138 )  
               b(3) = (  0.677764 -0.001835  2.276505 )  


     PseudoPot. # 1 for Al read from file:
     /users/aglensk/Dropbox/Albert/scripts/dotfiles/scripts/potentials/quantum_espresso/pseudo_SSSPefV1.1_alalloy/Al.pbe-n-kjpaw_psl.1.0.0.UPF
     MD5 check sum: cfc449ca30b5f3223ec38ddd88ac046d
     Pseudo is Projector augmented-wave + core cor, Zval =  3.0
     Generated using "atomic" code by A. Dal Corso v.5.1
     Shape of augmentation charge: PSQ
     Using radial grid of 1135 points,  6 beta functions with: 
                l(1) =   0
                l(2) =   0
                l(3) =   1
                l(4) =   1
                l(5) =   2
                l(6) =   2
     Q(r) pseudized with 0 coefficients 


     PseudoPot. # 2 for Mg read from file:
     /users/aglensk/Dropbox/Albert/scripts/dotfiles/scripts/potentials/quantum_espresso/pseudo_SSSPefV1.1_alalloy/Mg.pbe-n-kjpaw_psl.0.3.0.UPF
     MD5 check sum: 24ecedc7f3e3cbe212e682f4413594e4
     Pseudo is Projector augmented-wave + core cor, Zval =  2.0
     Generated using "atomic" code by A. Dal Corso v.5.0.99 svn rev. 10869
     Shape of augmentation charge: PSQ
     Using radial grid of 1129 points,  4 beta functions with: 
                l(1) =   0
                l(2) =   0
                l(3) =   1
                l(4) =   1
     Q(r) pseudized with 0 coefficients 


     PseudoPot. # 3 for Si read from file:
     /users/aglensk/Dropbox/Albert/scripts/dotfiles/scripts/potentials/quantum_espresso/pseudo_SSSPefV1.1_alalloy/Si.pbe-n-rrkjus_psl.1.0.0.UPF
     MD5 check sum: 0b0bb1205258b0d07b9f9672cf965d36
     Pseudo is Ultrasoft + core correction, Zval =  4.0
     Generated using "atomic" code by A. Dal Corso v.5.1
     Using radial grid of 1141 points,  6 beta functions with: 
                l(1) =   0
                l(2) =   0
                l(3) =   1
                l(4) =   1
                l(5) =   2
                l(6) =   2
     Q(r) pseudized with 0 coefficients 


     atomic species   valence    mass     pseudopotential
        Al             3.00    26.98154     Al( 1.00)
        Mg             2.00    24.30500     Mg( 1.00)
        Si             4.00    28.08500     Si( 1.00)

     No symmetry found


                                    s                        frac. trans.

      isym =  1     identity                                     

 cryst.   s( 1) = (     1          0          0      )
                  (     0          1          0      )
                  (     0          0          1      )

 cart.    s( 1) = (  1.0000000  0.0000000  0.0000000 )
                  (  0.0000000  1.0000000  0.0000000 )
                  ( -0.0000000  0.0000000  1.0000000 )


   Cartesian axes

     site n.     atom                  positions (alat units)
         1           Al  tau(   1) = (   0.0013361   0.0001364   0.4337898  )
         2           Mg  tau(   2) = (   0.0702503   0.1362480   0.1264888  )
         3           Mg  tau(   3) = (   0.1482957   0.1363551   0.3517110  )
         4           Mg  tau(   4) = (   0.3336220   0.2724355  -0.0657546  )
         5           Mg  tau(   5) = (   0.4116694   0.0001063   0.1592511  )
         6           Si  tau(   6) = (   0.0566514   0.0001676   0.2701666  )
         7           Si  tau(   7) = (   0.1761266   0.2724612   0.0382999  )
         8           Al  tau(   8) = (   0.2102265   0.0001060   0.2046786  )
         9           Al  tau(   9) = (   0.2716896   0.1362483   0.0810580  )
        10           Si  tau(  10) = (   0.3057851   0.1363294   0.2476549  )
        11           Si  tau(  11) = (   0.4252628   0.1361867   0.0155711  )
        12           Al  tau(  12) = (   0.4805819   0.1363542   0.2912189  )
        13           Mg  tau(  13) = (   0.5494720   0.2724663  -0.0160626  )
        14           Mg  tau(  14) = (   0.6274907   0.0001371   0.2089287  )
        15           Mg  tau(  15) = (   0.8128540   0.1362173  -0.2085356  )
        16           Mg  tau(  16) = (   0.8908736   0.1363242   0.0166787  )
        17           Si  tau(  17) = (   0.5358712   0.1363855   0.1275764  )
        18           Si  tau(  18) = (   0.6553555   0.1362430  -0.1044743  )
        19           Al  tau(  19) = (   0.6894527   0.1363239   0.0621203  )
        20           Al  tau(  20) = (   0.7508888   0.2724667  -0.0615076  )
        21           Si  tau(  21) = (   0.7849818   0.0001113   0.1048660  )
        22           Si  tau(  22) = (   0.9044684   0.2724050  -0.1269623  )

   Crystallographic axes

     site n.     atom                  positions (cryst. coord.)
         1           Al  tau(   1) = (  0.0013940  0.0000064  0.9884302  )
         2           Mg  tau(   2) = (  0.0732976  0.4999420  0.3353156  )
         3           Mg  tau(   3) = (  0.1547284  0.5000524  0.9009312  )
         4           Mg  tau(   4) = (  0.3480939  0.9999592  0.0759262  )
         5           Mg  tau(   5) = (  0.4295269  0.0000696  0.6415505  )
         6           Si  tau(   6) = (  0.0591089  0.0002884  0.6534318  )
         7           Si  tau(   7) = (  0.1837667  0.9999885  0.2060622  )
         8           Al  tau(   8) = (  0.2193457  0.0000850  0.6084356  )
         9           Al  tau(   9) = (  0.2834749  0.4999266  0.3684203  )
        10           Si  tau(  10) = (  0.3190495  0.5000231  0.7707876  )
        11           Si  tau(  11) = (  0.4437099  0.4997231  0.3234255  )
        12           Al  tau(  12) = (  0.5014286  0.5000051  0.9884322  )
        13           Mg  tau(  13) = (  0.5733071  0.9999428  0.3353458  )
        14           Mg  tau(  14) = (  0.6547101  0.0000527  0.9009176  )
        15           Mg  tau(  15) = (  0.8481141  0.4999590  0.0759407  )
        16           Mg  tau(  16) = (  0.9295180  0.5000688  0.6415211  )
        17           Si  tau(  17) = (  0.5591162  0.5002878  0.6533722  )
        18           Si  tau(  18) = (  0.6837836  0.4999883  0.2060900  )
        19           Al  tau(  19) = (  0.7193598  0.5000841  0.6084532  )
        20           Al  tau(  20) = (  0.7834609  0.9999275  0.3684030  )
        21           Si  tau(  21) = (  0.8190329  0.0000233  0.7707601  )
        22           Si  tau(  22) = (  0.9437025  0.9997237  0.3234858  )

     number of k points=   782  Methfessel-Paxton smearing, width (Ry)=  0.0441
                       cart. coord. in units 2pi/alat
        k(    1) = (   0.0000000   0.0000000   0.0000000), wk =   0.0012821
        k(    2) = (   0.0521357  -0.0001412   0.1751158), wk =   0.0025641
        k(    3) = (   0.1042714  -0.0002823   0.3502316), wk =   0.0025641
        k(    4) = (   0.1564071  -0.0004235   0.5253474), wk =   0.0025641
        k(    5) = (   0.2085428  -0.0005647   0.7004632), wk =   0.0025641
        k(    6) = (   0.2606785  -0.0007059   0.8755790), wk =   0.0025641
        k(    7) = (   0.3128142  -0.0008470   1.0506948), wk =   0.0025641
        k(    8) = (  -0.0000169   0.1835292  -0.0000569), wk =   0.0025641
        k(    9) = (   0.0521187   0.1833880   0.1750589), wk =   0.0025641
        k(   10) = (   0.1042544   0.1832469   0.3501747), wk =   0.0025641
        k(   11) = (   0.1563901   0.1831057   0.5252905), wk =   0.0025641
        k(   12) = (   0.2085258   0.1829645   0.7004063), wk =   0.0025641
        k(   13) = (   0.2606615   0.1828234   0.8755221), wk =   0.0025641
        k(   14) = (   0.3127972   0.1826822   1.0506379), wk =   0.0025641
        k(   15) = (  -0.3128311   0.1843763  -1.0507517), wk =   0.0025641
        k(   16) = (  -0.2606954   0.1842351  -0.8756359), wk =   0.0025641
        k(   17) = (  -0.2085597   0.1840939  -0.7005201), wk =   0.0025641
        k(   18) = (  -0.1564240   0.1839527  -0.5254043), wk =   0.0025641
        k(   19) = (  -0.1042883   0.1838116  -0.3502885), wk =   0.0025641
        k(   20) = (  -0.0521526   0.1836704  -0.1751727), wk =   0.0025641
        k(   21) = (  -0.0000339   0.3670584  -0.0001138), wk =   0.0025641
        k(   22) = (   0.0521018   0.3669173   0.1750020), wk =   0.0025641
        k(   23) = (   0.1042375   0.3667761   0.3501178), wk =   0.0025641
        k(   24) = (   0.1563732   0.3666349   0.5252336), wk =   0.0025641
        k(   25) = (   0.2085089   0.3664938   0.7003494), wk =   0.0025641
        k(   26) = (   0.2606446   0.3663526   0.8754652), wk =   0.0025641
        k(   27) = (   0.3127803   0.3662114   1.0505810), wk =   0.0025641
        k(   28) = (  -0.3128480   0.3679055  -1.0508086), wk =   0.0025641
        k(   29) = (  -0.2607123   0.3677643  -0.8756928), wk =   0.0025641
        k(   30) = (  -0.2085767   0.3676231  -0.7005770), wk =   0.0025641
        k(   31) = (  -0.1564410   0.3674820  -0.5254612), wk =   0.0025641
        k(   32) = (  -0.1043053   0.3673408  -0.3503454), wk =   0.0025641
        k(   33) = (  -0.0521696   0.3671996  -0.1752296), wk =   0.0025641
        k(   34) = (  -0.0000508   0.5505877  -0.0001707), wk =   0.0025641
        k(   35) = (   0.0520849   0.5504465   0.1749451), wk =   0.0025641
        k(   36) = (   0.1042206   0.5503053   0.3500609), wk =   0.0025641
        k(   37) = (   0.1563562   0.5501641   0.5251767), wk =   0.0025641
        k(   38) = (   0.2084919   0.5500230   0.7002925), wk =   0.0025641
        k(   39) = (   0.2606276   0.5498818   0.8754083), wk =   0.0025641
        k(   40) = (   0.3127633   0.5497406   1.0505240), wk =   0.0025641
        k(   41) = (  -0.3128650   0.5514347  -1.0508655), wk =   0.0025641
        k(   42) = (  -0.2607293   0.5512935  -0.8757497), wk =   0.0025641
        k(   43) = (  -0.2085936   0.5511524  -0.7006339), wk =   0.0025641
        k(   44) = (  -0.1564579   0.5510112  -0.5255181), wk =   0.0025641
        k(   45) = (  -0.1043222   0.5508700  -0.3504023), wk =   0.0025641
        k(   46) = (  -0.0521865   0.5507288  -0.1752865), wk =   0.0025641
        k(   47) = (  -0.0000678   0.7341169  -0.0002276), wk =   0.0025641
        k(   48) = (   0.0520679   0.7339757   0.1748882), wk =   0.0025641
        k(   49) = (   0.1042036   0.7338345   0.3500040), wk =   0.0025641
        k(   50) = (   0.1563393   0.7336934   0.5251198), wk =   0.0025641
        k(   51) = (   0.2084750   0.7335522   0.7002355), wk =   0.0025641
        k(   52) = (   0.2606107   0.7334110   0.8753513), wk =   0.0025641
        k(   53) = (   0.3127464   0.7332698   1.0504671), wk =   0.0025641
        k(   54) = (  -0.3128819   0.7349639  -1.0509224), wk =   0.0025641
        k(   55) = (  -0.2607462   0.7348228  -0.8758066), wk =   0.0025641
        k(   56) = (  -0.2086105   0.7346816  -0.7006908), wk =   0.0025641
        k(   57) = (  -0.1564748   0.7345404  -0.5255750), wk =   0.0025641
        k(   58) = (  -0.1043392   0.7343992  -0.3504592), wk =   0.0025641
        k(   59) = (  -0.0522035   0.7342581  -0.1753434), wk =   0.0025641
        k(   60) = (  -0.0000847   0.9176461  -0.0002845), wk =   0.0025641
        k(   61) = (   0.0520510   0.9175049   0.1748313), wk =   0.0025641
        k(   62) = (   0.1041867   0.9173638   0.3499471), wk =   0.0025641
        k(   63) = (   0.1563224   0.9172226   0.5250628), wk =   0.0025641
        k(   64) = (   0.2084581   0.9170814   0.7001786), wk =   0.0025641
        k(   65) = (   0.2605937   0.9169402   0.8752944), wk =   0.0025641
        k(   66) = (   0.3127294   0.9167991   1.0504102), wk =   0.0025641
        k(   67) = (  -0.3128989   0.9184931  -1.0509793), wk =   0.0025641
        k(   68) = (  -0.2607632   0.9183520  -0.8758635), wk =   0.0025641
        k(   69) = (  -0.2086275   0.9182108  -0.7007477), wk =   0.0025641
        k(   70) = (  -0.1564918   0.9180696  -0.5256319), wk =   0.0025641
        k(   71) = (  -0.1043561   0.9179285  -0.3505161), wk =   0.0025641
        k(   72) = (  -0.0522204   0.9177873  -0.1754003), wk =   0.0025641
        k(   73) = (  -0.0001017   1.1011753  -0.0003414), wk =   0.0025641
        k(   74) = (   0.0520340   1.1010342   0.1747743), wk =   0.0025641
        k(   75) = (   0.1041697   1.1008930   0.3498901), wk =   0.0025641
        k(   76) = (   0.1563054   1.1007518   0.5250059), wk =   0.0025641
        k(   77) = (   0.2084411   1.1006106   0.7001217), wk =   0.0025641
        k(   78) = (   0.2605768   1.1004695   0.8752375), wk =   0.0025641
        k(   79) = (   0.3127125   1.1003283   1.0503533), wk =   0.0025641
        k(   80) = (  -0.3129158   1.1020224  -1.0510362), wk =   0.0025641
        k(   81) = (  -0.2607801   1.1018812  -0.8759204), wk =   0.0025641
        k(   82) = (  -0.2086444   1.1017400  -0.7008046), wk =   0.0025641
        k(   83) = (  -0.1565087   1.1015989  -0.5256888), wk =   0.0025641
        k(   84) = (  -0.1043730   1.1014577  -0.3505730), wk =   0.0025641
        k(   85) = (  -0.0522373   1.1013165  -0.1754572), wk =   0.0025641
        k(   86) = (  -0.0001186   1.2847046  -0.0003984), wk =   0.0025641
        k(   87) = (   0.0520171   1.2845634   0.1747174), wk =   0.0025641
        k(   88) = (   0.1041528   1.2844222   0.3498332), wk =   0.0025641
        k(   89) = (   0.1562885   1.2842810   0.5249490), wk =   0.0025641
        k(   90) = (   0.2084242   1.2841399   0.7000648), wk =   0.0025641
        k(   91) = (   0.2605599   1.2839987   0.8751806), wk =   0.0025641
        k(   92) = (   0.3126956   1.2838575   1.0502964), wk =   0.0025641
        k(   93) = (  -0.3129328   1.2855516  -1.0510931), wk =   0.0025641
        k(   94) = (  -0.2607971   1.2854104  -0.8759773), wk =   0.0025641
        k(   95) = (  -0.2086614   1.2852692  -0.7008615), wk =   0.0025641
        k(   96) = (  -0.1565257   1.2851281  -0.5257457), wk =   0.0025641
        k(   97) = (  -0.1043900   1.2849869  -0.3506299), wk =   0.0025641
        k(   98) = (  -0.0522543   1.2848457  -0.1755141), wk =   0.0025641
        k(   99) = (  -0.0001355   1.4682338  -0.0004553), wk =   0.0025641
        k(  100) = (   0.0520002   1.4680926   0.1746605), wk =   0.0025641
        k(  101) = (   0.1041358   1.4679514   0.3497763), wk =   0.0025641
        k(  102) = (   0.1562715   1.4678103   0.5248921), wk =   0.0025641
        k(  103) = (   0.2084072   1.4676691   0.7000079), wk =   0.0025641
        k(  104) = (   0.2605429   1.4675279   0.8751237), wk =   0.0025641
        k(  105) = (   0.3126786   1.4673867   1.0502395), wk =   0.0025641
        k(  106) = (  -0.3129497   1.4690808  -1.0511500), wk =   0.0025641
        k(  107) = (  -0.2608140   1.4689396  -0.8760342), wk =   0.0025641
        k(  108) = (  -0.2086783   1.4687985  -0.7009184), wk =   0.0025641
        k(  109) = (  -0.1565426   1.4686573  -0.5258026), wk =   0.0025641
        k(  110) = (  -0.1044069   1.4685161  -0.3506869), wk =   0.0025641
        k(  111) = (  -0.0522712   1.4683749  -0.1755711), wk =   0.0025641
        k(  112) = (  -0.0001525   1.6517630  -0.0005122), wk =   0.0025641
        k(  113) = (   0.0519832   1.6516218   0.1746036), wk =   0.0025641
        k(  114) = (   0.1041189   1.6514806   0.3497194), wk =   0.0025641
        k(  115) = (   0.1562546   1.6513395   0.5248352), wk =   0.0025641
        k(  116) = (   0.2083903   1.6511983   0.6999510), wk =   0.0025641
        k(  117) = (   0.2605260   1.6510571   0.8750668), wk =   0.0025641
        k(  118) = (   0.3126617   1.6509160   1.0501826), wk =   0.0025641
        k(  119) = (  -0.3129666   1.6526100  -1.0512069), wk =   0.0025641
        k(  120) = (  -0.2608309   1.6524689  -0.8760911), wk =   0.0025641
        k(  121) = (  -0.2086953   1.6523277  -0.7009753), wk =   0.0025641
        k(  122) = (  -0.1565596   1.6521865  -0.5258596), wk =   0.0025641
        k(  123) = (  -0.1044239   1.6520453  -0.3507438), wk =   0.0025641
        k(  124) = (  -0.0522882   1.6519042  -0.1756280), wk =   0.0025641
        k(  125) = (   0.0001694  -1.8352922   0.0005691), wk =   0.0012821
        k(  126) = (   0.0523051  -1.8354334   0.1756849), wk =   0.0025641
        k(  127) = (   0.1044408  -1.8355746   0.3508007), wk =   0.0025641
        k(  128) = (   0.1565765  -1.8357157   0.5259165), wk =   0.0025641
        k(  129) = (   0.2087122  -1.8358569   0.7010323), wk =   0.0025641
        k(  130) = (   0.2608479  -1.8359981   0.8761481), wk =   0.0025641
        k(  131) = (   0.3129836  -1.8361393   1.0512638), wk =   0.0025641
        k(  132) = (   0.1738964   0.0000000   0.0000000), wk =   0.0025641
        k(  133) = (   0.2260320  -0.0001412   0.1751158), wk =   0.0025641
        k(  134) = (   0.2781677  -0.0002823   0.3502316), wk =   0.0025641
        k(  135) = (   0.3303034  -0.0004235   0.5253474), wk =   0.0025641
        k(  136) = (   0.3824391  -0.0005647   0.7004632), wk =   0.0025641
        k(  137) = (   0.4345748  -0.0007059   0.8755790), wk =   0.0025641
        k(  138) = (   0.4867105  -0.0008470   1.0506948), wk =   0.0025641
        k(  139) = (  -0.1389178   0.0008470  -1.0506948), wk =   0.0025641
        k(  140) = (  -0.0867821   0.0007059  -0.8755790), wk =   0.0025641
        k(  141) = (  -0.0346464   0.0005647  -0.7004632), wk =   0.0025641
        k(  142) = (   0.0174893   0.0004235  -0.5253474), wk =   0.0025641
        k(  143) = (   0.0696250   0.0002823  -0.3502316), wk =   0.0025641
        k(  144) = (   0.1217607   0.0001412  -0.1751158), wk =   0.0025641
        k(  145) = (   0.1738794   0.1835292  -0.0000569), wk =   0.0025641
        k(  146) = (   0.2260151   0.1833880   0.1750589), wk =   0.0025641
        k(  147) = (   0.2781508   0.1832469   0.3501747), wk =   0.0025641
        k(  148) = (   0.3302865   0.1831057   0.5252905), wk =   0.0025641
        k(  149) = (   0.3824222   0.1829645   0.7004063), wk =   0.0025641
        k(  150) = (   0.4345579   0.1828234   0.8755221), wk =   0.0025641
        k(  151) = (   0.4866936   0.1826822   1.0506379), wk =   0.0025641
        k(  152) = (  -0.1389347   0.1843763  -1.0507517), wk =   0.0025641
        k(  153) = (  -0.0867990   0.1842351  -0.8756359), wk =   0.0025641
        k(  154) = (  -0.0346634   0.1840939  -0.7005201), wk =   0.0025641
        k(  155) = (   0.0174723   0.1839527  -0.5254043), wk =   0.0025641
        k(  156) = (   0.0696080   0.1838116  -0.3502885), wk =   0.0025641
        k(  157) = (   0.1217437   0.1836704  -0.1751727), wk =   0.0025641
        k(  158) = (   0.1738625   0.3670584  -0.0001138), wk =   0.0025641
        k(  159) = (   0.2259982   0.3669173   0.1750020), wk =   0.0025641
        k(  160) = (   0.2781339   0.3667761   0.3501178), wk =   0.0025641
        k(  161) = (   0.3302695   0.3666349   0.5252336), wk =   0.0025641
        k(  162) = (   0.3824052   0.3664938   0.7003494), wk =   0.0025641
        k(  163) = (   0.4345409   0.3663526   0.8754652), wk =   0.0025641
        k(  164) = (   0.4866766   0.3662114   1.0505810), wk =   0.0025641
        k(  165) = (  -0.1389517   0.3679055  -1.0508086), wk =   0.0025641
        k(  166) = (  -0.0868160   0.3677643  -0.8756928), wk =   0.0025641
        k(  167) = (  -0.0346803   0.3676231  -0.7005770), wk =   0.0025641
        k(  168) = (   0.0174554   0.3674820  -0.5254612), wk =   0.0025641
        k(  169) = (   0.0695911   0.3673408  -0.3503454), wk =   0.0025641
        k(  170) = (   0.1217268   0.3671996  -0.1752296), wk =   0.0025641
        k(  171) = (   0.1738455   0.5505877  -0.0001707), wk =   0.0025641
        k(  172) = (   0.2259812   0.5504465   0.1749451), wk =   0.0025641
        k(  173) = (   0.2781169   0.5503053   0.3500609), wk =   0.0025641
        k(  174) = (   0.3302526   0.5501641   0.5251767), wk =   0.0025641
        k(  175) = (   0.3823883   0.5500230   0.7002925), wk =   0.0025641
        k(  176) = (   0.4345240   0.5498818   0.8754083), wk =   0.0025641
        k(  177) = (   0.4866597   0.5497406   1.0505240), wk =   0.0025641
        k(  178) = (  -0.1389686   0.5514347  -1.0508655), wk =   0.0025641
        k(  179) = (  -0.0868329   0.5512935  -0.8757497), wk =   0.0025641
        k(  180) = (  -0.0346972   0.5511524  -0.7006339), wk =   0.0025641
        k(  181) = (   0.0174385   0.5510112  -0.5255181), wk =   0.0025641
        k(  182) = (   0.0695741   0.5508700  -0.3504023), wk =   0.0025641
        k(  183) = (   0.1217098   0.5507288  -0.1752865), wk =   0.0025641
        k(  184) = (   0.1738286   0.7341169  -0.0002276), wk =   0.0025641
        k(  185) = (   0.2259643   0.7339757   0.1748882), wk =   0.0025641
        k(  186) = (   0.2781000   0.7338345   0.3500040), wk =   0.0025641
        k(  187) = (   0.3302357   0.7336934   0.5251198), wk =   0.0025641
        k(  188) = (   0.3823714   0.7335522   0.7002355), wk =   0.0025641
        k(  189) = (   0.4345070   0.7334110   0.8753513), wk =   0.0025641
        k(  190) = (   0.4866427   0.7332698   1.0504671), wk =   0.0025641
        k(  191) = (  -0.1389856   0.7349639  -1.0509224), wk =   0.0025641
        k(  192) = (  -0.0868499   0.7348228  -0.8758066), wk =   0.0025641
        k(  193) = (  -0.0347142   0.7346816  -0.7006908), wk =   0.0025641
        k(  194) = (   0.0174215   0.7345404  -0.5255750), wk =   0.0025641
        k(  195) = (   0.0695572   0.7343992  -0.3504592), wk =   0.0025641
        k(  196) = (   0.1216929   0.7342581  -0.1753434), wk =   0.0025641
        k(  197) = (   0.1738116   0.9176461  -0.0002845), wk =   0.0025641
        k(  198) = (   0.2259473   0.9175049   0.1748313), wk =   0.0025641
        k(  199) = (   0.2780830   0.9173638   0.3499471), wk =   0.0025641
        k(  200) = (   0.3302187   0.9172226   0.5250628), wk =   0.0025641
        k(  201) = (   0.3823544   0.9170814   0.7001786), wk =   0.0025641
        k(  202) = (   0.4344901   0.9169402   0.8752944), wk =   0.0025641
        k(  203) = (   0.4866258   0.9167991   1.0504102), wk =   0.0025641
        k(  204) = (  -0.1390025   0.9184931  -1.0509793), wk =   0.0025641
        k(  205) = (  -0.0868668   0.9183520  -0.8758635), wk =   0.0025641
        k(  206) = (  -0.0347311   0.9182108  -0.7007477), wk =   0.0025641
        k(  207) = (   0.0174046   0.9180696  -0.5256319), wk =   0.0025641
        k(  208) = (   0.0695403   0.9179285  -0.3505161), wk =   0.0025641
        k(  209) = (   0.1216760   0.9177873  -0.1754003), wk =   0.0025641
        k(  210) = (   0.1737947   1.1011753  -0.0003414), wk =   0.0025641
        k(  211) = (   0.2259304   1.1010342   0.1747743), wk =   0.0025641
        k(  212) = (   0.2780661   1.1008930   0.3498901), wk =   0.0025641
        k(  213) = (   0.3302018   1.1007518   0.5250059), wk =   0.0025641
        k(  214) = (   0.3823375   1.1006106   0.7001217), wk =   0.0025641
        k(  215) = (   0.4344732   1.1004695   0.8752375), wk =   0.0025641
        k(  216) = (   0.4866089   1.1003283   1.0503533), wk =   0.0025641
        k(  217) = (  -0.1390195   1.1020224  -1.0510362), wk =   0.0025641
        k(  218) = (  -0.0868838   1.1018812  -0.8759204), wk =   0.0025641
        k(  219) = (  -0.0347481   1.1017400  -0.7008046), wk =   0.0025641
        k(  220) = (   0.0173876   1.1015989  -0.5256888), wk =   0.0025641
        k(  221) = (   0.0695233   1.1014577  -0.3505730), wk =   0.0025641
        k(  222) = (   0.1216590   1.1013165  -0.1754572), wk =   0.0025641
        k(  223) = (   0.1737778   1.2847046  -0.0003984), wk =   0.0025641
        k(  224) = (   0.2259135   1.2845634   0.1747174), wk =   0.0025641
        k(  225) = (   0.2780491   1.2844222   0.3498332), wk =   0.0025641
        k(  226) = (   0.3301848   1.2842810   0.5249490), wk =   0.0025641
        k(  227) = (   0.3823205   1.2841399   0.7000648), wk =   0.0025641
        k(  228) = (   0.4344562   1.2839987   0.8751806), wk =   0.0025641
        k(  229) = (   0.4865919   1.2838575   1.0502964), wk =   0.0025641
        k(  230) = (  -0.1390364   1.2855516  -1.0510931), wk =   0.0025641
        k(  231) = (  -0.0869007   1.2854104  -0.8759773), wk =   0.0025641
        k(  232) = (  -0.0347650   1.2852692  -0.7008615), wk =   0.0025641
        k(  233) = (   0.0173707   1.2851281  -0.5257457), wk =   0.0025641
        k(  234) = (   0.0695064   1.2849869  -0.3506299), wk =   0.0025641
        k(  235) = (   0.1216421   1.2848457  -0.1755141), wk =   0.0025641
        k(  236) = (   0.1737608   1.4682338  -0.0004553), wk =   0.0025641
        k(  237) = (   0.2258965   1.4680926   0.1746605), wk =   0.0025641
        k(  238) = (   0.2780322   1.4679514   0.3497763), wk =   0.0025641
        k(  239) = (   0.3301679   1.4678103   0.5248921), wk =   0.0025641
        k(  240) = (   0.3823036   1.4676691   0.7000079), wk =   0.0025641
        k(  241) = (   0.4344393   1.4675279   0.8751237), wk =   0.0025641
        k(  242) = (   0.4865750   1.4673867   1.0502395), wk =   0.0025641
        k(  243) = (  -0.1390533   1.4690808  -1.0511500), wk =   0.0025641
        k(  244) = (  -0.0869176   1.4689396  -0.8760342), wk =   0.0025641
        k(  245) = (  -0.0347820   1.4687985  -0.7009184), wk =   0.0025641
        k(  246) = (   0.0173537   1.4686573  -0.5258026), wk =   0.0025641
        k(  247) = (   0.0694894   1.4685161  -0.3506869), wk =   0.0025641
        k(  248) = (   0.1216251   1.4683749  -0.1755711), wk =   0.0025641
        k(  249) = (   0.1737439   1.6517630  -0.0005122), wk =   0.0025641
        k(  250) = (   0.2258796   1.6516218   0.1746036), wk =   0.0025641
        k(  251) = (   0.2780153   1.6514806   0.3497194), wk =   0.0025641
        k(  252) = (   0.3301509   1.6513395   0.5248352), wk =   0.0025641
        k(  253) = (   0.3822866   1.6511983   0.6999510), wk =   0.0025641
        k(  254) = (   0.4344223   1.6510571   0.8750668), wk =   0.0025641
        k(  255) = (   0.4865580   1.6509160   1.0501826), wk =   0.0025641
        k(  256) = (  -0.1390703   1.6526100  -1.0512069), wk =   0.0025641
        k(  257) = (  -0.0869346   1.6524689  -0.8760911), wk =   0.0025641
        k(  258) = (  -0.0347989   1.6523277  -0.7009753), wk =   0.0025641
        k(  259) = (   0.0173368   1.6521865  -0.5258596), wk =   0.0025641
        k(  260) = (   0.0694725   1.6520453  -0.3507438), wk =   0.0025641
        k(  261) = (   0.1216082   1.6519042  -0.1756280), wk =   0.0025641
        k(  262) = (   0.1740658  -1.8352922   0.0005691), wk =   0.0025641
        k(  263) = (   0.2262015  -1.8354334   0.1756849), wk =   0.0025641
        k(  264) = (   0.2783372  -1.8355746   0.3508007), wk =   0.0025641
        k(  265) = (   0.3304729  -1.8357157   0.5259165), wk =   0.0025641
        k(  266) = (   0.3826086  -1.8358569   0.7010323), wk =   0.0025641
        k(  267) = (   0.4347442  -1.8359981   0.8761481), wk =   0.0025641
        k(  268) = (   0.4868799  -1.8361393   1.0512638), wk =   0.0025641
        k(  269) = (  -0.1387484  -1.8344452  -1.0501257), wk =   0.0025641
        k(  270) = (  -0.0866127  -1.8345864  -0.8750099), wk =   0.0025641
        k(  271) = (  -0.0344770  -1.8347275  -0.6998941), wk =   0.0025641
        k(  272) = (   0.0176587  -1.8348687  -0.5247783), wk =   0.0025641
        k(  273) = (   0.0697944  -1.8350099  -0.3496625), wk =   0.0025641
        k(  274) = (   0.1219301  -1.8351510  -0.1745467), wk =   0.0025641
        k(  275) = (   0.1740488  -1.6517630   0.0005122), wk =   0.0025641
        k(  276) = (   0.2261845  -1.6519042   0.1756280), wk =   0.0025641
        k(  277) = (   0.2783202  -1.6520453   0.3507438), wk =   0.0025641
        k(  278) = (   0.3304559  -1.6521865   0.5258596), wk =   0.0025641
        k(  279) = (   0.3825916  -1.6523277   0.7009753), wk =   0.0025641
        k(  280) = (   0.4347273  -1.6524689   0.8760911), wk =   0.0025641
        k(  281) = (   0.4868630  -1.6526100   1.0512069), wk =   0.0025641
        k(  282) = (  -0.1387653  -1.6509160  -1.0501826), wk =   0.0025641
        k(  283) = (  -0.0866296  -1.6510571  -0.8750668), wk =   0.0025641
        k(  284) = (  -0.0344939  -1.6511983  -0.6999510), wk =   0.0025641
        k(  285) = (   0.0176418  -1.6513395  -0.5248352), wk =   0.0025641
        k(  286) = (   0.0697775  -1.6514806  -0.3497194), wk =   0.0025641
        k(  287) = (   0.1219131  -1.6516218  -0.1746036), wk =   0.0025641
        k(  288) = (   0.1740319  -1.4682338   0.0004553), wk =   0.0025641
        k(  289) = (   0.2261676  -1.4683749   0.1755711), wk =   0.0025641
        k(  290) = (   0.2783033  -1.4685161   0.3506869), wk =   0.0025641
        k(  291) = (   0.3304390  -1.4686573   0.5258026), wk =   0.0025641
        k(  292) = (   0.3825747  -1.4687985   0.7009184), wk =   0.0025641
        k(  293) = (   0.4347104  -1.4689396   0.8760342), wk =   0.0025641
        k(  294) = (   0.4868461  -1.4690808   1.0511500), wk =   0.0025641
        k(  295) = (  -0.1387823  -1.4673867  -1.0502395), wk =   0.0025641
        k(  296) = (  -0.0866466  -1.4675279  -0.8751237), wk =   0.0025641
        k(  297) = (  -0.0345109  -1.4676691  -0.7000079), wk =   0.0025641
        k(  298) = (   0.0176248  -1.4678103  -0.5248921), wk =   0.0025641
        k(  299) = (   0.0697605  -1.4679514  -0.3497763), wk =   0.0025641
        k(  300) = (   0.1218962  -1.4680926  -0.1746605), wk =   0.0025641
        k(  301) = (   0.1740150  -1.2847046   0.0003984), wk =   0.0025641
        k(  302) = (   0.2261506  -1.2848457   0.1755141), wk =   0.0025641
        k(  303) = (   0.2782863  -1.2849869   0.3506299), wk =   0.0025641
        k(  304) = (   0.3304220  -1.2851281   0.5257457), wk =   0.0025641
        k(  305) = (   0.3825577  -1.2852692   0.7008615), wk =   0.0025641
        k(  306) = (   0.4346934  -1.2854104   0.8759773), wk =   0.0025641
        k(  307) = (   0.4868291  -1.2855516   1.0510931), wk =   0.0025641
        k(  308) = (  -0.1387992  -1.2838575  -1.0502964), wk =   0.0025641
        k(  309) = (  -0.0866635  -1.2839987  -0.8751806), wk =   0.0025641
        k(  310) = (  -0.0345278  -1.2841399  -0.7000648), wk =   0.0025641
        k(  311) = (   0.0176079  -1.2842810  -0.5249490), wk =   0.0025641
        k(  312) = (   0.0697436  -1.2844222  -0.3498332), wk =   0.0025641
        k(  313) = (   0.1218793  -1.2845634  -0.1747174), wk =   0.0025641
        k(  314) = (   0.1739980  -1.1011753   0.0003414), wk =   0.0025641
        k(  315) = (   0.2261337  -1.1013165   0.1754572), wk =   0.0025641
        k(  316) = (   0.2782694  -1.1014577   0.3505730), wk =   0.0025641
        k(  317) = (   0.3304051  -1.1015989   0.5256888), wk =   0.0025641
        k(  318) = (   0.3825408  -1.1017400   0.7008046), wk =   0.0025641
        k(  319) = (   0.4346765  -1.1018812   0.8759204), wk =   0.0025641
        k(  320) = (   0.4868122  -1.1020224   1.0510362), wk =   0.0025641
        k(  321) = (  -0.1388161  -1.1003283  -1.0503533), wk =   0.0025641
        k(  322) = (  -0.0866804  -1.1004695  -0.8752375), wk =   0.0025641
        k(  323) = (  -0.0345448  -1.1006106  -0.7001217), wk =   0.0025641
        k(  324) = (   0.0175909  -1.1007518  -0.5250059), wk =   0.0025641
        k(  325) = (   0.0697266  -1.1008930  -0.3498901), wk =   0.0025641
        k(  326) = (   0.1218623  -1.1010342  -0.1747743), wk =   0.0025641
        k(  327) = (   0.1739811  -0.9176461   0.0002845), wk =   0.0025641
        k(  328) = (   0.2261168  -0.9177873   0.1754003), wk =   0.0025641
        k(  329) = (   0.2782525  -0.9179285   0.3505161), wk =   0.0025641
        k(  330) = (   0.3303881  -0.9180696   0.5256319), wk =   0.0025641
        k(  331) = (   0.3825238  -0.9182108   0.7007477), wk =   0.0025641
        k(  332) = (   0.4346595  -0.9183520   0.8758635), wk =   0.0025641
        k(  333) = (   0.4867952  -0.9184931   1.0509793), wk =   0.0025641
        k(  334) = (  -0.1388331  -0.9167991  -1.0504102), wk =   0.0025641
        k(  335) = (  -0.0866974  -0.9169402  -0.8752944), wk =   0.0025641
        k(  336) = (  -0.0345617  -0.9170814  -0.7001786), wk =   0.0025641
        k(  337) = (   0.0175740  -0.9172226  -0.5250628), wk =   0.0025641
        k(  338) = (   0.0697097  -0.9173638  -0.3499471), wk =   0.0025641
        k(  339) = (   0.1218454  -0.9175049  -0.1748313), wk =   0.0025641
        k(  340) = (   0.1739641  -0.7341169   0.0002276), wk =   0.0025641
        k(  341) = (   0.2260998  -0.7342581   0.1753434), wk =   0.0025641
        k(  342) = (   0.2782355  -0.7343992   0.3504592), wk =   0.0025641
        k(  343) = (   0.3303712  -0.7345404   0.5255750), wk =   0.0025641
        k(  344) = (   0.3825069  -0.7346816   0.7006908), wk =   0.0025641
        k(  345) = (   0.4346426  -0.7348228   0.8758066), wk =   0.0025641
        k(  346) = (   0.4867783  -0.7349639   1.0509224), wk =   0.0025641
        k(  347) = (  -0.1388500  -0.7332698  -1.0504671), wk =   0.0025641
        k(  348) = (  -0.0867143  -0.7334110  -0.8753513), wk =   0.0025641
        k(  349) = (  -0.0345786  -0.7335522  -0.7002355), wk =   0.0025641
        k(  350) = (   0.0175571  -0.7336934  -0.5251198), wk =   0.0025641
        k(  351) = (   0.0696927  -0.7338345  -0.3500040), wk =   0.0025641
        k(  352) = (   0.1218284  -0.7339757  -0.1748882), wk =   0.0025641
        k(  353) = (   0.1739472  -0.5505877   0.0001707), wk =   0.0025641
        k(  354) = (   0.2260829  -0.5507288   0.1752865), wk =   0.0025641
        k(  355) = (   0.2782186  -0.5508700   0.3504023), wk =   0.0025641
        k(  356) = (   0.3303543  -0.5510112   0.5255181), wk =   0.0025641
        k(  357) = (   0.3824900  -0.5511524   0.7006339), wk =   0.0025641
        k(  358) = (   0.4346256  -0.5512935   0.8757497), wk =   0.0025641
        k(  359) = (   0.4867613  -0.5514347   1.0508655), wk =   0.0025641
        k(  360) = (  -0.1388670  -0.5497406  -1.0505240), wk =   0.0025641
        k(  361) = (  -0.0867313  -0.5498818  -0.8754083), wk =   0.0025641
        k(  362) = (  -0.0345956  -0.5500230  -0.7002925), wk =   0.0025641
        k(  363) = (   0.0175401  -0.5501641  -0.5251767), wk =   0.0025641
        k(  364) = (   0.0696758  -0.5503053  -0.3500609), wk =   0.0025641
        k(  365) = (   0.1218115  -0.5504465  -0.1749451), wk =   0.0025641
        k(  366) = (   0.1739302  -0.3670584   0.0001138), wk =   0.0025641
        k(  367) = (   0.2260659  -0.3671996   0.1752296), wk =   0.0025641
        k(  368) = (   0.2782016  -0.3673408   0.3503454), wk =   0.0025641
        k(  369) = (   0.3303373  -0.3674820   0.5254612), wk =   0.0025641
        k(  370) = (   0.3824730  -0.3676231   0.7005770), wk =   0.0025641
        k(  371) = (   0.4346087  -0.3677643   0.8756928), wk =   0.0025641
        k(  372) = (   0.4867444  -0.3679055   1.0508086), wk =   0.0025641
        k(  373) = (  -0.1388839  -0.3662114  -1.0505810), wk =   0.0025641
        k(  374) = (  -0.0867482  -0.3663526  -0.8754652), wk =   0.0025641
        k(  375) = (  -0.0346125  -0.3664938  -0.7003494), wk =   0.0025641
        k(  376) = (   0.0175232  -0.3666349  -0.5252336), wk =   0.0025641
        k(  377) = (   0.0696589  -0.3667761  -0.3501178), wk =   0.0025641
        k(  378) = (   0.1217945  -0.3669173  -0.1750020), wk =   0.0025641
        k(  379) = (   0.1739133  -0.1835292   0.0000569), wk =   0.0025641
        k(  380) = (   0.2260490  -0.1836704   0.1751727), wk =   0.0025641
        k(  381) = (   0.2781847  -0.1838116   0.3502885), wk =   0.0025641
        k(  382) = (   0.3303204  -0.1839527   0.5254043), wk =   0.0025641
        k(  383) = (   0.3824561  -0.1840939   0.7005201), wk =   0.0025641
        k(  384) = (   0.4345918  -0.1842351   0.8756359), wk =   0.0025641
        k(  385) = (   0.4867275  -0.1843763   1.0507517), wk =   0.0025641
        k(  386) = (  -0.1389009  -0.1826822  -1.0506379), wk =   0.0025641
        k(  387) = (  -0.0867652  -0.1828234  -0.8755221), wk =   0.0025641
        k(  388) = (  -0.0346295  -0.1829645  -0.7004063), wk =   0.0025641
        k(  389) = (   0.0175062  -0.1831057  -0.5252905), wk =   0.0025641
        k(  390) = (   0.0696419  -0.1832469  -0.3501747), wk =   0.0025641
        k(  391) = (   0.1217776  -0.1833880  -0.1750589), wk =   0.0025641
        k(  392) = (   0.3477927   0.0000000   0.0000000), wk =   0.0025641
        k(  393) = (   0.3999284  -0.0001412   0.1751158), wk =   0.0025641
        k(  394) = (   0.4520641  -0.0002823   0.3502316), wk =   0.0025641
        k(  395) = (   0.5041998  -0.0004235   0.5253474), wk =   0.0025641
        k(  396) = (   0.5563355  -0.0005647   0.7004632), wk =   0.0025641
        k(  397) = (   0.6084712  -0.0007059   0.8755790), wk =   0.0025641
        k(  398) = (   0.6606069  -0.0008470   1.0506948), wk =   0.0025641
        k(  399) = (   0.0349786   0.0008470  -1.0506948), wk =   0.0025641
        k(  400) = (   0.0871143   0.0007059  -0.8755790), wk =   0.0025641
        k(  401) = (   0.1392499   0.0005647  -0.7004632), wk =   0.0025641
        k(  402) = (   0.1913856   0.0004235  -0.5253474), wk =   0.0025641
        k(  403) = (   0.2435213   0.0002823  -0.3502316), wk =   0.0025641
        k(  404) = (   0.2956570   0.0001412  -0.1751158), wk =   0.0025641
        k(  405) = (   0.3477758   0.1835292  -0.0000569), wk =   0.0025641
        k(  406) = (   0.3999115   0.1833880   0.1750589), wk =   0.0025641
        k(  407) = (   0.4520472   0.1832469   0.3501747), wk =   0.0025641
        k(  408) = (   0.5041828   0.1831057   0.5252905), wk =   0.0025641
        k(  409) = (   0.5563185   0.1829645   0.7004063), wk =   0.0025641
        k(  410) = (   0.6084542   0.1828234   0.8755221), wk =   0.0025641
        k(  411) = (   0.6605899   0.1826822   1.0506379), wk =   0.0025641
        k(  412) = (   0.0349616   0.1843763  -1.0507517), wk =   0.0025641
        k(  413) = (   0.0870973   0.1842351  -0.8756359), wk =   0.0025641
        k(  414) = (   0.1392330   0.1840939  -0.7005201), wk =   0.0025641
        k(  415) = (   0.1913687   0.1839527  -0.5254043), wk =   0.0025641
        k(  416) = (   0.2435044   0.1838116  -0.3502885), wk =   0.0025641
        k(  417) = (   0.2956401   0.1836704  -0.1751727), wk =   0.0025641
        k(  418) = (   0.3477588   0.3670584  -0.0001138), wk =   0.0025641
        k(  419) = (   0.3998945   0.3669173   0.1750020), wk =   0.0025641
        k(  420) = (   0.4520302   0.3667761   0.3501178), wk =   0.0025641
        k(  421) = (   0.5041659   0.3666349   0.5252336), wk =   0.0025641
        k(  422) = (   0.5563016   0.3664938   0.7003494), wk =   0.0025641
        k(  423) = (   0.6084373   0.3663526   0.8754652), wk =   0.0025641
        k(  424) = (   0.6605730   0.3662114   1.0505810), wk =   0.0025641
        k(  425) = (   0.0349447   0.3679055  -1.0508086), wk =   0.0025641
        k(  426) = (   0.0870804   0.3677643  -0.8756928), wk =   0.0025641
        k(  427) = (   0.1392161   0.3676231  -0.7005770), wk =   0.0025641
        k(  428) = (   0.1913518   0.3674820  -0.5254612), wk =   0.0025641
        k(  429) = (   0.2434874   0.3673408  -0.3503454), wk =   0.0025641
        k(  430) = (   0.2956231   0.3671996  -0.1752296), wk =   0.0025641
        k(  431) = (   0.3477419   0.5505877  -0.0001707), wk =   0.0025641
        k(  432) = (   0.3998776   0.5504465   0.1749451), wk =   0.0025641
        k(  433) = (   0.4520133   0.5503053   0.3500609), wk =   0.0025641
        k(  434) = (   0.5041490   0.5501641   0.5251767), wk =   0.0025641
        k(  435) = (   0.5562847   0.5500230   0.7002925), wk =   0.0025641
        k(  436) = (   0.6084203   0.5498818   0.8754083), wk =   0.0025641
        k(  437) = (   0.6605560   0.5497406   1.0505240), wk =   0.0025641
        k(  438) = (   0.0349277   0.5514347  -1.0508655), wk =   0.0025641
        k(  439) = (   0.0870634   0.5512935  -0.8757497), wk =   0.0025641
        k(  440) = (   0.1391991   0.5511524  -0.7006339), wk =   0.0025641
        k(  441) = (   0.1913348   0.5510112  -0.5255181), wk =   0.0025641
        k(  442) = (   0.2434705   0.5508700  -0.3504023), wk =   0.0025641
        k(  443) = (   0.2956062   0.5507288  -0.1752865), wk =   0.0025641
        k(  444) = (   0.3477249   0.7341169  -0.0002276), wk =   0.0025641
        k(  445) = (   0.3998606   0.7339757   0.1748882), wk =   0.0025641
        k(  446) = (   0.4519963   0.7338345   0.3500040), wk =   0.0025641
        k(  447) = (   0.5041320   0.7336934   0.5251198), wk =   0.0025641
        k(  448) = (   0.5562677   0.7335522   0.7002355), wk =   0.0025641
        k(  449) = (   0.6084034   0.7334110   0.8753513), wk =   0.0025641
        k(  450) = (   0.6605391   0.7332698   1.0504671), wk =   0.0025641
        k(  451) = (   0.0349108   0.7349639  -1.0509224), wk =   0.0025641
        k(  452) = (   0.0870465   0.7348228  -0.8758066), wk =   0.0025641
        k(  453) = (   0.1391822   0.7346816  -0.7006908), wk =   0.0025641
        k(  454) = (   0.1913179   0.7345404  -0.5255750), wk =   0.0025641
        k(  455) = (   0.2434536   0.7343992  -0.3504592), wk =   0.0025641
        k(  456) = (   0.2955892   0.7342581  -0.1753434), wk =   0.0025641
        k(  457) = (   0.3477080   0.9176461  -0.0002845), wk =   0.0025641
        k(  458) = (   0.3998437   0.9175049   0.1748313), wk =   0.0025641
        k(  459) = (   0.4519794   0.9173638   0.3499471), wk =   0.0025641
        k(  460) = (   0.5041151   0.9172226   0.5250628), wk =   0.0025641
        k(  461) = (   0.5562508   0.9170814   0.7001786), wk =   0.0025641
        k(  462) = (   0.6083865   0.9169402   0.8752944), wk =   0.0025641
        k(  463) = (   0.6605222   0.9167991   1.0504102), wk =   0.0025641
        k(  464) = (   0.0348938   0.9184931  -1.0509793), wk =   0.0025641
        k(  465) = (   0.0870295   0.9183520  -0.8758635), wk =   0.0025641
        k(  466) = (   0.1391652   0.9182108  -0.7007477), wk =   0.0025641
        k(  467) = (   0.1913009   0.9180696  -0.5256319), wk =   0.0025641
        k(  468) = (   0.2434366   0.9179285  -0.3505161), wk =   0.0025641
        k(  469) = (   0.2955723   0.9177873  -0.1754003), wk =   0.0025641
        k(  470) = (   0.3476911   1.1011753  -0.0003414), wk =   0.0025641
        k(  471) = (   0.3998267   1.1010342   0.1747743), wk =   0.0025641
        k(  472) = (   0.4519624   1.1008930   0.3498901), wk =   0.0025641
        k(  473) = (   0.5040981   1.1007518   0.5250059), wk =   0.0025641
        k(  474) = (   0.5562338   1.1006106   0.7001217), wk =   0.0025641
        k(  475) = (   0.6083695   1.1004695   0.8752375), wk =   0.0025641
        k(  476) = (   0.6605052   1.1003283   1.0503533), wk =   0.0025641
        k(  477) = (   0.0348769   1.1020224  -1.0510362), wk =   0.0025641
        k(  478) = (   0.0870126   1.1018812  -0.8759204), wk =   0.0025641
        k(  479) = (   0.1391483   1.1017400  -0.7008046), wk =   0.0025641
        k(  480) = (   0.1912840   1.1015989  -0.5256888), wk =   0.0025641
        k(  481) = (   0.2434197   1.1014577  -0.3505730), wk =   0.0025641
        k(  482) = (   0.2955554   1.1013165  -0.1754572), wk =   0.0025641
        k(  483) = (   0.3476741   1.2847046  -0.0003984), wk =   0.0025641
        k(  484) = (   0.3998098   1.2845634   0.1747174), wk =   0.0025641
        k(  485) = (   0.4519455   1.2844222   0.3498332), wk =   0.0025641
        k(  486) = (   0.5040812   1.2842810   0.5249490), wk =   0.0025641
        k(  487) = (   0.5562169   1.2841399   0.7000648), wk =   0.0025641
        k(  488) = (   0.6083526   1.2839987   0.8751806), wk =   0.0025641
        k(  489) = (   0.6604883   1.2838575   1.0502964), wk =   0.0025641
        k(  490) = (   0.0348600   1.2855516  -1.0510931), wk =   0.0025641
        k(  491) = (   0.0869957   1.2854104  -0.8759773), wk =   0.0025641
        k(  492) = (   0.1391313   1.2852692  -0.7008615), wk =   0.0025641
        k(  493) = (   0.1912670   1.2851281  -0.5257457), wk =   0.0025641
        k(  494) = (   0.2434027   1.2849869  -0.3506299), wk =   0.0025641
        k(  495) = (   0.2955384   1.2848457  -0.1755141), wk =   0.0025641
        k(  496) = (   0.3476572   1.4682338  -0.0004553), wk =   0.0025641
        k(  497) = (   0.3997929   1.4680926   0.1746605), wk =   0.0025641
        k(  498) = (   0.4519286   1.4679514   0.3497763), wk =   0.0025641
        k(  499) = (   0.5040642   1.4678103   0.5248921), wk =   0.0025641
        k(  500) = (   0.5561999   1.4676691   0.7000079), wk =   0.0025641
        k(  501) = (   0.6083356   1.4675279   0.8751237), wk =   0.0025641
        k(  502) = (   0.6604713   1.4673867   1.0502395), wk =   0.0025641
        k(  503) = (   0.0348430   1.4690808  -1.0511500), wk =   0.0025641
        k(  504) = (   0.0869787   1.4689396  -0.8760342), wk =   0.0025641
        k(  505) = (   0.1391144   1.4687985  -0.7009184), wk =   0.0025641
        k(  506) = (   0.1912501   1.4686573  -0.5258026), wk =   0.0025641
        k(  507) = (   0.2433858   1.4685161  -0.3506869), wk =   0.0025641
        k(  508) = (   0.2955215   1.4683749  -0.1755711), wk =   0.0025641
        k(  509) = (   0.3476402   1.6517630  -0.0005122), wk =   0.0025641
        k(  510) = (   0.3997759   1.6516218   0.1746036), wk =   0.0025641
        k(  511) = (   0.4519116   1.6514806   0.3497194), wk =   0.0025641
        k(  512) = (   0.5040473   1.6513395   0.5248352), wk =   0.0025641
        k(  513) = (   0.5561830   1.6511983   0.6999510), wk =   0.0025641
        k(  514) = (   0.6083187   1.6510571   0.8750668), wk =   0.0025641
        k(  515) = (   0.6604544   1.6509160   1.0501826), wk =   0.0025641
        k(  516) = (   0.0348261   1.6526100  -1.0512069), wk =   0.0025641
        k(  517) = (   0.0869618   1.6524689  -0.8760911), wk =   0.0025641
        k(  518) = (   0.1390975   1.6523277  -0.7009753), wk =   0.0025641
        k(  519) = (   0.1912332   1.6521865  -0.5258596), wk =   0.0025641
        k(  520) = (   0.2433688   1.6520453  -0.3507438), wk =   0.0025641
        k(  521) = (   0.2955045   1.6519042  -0.1756280), wk =   0.0025641
        k(  522) = (   0.3479621  -1.8352922   0.0005691), wk =   0.0025641
        k(  523) = (   0.4000978  -1.8354334   0.1756849), wk =   0.0025641
        k(  524) = (   0.4522335  -1.8355746   0.3508007), wk =   0.0025641
        k(  525) = (   0.5043692  -1.8357157   0.5259165), wk =   0.0025641
        k(  526) = (   0.5565049  -1.8358569   0.7010323), wk =   0.0025641
        k(  527) = (   0.6086406  -1.8359981   0.8761481), wk =   0.0025641
        k(  528) = (   0.6607763  -1.8361393   1.0512638), wk =   0.0025641
        k(  529) = (   0.0351480  -1.8344452  -1.0501257), wk =   0.0025641
        k(  530) = (   0.0872837  -1.8345864  -0.8750099), wk =   0.0025641
        k(  531) = (   0.1394194  -1.8347275  -0.6998941), wk =   0.0025641
        k(  532) = (   0.1915551  -1.8348687  -0.5247783), wk =   0.0025641
        k(  533) = (   0.2436908  -1.8350099  -0.3496625), wk =   0.0025641
        k(  534) = (   0.2958264  -1.8351510  -0.1745467), wk =   0.0025641
        k(  535) = (   0.3479452  -1.6517630   0.0005122), wk =   0.0025641
        k(  536) = (   0.4000809  -1.6519042   0.1756280), wk =   0.0025641
        k(  537) = (   0.4522166  -1.6520453   0.3507438), wk =   0.0025641
        k(  538) = (   0.5043523  -1.6521865   0.5258596), wk =   0.0025641
        k(  539) = (   0.5564880  -1.6523277   0.7009753), wk =   0.0025641
        k(  540) = (   0.6086237  -1.6524689   0.8760911), wk =   0.0025641
        k(  541) = (   0.6607593  -1.6526100   1.0512069), wk =   0.0025641
        k(  542) = (   0.0351310  -1.6509160  -1.0501826), wk =   0.0025641
        k(  543) = (   0.0872667  -1.6510571  -0.8750668), wk =   0.0025641
        k(  544) = (   0.1394024  -1.6511983  -0.6999510), wk =   0.0025641
        k(  545) = (   0.1915381  -1.6513395  -0.5248352), wk =   0.0025641
        k(  546) = (   0.2436738  -1.6514806  -0.3497194), wk =   0.0025641
        k(  547) = (   0.2958095  -1.6516218  -0.1746036), wk =   0.0025641
        k(  548) = (   0.3479283  -1.4682338   0.0004553), wk =   0.0025641
        k(  549) = (   0.4000639  -1.4683749   0.1755711), wk =   0.0025641
        k(  550) = (   0.4521996  -1.4685161   0.3506869), wk =   0.0025641
        k(  551) = (   0.5043353  -1.4686573   0.5258026), wk =   0.0025641
        k(  552) = (   0.5564710  -1.4687985   0.7009184), wk =   0.0025641
        k(  553) = (   0.6086067  -1.4689396   0.8760342), wk =   0.0025641
        k(  554) = (   0.6607424  -1.4690808   1.0511500), wk =   0.0025641
        k(  555) = (   0.0351141  -1.4673867  -1.0502395), wk =   0.0025641
        k(  556) = (   0.0872498  -1.4675279  -0.8751237), wk =   0.0025641
        k(  557) = (   0.1393855  -1.4676691  -0.7000079), wk =   0.0025641
        k(  558) = (   0.1915212  -1.4678103  -0.5248921), wk =   0.0025641
        k(  559) = (   0.2436569  -1.4679514  -0.3497763), wk =   0.0025641
        k(  560) = (   0.2957926  -1.4680926  -0.1746605), wk =   0.0025641
        k(  561) = (   0.3479113  -1.2847046   0.0003984), wk =   0.0025641
        k(  562) = (   0.4000470  -1.2848457   0.1755141), wk =   0.0025641
        k(  563) = (   0.4521827  -1.2849869   0.3506299), wk =   0.0025641
        k(  564) = (   0.5043184  -1.2851281   0.5257457), wk =   0.0025641
        k(  565) = (   0.5564541  -1.2852692   0.7008615), wk =   0.0025641
        k(  566) = (   0.6085898  -1.2854104   0.8759773), wk =   0.0025641
        k(  567) = (   0.6607255  -1.2855516   1.0510931), wk =   0.0025641
        k(  568) = (   0.0350972  -1.2838575  -1.0502964), wk =   0.0025641
        k(  569) = (   0.0872329  -1.2839987  -0.8751806), wk =   0.0025641
        k(  570) = (   0.1393685  -1.2841399  -0.7000648), wk =   0.0025641
        k(  571) = (   0.1915042  -1.2842810  -0.5249490), wk =   0.0025641
        k(  572) = (   0.2436399  -1.2844222  -0.3498332), wk =   0.0025641
        k(  573) = (   0.2957756  -1.2845634  -0.1747174), wk =   0.0025641
        k(  574) = (   0.3478944  -1.1011753   0.0003414), wk =   0.0025641
        k(  575) = (   0.4000301  -1.1013165   0.1754572), wk =   0.0025641
        k(  576) = (   0.4521658  -1.1014577   0.3505730), wk =   0.0025641
        k(  577) = (   0.5043014  -1.1015989   0.5256888), wk =   0.0025641
        k(  578) = (   0.5564371  -1.1017400   0.7008046), wk =   0.0025641
        k(  579) = (   0.6085728  -1.1018812   0.8759204), wk =   0.0025641
        k(  580) = (   0.6607085  -1.1020224   1.0510362), wk =   0.0025641
        k(  581) = (   0.0350802  -1.1003283  -1.0503533), wk =   0.0025641
        k(  582) = (   0.0872159  -1.1004695  -0.8752375), wk =   0.0025641
        k(  583) = (   0.1393516  -1.1006106  -0.7001217), wk =   0.0025641
        k(  584) = (   0.1914873  -1.1007518  -0.5250059), wk =   0.0025641
        k(  585) = (   0.2436230  -1.1008930  -0.3498901), wk =   0.0025641
        k(  586) = (   0.2957587  -1.1010342  -0.1747743), wk =   0.0025641
        k(  587) = (   0.3478774  -0.9176461   0.0002845), wk =   0.0025641
        k(  588) = (   0.4000131  -0.9177873   0.1754003), wk =   0.0025641
        k(  589) = (   0.4521488  -0.9179285   0.3505161), wk =   0.0025641
        k(  590) = (   0.5042845  -0.9180696   0.5256319), wk =   0.0025641
        k(  591) = (   0.5564202  -0.9182108   0.7007477), wk =   0.0025641
        k(  592) = (   0.6085559  -0.9183520   0.8758635), wk =   0.0025641
        k(  593) = (   0.6606916  -0.9184931   1.0509793), wk =   0.0025641
        k(  594) = (   0.0350633  -0.9167991  -1.0504102), wk =   0.0025641
        k(  595) = (   0.0871990  -0.9169402  -0.8752944), wk =   0.0025641
        k(  596) = (   0.1393347  -0.9170814  -0.7001786), wk =   0.0025641
        k(  597) = (   0.1914703  -0.9172226  -0.5250628), wk =   0.0025641
        k(  598) = (   0.2436060  -0.9173638  -0.3499471), wk =   0.0025641
        k(  599) = (   0.2957417  -0.9175049  -0.1748313), wk =   0.0025641
        k(  600) = (   0.3478605  -0.7341169   0.0002276), wk =   0.0025641
        k(  601) = (   0.3999962  -0.7342581   0.1753434), wk =   0.0025641
        k(  602) = (   0.4521319  -0.7343992   0.3504592), wk =   0.0025641
        k(  603) = (   0.5042676  -0.7345404   0.5255750), wk =   0.0025641
        k(  604) = (   0.5564033  -0.7346816   0.7006908), wk =   0.0025641
        k(  605) = (   0.6085389  -0.7348228   0.8758066), wk =   0.0025641
        k(  606) = (   0.6606746  -0.7349639   1.0509224), wk =   0.0025641
        k(  607) = (   0.0350463  -0.7332698  -1.0504671), wk =   0.0025641
        k(  608) = (   0.0871820  -0.7334110  -0.8753513), wk =   0.0025641
        k(  609) = (   0.1393177  -0.7335522  -0.7002355), wk =   0.0025641
        k(  610) = (   0.1914534  -0.7336934  -0.5251198), wk =   0.0025641
        k(  611) = (   0.2435891  -0.7338345  -0.3500040), wk =   0.0025641
        k(  612) = (   0.2957248  -0.7339757  -0.1748882), wk =   0.0025641
        k(  613) = (   0.3478435  -0.5505877   0.0001707), wk =   0.0025641
        k(  614) = (   0.3999792  -0.5507288   0.1752865), wk =   0.0025641
        k(  615) = (   0.4521149  -0.5508700   0.3504023), wk =   0.0025641
        k(  616) = (   0.5042506  -0.5510112   0.5255181), wk =   0.0025641
        k(  617) = (   0.5563863  -0.5511524   0.7006339), wk =   0.0025641
        k(  618) = (   0.6085220  -0.5512935   0.8757497), wk =   0.0025641
        k(  619) = (   0.6606577  -0.5514347   1.0508655), wk =   0.0025641
        k(  620) = (   0.0350294  -0.5497406  -1.0505240), wk =   0.0025641
        k(  621) = (   0.0871651  -0.5498818  -0.8754083), wk =   0.0025641
        k(  622) = (   0.1393008  -0.5500230  -0.7002925), wk =   0.0025641
        k(  623) = (   0.1914365  -0.5501641  -0.5251767), wk =   0.0025641
        k(  624) = (   0.2435722  -0.5503053  -0.3500609), wk =   0.0025641
        k(  625) = (   0.2957078  -0.5504465  -0.1749451), wk =   0.0025641
        k(  626) = (   0.3478266  -0.3670584   0.0001138), wk =   0.0025641
        k(  627) = (   0.3999623  -0.3671996   0.1752296), wk =   0.0025641
        k(  628) = (   0.4520980  -0.3673408   0.3503454), wk =   0.0025641
        k(  629) = (   0.5042337  -0.3674820   0.5254612), wk =   0.0025641
        k(  630) = (   0.5563694  -0.3676231   0.7005770), wk =   0.0025641
        k(  631) = (   0.6085051  -0.3677643   0.8756928), wk =   0.0025641
        k(  632) = (   0.6606408  -0.3679055   1.0508086), wk =   0.0025641
        k(  633) = (   0.0350124  -0.3662114  -1.0505810), wk =   0.0025641
        k(  634) = (   0.0871481  -0.3663526  -0.8754652), wk =   0.0025641
        k(  635) = (   0.1392838  -0.3664938  -0.7003494), wk =   0.0025641
        k(  636) = (   0.1914195  -0.3666349  -0.5252336), wk =   0.0025641
        k(  637) = (   0.2435552  -0.3667761  -0.3501178), wk =   0.0025641
        k(  638) = (   0.2956909  -0.3669173  -0.1750020), wk =   0.0025641
        k(  639) = (   0.3478097  -0.1835292   0.0000569), wk =   0.0025641
        k(  640) = (   0.3999453  -0.1836704   0.1751727), wk =   0.0025641
        k(  641) = (   0.4520810  -0.1838116   0.3502885), wk =   0.0025641
        k(  642) = (   0.5042167  -0.1839527   0.5254043), wk =   0.0025641
        k(  643) = (   0.5563524  -0.1840939   0.7005201), wk =   0.0025641
        k(  644) = (   0.6084881  -0.1842351   0.8756359), wk =   0.0025641
        k(  645) = (   0.6606238  -0.1843763   1.0507517), wk =   0.0025641
        k(  646) = (   0.0349955  -0.1826822  -1.0506379), wk =   0.0025641
        k(  647) = (   0.0871312  -0.1828234  -0.8755221), wk =   0.0025641
        k(  648) = (   0.1392669  -0.1829645  -0.7004063), wk =   0.0025641
        k(  649) = (   0.1914026  -0.1831057  -0.5252905), wk =   0.0025641
        k(  650) = (   0.2435383  -0.1832469  -0.3501747), wk =   0.0025641
        k(  651) = (   0.2956740  -0.1833880  -0.1750589), wk =   0.0025641
        k(  652) = (  -0.5216891   0.0000000   0.0000000), wk =   0.0012821
        k(  653) = (  -0.4695534  -0.0001412   0.1751158), wk =   0.0025641
        k(  654) = (  -0.4174177  -0.0002823   0.3502316), wk =   0.0025641
        k(  655) = (  -0.3652820  -0.0004235   0.5253474), wk =   0.0025641
        k(  656) = (  -0.3131463  -0.0005647   0.7004632), wk =   0.0025641
        k(  657) = (  -0.2610106  -0.0007059   0.8755790), wk =   0.0025641
        k(  658) = (  -0.2088749  -0.0008470   1.0506948), wk =   0.0025641
        k(  659) = (  -0.5217060   0.1835292  -0.0000569), wk =   0.0025641
        k(  660) = (  -0.4695703   0.1833880   0.1750589), wk =   0.0025641
        k(  661) = (  -0.4174346   0.1832469   0.3501747), wk =   0.0025641
        k(  662) = (  -0.3652989   0.1831057   0.5252905), wk =   0.0025641
        k(  663) = (  -0.3131632   0.1829645   0.7004063), wk =   0.0025641
        k(  664) = (  -0.2610276   0.1828234   0.8755221), wk =   0.0025641
        k(  665) = (  -0.2088919   0.1826822   1.0506379), wk =   0.0025641
        k(  666) = (  -0.8345202   0.1843763  -1.0507517), wk =   0.0025641
        k(  667) = (  -0.7823845   0.1842351  -0.8756359), wk =   0.0025641
        k(  668) = (  -0.7302488   0.1840939  -0.7005201), wk =   0.0025641
        k(  669) = (  -0.6781131   0.1839527  -0.5254043), wk =   0.0025641
        k(  670) = (  -0.6259774   0.1838116  -0.3502885), wk =   0.0025641
        k(  671) = (  -0.5738417   0.1836704  -0.1751727), wk =   0.0025641
        k(  672) = (  -0.5217230   0.3670584  -0.0001138), wk =   0.0025641
        k(  673) = (  -0.4695873   0.3669173   0.1750020), wk =   0.0025641
        k(  674) = (  -0.4174516   0.3667761   0.3501178), wk =   0.0025641
        k(  675) = (  -0.3653159   0.3666349   0.5252336), wk =   0.0025641
        k(  676) = (  -0.3131802   0.3664938   0.7003494), wk =   0.0025641
        k(  677) = (  -0.2610445   0.3663526   0.8754652), wk =   0.0025641
        k(  678) = (  -0.2089088   0.3662114   1.0505810), wk =   0.0025641
        k(  679) = (  -0.8345371   0.3679055  -1.0508086), wk =   0.0025641
        k(  680) = (  -0.7824014   0.3677643  -0.8756928), wk =   0.0025641
        k(  681) = (  -0.7302657   0.3676231  -0.7005770), wk =   0.0025641
        k(  682) = (  -0.6781300   0.3674820  -0.5254612), wk =   0.0025641
        k(  683) = (  -0.6259943   0.3673408  -0.3503454), wk =   0.0025641
        k(  684) = (  -0.5738586   0.3671996  -0.1752296), wk =   0.0025641
        k(  685) = (  -0.5217399   0.5505877  -0.0001707), wk =   0.0025641
        k(  686) = (  -0.4696042   0.5504465   0.1749451), wk =   0.0025641
        k(  687) = (  -0.4174685   0.5503053   0.3500609), wk =   0.0025641
        k(  688) = (  -0.3653328   0.5501641   0.5251767), wk =   0.0025641
        k(  689) = (  -0.3131971   0.5500230   0.7002925), wk =   0.0025641
        k(  690) = (  -0.2610614   0.5498818   0.8754083), wk =   0.0025641
        k(  691) = (  -0.2089257   0.5497406   1.0505240), wk =   0.0025641
        k(  692) = (  -0.8345541   0.5514347  -1.0508655), wk =   0.0025641
        k(  693) = (  -0.7824184   0.5512935  -0.8757497), wk =   0.0025641
        k(  694) = (  -0.7302827   0.5511524  -0.7006339), wk =   0.0025641
        k(  695) = (  -0.6781470   0.5510112  -0.5255181), wk =   0.0025641
        k(  696) = (  -0.6260113   0.5508700  -0.3504023), wk =   0.0025641
        k(  697) = (  -0.5738756   0.5507288  -0.1752865), wk =   0.0025641
        k(  698) = (  -0.5217568   0.7341169  -0.0002276), wk =   0.0025641
        k(  699) = (  -0.4696211   0.7339757   0.1748882), wk =   0.0025641
        k(  700) = (  -0.4174855   0.7338345   0.3500040), wk =   0.0025641
        k(  701) = (  -0.3653498   0.7336934   0.5251198), wk =   0.0025641
        k(  702) = (  -0.3132141   0.7335522   0.7002355), wk =   0.0025641
        k(  703) = (  -0.2610784   0.7334110   0.8753513), wk =   0.0025641
        k(  704) = (  -0.2089427   0.7332698   1.0504671), wk =   0.0025641
        k(  705) = (  -0.8345710   0.7349639  -1.0509224), wk =   0.0025641
        k(  706) = (  -0.7824353   0.7348228  -0.8758066), wk =   0.0025641
        k(  707) = (  -0.7302996   0.7346816  -0.7006908), wk =   0.0025641
        k(  708) = (  -0.6781639   0.7345404  -0.5255750), wk =   0.0025641
        k(  709) = (  -0.6260282   0.7343992  -0.3504592), wk =   0.0025641
        k(  710) = (  -0.5738925   0.7342581  -0.1753434), wk =   0.0025641
        k(  711) = (  -0.5217738   0.9176461  -0.0002845), wk =   0.0025641
        k(  712) = (  -0.4696381   0.9175049   0.1748313), wk =   0.0025641
        k(  713) = (  -0.4175024   0.9173638   0.3499471), wk =   0.0025641
        k(  714) = (  -0.3653667   0.9172226   0.5250628), wk =   0.0025641
        k(  715) = (  -0.3132310   0.9170814   0.7001786), wk =   0.0025641
        k(  716) = (  -0.2610953   0.9169402   0.8752944), wk =   0.0025641
        k(  717) = (  -0.2089596   0.9167991   1.0504102), wk =   0.0025641
        k(  718) = (  -0.8345879   0.9184931  -1.0509793), wk =   0.0025641
        k(  719) = (  -0.7824522   0.9183520  -0.8758635), wk =   0.0025641
        k(  720) = (  -0.7303166   0.9182108  -0.7007477), wk =   0.0025641
        k(  721) = (  -0.6781809   0.9180696  -0.5256319), wk =   0.0025641
        k(  722) = (  -0.6260452   0.9179285  -0.3505161), wk =   0.0025641
        k(  723) = (  -0.5739095   0.9177873  -0.1754003), wk =   0.0025641
        k(  724) = (  -0.5217907   1.1011753  -0.0003414), wk =   0.0025641
        k(  725) = (  -0.4696550   1.1010342   0.1747743), wk =   0.0025641
        k(  726) = (  -0.4175193   1.1008930   0.3498901), wk =   0.0025641
        k(  727) = (  -0.3653836   1.1007518   0.5250059), wk =   0.0025641
        k(  728) = (  -0.3132480   1.1006106   0.7001217), wk =   0.0025641
        k(  729) = (  -0.2611123   1.1004695   0.8752375), wk =   0.0025641
        k(  730) = (  -0.2089766   1.1003283   1.0503533), wk =   0.0025641
        k(  731) = (  -0.8346049   1.1020224  -1.0510362), wk =   0.0025641
        k(  732) = (  -0.7824692   1.1018812  -0.8759204), wk =   0.0025641
        k(  733) = (  -0.7303335   1.1017400  -0.7008046), wk =   0.0025641
        k(  734) = (  -0.6781978   1.1015989  -0.5256888), wk =   0.0025641
        k(  735) = (  -0.6260621   1.1014577  -0.3505730), wk =   0.0025641
        k(  736) = (  -0.5739264   1.1013165  -0.1754572), wk =   0.0025641
        k(  737) = (  -0.5218077   1.2847046  -0.0003984), wk =   0.0025641
        k(  738) = (  -0.4696720   1.2845634   0.1747174), wk =   0.0025641
        k(  739) = (  -0.4175363   1.2844222   0.3498332), wk =   0.0025641
        k(  740) = (  -0.3654006   1.2842810   0.5249490), wk =   0.0025641
        k(  741) = (  -0.3132649   1.2841399   0.7000648), wk =   0.0025641
        k(  742) = (  -0.2611292   1.2839987   0.8751806), wk =   0.0025641
        k(  743) = (  -0.2089935   1.2838575   1.0502964), wk =   0.0025641
        k(  744) = (  -0.8346218   1.2855516  -1.0510931), wk =   0.0025641
        k(  745) = (  -0.7824861   1.2854104  -0.8759773), wk =   0.0025641
        k(  746) = (  -0.7303504   1.2852692  -0.7008615), wk =   0.0025641
        k(  747) = (  -0.6782147   1.2851281  -0.5257457), wk =   0.0025641
        k(  748) = (  -0.6260791   1.2849869  -0.3506299), wk =   0.0025641
        k(  749) = (  -0.5739434   1.2848457  -0.1755141), wk =   0.0025641
        k(  750) = (  -0.5218246   1.4682338  -0.0004553), wk =   0.0025641
        k(  751) = (  -0.4696889   1.4680926   0.1746605), wk =   0.0025641
        k(  752) = (  -0.4175532   1.4679514   0.3497763), wk =   0.0025641
        k(  753) = (  -0.3654175   1.4678103   0.5248921), wk =   0.0025641
        k(  754) = (  -0.3132818   1.4676691   0.7000079), wk =   0.0025641
        k(  755) = (  -0.2611461   1.4675279   0.8751237), wk =   0.0025641
        k(  756) = (  -0.2090105   1.4673867   1.0502395), wk =   0.0025641
        k(  757) = (  -0.8346388   1.4690808  -1.0511500), wk =   0.0025641
        k(  758) = (  -0.7825031   1.4689396  -0.8760342), wk =   0.0025641
        k(  759) = (  -0.7303674   1.4687985  -0.7009184), wk =   0.0025641
        k(  760) = (  -0.6782317   1.4686573  -0.5258026), wk =   0.0025641
        k(  761) = (  -0.6260960   1.4685161  -0.3506869), wk =   0.0025641
        k(  762) = (  -0.5739603   1.4683749  -0.1755711), wk =   0.0025641
        k(  763) = (  -0.5218416   1.6517630  -0.0005122), wk =   0.0025641
        k(  764) = (  -0.4697059   1.6516218   0.1746036), wk =   0.0025641
        k(  765) = (  -0.4175702   1.6514806   0.3497194), wk =   0.0025641
        k(  766) = (  -0.3654345   1.6513395   0.5248352), wk =   0.0025641
        k(  767) = (  -0.3132988   1.6511983   0.6999510), wk =   0.0025641
        k(  768) = (  -0.2611631   1.6510571   0.8750668), wk =   0.0025641
        k(  769) = (  -0.2090274   1.6509160   1.0501826), wk =   0.0025641
        k(  770) = (  -0.8346557   1.6526100  -1.0512069), wk =   0.0025641
        k(  771) = (  -0.7825200   1.6524689  -0.8760911), wk =   0.0025641
        k(  772) = (  -0.7303843   1.6523277  -0.7009753), wk =   0.0025641
        k(  773) = (  -0.6782486   1.6521865  -0.5258596), wk =   0.0025641
        k(  774) = (  -0.6261129   1.6520453  -0.3507438), wk =   0.0025641
        k(  775) = (  -0.5739772   1.6519042  -0.1756280), wk =   0.0025641
        k(  776) = (  -0.5215196  -1.8352922   0.0005691), wk =   0.0012821
        k(  777) = (  -0.4693840  -1.8354334   0.1756849), wk =   0.0025641
        k(  778) = (  -0.4172483  -1.8355746   0.3508007), wk =   0.0025641
        k(  779) = (  -0.3651126  -1.8357157   0.5259165), wk =   0.0025641
        k(  780) = (  -0.3129769  -1.8358569   0.7010323), wk =   0.0025641
        k(  781) = (  -0.2608412  -1.8359981   0.8761481), wk =   0.0025641
        k(  782) = (  -0.2087055  -1.8361393   1.0512638), wk =   0.0025641

                       cryst. coord.
        k(    1) = (   0.0000000   0.0000000   0.0000000), wk =   0.0012821
        k(    2) = (  -0.0000000   0.0000000   0.0769231), wk =   0.0025641
        k(    3) = (  -0.0000000   0.0000000   0.1538462), wk =   0.0025641
        k(    4) = (  -0.0000000   0.0000000   0.2307692), wk =   0.0025641
        k(    5) = (  -0.0000000   0.0000000   0.3076923), wk =   0.0025641
        k(    6) = (  -0.0000000   0.0000000   0.3846154), wk =   0.0025641
        k(    7) = (  -0.0000000   0.0000000   0.4615385), wk =   0.0025641
        k(    8) = (  -0.0000000   0.0500000  -0.0000000), wk =   0.0025641
        k(    9) = (  -0.0000000   0.0500000   0.0769231), wk =   0.0025641
        k(   10) = (  -0.0000000   0.0500000   0.1538462), wk =   0.0025641
        k(   11) = (  -0.0000000   0.0500000   0.2307692), wk =   0.0025641
        k(   12) = (  -0.0000000   0.0500000   0.3076923), wk =   0.0025641
        k(   13) = (  -0.0000000   0.0500000   0.3846154), wk =   0.0025641
        k(   14) = (   0.0000000   0.0500000   0.4615385), wk =   0.0025641
        k(   15) = (   0.0000000   0.0500000  -0.4615385), wk =   0.0025641
        k(   16) = (   0.0000000   0.0500000  -0.3846154), wk =   0.0025641
        k(   17) = (   0.0000000   0.0500000  -0.3076923), wk =   0.0025641
        k(   18) = (  -0.0000000   0.0500000  -0.2307692), wk =   0.0025641
        k(   19) = (   0.0000000   0.0500000  -0.1538462), wk =   0.0025641
        k(   20) = (  -0.0000000   0.0500000  -0.0769231), wk =   0.0025641
        k(   21) = (  -0.0000000   0.1000000  -0.0000000), wk =   0.0025641
        k(   22) = (  -0.0000000   0.1000000   0.0769231), wk =   0.0025641
        k(   23) = (  -0.0000000   0.1000000   0.1538462), wk =   0.0025641
        k(   24) = (  -0.0000000   0.1000000   0.2307692), wk =   0.0025641
        k(   25) = (  -0.0000000   0.1000000   0.3076923), wk =   0.0025641
        k(   26) = (  -0.0000000   0.1000000   0.3846154), wk =   0.0025641
        k(   27) = (  -0.0000000   0.1000000   0.4615385), wk =   0.0025641
        k(   28) = (   0.0000000   0.1000000  -0.4615385), wk =   0.0025641
        k(   29) = (   0.0000000   0.1000000  -0.3846154), wk =   0.0025641
        k(   30) = (   0.0000000   0.1000000  -0.3076923), wk =   0.0025641
        k(   31) = (   0.0000000   0.1000000  -0.2307692), wk =   0.0025641
        k(   32) = (   0.0000000   0.1000000  -0.1538462), wk =   0.0025641
        k(   33) = (  -0.0000000   0.1000000  -0.0769231), wk =   0.0025641
        k(   34) = (   0.0000000   0.1500000  -0.0000000), wk =   0.0025641
        k(   35) = (  -0.0000000   0.1500000   0.0769231), wk =   0.0025641
        k(   36) = (  -0.0000000   0.1500000   0.1538462), wk =   0.0025641
        k(   37) = (  -0.0000000   0.1500000   0.2307692), wk =   0.0025641
        k(   38) = (  -0.0000000   0.1500000   0.3076923), wk =   0.0025641
        k(   39) = (  -0.0000000   0.1500000   0.3846154), wk =   0.0025641
        k(   40) = (  -0.0000000   0.1500000   0.4615385), wk =   0.0025641
        k(   41) = (  -0.0000000   0.1500000  -0.4615385), wk =   0.0025641
        k(   42) = (   0.0000000   0.1500000  -0.3846154), wk =   0.0025641
        k(   43) = (   0.0000000   0.1500000  -0.3076923), wk =   0.0025641
        k(   44) = (   0.0000000   0.1500000  -0.2307692), wk =   0.0025641
        k(   45) = (   0.0000000   0.1500000  -0.1538462), wk =   0.0025641
        k(   46) = (  -0.0000000   0.1500000  -0.0769231), wk =   0.0025641
        k(   47) = (  -0.0000000   0.2000000  -0.0000000), wk =   0.0025641
        k(   48) = (   0.0000000   0.2000000   0.0769231), wk =   0.0025641
        k(   49) = (  -0.0000000   0.2000000   0.1538462), wk =   0.0025641
        k(   50) = (  -0.0000000   0.2000000   0.2307692), wk =   0.0025641
        k(   51) = (  -0.0000000   0.2000000   0.3076923), wk =   0.0025641
        k(   52) = (  -0.0000000   0.2000000   0.3846154), wk =   0.0025641
        k(   53) = (  -0.0000000   0.2000000   0.4615385), wk =   0.0025641
        k(   54) = (   0.0000000   0.2000000  -0.4615385), wk =   0.0025641
        k(   55) = (   0.0000000   0.2000000  -0.3846154), wk =   0.0025641
        k(   56) = (   0.0000000   0.2000000  -0.3076923), wk =   0.0025641
        k(   57) = (   0.0000000   0.2000000  -0.2307692), wk =   0.0025641
        k(   58) = (   0.0000000   0.2000000  -0.1538462), wk =   0.0025641
        k(   59) = (  -0.0000000   0.2000000  -0.0769231), wk =   0.0025641
        k(   60) = (  -0.0000000   0.2500000   0.0000000), wk =   0.0025641
        k(   61) = (   0.0000000   0.2500000   0.0769231), wk =   0.0025641
        k(   62) = (  -0.0000000   0.2500000   0.1538462), wk =   0.0025641
        k(   63) = (  -0.0000000   0.2500000   0.2307692), wk =   0.0025641
        k(   64) = (  -0.0000000   0.2500000   0.3076923), wk =   0.0025641
        k(   65) = (  -0.0000000   0.2500000   0.3846154), wk =   0.0025641
        k(   66) = (   0.0000000   0.2500000   0.4615385), wk =   0.0025641
        k(   67) = (   0.0000000   0.2500000  -0.4615385), wk =   0.0025641
        k(   68) = (   0.0000000   0.2500000  -0.3846154), wk =   0.0025641
        k(   69) = (   0.0000000   0.2500000  -0.3076923), wk =   0.0025641
        k(   70) = (  -0.0000000   0.2500000  -0.2307692), wk =   0.0025641
        k(   71) = (   0.0000000   0.2500000  -0.1538462), wk =   0.0025641
        k(   72) = (   0.0000000   0.2500000  -0.0769231), wk =   0.0025641
        k(   73) = (   0.0000000   0.3000000  -0.0000000), wk =   0.0025641
        k(   74) = (   0.0000000   0.3000000   0.0769231), wk =   0.0025641
        k(   75) = (  -0.0000000   0.3000000   0.1538462), wk =   0.0025641
        k(   76) = (  -0.0000000   0.3000000   0.2307692), wk =   0.0025641
        k(   77) = (  -0.0000000   0.3000000   0.3076923), wk =   0.0025641
        k(   78) = (  -0.0000000   0.3000000   0.3846154), wk =   0.0025641
        k(   79) = (  -0.0000000   0.3000000   0.4615385), wk =   0.0025641
        k(   80) = (   0.0000000   0.3000000  -0.4615385), wk =   0.0025641
        k(   81) = (   0.0000000   0.3000000  -0.3846154), wk =   0.0025641
        k(   82) = (   0.0000000   0.3000000  -0.3076923), wk =   0.0025641
        k(   83) = (   0.0000000   0.3000000  -0.2307692), wk =   0.0025641
        k(   84) = (   0.0000000   0.3000000  -0.1538462), wk =   0.0025641
        k(   85) = (   0.0000000   0.3000000  -0.0769231), wk =   0.0025641
        k(   86) = (  -0.0000000   0.3500000   0.0000000), wk =   0.0025641
        k(   87) = (   0.0000000   0.3500000   0.0769231), wk =   0.0025641
        k(   88) = (   0.0000000   0.3500000   0.1538462), wk =   0.0025641
        k(   89) = (  -0.0000000   0.3500000   0.2307692), wk =   0.0025641
        k(   90) = (  -0.0000000   0.3500000   0.3076923), wk =   0.0025641
        k(   91) = (  -0.0000000   0.3500000   0.3846154), wk =   0.0025641
        k(   92) = (  -0.0000000   0.3500000   0.4615385), wk =   0.0025641
        k(   93) = (  -0.0000000   0.3500000  -0.4615385), wk =   0.0025641
        k(   94) = (   0.0000000   0.3500000  -0.3846154), wk =   0.0025641
        k(   95) = (   0.0000000   0.3500000  -0.3076923), wk =   0.0025641
        k(   96) = (   0.0000000   0.3500000  -0.2307692), wk =   0.0025641
        k(   97) = (   0.0000000   0.3500000  -0.1538462), wk =   0.0025641
        k(   98) = (   0.0000000   0.3500000  -0.0769231), wk =   0.0025641
        k(   99) = (  -0.0000000   0.4000000  -0.0000000), wk =   0.0025641
        k(  100) = (   0.0000000   0.4000000   0.0769231), wk =   0.0025641
        k(  101) = (   0.0000000   0.4000000   0.1538462), wk =   0.0025641
        k(  102) = (  -0.0000000   0.4000000   0.2307692), wk =   0.0025641
        k(  103) = (  -0.0000000   0.4000000   0.3076923), wk =   0.0025641
        k(  104) = (  -0.0000000   0.4000000   0.3846154), wk =   0.0025641
        k(  105) = (  -0.0000000   0.4000000   0.4615385), wk =   0.0025641
        k(  106) = (   0.0000000   0.4000000  -0.4615385), wk =   0.0025641
        k(  107) = (   0.0000000   0.4000000  -0.3846154), wk =   0.0025641
        k(  108) = (   0.0000000   0.4000000  -0.3076923), wk =   0.0025641
        k(  109) = (   0.0000000   0.4000000  -0.2307692), wk =   0.0025641
        k(  110) = (   0.0000000   0.4000000  -0.1538462), wk =   0.0025641
        k(  111) = (   0.0000000   0.4000000  -0.0769231), wk =   0.0025641
        k(  112) = (   0.0000000   0.4500000   0.0000000), wk =   0.0025641
        k(  113) = (  -0.0000000   0.4500000   0.0769231), wk =   0.0025641
        k(  114) = (   0.0000000   0.4500000   0.1538462), wk =   0.0025641
        k(  115) = (  -0.0000000   0.4500000   0.2307692), wk =   0.0025641
        k(  116) = (  -0.0000000   0.4500000   0.3076923), wk =   0.0025641
        k(  117) = (   0.0000000   0.4500000   0.3846154), wk =   0.0025641
        k(  118) = (   0.0000000   0.4500000   0.4615385), wk =   0.0025641
        k(  119) = (   0.0000000   0.4500000  -0.4615385), wk =   0.0025641
        k(  120) = (  -0.0000000   0.4500000  -0.3846154), wk =   0.0025641
        k(  121) = (   0.0000000   0.4500000  -0.3076923), wk =   0.0025641
        k(  122) = (  -0.0000000   0.4500000  -0.2307692), wk =   0.0025641
        k(  123) = (  -0.0000000   0.4500000  -0.1538462), wk =   0.0025641
        k(  124) = (   0.0000000   0.4500000  -0.0769231), wk =   0.0025641
        k(  125) = (   0.0000000  -0.5000000  -0.0000000), wk =   0.0012821
        k(  126) = (   0.0000000  -0.5000000   0.0769231), wk =   0.0025641
        k(  127) = (  -0.0000000  -0.5000000   0.1538462), wk =   0.0025641
        k(  128) = (   0.0000000  -0.5000000   0.2307692), wk =   0.0025641
        k(  129) = (  -0.0000000  -0.5000000   0.3076923), wk =   0.0025641
        k(  130) = (  -0.0000000  -0.5000000   0.3846154), wk =   0.0025641
        k(  131) = (   0.0000000  -0.5000000   0.4615385), wk =   0.0025641
        k(  132) = (   0.1666667   0.0000000   0.0000000), wk =   0.0025641
        k(  133) = (   0.1666667   0.0000000   0.0769231), wk =   0.0025641
        k(  134) = (   0.1666667   0.0000000   0.1538462), wk =   0.0025641
        k(  135) = (   0.1666667   0.0000000   0.2307692), wk =   0.0025641
        k(  136) = (   0.1666667   0.0000000   0.3076923), wk =   0.0025641
        k(  137) = (   0.1666667   0.0000000   0.3846154), wk =   0.0025641
        k(  138) = (   0.1666667   0.0000000   0.4615385), wk =   0.0025641
        k(  139) = (   0.1666667  -0.0000000  -0.4615385), wk =   0.0025641
        k(  140) = (   0.1666667  -0.0000000  -0.3846154), wk =   0.0025641
        k(  141) = (   0.1666667  -0.0000000  -0.3076923), wk =   0.0025641
        k(  142) = (   0.1666667  -0.0000000  -0.2307692), wk =   0.0025641
        k(  143) = (   0.1666667  -0.0000000  -0.1538462), wk =   0.0025641
[...]

          k =-0.2087-1.8361 1.0513 ( 11442 PWs)   bands (ev):

    -2.8944  -2.8939  -2.0915  -2.0889  -1.7248  -1.7217  -1.1337  -1.1305
     0.2492   0.2534   0.8156   0.8186   1.1093   1.1127   1.9609   1.9611
     2.0649   2.0676   3.0383   3.0384   3.5001   3.5028   4.0232   4.0235
     4.3906   4.3913   4.8158   4.8188   5.2847   5.2857   5.7836   5.7845
     6.4140   6.4182   6.7407   6.7433   7.0286   7.0379   7.3335   7.3376

     occupation numbers 
     1.0000   1.0000   1.0000   1.0000   1.0000   1.0000   1.0000   1.0000
     1.0000   1.0000   1.0000   1.0000   1.0000   1.0000   1.0000   1.0000
     1.0000   1.0000   1.0000   1.0000   1.0000   1.0000   1.0000   1.0000
     1.0000   1.0000   1.0000   1.0000   1.0010   1.0010   1.0188   1.0188
     0.9389   0.9360   0.5838   0.5802   0.2026   0.1924  -0.0093  -0.0106

     the Fermi energy is     6.8005 ev

!    total energy              =    -597.36836796 Ry
     Harris-Foulkes estimate   =    -597.36836796 Ry
     estimated scf accuracy    <          7.7E-13 Ry

     The total energy is the sum of the following terms:

     one-electron contribution =      48.83765082 Ry
     hartree contribution      =       6.71894215 Ry
     xc contribution           =     -77.82458639 Ry
     ewald contribution        =    -116.74678131 Ry
     one-center paw contrib.   =    -458.35316872 Ry
      -> PAW hartree energy AE =       1.25371336 Ry
      -> PAW hartree energy PS =      -1.24926856 Ry
      -> PAW xc energy AE      =     -36.51126779 Ry
      -> PAW xc energy PS      =       1.83281530 Ry
      -> total E_H with PAW    =       6.72338694 Ry
      -> total E_XC with PAW   =    -112.50303887 Ry
     smearing contrib. (-TS)   =      -0.00042451 Ry

     convergence has been achieved in  16 iterations

     Forces acting on atoms (cartesian axes, Ry/au):

     atom    1 type  1   force =     0.00000666   -0.00000027    0.00000752
     atom    2 type  2   force =    -0.00089219   -0.00000500   -0.00005198
     atom    3 type  2   force =    -0.00164823    0.00002467   -0.00065928
     atom    4 type  2   force =     0.00165215   -0.00002468    0.00065941
     atom    5 type  2   force =     0.00089207    0.00000516    0.00005269
     atom    6 type  3   force =    -0.00050091    0.00001279   -0.00009426
     atom    7 type  3   force =     0.00092912    0.00003676    0.00085985
     atom    8 type  1   force =    -0.00080447    0.00000083   -0.00119953
     atom    9 type  1   force =     0.00080357   -0.00000084    0.00119703
     atom   10 type  3   force =    -0.00092862   -0.00003672   -0.00085883
     atom   11 type  3   force =     0.00050046   -0.00001241    0.00009506
     atom   12 type  1   force =    -0.00000928    0.00000027   -0.00000671
     atom   13 type  2   force =    -0.00090075   -0.00000584   -0.00006743
     atom   14 type  2   force =    -0.00162709    0.00002401   -0.00065174
     atom   15 type  2   force =     0.00162866   -0.00002404    0.00065146
     atom   16 type  2   force =     0.00089905    0.00000573    0.00006865
     atom   17 type  3   force =    -0.00052554    0.00001307   -0.00005535
     atom   18 type  3   force =     0.00089511    0.00003771    0.00081150
     atom   19 type  1   force =    -0.00083353    0.00000187   -0.00120178
     atom   20 type  1   force =     0.00083283   -0.00000185    0.00119968
     atom   21 type  3   force =    -0.00089406   -0.00003782   -0.00081120
     atom   22 type  3   force =     0.00052501   -0.00001341    0.00005523
     The non-local contrib.  to forces
     atom    1 type  1   force =     0.00000859   -0.00000063    0.00002066
     atom    2 type  2   force =     0.01182561    0.00001310    0.01042035
     atom    3 type  2   force =     0.00886355    0.00009272    0.01239298
     atom    4 type  2   force =    -0.00887482   -0.00009266   -0.01239610
     atom    5 type  2   force =    -0.01184440   -0.00001231   -0.01042267
     atom    6 type  3   force =    -0.03084070   -0.00003518   -0.04026551
     atom    7 type  3   force =     0.00671272    0.00004454    0.01783915
     atom    8 type  1   force =     0.00681266    0.00002858   -0.00235241
     atom    9 type  1   force =    -0.00682328   -0.00002858    0.00234660
     atom   10 type  3   force =    -0.00670043   -0.00004455   -0.01783240
     atom   11 type  3   force =     0.03084579    0.00003553    0.04026500
     atom   12 type  1   force =    -0.00002330    0.00000058   -0.00002175
     atom   13 type  2   force =     0.01181731    0.00001061    0.01035917
     atom   14 type  2   force =     0.00892020    0.00009108    0.01240976
     atom   15 type  2   force =    -0.00893772   -0.00009123   -0.01241253
     atom   16 type  2   force =    -0.01183776   -0.00001134   -0.01036269
     atom   17 type  3   force =    -0.03088475   -0.00003487   -0.04018202
     atom   18 type  3   force =     0.00664639    0.00004572    0.01777745
     atom   19 type  1   force =     0.00676554    0.00003013   -0.00236301
     atom   20 type  1   force =    -0.00677627   -0.00003008    0.00235747
     atom   21 type  3   force =    -0.00663295   -0.00004579   -0.01777131
     atom   22 type  3   force =     0.03089036    0.00003445    0.04018059
     The ionic contribution  to forces
     atom    1 type  1   force =     0.00025029   -0.00000069    0.00016801
     atom    2 type  2   force =    -0.06453336    0.00036096   -0.13109866
     atom    3 type  2   force =    -0.02514342    0.00023541    0.07493271
     atom    4 type  2   force =     0.02515246   -0.00023534   -0.07493583
     atom    5 type  2   force =     0.06449323   -0.00036094    0.13111329
     atom    6 type  3   force =     0.28007903    0.00052305    0.47010162
     atom    7 type  3   force =    -0.22167809    0.00030412   -0.58492307
     atom    8 type  1   force =    -0.01606580   -0.00028867    0.30412271
     atom    9 type  1   force =     0.01607989    0.00028869   -0.30415462
     atom   10 type  3   force =     0.22180872   -0.00030413    0.58497054
     atom   11 type  3   force =    -0.28007568   -0.00052310   -0.47012464
     atom   12 type  1   force =    -0.00038234    0.00000068   -0.00017202
     atom   13 type  2   force =    -0.06492559    0.00035530   -0.13118628
     atom   14 type  2   force =    -0.02527800    0.00023128    0.07503069
     atom   15 type  2   force =     0.02526462   -0.00023160   -0.07503349
     atom   16 type  2   force =     0.06487224   -0.00035529    0.13120144
     atom   17 type  3   force =     0.27909693    0.00052814    0.47040346
     atom   18 type  3   force =    -0.22201372    0.00031228   -0.58546890
     atom   19 type  1   force =    -0.01619185   -0.00028206    0.30440442
     atom   20 type  1   force =     0.01618360    0.00028212   -0.30443536
     atom   21 type  3   force =     0.22211687   -0.00031217    0.58551101
     atom   22 type  3   force =    -0.27911003   -0.00052803   -0.47042704
     The local contribution  to forces
     atom    1 type  1   force =    -0.00025452    0.00000098   -0.00017913
     atom    2 type  2   force =     0.05342414   -0.00037653    0.12170140
     atom    3 type  2   force =     0.01565557   -0.00029181   -0.08645993
     atom    4 type  2   force =    -0.01565704    0.00029168    0.08646484
     atom    5 type  2   force =    -0.05337388    0.00037596   -0.12171430
     atom    6 type  3   force =    -0.25272412   -0.00047772   -0.43391755
     atom    7 type  3   force =     0.21653684   -0.00030656    0.56960351
     atom    8 type  1   force =     0.00927130    0.00026433   -0.30288220
     atom    9 type  1   force =    -0.00928335   -0.00026435    0.30291557
     atom   10 type  3   force =    -0.21666429    0.00030662   -0.56965034
     atom   11 type  3   force =     0.25272460    0.00047779    0.43393975
     atom   12 type  1   force =     0.00039034   -0.00000094    0.00018377
     atom   13 type  2   force =     0.05381524   -0.00036951    0.12182764
     atom   14 type  2   force =     0.01576123   -0.00028690   -0.08656499
     atom   15 type  2   force =    -0.01573712    0.00028732    0.08656886
     atom   16 type  2   force =    -0.05375191    0.00037004   -0.12183948
     atom   17 type  3   force =    -0.25172744   -0.00048281   -0.43425490
     atom   18 type  3   force =     0.21689747   -0.00031482    0.57015604
     atom   19 type  1   force =     0.00941020    0.00025740   -0.30315656
     atom   20 type  1   force =    -0.00939964   -0.00025748    0.30318913
     atom   21 type  3   force =    -0.21699802    0.00031467   -0.57019756
     atom   22 type  3   force =     0.25174365    0.00048268    0.43427727
     The core correction contribution to forces
     atom    1 type  1   force =    -0.00000092    0.00000007   -0.00000259
     atom    2 type  2   force =    -0.00161190   -0.00000253   -0.00107554
     atom    3 type  2   force =    -0.00102719   -0.00001164   -0.00152565
     atom    4 type  2   force =     0.00102845    0.00001163    0.00152600
     atom    5 type  2   force =     0.00161410    0.00000245    0.00107572
     atom    6 type  3   force =     0.00298147    0.00000265    0.00398648
     atom    7 type  3   force =    -0.00064561   -0.00000534   -0.00166045
     atom    8 type  1   force =    -0.00082599   -0.00000340   -0.00008807
     atom    9 type  1   force =     0.00082729    0.00000340    0.00008881
     atom   10 type  3   force =     0.00062427    0.00000534    0.00165294
     atom   11 type  3   force =    -0.00299717   -0.00000263   -0.00398545
     atom   12 type  1   force =     0.00000289   -0.00000006    0.00000275
     atom   13 type  2   force =    -0.00161097   -0.00000224   -0.00106842
     atom   14 type  2   force =    -0.00103374   -0.00001144   -0.00152782
     atom   15 type  2   force =     0.00103574    0.00001146    0.00152813
     atom   16 type  2   force =     0.00161338    0.00000231    0.00106873
     atom   17 type  3   force =     0.00298647    0.00000261    0.00397736
     atom   18 type  3   force =    -0.00063823   -0.00000547   -0.00165373
     atom   19 type  1   force =    -0.00082077   -0.00000359   -0.00008709
     atom   20 type  1   force =     0.00082208    0.00000359    0.00008779
     atom   21 type  3   force =     0.00061684    0.00000548    0.00164618
     atom   22 type  3   force =    -0.00300205   -0.00000252   -0.00397596
     The Hubbard contrib.    to forces
     atom    1 type  1   force =     0.00000000    0.00000000    0.00000000
     atom    2 type  2   force =     0.00000000    0.00000000    0.00000000
     atom    3 type  2   force =     0.00000000    0.00000000    0.00000000
     atom    4 type  2   force =     0.00000000    0.00000000    0.00000000
     atom    5 type  2   force =     0.00000000    0.00000000    0.00000000
     atom    6 type  3   force =     0.00000000    0.00000000    0.00000000
     atom    7 type  3   force =     0.00000000    0.00000000    0.00000000
     atom    8 type  1   force =     0.00000000    0.00000000    0.00000000
     atom    9 type  1   force =     0.00000000    0.00000000    0.00000000
     atom   10 type  3   force =     0.00000000    0.00000000    0.00000000
     atom   11 type  3   force =     0.00000000    0.00000000    0.00000000
     atom   12 type  1   force =     0.00000000    0.00000000    0.00000000
     atom   13 type  2   force =     0.00000000    0.00000000    0.00000000
     atom   14 type  2   force =     0.00000000    0.00000000    0.00000000
     atom   15 type  2   force =     0.00000000    0.00000000    0.00000000
     atom   16 type  2   force =     0.00000000    0.00000000    0.00000000
     atom   17 type  3   force =     0.00000000    0.00000000    0.00000000
     atom   18 type  3   force =     0.00000000    0.00000000    0.00000000
     atom   19 type  1   force =     0.00000000    0.00000000    0.00000000
     atom   20 type  1   force =     0.00000000    0.00000000    0.00000000
     atom   21 type  3   force =     0.00000000    0.00000000    0.00000000
     atom   22 type  3   force =     0.00000000    0.00000000    0.00000000
     The SCF correction term to forces
     atom    1 type  1   force =     0.00000002   -0.00000000    0.00000001
     atom    2 type  2   force =     0.00000014   -0.00000000   -0.00000008
     atom    3 type  2   force =     0.00000008   -0.00000000    0.00000005
     atom    4 type  2   force =    -0.00000008   -0.00000000   -0.00000005
     atom    5 type  2   force =    -0.00000015    0.00000000    0.00000009
     atom    6 type  3   force =     0.00000022    0.00000000    0.00000015
     atom    7 type  3   force =     0.00000009    0.00000000    0.00000014
     atom    8 type  1   force =     0.00000017   -0.00000000   -0.00000011
     atom    9 type  1   force =    -0.00000016    0.00000000    0.00000012
     atom   10 type  3   force =    -0.00000007   -0.00000000   -0.00000013
     atom   11 type  3   force =    -0.00000026    0.00000000   -0.00000016
     atom   12 type  1   force =    -0.00000005    0.00000000   -0.00000001
     atom   13 type  2   force =     0.00000008   -0.00000000   -0.00000009
     atom   14 type  2   force =     0.00000005    0.00000000    0.00000006
     atom   15 type  2   force =    -0.00000003    0.00000000   -0.00000006
     atom   16 type  2   force =    -0.00000009    0.00000000    0.00000009
     atom   17 type  3   force =     0.00000008   -0.00000000    0.00000020
     atom   18 type  3   force =     0.00000002    0.00000000    0.00000008
     atom   19 type  1   force =     0.00000017   -0.00000000   -0.00000009
     atom   20 type  1   force =    -0.00000013    0.00000000    0.00000009
     atom   21 type  3   force =     0.00000002   -0.00000001   -0.00000008
     atom   22 type  3   force =    -0.00000010    0.00000000   -0.00000019

     Total force =     0.005598     Total SCF correction =     0.000001


     Computing stress (Cartesian axis) and pressure

          total   stress  (Ry/bohr**3)                   (kbar)     P=   -3.47
  -0.00001785  -0.00000024  -0.00000741         -2.63     -0.04     -1.09
  -0.00000024  -0.00001234  -0.00000178         -0.04     -1.82     -0.26
  -0.00000741  -0.00000178  -0.00004060         -1.09     -0.26     -5.97

     kinetic stress (kbar)   1463.24      0.01    -14.37
                                0.01   1485.09     -0.02
                              -14.37     -0.02   1462.00

     local   stress (kbar)    -47.41      0.01   -124.97
                                0.01    493.43      0.35
                             -124.97      0.35     16.09

     nonloc. stress (kbar)   1134.12     -0.10      3.56
                               -0.10   1129.64     -0.29
                                3.56     -0.29   1128.92

     hartree stress (kbar)    184.53      0.10     30.02
                                0.10     20.32      0.20
                               30.02      0.20    163.95

     exc-cor stress (kbar)   1486.72     -0.00      0.23
                               -0.00   1486.18     -0.01
                                0.23     -0.01   1486.35

     corecor stress (kbar)  -2232.23      0.02     -0.31
                                0.02  -2231.85      0.05
                               -0.31      0.05  -2231.49

     ewald   stress (kbar)  -1991.60     -0.06    104.74
                               -0.06  -2384.61     -0.54
                              104.74     -0.54  -2031.79

     hubbard stress (kbar)      0.00      0.00      0.00
                                0.00      0.00      0.00
                                0.00      0.00      0.00

     london  stress (kbar)      0.00      0.00      0.00
                                0.00      0.00      0.00
                                0.00      0.00      0.00

     DFT-D3  stress (kbar)      0.00      0.00      0.00
                                0.00      0.00      0.00
                                0.00      0.00      0.00

     XDM     stress (kbar)      0.00      0.00      0.00
                                0.00      0.00      0.00
                                0.00      0.00      0.00

     dft-nl  stress (kbar)      0.00      0.00      0.00
                                0.00      0.00      0.00
                                0.00      0.00      0.00

     TS-vdW  stress (kbar)      0.00      0.00      0.00
                                0.00      0.00      0.00
                                0.00      0.00      0.00



     Writing output data file aiida.save/
 
     init_run     :     23.93s CPU     24.38s WALL (       1 calls)
     electrons    :    813.25s CPU    824.53s WALL (       1 calls)
     forces       :      9.84s CPU      9.93s WALL (       1 calls)
     stress       :     71.95s CPU     72.07s WALL (       1 calls)

     Called by init_run:
     wfcinit      :     21.29s CPU     21.64s WALL (       1 calls)
     wfcinit:atom :      0.16s CPU      0.18s WALL (     196 calls)
     wfcinit:wfcr :     19.79s CPU     20.04s WALL (     196 calls)
     potinit      :      0.89s CPU      0.92s WALL (       1 calls)
     hinit0       :      1.56s CPU      1.59s WALL (       1 calls)

     Called by electrons:
     c_bands      :    729.60s CPU    738.32s WALL (      17 calls)
     sum_band     :     78.41s CPU     80.12s WALL (      17 calls)
     v_of_rho     :      1.27s CPU      1.38s WALL (      17 calls)
     v_h          :      0.09s CPU      0.09s WALL (      17 calls)
     v_xc         :      1.29s CPU      1.41s WALL (      19 calls)
     newd         :      1.36s CPU      2.04s WALL (      17 calls)
     PAW_pot      :      2.13s CPU      2.18s WALL (      17 calls)
     mix_rho      :      0.51s CPU      0.55s WALL (      17 calls)

     Called by c_bands:
     init_us_2    :     25.29s CPU     25.60s WALL (    7252 calls)
     cegterg      :    567.60s CPU    575.05s WALL (    3332 calls)

     Called by sum_band:
     sum_band:bec :      0.51s CPU      0.51s WALL (    3332 calls)
     addusdens    :      1.43s CPU      2.11s WALL (      17 calls)

     Called by *egterg:
     h_psi        :    386.31s CPU    392.26s WALL (   16495 calls)
     s_psi        :     58.32s CPU     58.46s WALL (   16495 calls)
     g_psi        :      2.64s CPU      2.66s WALL (   12967 calls)
     cdiaghg      :     66.44s CPU     67.55s WALL (   16103 calls)
     cegterg:over :     27.77s CPU     27.96s WALL (   12967 calls)
     cegterg:upda :     24.16s CPU     24.39s WALL (   12967 calls)
     cegterg:last :      9.11s CPU      9.17s WALL (    3737 calls)
     cdiaghg:chol :      4.50s CPU      4.55s WALL (   16103 calls)
     cdiaghg:inve :      0.89s CPU      0.91s WALL (   16103 calls)
     cdiaghg:para :      8.74s CPU      8.83s WALL (   32206 calls)

     Called by h_psi:
     h_psi:pot    :    384.37s CPU    390.31s WALL (   16495 calls)
     h_psi:calbec :     56.83s CPU     57.54s WALL (   16495 calls)
     vloc_psi     :    268.73s CPU    273.79s WALL (   16495 calls)
     add_vuspsi   :     58.65s CPU     58.85s WALL (   16495 calls)

     General routines
     calbec       :     80.12s CPU     81.04s WALL (   20807 calls)
     fft          :      1.01s CPU      1.11s WALL (     246 calls)
     ffts         :      0.19s CPU      0.20s WALL (     267 calls)
     fftw         :    283.70s CPU    288.91s WALL (  932386 calls)
     interpolate  :      0.11s CPU      0.11s WALL (      17 calls)
 
     Parallel routines
     fft_scatt_xy :     35.73s CPU     36.43s WALL (  932899 calls)
     fft_scatt_yz :    109.29s CPU    111.49s WALL (  932899 calls)

     PAW routines
     PAW_pot      :      2.13s CPU      2.18s WALL (      17 calls)
 
     PWSCF        :  15m43.39s CPU  16m 8.61s WALL

 
   This run was terminated on:   9:28:26  22Feb2020            

=------------------------------------------------------------------------------=
   JOB DONE.
=------------------------------------------------------------------------------=
