begin
comment uuid: d7dac1cb-ee87-4461-ab4a-7b9936f14816 parent_uuid: 4c3843d7-8355-4b7b-b4e8-830f92b1b176 trajectory_step: final_scf
lattice     27.9056827797    -0.0000000000    -7.8883589906
lattice      0.0000000000     7.6278369321     0.0000000001
lattice     -0.0654392726    -0.0000000001    12.9059973707
atom     -0.0253300748    -0.0000000395    12.7471491910   Mg  0.0 0.0   -3.02031688e-11 -2.75859468e-13 -8.56221923e-12
atom      2.1168471594     3.8139184266     3.8929777106   Mg  0.0 0.0   -8.09697428e-08 -1.85427683e-13 -1.24048059e-07
atom      4.3143746487     3.8139184266    10.3943019395   Mg  0.0 0.0    4.98458638e-07 -8.57434357e-14 -5.43892493e-09
atom      9.6532458631    -0.0000000395    -1.7501804218   Mg  0.0 0.0   -4.98507847e-07  3.39224199e-13  5.47118560e-09
atom     11.8507733482    -0.0000000395     4.7511438156   Mg  0.0 0.0    8.09973450e-08  2.91976958e-13  1.23930608e-07
atom      1.5719024938    -0.0000000394     7.9009207438   Si  0.0 0.0    8.10136168e-07 -2.31518623e-13  1.56505895e-06
atom      5.2120055709    -0.0000000395     1.2335661814   Si  0.0 0.0   -9.63861577e-07  5.56078803e-14  1.27170271e-06
atom      5.9678266189    -0.0000000395     6.0766269569   Al  0.0 0.0    1.41670348e-06  1.71523006e-13 -6.39534565e-09
atom      7.9997938888     3.8139184266     2.5674945616   Al  0.0 0.0   -1.41668234e-06  1.71760449e-13  6.42012624e-09
atom      8.7556149382     3.8139184265     7.4105553372   Si  0.0 0.0    9.63863708e-07  2.68654822e-13 -1.27168219e-06
atom     12.3957180133     3.8139184265     0.7432007767   Si  0.0 0.0   -8.10109109e-07  3.42157417e-13 -1.56509555e-06
atom     13.9275113152     3.8139184265     8.8029697008   Mg  0.0 0.0   -3.14277181e-11  2.76070245e-13 -3.99763507e-11
atom     16.0696885482    -0.0000000395    -0.0512017805   Mg  0.0 0.0   -8.09622941e-08  2.03527874e-13 -1.24072914e-07
atom     18.2672160400    -0.0000000395     6.4501224428   Mg  0.0 0.0    4.98449664e-07  4.09192284e-14 -5.42859971e-09
atom     23.6060872531     3.8139184267    -5.6943599237   Mg  0.0 0.0   -4.98509363e-07 -2.94356646e-13  5.51337847e-09
atom     25.8036147375     3.8139184266     0.8069643130   Mg  0.0 0.0    8.10012000e-08 -3.10264973e-13  1.23976503e-07
atom     15.5247438842     3.8139184265     3.9567412522   Si  0.0 0.0    8.10132877e-07  1.77864855e-13  1.56503691e-06
atom     19.1648469602     3.8139184266    -2.7106133159   Si  0.0 0.0   -9.63857953e-07 -8.91023192e-14  1.27171724e-06
atom     19.9206680078     3.8139184266     2.1324474585   Al  0.0 0.0    1.41670942e-06 -1.63353957e-13 -6.37398133e-09
atom     21.9526352788    -0.0000000395    -1.3766849398   Al  0.0 0.0   -1.41668284e-06 -1.79575551e-13  6.45967981e-09
atom     22.7084563278    -0.0000000395     3.4663758357   Si  0.0 0.0    9.63865707e-07 -2.35734973e-13 -1.27164286e-06
atom     26.3485594038    -0.0000000394    -3.2009787244   Si  0.0 0.0   -8.10113522e-07 -2.88733181e-13 -1.56506033e-06
energy -2.928238591015754e+02
charge 0.0000
end
