begin
comment uuid: d7dac1cb-ee87-4461-ab4a-7b9936f14816 parent_uuid: 4c3843d7-8355-4b7b-b4e8-830f92b1b176 trajectory_step: final_scf
lattice     27.9106422106    -0.0000000000    -7.8358482140
lattice      0.0000000000     7.6057761666     0.0000000001
lattice     -0.0399537810    -0.0000000001    12.9107933301
atom     -0.0001292950    -0.0000000393    12.7519643204   Mg  0.0 0.0   -2.71521275e-11 -4.19228364e-13 -1.32159278e-11
atom      2.1293563338     3.8028880440     3.8930920004   Mg  0.0 0.0    3.63097910e-07 -3.07775792e-13 -9.90333961e-07
atom      4.3396056945     3.8028880439    10.3968594153   Mg  0.0 0.0   -9.76790650e-07 -1.56599145e-13 -5.97832384e-07
atom      9.6554106021    -0.0000000394    -1.7216482089   Mg  0.0 0.0    9.76725212e-07  4.74863876e-13  5.97873244e-07
atom     11.8656599580    -0.0000000395     4.7821192154   Mg  0.0 0.0   -3.63068202e-07  4.38688246e-13  9.90196160e-07
atom      1.5880307222    -0.0000000393     7.8986159335   Si  0.0 0.0    5.77041574e-07 -3.49796835e-13  1.50461888e-06
atom      5.1944338004    -0.0000000393     1.2257616840   Si  0.0 0.0    3.07017855e-07  5.85955485e-14  1.07042377e-06
atom      5.9848594886    -0.0000000394     6.0781788749   Al  0.0 0.0   -5.06996931e-07  2.27804843e-13  1.29691741e-07
atom      8.0101568030     3.8028880439     2.5970323325   Al  0.0 0.0    5.07028058e-07  1.99870090e-13 -1.29658881e-07
atom      8.8005824928     3.8028880438     7.4494495236   Si  0.0 0.0   -3.07012684e-07  3.45583635e-13 -1.07039942e-06
atom     12.4069855692     3.8028880438     0.7765952763   Si  0.0 0.0   -5.77016262e-07  4.94064702e-13 -1.50466760e-06
atom     13.9551918107     3.8028880438     8.8340402199   Mg  0.0 0.0   -2.96000498e-11  4.19110022e-13 -5.22849838e-11
atom     16.0846774383    -0.0000000394    -0.0248321015   Mg  0.0 0.0    3.63103290e-07  3.13159418e-13 -9.90363458e-07
atom     18.2949268020    -0.0000000394     6.4789353068   Mg  0.0 0.0   -9.76804632e-07  1.12653844e-13 -5.97820328e-07
atom     23.6107317073     3.8028880440    -5.6395723239   Mg  0.0 0.0    9.76724974e-07 -4.30942449e-13  5.97925255e-07
atom     25.8209810625     3.8028880440     0.8641950995   Mg  0.0 0.0   -3.63062534e-07 -4.44025704e-13  9.90251676e-07
atom     15.5433518283     3.8028880438     3.9806918314   Si  0.0 0.0    5.77036086e-07  3.03971388e-13  1.50459027e-06
atom     19.1497549051     3.8028880439    -2.6921624252   Si  0.0 0.0    3.07022078e-07 -6.62505379e-14  1.07044038e-06
atom     19.9401805927     3.8028880439     2.1602547643   Al  0.0 0.0   -5.06989147e-07 -1.94923325e-13  1.29716592e-07
atom     21.9654779082    -0.0000000393    -1.3208917818   Al  0.0 0.0    5.07028789e-07 -2.33007860e-13 -1.29611517e-07
atom     22.7559035976    -0.0000000394     3.5315254090   Si  0.0 0.0   -3.07009165e-07 -3.37541365e-13 -1.07035075e-06
atom     26.3623066748    -0.0000000393    -3.1413288378   Si  0.0 0.0   -5.77018868e-07 -4.48317959e-13 -1.50462417e-06
energy -2.928243022428300e+02
charge 0.0000
end
