begin
comment uuid: d7dac1cb-ee87-4461-ab4a-7b9936f14816 parent_uuid: 4c3843d7-8355-4b7b-b4e8-830f92b1b176 trajectory_step: final_scf
lattice     27.8744159943     0.0000000001    -7.8653278168
lattice      0.0000000000     7.6599874886    -0.0000000000
lattice     -0.0637847120    -0.0000000002    12.8739035743
atom     -0.0237385144    -0.0000000398    12.7154552722   Mg  0.0 0.0       0.0000000002    -0.0000000000    -0.0000000017
atom      2.0807595339     3.8299937045     3.8380054513   Mg  0.0 0.0       0.0000005890     0.0000000000     0.0000003995
atom      4.2538741022     3.8299937043    10.4145607519   Mg  0.0 0.0       0.0000012877     0.0000000000     0.0000001515
atom      9.6996415954    -0.0000000396    -1.7902178802   Mg  0.0 0.0      -0.0000012886    -0.0000000000    -0.0000001499
atom     11.8727560191    -0.0000000396     4.7863377192   Mg  0.0 0.0      -0.0000005889    -0.0000000000    -0.0000004028
atom      1.5705711698    -0.0000000397     7.8817793084   Si  0.0 0.0      -0.0000020745    -0.0000000000     0.0000027011
atom      5.2651758100    -0.0000000396     1.2412354896   Si  0.0 0.0       0.0000008807    -0.0000000000     0.0000008324
atom      5.9437164397    -0.0000000397     6.0718140078   Al  0.0 0.0       0.0000030597    -0.0000000000     0.0000008579
atom      8.0097990307     3.8299937045     2.5525288711   Al  0.0 0.0      -0.0000030509     0.0000000000    -0.0000008552
atom      8.6883398264     3.8299937044     7.3831074181   Si  0.0 0.0      -0.0000008846     0.0000000000    -0.0000008334
atom     12.3829444325     3.8299937046     0.7425637095   Si  0.0 0.0       0.0000020688     0.0000000000    -0.0000027009
atom     13.9134694842     3.8299937045     8.7827913820   Mg  0.0 0.0       0.0000000002     0.0000000000    -0.0000000018
atom     16.0179675267    -0.0000000395    -0.0946584414   Mg  0.0 0.0       0.0000005893    -0.0000000000     0.0000003993
atom     18.1910821076    -0.0000000396     6.4818968398   Mg  0.0 0.0       0.0000012875    -0.0000000000     0.0000001514
atom     23.6368495941     3.8299937048    -5.7228818131   Mg  0.0 0.0      -0.0000012887     0.0000000000    -0.0000001498
atom     25.8099640135     3.8299937046     0.8536737842   Mg  0.0 0.0      -0.0000005887     0.0000000000    -0.0000004028
atom     15.5077791600     3.8299937046     3.9491154065   Si  0.0 0.0      -0.0000020729     0.0000000000     0.0000027024
atom     19.2023838058     3.8299937048    -2.6914284269   Si  0.0 0.0       0.0000008807     0.0000000000     0.0000008325
atom     19.8809244349     3.8299937047     2.1391500886   Al  0.0 0.0       0.0000030594     0.0000000000     0.0000008580
atom     21.9470070312    -0.0000000394    -1.3801350595   Al  0.0 0.0      -0.0000030513    -0.0000000000    -0.0000008550
atom     22.6255478231    -0.0000000395     3.4504434873   Si  0.0 0.0      -0.0000008846    -0.0000000000    -0.0000008333
atom     26.3201524221    -0.0000000395    -3.1901002281   Si  0.0 0.0       0.0000020705    -0.0000000000    -0.0000026994
energy -292.823411849
charge 0.0000
end
