begin
comment uuid: d7dac1cb-ee87-4461-ab4a-7b9936f14816 parent_uuid: 4c3843d7-8355-4b7b-b4e8-830f92b1b176 trajectory_step: final_scf
lattice     27.9413696947    -0.0000000000    -7.8694846856
lattice      0.0000000000     7.6006408082     0.0000000001
lattice     -0.0582415893    -0.0000000001    12.9009660356
atom     -0.0181644417    -0.0000000393    12.7422020649   Mg  0.0 0.0   -1.72375717e-11 -4.00737265e-13 -5.85800194e-13
atom      2.1278676389     3.8003203648     3.8648184135   Mg  0.0 0.0    2.30110627e-07 -2.80635788e-13 -4.57206096e-07
atom      4.3482652688     3.8003203648    10.3870244379   Mg  0.0 0.0   -6.16994268e-07 -1.38976723e-13  3.43195168e-08
atom      9.6443322845    -0.0000000394    -1.7383286807   Mg  0.0 0.0    6.16952801e-07  4.50111674e-13 -3.43032925e-08
atom     11.8647299120    -0.0000000394     4.7838773486   Mg  0.0 0.0   -2.30093221e-07  4.14290423e-13  4.57117843e-07
atom      1.5709371745    -0.0000000393     7.8959291979   Si  0.0 0.0    8.62704630e-08 -3.30899610e-13  1.20772446e-06
atom      5.1971385301    -0.0000000393     1.2219647874   Si  0.0 0.0   -1.41397106e-07  6.18942013e-14  1.52940020e-06
atom      5.9511407072    -0.0000000394     6.0720918647   Al  0.0 0.0   -2.49330283e-07  2.19817986e-13  3.68457160e-07
atom      8.0414568433     3.8003203648     2.5766038935   Al  0.0 0.0    2.49350349e-07  2.00232972e-13 -3.68451679e-07
atom      8.7954590214     3.8003203647     7.4267309707   Si  0.0 0.0    1.41400378e-07  3.34308585e-13 -1.52939777e-06
atom     12.4216603754     3.8003203647     0.7527665604   Si  0.0 0.0   -8.62521831e-08  4.62775734e-13 -1.20775869e-06
atom     13.9525204060     3.8003203647     8.8074597288   Mg  0.0 0.0   -1.89536296e-11  4.00439790e-13 -4.02701663e-11
atom     16.0985524853    -0.0000000394    -0.0699239242   Mg  0.0 0.0    2.30116876e-07  2.87420349e-13 -4.57234675e-07
atom     18.3189501185    -0.0000000394     6.4522820938   Mg  0.0 0.0   -6.17008943e-07  9.42489641e-14  3.43310766e-08
atom     23.6150171318     3.8003203649    -5.6730710315   Mg  0.0 0.0    6.16952222e-07 -4.05115202e-13 -3.42519625e-08
atom     25.8354147585     3.8003203648     0.8491349968   Mg  0.0 0.0   -2.30087007e-07 -4.20605308e-13  4.57173321e-07
atom     15.5416220226     3.8003203647     3.9611868602   Si  0.0 0.0    8.62657109e-08  2.89519104e-13  1.20769519e-06
atom     19.1678233768     3.8003203648    -2.7127775572   Si  0.0 0.0   -1.41393042e-07 -6.64982433e-14  1.52941494e-06
atom     19.9218255534     3.8003203648     2.1373495188   Al  0.0 0.0   -2.49323140e-07 -1.86626162e-13  3.68480249e-07
atom     22.0121416908    -0.0000000393    -1.3581384565   Al  0.0 0.0    2.49349450e-07 -2.33353548e-13 -3.68404861e-07
atom     22.7661438685    -0.0000000393     3.4919886204   Si  0.0 0.0    1.41402079e-07 -3.30411854e-13 -1.52934955e-06
atom     26.3923452233    -0.0000000393    -3.1819757898   Si  0.0 0.0   -8.62555715e-08 -4.21006059e-13 -1.20771454e-06
energy -2.928251348665723e+02
charge 0.0000
end
