begin
comment uuid: d7dac1cb-ee87-4461-ab4a-7b9936f14816 parent_uuid: 4c3843d7-8355-4b7b-b4e8-830f92b1b176 trajectory_step: final_scf
lattice     27.9644246719    -0.0000000001    -7.8887313646
lattice      0.0000000000     7.6283515128     0.0000000001
lattice     -0.0710038683    -0.0000000001    12.8871851523
atom     -0.0307481256    -0.0000000395    12.7285517708   Mg  0.0 0.0      -0.0000000000    -0.0000000000     0.0000000000
atom      2.0860948438     3.8141757169     3.8392188356   Mg  0.0 0.0      -0.0000005079     0.0000000000    -0.0000012585
atom      4.2660507249     3.8141757169    10.4235910532   Mg  0.0 0.0      -0.0000008792     0.0000000000     0.0000007198
atom      9.7256692274    -0.0000000395    -1.7980383417   Mg  0.0 0.0       0.0000008792     0.0000000000    -0.0000007198
atom     11.9056251074    -0.0000000395     4.7863338791   Mg  0.0 0.0       0.0000005079     0.0000000000     0.0000012585
atom      1.5689554536    -0.0000000395     7.8877135500   Si  0.0 0.0      -0.0000010183     0.0000000000    -0.0000006303
atom      5.2826379201    -0.0000000395     1.2411438250   Si  0.0 0.0      -0.0000001798     0.0000000000     0.0000018478
atom      5.9488205683    -0.0000000395     6.0755868280   Al  0.0 0.0       0.0000003407     0.0000000000    -0.0000001316
atom      8.0428993826     3.8141757169     2.5499658843   Al  0.0 0.0      -0.0000003407     0.0000000000     0.0000001316
atom      8.7090820315     3.8141757169     7.3844088872   Si  0.0 0.0       0.0000001798     0.0000000000    -0.0000018478
atom     12.4227644969     3.8141757169     0.7378391619   Si  0.0 0.0       0.0000010183     0.0000000000     0.0000006303
atom     13.9514642107     3.8141757169     8.7841860934   Mg  0.0 0.0      -0.0000000000     0.0000000000    -0.0000000000
atom     16.0683071791    -0.0000000395    -0.1051468424   Mg  0.0 0.0      -0.0000005079    -0.0000000000    -0.0000012586
atom     18.2482630627    -0.0000000395     6.4792253707   Mg  0.0 0.0      -0.0000008793    -0.0000000000     0.0000007198
atom     23.7078815633     3.8141757170    -5.7424040294   Mg  0.0 0.0       0.0000008792    -0.0000000000    -0.0000007197
atom     25.8878374431     3.8141757169     0.8419681902   Mg  0.0 0.0       0.0000005079    -0.0000000000     0.0000012585
atom     15.5511677901     3.8141757169     3.9433478716   Si  0.0 0.0      -0.0000010183    -0.0000000000    -0.0000006304
atom     19.2648502558     3.8141757170    -2.7032218582   Si  0.0 0.0      -0.0000001798    -0.0000000000     0.0000018478
atom     19.9310329035     3.8141757169     2.1312211441   Al  0.0 0.0       0.0000003407    -0.0000000000    -0.0000001316
atom     22.0251117189    -0.0000000395    -1.3943998027   Al  0.0 0.0      -0.0000003407    -0.0000000000     0.0000001317
atom     22.6912943673    -0.0000000395     3.4400432001   Si  0.0 0.0       0.0000001798    -0.0000000000    -0.0000018477
atom     26.4049768331    -0.0000000395    -3.2065265258   Si  0.0 0.0       0.0000010183    -0.0000000000     0.0000006304
energy -292.823496808
charge 0.0000
end
