begin
comment uuid: d7dac1cb-ee87-4461-ab4a-7b9936f14816 parent_uuid: 4c3843d7-8355-4b7b-b4e8-830f92b1b176 trajectory_step: final_scf
lattice     27.8552491898    -0.0000000001    -7.8229784030
lattice      0.0000000000     7.6649691669     0.0000000001
lattice     -0.0479481509    -0.0000000001    12.8608049601
atom     -0.0081102928    -0.0000000396    12.7025662671   Mg  0.0 0.0      -0.0000000000    -0.0000000000    -0.0000000000
atom      2.0836652782     3.8324845439     3.8706802854   Mg  0.0 0.0      -0.0000009518    -0.0000000000    -0.0000010038
atom      4.2814913550     3.8324845438    10.3745184119   Mg  0.0 0.0       0.0000000596    -0.0000000000    -0.0000009253
atom      9.6778608036    -0.0000000398    -1.7416800285   Mg  0.0 0.0      -0.0000000596     0.0000000000     0.0000009253
atom     11.8756868812    -0.0000000399     4.7621580974   Mg  0.0 0.0       0.0000009519     0.0000000000     0.0000010037
atom      1.6184519391    -0.0000000395     7.8519195595   Si  0.0 0.0       0.0000003094    -0.0000000000     0.0000010726
atom      5.2092057896    -0.0000000397     1.2470188515   Si  0.0 0.0       0.0000008049     0.0000000000     0.0000010415
atom      6.0485011020    -0.0000000397     6.0822068662   Al  0.0 0.0       0.0000018867     0.0000000000    -0.0000001765
atom      7.9108510572     3.8324845437     2.5506315188   Al  0.0 0.0      -0.0000018866     0.0000000000     0.0000001765
atom      8.7501463707     3.8324845436     7.3858195330   Si  0.0 0.0      -0.0000008049     0.0000000000    -0.0000010416
atom     12.3409002193     3.8324845436     0.7809188211   Si  0.0 0.0      -0.0000003094     0.0000000000    -0.0000010726
atom     13.9195143025     3.8324845435     8.7910770731   Mg  0.0 0.0      -0.0000000000     0.0000000000    -0.0000000000
atom     16.0112898730    -0.0000000398    -0.0408089097   Mg  0.0 0.0      -0.0000009518     0.0000000000    -0.0000010038
atom     18.2091159530    -0.0000000398     6.4630292086   Mg  0.0 0.0       0.0000000596     0.0000000000    -0.0000009253
atom     23.6054853977     3.8324845439    -5.6531692393   Mg  0.0 0.0      -0.0000000596    -0.0000000000     0.0000009254
atom     25.8033114743     3.8324845439     0.8506688855   Mg  0.0 0.0       0.0000009519    -0.0000000000     0.0000010038
atom     15.5460765354     3.8324845436     3.9404303636   Si  0.0 0.0       0.0000003094     0.0000000000     0.0000010725
atom     19.1368303833     3.8324845438    -2.6644703527   Si  0.0 0.0       0.0000008049     0.0000000000     0.0000010415
atom     19.9761256959     3.8324845438     2.1707176603   Al  0.0 0.0       0.0000018867    -0.0000000000    -0.0000001765
atom     21.8384756518    -0.0000000396    -1.3608576913   Al  0.0 0.0      -0.0000018866    -0.0000000000     0.0000001766
atom     22.6777709654    -0.0000000397     3.4743303228   Si  0.0 0.0      -0.0000008049    -0.0000000000    -0.0000010415
atom     26.2685248142    -0.0000000395    -3.1305703889   Si  0.0 0.0      -0.0000003094    -0.0000000000    -0.0000010725
energy -292.82242977
charge 0.0000
end
