begin
comment uuid: d7dac1cb-ee87-4461-ab4a-7b9936f14816 parent_uuid: 4c3843d7-8355-4b7b-b4e8-830f92b1b176 trajectory_step: final_scf
lattice     27.9106422106    -0.0000000000    -7.8358482140
lattice      0.0000000000     7.6057761666     0.0000000001
lattice     -0.0399537810    -0.0000000001    12.9107933301
atom     -0.0001292950    -0.0000000393    12.7519643204   Mg  0.0 0.0   -2.71612097e-11 -4.18976835e-13 -1.32032755e-11
atom      2.1293563338     3.8028880440     3.8930920004   Mg  0.0 0.0    3.63097908e-07 -3.07801700e-13 -9.90333960e-07
atom      4.3396056945     3.8028880439    10.3968594153   Mg  0.0 0.0   -9.76790648e-07 -1.56628494e-13 -5.97832387e-07
atom      9.6554106021    -0.0000000394    -1.7216482089   Mg  0.0 0.0    9.76725211e-07  4.74993382e-13  5.97873246e-07
atom     11.8656599580    -0.0000000395     4.7821192154   Mg  0.0 0.0   -3.63068201e-07  4.38754719e-13  9.90196161e-07
atom      1.5880307222    -0.0000000393     7.8986159335   Si  0.0 0.0    5.77041595e-07 -3.49786310e-13  1.50461888e-06
atom      5.1944338004    -0.0000000393     1.2257616840   Si  0.0 0.0    3.07017858e-07  5.84301456e-14  1.07042377e-06
atom      5.9848594886    -0.0000000394     6.0781788749   Al  0.0 0.0   -5.06996948e-07  2.27849643e-13  1.29691749e-07
atom      8.0101568030     3.8028880439     2.5970323325   Al  0.0 0.0    5.07028062e-07  1.99762543e-13 -1.29658891e-07
atom      8.8005824928     3.8028880438     7.4494495236   Si  0.0 0.0   -3.07012680e-07  3.45444255e-13 -1.07039942e-06
atom     12.4069855692     3.8028880438     0.7765952763   Si  0.0 0.0   -5.77016310e-07  4.94334987e-13 -1.50466761e-06
atom     13.9551918107     3.8028880438     8.8340402199   Mg  0.0 0.0   -2.95262369e-11  4.19012528e-13 -5.22572008e-11
atom     16.0846774383    -0.0000000394    -0.0248321015   Mg  0.0 0.0    3.63103291e-07  3.13021585e-13 -9.90363456e-07
atom     18.2949268020    -0.0000000394     6.4789353068   Mg  0.0 0.0   -9.76804633e-07  1.12643387e-13 -5.97820327e-07
atom     23.6107317073     3.8028880440    -5.6395723239   Mg  0.0 0.0    9.76724976e-07 -4.31029891e-13  5.97925252e-07
atom     25.8209810625     3.8028880440     0.8641950995   Mg  0.0 0.0   -3.63062536e-07 -4.43991159e-13  9.90251677e-07
atom     15.5433518283     3.8028880438     3.9806918314   Si  0.0 0.0    5.77036042e-07  3.03892124e-13  1.50459026e-06
atom     19.1497549051     3.8028880439    -2.6921624252   Si  0.0 0.0    3.07022083e-07 -6.62904803e-14  1.07044038e-06
atom     19.9401805927     3.8028880439     2.1602547643   Al  0.0 0.0   -5.06989142e-07 -1.95005098e-13  1.29716584e-07
atom     21.9654779082    -0.0000000393    -1.3208917818   Al  0.0 0.0    5.07028773e-07 -2.32936882e-13 -1.29611511e-07
atom     22.7559035976    -0.0000000394     3.5315254090   Si  0.0 0.0   -3.07009164e-07 -3.37797481e-13 -1.07035075e-06
atom     26.3623066748    -0.0000000393    -3.1413288378   Si  0.0 0.0   -5.77018850e-07 -4.48016503e-13 -1.50462418e-06
energy -2.928243022428300e+02
charge 0.0000
end
