begin
comment uuid: d7dac1cb-ee87-4461-ab4a-7b9936f14816 parent_uuid: 4c3843d7-8355-4b7b-b4e8-830f92b1b176 trajectory_step: final_scf
lattice     27.8400072023    -0.0000000001    -7.8819020396
lattice      0.0000000000     7.6478140521     0.0000000001
lattice     -0.0619435206    -0.0000000001    12.9074009524
atom     -0.0219669703    -0.0000000396    12.7485458135   Mg  0.0 0.0   -5.71817768e-12 -2.47057064e-13  7.64210582e-12
atom      2.0996667293     3.8239069865     3.9199936652   Mg  0.0 0.0   -4.96386521e-07 -1.55104806e-13  2.87253303e-07
atom      4.2752814492     3.8239069864    10.4005147180   Mg  0.0 0.0   -7.50899904e-07 -4.08590573e-14 -3.29309048e-07
atom      9.6627317318    -0.0000000396    -1.7517750577   Mg  0.0 0.0    7.50887814e-07  2.20034782e-13  3.29307792e-07
atom     11.8383464512    -0.0000000397     4.7287459965   Mg  0.0 0.0    4.96390921e-07  2.18317784e-13 -2.87288248e-07
atom      1.5842122691    -0.0000000396     7.8951573310   Si  0.0 0.0   -5.84475911e-07 -1.83034682e-13 -1.80532420e-06
atom      5.2090257637    -0.0000000396     1.2318071736   Si  0.0 0.0   -1.71118893e-06 -7.54525039e-14 -7.26340806e-07
atom      5.9781576405    -0.0000000396     6.0713405649   Al  0.0 0.0   -9.11792380e-07 -2.70382488e-14  2.11962557e-07
atom      7.9598555398     3.8239069865     2.5773990958   Al  0.0 0.0    9.11800543e-07  2.64451387e-13 -2.11959111e-07
atom      8.7289874170     3.8239069864     7.4169324870   Si  0.0 0.0    1.71118521e-06  3.02886124e-13  7.26329790e-07
atom     12.3538009108     3.8239069864     0.7535823291   Si  0.0 0.0    5.84488844e-07  2.72842315e-13  1.80530837e-06
atom     13.8980366312     3.8239069864     8.8075947986   Mg  0.0 0.0   -7.67278963e-12  2.47135161e-13 -1.92069441e-11
atom     16.0196703300    -0.0000000396    -0.0209573504   Mg  0.0 0.0   -4.96383896e-07  1.96232199e-13  2.87230678e-07
atom     18.1952850519    -0.0000000397     6.4595636979   Mg  0.0 0.0   -7.50908561e-07  7.31422052e-14 -3.29305500e-07
atom     23.5827353329     3.8239069865    -5.6927260828   Mg  0.0 0.0    7.50887408e-07 -2.52615344e-13  3.29340032e-07
atom     25.7583500519     3.8239069865     0.7877949705   Mg  0.0 0.0    4.96393760e-07 -2.59429940e-13 -2.87252576e-07
atom     15.5042158707     3.8239069864     3.9542063150   Si  0.0 0.0   -5.84481277e-07  1.89713880e-13 -1.80534682e-06
atom     19.1290293646     3.8239069865    -2.7091438471   Si  0.0 0.0   -1.71118743e-06 -3.28384509e-14 -7.26332919e-07
atom     19.8981612408     3.8239069864     2.1303895434   Al  0.0 0.0   -9.11786866e-07 -1.06496186e-13  2.11974541e-07
atom     21.8798591412    -0.0000000396    -1.3635519286   Al  0.0 0.0    9.11800105e-07 -1.30220022e-13 -2.11931202e-07
atom     22.6489910180    -0.0000000396     3.4759814625   Si  0.0 0.0    1.71118643e-06 -1.95177904e-13  7.26358394e-07
atom     26.2738045123    -0.0000000396    -3.1873686959   Si  0.0 0.0    5.84484027e-07 -2.79392969e-13  1.80533653e-06
energy -2.928231610301995e+02
charge 0.0000
end
