begin
comment uuid: d7dac1cb-ee87-4461-ab4a-7b9936f14816 parent_uuid: 4c3843d7-8355-4b7b-b4e8-830f92b1b176 trajectory_step: final_scf
lattice     27.9106422106    -0.0000000000    -7.8358482140
lattice      0.0000000000     7.6057761666     0.0000000001
lattice     -0.0399537810    -0.0000000001    12.9107933301
atom     -0.0001292950    -0.0000000393    12.7519643204   Mg  0.0 0.0   -2.71661152e-11 -4.19404325e-13 -1.32137831e-11
atom      2.1293563338     3.8028880440     3.8930920004   Mg  0.0 0.0    3.63097910e-07 -3.07695907e-13 -9.90333964e-07
atom      4.3396056945     3.8028880439    10.3968594153   Mg  0.0 0.0   -9.76790647e-07 -1.56750042e-13 -5.97832383e-07
atom      9.6554106021    -0.0000000394    -1.7216482089   Mg  0.0 0.0    9.76725210e-07  4.75010663e-13  5.97873245e-07
atom     11.8656599580    -0.0000000395     4.7821192154   Mg  0.0 0.0   -3.63068200e-07  4.38875443e-13  9.90196160e-07
atom      1.5880307222    -0.0000000393     7.8986159335   Si  0.0 0.0    5.77041591e-07 -3.49613587e-13  1.50461888e-06
atom      5.1944338004    -0.0000000393     1.2257616840   Si  0.0 0.0    3.07017853e-07  5.86278327e-14  1.07042378e-06
atom      5.9848594886    -0.0000000394     6.0781788749   Al  0.0 0.0   -5.06996941e-07  2.27658298e-13  1.29691745e-07
atom      8.0101568030     3.8028880439     2.5970323325   Al  0.0 0.0    5.07028056e-07  1.99871035e-13 -1.29658891e-07
atom      8.8005824928     3.8028880438     7.4494495236   Si  0.0 0.0   -3.07012680e-07  3.45511547e-13 -1.07039942e-06
atom     12.4069855692     3.8028880438     0.7765952763   Si  0.0 0.0   -5.77016287e-07  4.94082581e-13 -1.50466760e-06
atom     13.9551918107     3.8028880438     8.8340402199   Mg  0.0 0.0   -2.95558057e-11  4.19145848e-13 -5.22657938e-11
atom     16.0846774383    -0.0000000394    -0.0248321015   Mg  0.0 0.0    3.63103291e-07  3.13065414e-13 -9.90363458e-07
atom     18.2949268020    -0.0000000394     6.4789353068   Mg  0.0 0.0   -9.76804635e-07  1.12757276e-13 -5.97820327e-07
atom     23.6107317073     3.8028880440    -5.6395723239   Mg  0.0 0.0    9.76724977e-07 -4.31192358e-13  5.97925257e-07
atom     25.8209810625     3.8028880440     0.8641950995   Mg  0.0 0.0   -3.63062534e-07 -4.44068885e-13  9.90251673e-07
atom     15.5433518283     3.8028880438     3.9806918314   Si  0.0 0.0    5.77036063e-07  3.03709175e-13  1.50459026e-06
atom     19.1497549051     3.8028880439    -2.6921624252   Si  0.0 0.0    3.07022082e-07 -6.62046585e-14  1.07044038e-06
atom     19.9401805927     3.8028880439     2.1602547643   Al  0.0 0.0   -5.06989148e-07 -1.95095778e-13  1.29716583e-07
atom     21.9654779082    -0.0000000393    -1.3208917818   Al  0.0 0.0    5.07028779e-07 -2.32771445e-13 -1.29611514e-07
atom     22.7559035976    -0.0000000394     3.5315254090   Si  0.0 0.0   -3.07009169e-07 -3.37629885e-13 -1.07035074e-06
atom     26.3623066748    -0.0000000393    -3.1413288378   Si  0.0 0.0   -5.77018849e-07 -4.47920156e-13 -1.50462418e-06
energy -2.928243022428300e+02
charge 0.0000
end
