begin
comment Mg5Al2Si4
lattice     27.8693078779    -0.0000000000    -7.8774387670
lattice     -0.0000000000     7.6565310127    -0.0000000000
lattice     -0.0667325339    -0.0000000000    12.8835506915
atom     -0.0266589493     0.0000000000    12.7249755442   Mg  0.0 0.0      -0.0000000203     0.0000000000    -0.0000000247
atom      2.0789427509     3.8282655063     3.8404314394   Mg  0.0 0.0       0.0000001523    -0.0000000000    -0.0000004541
atom      4.2515203729     3.8282655063    10.4214189732   Mg  0.0 0.0       0.0000004499    -0.0000000000    -0.0000002033
atom      9.6965480539     0.0000000000    -1.7937409920   Mg  0.0 0.0      -0.0000004826     0.0000000000     0.0000002308
atom     11.8691228784     0.0000000000     4.7872513067   Mg  0.0 0.0      -0.0000001195     0.0000000000     0.0000004112
atom      1.5683834505     0.0000000000     7.8873537255   Si  0.0 0.0      -0.0000010120     0.0000000000     0.0000012684
atom      5.2631093486     0.0000000000     1.2416009427   Si  0.0 0.0       0.0000003626     0.0000000000     0.0000021951
atom      5.9401303830     0.0000000000     6.0739649408   Al  0.0 0.0       0.0000012765     0.0000000000     0.0000002036
atom      8.0079359365     3.8282655063     2.5537140911   Al  0.0 0.0      -0.0000013194    -0.0000000000    -0.0000002525
atom      8.6849566478     3.8282655063     7.3860769046   Si  0.0 0.0      -0.0000003032    -0.0000000000    -0.0000021048
atom     12.3796826140     3.8282655063     0.7403265696   Si  0.0 0.0       0.0000010202    -0.0000000000    -0.0000012678
atom     13.9079950083     3.8282655063     8.7862565115   Mg  0.0 0.0      -0.0000000203    -0.0000000000    -0.0000000269
atom     16.0135966711     0.0000000000    -0.0982875946   Mg  0.0 0.0       0.0000001518     0.0000000000    -0.0000004556
atom     18.1861744010     0.0000000000     6.4826996880   Mg  0.0 0.0       0.0000004498     0.0000000000    -0.0000002034
atom     23.6312019518     3.8282655063    -5.7324606585   Mg  0.0 0.0      -0.0000004819    -0.0000000000     0.0000002329
atom     25.8037768151     3.8282655063     0.8485314889   Mg  0.0 0.0      -0.0000001202    -0.0000000000     0.0000004143
atom     15.5030374411     3.8282655063     3.9486346658   Si  0.0 0.0      -0.0000010177    -0.0000000000     0.0000012628
atom     19.1977632751     3.8282655063    -2.6971183984   Si  0.0 0.0       0.0000003628    -0.0000000000     0.0000021952
atom     19.8747842658     3.8282655063     2.1352455646   Al  0.0 0.0       0.0000012780    -0.0000000000     0.0000002033
atom     21.9425899071     0.0000000000    -1.3850055007   Al  0.0 0.0      -0.0000013188     0.0000000000    -0.0000002514
atom     22.6196105844     0.0000000000     3.4473572890   Si  0.0 0.0      -0.0000003031     0.0000000000    -0.0000021031
atom     26.3143365850     0.0000000000    -3.1983931384   Si  0.0 0.0       0.0000010151     0.0000000000    -0.0000012700
energy -292.823423429
charge 0.0000
end
