begin
comment 4 atoms, species Al4
lattice      7.6331373306    -0.3816568665     0.0000000000
lattice     -0.3816568665     7.6331373306     0.0000000000
lattice      0.0000000000     0.0000000000     7.6522680006
atom      0.0000000000     0.0000000000     0.0000000000   Al  0.0 0.0   -2.34206163e-16 -2.14731660e-16 -1.20371425e-16
atom     -0.1908284333     3.8165686653     3.8261340003   Al  0.0 0.0   -8.28171752e-17  6.76418881e-17  8.12877130e-17
atom      3.8165686653    -0.1908284333     3.8261340003   Al  0.0 0.0    6.53288697e-17 -1.03956108e-16  8.97880108e-17
atom      3.6257402320     3.6257402320     0.0000000000   Al  0.0 0.0    2.54681345e-16  2.51335639e-16 -1.69781604e-16
energy -7.900219938110497e+01
charge 0.0000
end
begin
comment 4 atoms, species Al4
lattice      7.6331373306    -0.2968442295     0.0000000000
lattice     -0.2968442295     7.6331373306     0.0000000000
lattice      0.0000000000     0.0000000000     7.6446987577
atom      0.0000000000     0.0000000000     0.0000000000   Al  0.0 0.0   -1.08824819e-16 -1.17575810e-16 -7.27134882e-17
atom     -0.1484221148     3.8165686653     3.8223493789   Al  0.0 0.0   -5.85856480e-17  9.08658845e-17  6.93778082e-17
atom      3.8165686653    -0.1484221148     3.8223493789   Al  0.0 0.0    9.30302230e-17 -8.02204181e-17  9.17826586e-17
atom      3.6681465505     3.6681465505     0.0000000000   Al  0.0 0.0    7.79186197e-17  7.98518606e-17 -2.00368115e-17
energy -7.900334429802292e+01
charge 0.0000
end
begin
comment 4 atoms, species Al4
lattice      7.6331373306    -0.2120315925     0.0000000000
lattice     -0.2120315925     7.6331373306     0.0000000000
lattice      0.0000000000     0.0000000000     7.6390316451
atom      0.0000000000     0.0000000000     0.0000000000   Al  0.0 0.0   -1.58796866e-16 -1.57174464e-16 -9.38981869e-17
atom     -0.1060157963     3.8165686653     3.8195158226   Al  0.0 0.0   -7.30942939e-17  4.14480767e-17  1.15108303e-16
atom      3.8165686653    -0.1060157963     3.8195158226   Al  0.0 0.0    1.15368091e-16 -7.46998355e-17  9.87496611e-17
atom      3.7105528690     3.7105528690     0.0000000000   Al  0.0 0.0    1.16106696e-16  1.07400802e-16 -2.44021667e-17
energy -7.900417245411536e+01
charge 0.0000
end
begin
comment 4 atoms, species Al4
lattice      7.6331373306    -0.1272189555     0.0000000000
lattice     -0.1272189555     7.6331373306     0.0000000000
lattice      0.0000000000     0.0000000000     7.6352582357
atom      0.0000000000     0.0000000000     0.0000000000   Al  0.0 0.0    9.01206593e-17  1.11458457e-16  1.56741165e-16
atom     -0.0636094778     3.8165686653     3.8176291178   Al  0.0 0.0    8.22772364e-17 -8.38310797e-17 -1.32471155e-16
atom      3.8165686653    -0.0636094778     3.8176291178   Al  0.0 0.0   -7.00640510e-17  7.16499381e-17 -1.36865534e-16
atom      3.7529591875     3.7529591875     0.0000000000   Al  0.0 0.0   -1.00905928e-16 -1.26967657e-16  1.95074339e-16
energy -7.900471124302229e+01
charge 0.0000
end
begin
comment 4 atoms, species Al4
lattice      7.6331373306    -0.0424063185     0.0000000000
lattice     -0.0424063185     7.6331373306     0.0000000000
lattice      0.0000000000     0.0000000000     7.6333729285
atom      0.0000000000     0.0000000000     0.0000000000   Al  0.0 0.0   -1.17665492e-16 -9.64371335e-17 -7.39816475e-17
atom     -0.0212031593     3.8165686653     3.8166864643   Al  0.0 0.0   -8.63902556e-17  9.22405641e-17  8.21596837e-17
atom      3.8165686653    -0.0212031593     3.8166864643   Al  0.0 0.0    8.97173187e-17 -7.63190140e-17  9.54008692e-17
atom      3.7953655060     3.7953655060     0.0000000000   Al  0.0 0.0    1.10622154e-16  9.16942530e-17 -8.78633697e-17
energy -7.900497669198366e+01
charge 0.0000
end
begin
comment 4 atoms, species Al4
lattice      7.6331373306     0.0424063185     0.0000000000
lattice      0.0424063185     7.6331373306     0.0000000000
lattice      0.0000000000     0.0000000000     7.6333729285
atom      0.0000000000     0.0000000000     0.0000000000   Al  0.0 0.0   -7.66050074e-17 -5.61566648e-17 -6.75330571e-17
atom      0.0212031593     3.8165686653     3.8166864643   Al  0.0 0.0   -6.70320990e-17  6.67275516e-17  7.52037177e-17
atom      3.8165686653     0.0212031593     3.8166864643   Al  0.0 0.0    9.05305071e-17 -7.00548958e-17  8.34361121e-17
atom      3.8377718246     3.8377718246     0.0000000000   Al  0.0 0.0    4.18733453e-17  4.11453833e-17 -8.23190026e-17
energy -7.900497669198366e+01
charge 0.0000
end
begin
comment 4 atoms, species Al4
lattice      7.6331373306     0.1272189555     0.0000000000
lattice      0.1272189555     7.6331373306     0.0000000000
lattice      0.0000000000     0.0000000000     7.6352582357
atom      0.0000000000     0.0000000000     0.0000000000   Al  0.0 0.0    5.85693214e-17  1.13531748e-16  1.32992334e-16
atom      0.0636094778     3.8165686653     3.8176291178   Al  0.0 0.0    4.62330203e-17 -6.94079964e-17 -1.13284109e-16
atom      3.8165686653     0.0636094778     3.8176291178   Al  0.0 0.0   -7.35453008e-17  8.86398984e-17 -1.40984960e-16
atom      3.8801781431     3.8801781431     0.0000000000   Al  0.0 0.0   -2.01465558e-17 -1.03005640e-16  1.71165860e-16
energy -7.900471124302229e+01
charge 0.0000
end
begin
comment 4 atoms, species Al4
lattice      7.6331373306     0.2120315925     0.0000000000
lattice      0.2120315925     7.6331373306     0.0000000000
lattice      0.0000000000     0.0000000000     7.6390316451
atom      0.0000000000     0.0000000000     0.0000000000   Al  0.0 0.0   -9.99182662e-17 -7.68861447e-17 -7.02613753e-17
atom      0.1060157963     3.8165686653     3.8195158226   Al  0.0 0.0   -1.18109408e-16  1.21181856e-16  1.31038863e-16
atom      3.8165686653     0.1060157963     3.8195158226   Al  0.0 0.0    1.67602054e-16 -1.43700654e-16  1.17768488e-16
atom      3.9225844616     3.9225844616     0.0000000000   Al  0.0 0.0    5.54478559e-17  3.52376096e-17 -5.08878651e-17
energy -7.900417245411539e+01
charge 0.0000
end
begin
comment 4 atoms, species Al4
lattice      7.6331373306     0.2968442295     0.0000000000
lattice      0.2968442295     7.6331373306     0.0000000000
lattice      0.0000000000     0.0000000000     7.6446987577
atom      0.0000000000     0.0000000000     0.0000000000   Al  0.0 0.0   -8.87234573e-17 -5.20654777e-17 -8.05770378e-17
atom      0.1484221148     3.8165686653     3.8223493789   Al  0.0 0.0   -1.30945755e-16  1.58578572e-16  5.92176430e-17
atom      3.8165686653     0.1484221148     3.8223493789   Al  0.0 0.0    1.31994870e-16 -1.43885716e-16  8.99820530e-17
atom      3.9649907801     3.9649907801     0.0000000000   Al  0.0 0.0    8.72621496e-17  3.40818232e-17 -1.24190266e-17
energy -7.900334429802292e+01
charge 0.0000
end
begin
comment 4 atoms, species Al4
lattice      7.6331373306     0.3816568665     0.0000000000
lattice      0.3816568665     7.6331373306     0.0000000000
lattice      0.0000000000     0.0000000000     7.6522680006
atom      0.0000000000     0.0000000000     0.0000000000   Al  0.0 0.0   -5.18331743e-17 -7.66311567e-17 -1.54524950e-16
atom      0.1908284333     3.8165686653     3.8261340003   Al  0.0 0.0   -1.94677640e-16  1.96982235e-16  6.19648712e-17
atom      3.8165686653     0.1908284333     3.8261340003   Al  0.0 0.0    1.80750675e-16 -1.99468772e-16  8.87528998e-17
atom      4.0073970986     4.0073970986     0.0000000000   Al  0.0 0.0    6.39390372e-17  9.39223587e-17 -1.98278785e-16
energy -7.900219938110497e+01
charge 0.0000
end
