begin
comment 255 atoms, species Al255
lattice     30.5327582425     0.0000000000     0.0000000000
lattice      0.0000000000    30.5327582425     0.0000000000
lattice      0.0000000000     0.0000000000    30.5327582425
atom     -0.0050409710    -0.0050409710    -0.0076219166   Al  0.0 0.0      -0.0000003548    -0.0000003548     0.0000008075
atom     -0.0033212313     3.8135576485     3.8115746774   Al  0.0 0.0       0.0000003531    -0.0000008992     0.0000000439
atom      3.8135576485    -0.0033212313     3.8115746774   Al  0.0 0.0      -0.0000008992     0.0000003531     0.0000000439
atom      3.8139508028     3.8139508028    -0.0026439775   Al  0.0 0.0       0.0000008211     0.0000008211     0.0000008211
atom      0.0012767695     0.0012767695     7.6331895606   Al  0.0 0.0      -0.0000000780    -0.0000000780     0.0000000000
atom     -0.0033212313     3.8135576485    11.4548044438   Al  0.0 0.0       0.0000003531    -0.0000008992    -0.0000000439
atom      3.8135576485    -0.0033212313    11.4548044438   Al  0.0 0.0      -0.0000008992     0.0000003531    -0.0000000439
atom      3.8143638876     3.8143638876     7.6331895606   Al  0.0 0.0      -0.0000005832    -0.0000005832    -0.0000000000
atom     -0.0050409710    -0.0050409710    15.2740010378   Al  0.0 0.0      -0.0000003548    -0.0000003548    -0.0000008075
atom     -0.0050409710     3.8089728637    19.0880148726   Al  0.0 0.0      -0.0000003548     0.0000008075     0.0000003548
atom      3.8089728637    -0.0050409710    19.0880148726   Al  0.0 0.0       0.0000008075    -0.0000003548     0.0000003548
atom      3.8139508028     3.8139508028    15.2690230987   Al  0.0 0.0       0.0000008211     0.0000008211    -0.0000008211
atom     -0.0669805595    -0.0669805595    22.8995686819   Al  0.0 0.0       0.0000007246     0.0000007246     0.0000000000
atom     -0.0050409710     3.8089728637    26.7111224911   Al  0.0 0.0      -0.0000003548     0.0000008075    -0.0000003548
atom      3.8089728637    -0.0050409710    26.7111224911   Al  0.0 0.0       0.0000008075    -0.0000003548    -0.0000003548
atom      3.7937989744     3.7937989744    22.8995686819   Al  0.0 0.0       0.0000000387     0.0000000387    -0.0000000000
atom     -0.0033212313     7.6281694577    -0.0030371318   Al  0.0 0.0       0.0000003531     0.0000000439    -0.0000008992
atom     -0.0020425226    11.4497843409     3.8154629340   Al  0.0 0.0       0.0000003652     0.0000000000     0.0000003145
atom      3.8154414662     7.6318966987     3.8153019184   Al  0.0 0.0       0.0000007845    -0.0000001103    -0.0000001103
atom      3.8143638876    11.4497843409    -0.0022308927   Al  0.0 0.0      -0.0000005832     0.0000000000    -0.0000005832
atom     -0.0020425226     7.6320577143     7.6331895606   Al  0.0 0.0       0.0000003652     0.0000003145     0.0000000000
atom     -0.0020425226    11.4497843409    11.4509161873   Al  0.0 0.0       0.0000003652     0.0000000000    -0.0000003145
atom      3.8154414662     7.6318966987    11.4510772028   Al  0.0 0.0       0.0000007845    -0.0000001103     0.0000001103
atom      3.8160216421    11.4497843409     7.6331895606   Al  0.0 0.0       0.0000006368     0.0000000000     0.0000000000
atom     -0.0033212313     7.6281694577    15.2694162530   Al  0.0 0.0       0.0000003531     0.0000000439     0.0000008992
atom      0.0012767694    11.4497843409    19.0816971321   Al  0.0 0.0      -0.0000000780     0.0000000000     0.0000000780
atom      3.8135576485     7.6281694577    19.0862951329   Al  0.0 0.0      -0.0000008992     0.0000000439    -0.0000003531
atom      3.8143638876    11.4497843409    15.2686100140   Al  0.0 0.0      -0.0000005832     0.0000000000     0.0000005832
atom     -0.0017726721     7.6339291273    22.8995686819   Al  0.0 0.0      -0.0000006397    -0.0000013961     0.0000000000
atom      0.0012767694    11.4497843409    26.7174402317   Al  0.0 0.0      -0.0000000780     0.0000000000    -0.0000000780
atom      3.8135576485     7.6281694577    26.7128422308   Al  0.0 0.0      -0.0000008992     0.0000000439     0.0000003531
atom      3.8160392511    11.4497843409    22.8995686819   Al  0.0 0.0       0.0000001155     0.0000000000     0.0000000000
atom     -0.0033212313    15.2713992241    -0.0030371318   Al  0.0 0.0       0.0000003531    -0.0000000439    -0.0000008992
atom     -0.0033212313    19.0860110333     3.8115746774   Al  0.0 0.0       0.0000003531     0.0000008992     0.0000000439
atom      3.8154414662    15.2676719831     3.8153019184   Al  0.0 0.0       0.0000007845     0.0000001103    -0.0000001103
atom      3.8139508028    19.0856178790    -0.0026439775   Al  0.0 0.0       0.0000008211    -0.0000008211     0.0000008211
atom     -0.0020425226    15.2675109676     7.6331895606   Al  0.0 0.0       0.0000003652    -0.0000003145     0.0000000000
atom     -0.0033212313    19.0860110333    11.4548044438   Al  0.0 0.0       0.0000003531     0.0000008992    -0.0000000439
atom      3.8154414662    15.2676719831    11.4510772028   Al  0.0 0.0       0.0000007845     0.0000001103     0.0000001103
atom      3.8143638876    19.0852047943     7.6331895606   Al  0.0 0.0      -0.0000005832     0.0000005832    -0.0000000000
atom     -0.0033212313    15.2713992241    15.2694162530   Al  0.0 0.0       0.0000003531    -0.0000000439     0.0000008992
atom     -0.0050409710    19.0905958181    19.0880148726   Al  0.0 0.0      -0.0000003548    -0.0000008075     0.0000003548
atom      3.8135576485    15.2713992241    19.0862951329   Al  0.0 0.0      -0.0000008992    -0.0000000439    -0.0000003531
atom      3.8139508028    19.0856178790    15.2690230987   Al  0.0 0.0       0.0000008211    -0.0000008211    -0.0000008211
atom     -0.0017726721    15.2656395545    22.8995686819   Al  0.0 0.0      -0.0000006397     0.0000013961     0.0000000000
atom     -0.0050409710    19.0905958181    26.7111224911   Al  0.0 0.0      -0.0000003548    -0.0000008075    -0.0000003548
atom      3.8135576485    15.2713992241    26.7128422308   Al  0.0 0.0      -0.0000008992    -0.0000000439     0.0000003531
atom      3.7937989744    19.1057697074    22.8995686819   Al  0.0 0.0       0.0000000387    -0.0000000387    -0.0000000000
atom     -0.0050409710    22.9046096529    -0.0076219166   Al  0.0 0.0      -0.0000003548     0.0000003548     0.0000008075
atom     -0.0017726721    26.7161634622     3.8173343470   Al  0.0 0.0      -0.0000006397     0.0000000000    -0.0000013961
atom      3.8135576485    22.9028899132     3.8115746774   Al  0.0 0.0      -0.0000008992    -0.0000003531     0.0000000439
atom      3.7937989744    26.7161634622    -0.0227958059   Al  0.0 0.0       0.0000000387     0.0000000000     0.0000000387
atom      0.0012767695    22.8982919124     7.6331895606   Al  0.0 0.0      -0.0000000780     0.0000000780     0.0000000000
atom     -0.0017726721    26.7161634622    11.4490447742   Al  0.0 0.0      -0.0000006397     0.0000000000     0.0000013961
atom      3.8135576485    22.9028899132    11.4548044438   Al  0.0 0.0      -0.0000008992    -0.0000003531    -0.0000000439
atom      3.8160392511    26.7161634622     7.6331895606   Al  0.0 0.0       0.0000001155     0.0000000000     0.0000000000
atom     -0.0050409710    22.9046096529    15.2740010378   Al  0.0 0.0      -0.0000003548     0.0000003548    -0.0000008075
atom     -0.0669805595    26.7161634622    19.1499544611   Al  0.0 0.0       0.0000007246     0.0000000000    -0.0000007246
atom      3.8089728637    22.9046096529    19.0880148726   Al  0.0 0.0       0.0000008075     0.0000003548     0.0000003548
atom      3.7937989744    26.7161634622    15.2891749271   Al  0.0 0.0       0.0000000387     0.0000000000    -0.0000000387
atom     -0.0669805595    22.9665492414    22.8995686819   Al  0.0 0.0       0.0000007246    -0.0000007246     0.0000000000
atom     -0.0669805595    26.7161634622    26.6491829027   Al  0.0 0.0       0.0000007246     0.0000000000     0.0000007246
atom      3.8089728637    22.9046096529    26.7111224911   Al  0.0 0.0       0.0000008075     0.0000003548    -0.0000003548
atom      3.8014473683    26.7161634622    22.8995686819   Al  0.0 0.0      -0.0000005241     0.0000000000     0.0000000000
atom      7.6281694577    -0.0033212313    -0.0030371318   Al  0.0 0.0       0.0000000439     0.0000003531    -0.0000008992
atom      7.6318966987     3.8154414662     3.8153019184   Al  0.0 0.0      -0.0000001103     0.0000007845    -0.0000001103
atom     11.4497843409    -0.0020425226     3.8154629340   Al  0.0 0.0       0.0000000000     0.0000003652     0.0000003145
atom     11.4497843409     3.8143638876    -0.0022308927   Al  0.0 0.0       0.0000000000    -0.0000005832    -0.0000005832
atom      7.6320577143    -0.0020425226     7.6331895606   Al  0.0 0.0       0.0000003145     0.0000003652     0.0000000000
atom      7.6318966987     3.8154414662    11.4510772028   Al  0.0 0.0      -0.0000001103     0.0000007845     0.0000001103
atom     11.4497843409    -0.0020425226    11.4509161873   Al  0.0 0.0       0.0000000000     0.0000003652    -0.0000003145
atom     11.4497843409     3.8160216421     7.6331895606   Al  0.0 0.0       0.0000000000     0.0000006368     0.0000000000
atom      7.6281694577    -0.0033212313    15.2694162530   Al  0.0 0.0       0.0000000439     0.0000003531     0.0000008992
atom      7.6281694577     3.8135576485    19.0862951329   Al  0.0 0.0       0.0000000439    -0.0000008992    -0.0000003531
atom     11.4497843409     0.0012767694    19.0816971321   Al  0.0 0.0       0.0000000000    -0.0000000780     0.0000000780
atom     11.4497843409     3.8143638876    15.2686100140   Al  0.0 0.0       0.0000000000    -0.0000005832     0.0000005832
atom      7.6339291273    -0.0017726721    22.8995686819   Al  0.0 0.0      -0.0000013961    -0.0000006397     0.0000000000
atom      7.6281694577     3.8135576485    26.7128422308   Al  0.0 0.0       0.0000000439    -0.0000008992     0.0000003531
atom     11.4497843409     0.0012767694    26.7174402317   Al  0.0 0.0       0.0000000000    -0.0000000780    -0.0000000780
atom     11.4497843409     3.8160392511    22.8995686819   Al  0.0 0.0       0.0000000000     0.0000001155     0.0000000000
atom      7.6318966987     7.6318966987    -0.0011533141   Al  0.0 0.0      -0.0000001103    -0.0000001103     0.0000007845
atom      7.6326845121    11.4497843409     3.8160897318   Al  0.0 0.0      -0.0000003383     0.0000000000    -0.0000003383
atom     11.4497843409     7.6326845121     3.8160897318   Al  0.0 0.0       0.0000000000    -0.0000003383    -0.0000003383
atom     11.4497843409    11.4497843409    -0.0005731382   Al  0.0 0.0       0.0000000000     0.0000000000     0.0000006368
atom      7.6326845121     7.6326845121     7.6331895606   Al  0.0 0.0      -0.0000003383    -0.0000003383     0.0000000000
atom      7.6326845121    11.4497843409    11.4502893895   Al  0.0 0.0      -0.0000003383     0.0000000000     0.0000003383
atom     11.4497843409     7.6326845121    11.4502893895   Al  0.0 0.0       0.0000000000    -0.0000003383     0.0000003383
atom     11.4497843409    11.4497843409     7.6331895606   Al  0.0 0.0       0.0000000000     0.0000000000    -0.0000000000
atom      7.6318966987     7.6318966987    15.2675324353   Al  0.0 0.0      -0.0000001103    -0.0000001103    -0.0000007845
atom      7.6320577143    11.4497843409    19.0850164241   Al  0.0 0.0       0.0000003145     0.0000000000    -0.0000003652
atom     11.4497843409     7.6320577143    19.0850164241   Al  0.0 0.0       0.0000000000     0.0000003145    -0.0000003652
atom     11.4497843409    11.4497843409    15.2669522594   Al  0.0 0.0       0.0000000000     0.0000000000    -0.0000006368
atom      7.6269637028     7.6269637028    22.8995686819   Al  0.0 0.0       0.0000002609     0.0000002609     0.0000000000
atom      7.6320577143    11.4497843409    26.7141209396   Al  0.0 0.0       0.0000003145     0.0000000000     0.0000003652
atom     11.4497843409     7.6320577143    26.7141209396   Al  0.0 0.0       0.0000000000     0.0000003145     0.0000003652
atom     11.4497843409    11.4497843409    22.8995686819   Al  0.0 0.0       0.0000000000     0.0000000000    -0.0000000000
atom      7.6318966987    15.2676719831    -0.0011533141   Al  0.0 0.0      -0.0000001103     0.0000001103     0.0000007845
atom      7.6318966987    19.0841272156     3.8153019184   Al  0.0 0.0      -0.0000001103    -0.0000007845    -0.0000001103
atom     11.4497843409    15.2668841698     3.8160897318   Al  0.0 0.0       0.0000000000     0.0000003383    -0.0000003383
atom     11.4497843409    19.0852047943    -0.0022308927   Al  0.0 0.0       0.0000000000     0.0000005832    -0.0000005832
atom      7.6326845121    15.2668841698     7.6331895606   Al  0.0 0.0      -0.0000003383     0.0000003383     0.0000000000
atom      7.6318966987    19.0841272156    11.4510772028   Al  0.0 0.0      -0.0000001103    -0.0000007845     0.0000001103
atom     11.4497843409    15.2668841698    11.4502893895   Al  0.0 0.0       0.0000000000     0.0000003383     0.0000003383
atom     11.4497843409    19.0835470398     7.6331895606   Al  0.0 0.0       0.0000000000    -0.0000006368     0.0000000000
atom      7.6318966987    15.2676719831    15.2675324353   Al  0.0 0.0      -0.0000001103     0.0000001103    -0.0000007845
atom      7.6281694577    19.0860110333    19.0862951329   Al  0.0 0.0       0.0000000439     0.0000008992    -0.0000003531
atom     11.4497843409    15.2675109676    19.0850164241   Al  0.0 0.0       0.0000000000    -0.0000003145    -0.0000003652
atom     11.4497843409    19.0852047943    15.2686100140   Al  0.0 0.0       0.0000000000     0.0000005832     0.0000005832
atom      7.6269637028    15.2726049791    22.8995686819   Al  0.0 0.0       0.0000002609    -0.0000002609     0.0000000000
atom      7.6281694577    19.0860110333    26.7128422308   Al  0.0 0.0       0.0000000439     0.0000008992     0.0000003531
atom     11.4497843409    15.2675109676    26.7141209396   Al  0.0 0.0       0.0000000000    -0.0000003145     0.0000003652
atom     11.4497843409    19.0835294307    22.8995686819   Al  0.0 0.0       0.0000000000    -0.0000001155     0.0000000000
atom      7.6281694577    22.9028899132    -0.0030371318   Al  0.0 0.0       0.0000000439    -0.0000003531    -0.0000008992
atom      7.6269637028    26.7161634622     3.8103689224   Al  0.0 0.0       0.0000002609     0.0000000000     0.0000002609
atom     11.4497843409    22.9016112044     3.8154629340   Al  0.0 0.0       0.0000000000    -0.0000003652     0.0000003145
atom     11.4497843409    26.7161634622    -0.0005555292   Al  0.0 0.0       0.0000000000     0.0000000000     0.0000001155
atom      7.6320577143    22.9016112044     7.6331895606   Al  0.0 0.0       0.0000003145    -0.0000003652     0.0000000000
atom      7.6269637028    26.7161634622    11.4560101988   Al  0.0 0.0       0.0000002609     0.0000000000    -0.0000002609
atom     11.4497843409    22.9016112044    11.4509161873   Al  0.0 0.0       0.0000000000    -0.0000003652    -0.0000003145
atom     11.4497843409    26.7161634622     7.6331895606   Al  0.0 0.0       0.0000000000     0.0000000000    -0.0000000000
atom      7.6281694577    22.9028899132    15.2694162530   Al  0.0 0.0       0.0000000439    -0.0000003531     0.0000008992
atom      7.6339291273    26.7161634622    19.0847465737   Al  0.0 0.0      -0.0000013961     0.0000000000     0.0000006397
atom     11.4497843409    22.8982919124    19.0816971321   Al  0.0 0.0       0.0000000000     0.0000000780     0.0000000780
atom     11.4497843409    26.7161634622    15.2669346504   Al  0.0 0.0       0.0000000000     0.0000000000    -0.0000001155
atom      7.6339291273    22.9013413540    22.8995686819   Al  0.0 0.0      -0.0000013961     0.0000006397     0.0000000000
atom      7.6339291273    26.7161634622    26.7143907901   Al  0.0 0.0      -0.0000013961     0.0000000000    -0.0000006397
atom     11.4497843409    22.8982919124    26.7174402317   Al  0.0 0.0       0.0000000000     0.0000000780    -0.0000000780
atom     11.4497843409    26.7161634622    22.8995686819   Al  0.0 0.0       0.0000000000     0.0000000000    -0.0000000000
atom     15.2713992241    -0.0033212313    -0.0030371318   Al  0.0 0.0      -0.0000000439     0.0000003531    -0.0000008992
atom     15.2676719831     3.8154414662     3.8153019184   Al  0.0 0.0       0.0000001103     0.0000007845    -0.0000001103
atom     19.0860110333    -0.0033212313     3.8115746774   Al  0.0 0.0       0.0000008992     0.0000003531     0.0000000439
atom     19.0856178790     3.8139508028    -0.0026439775   Al  0.0 0.0      -0.0000008211     0.0000008211     0.0000008211
atom     15.2675109676    -0.0020425226     7.6331895606   Al  0.0 0.0      -0.0000003145     0.0000003652     0.0000000000
atom     15.2676719831     3.8154414662    11.4510772028   Al  0.0 0.0       0.0000001103     0.0000007845     0.0000001103
atom     19.0860110333    -0.0033212313    11.4548044438   Al  0.0 0.0       0.0000008992     0.0000003531    -0.0000000439
atom     19.0852047943     3.8143638876     7.6331895606   Al  0.0 0.0       0.0000005832    -0.0000005832    -0.0000000000
atom     15.2713992241    -0.0033212313    15.2694162530   Al  0.0 0.0      -0.0000000439     0.0000003531     0.0000008992
atom     15.2713992241     3.8135576485    19.0862951329   Al  0.0 0.0      -0.0000000439    -0.0000008992    -0.0000003531
atom     19.0905958181    -0.0050409710    19.0880148726   Al  0.0 0.0      -0.0000008075    -0.0000003548     0.0000003548
atom     19.0856178790     3.8139508028    15.2690230987   Al  0.0 0.0      -0.0000008211     0.0000008211    -0.0000008211
atom     15.2656395545    -0.0017726721    22.8995686819   Al  0.0 0.0       0.0000013961    -0.0000006397     0.0000000000
atom     15.2713992241     3.8135576485    26.7128422308   Al  0.0 0.0      -0.0000000439    -0.0000008992     0.0000003531
atom     19.0905958181    -0.0050409710    26.7111224911   Al  0.0 0.0      -0.0000008075    -0.0000003548    -0.0000003548
atom     19.1057697074     3.7937989744    22.8995686819   Al  0.0 0.0      -0.0000000387     0.0000000387    -0.0000000000
atom     15.2676719831     7.6318966987    -0.0011533141   Al  0.0 0.0       0.0000001103    -0.0000001103     0.0000007845
atom     15.2668841698    11.4497843409     3.8160897318   Al  0.0 0.0       0.0000003383     0.0000000000    -0.0000003383
atom     19.0841272156     7.6318966987     3.8153019184   Al  0.0 0.0      -0.0000007845    -0.0000001103    -0.0000001103
atom     19.0852047943    11.4497843409    -0.0022308927   Al  0.0 0.0       0.0000005832     0.0000000000    -0.0000005832
atom     15.2668841698     7.6326845121     7.6331895606   Al  0.0 0.0       0.0000003383    -0.0000003383     0.0000000000
atom     15.2668841698    11.4497843409    11.4502893895   Al  0.0 0.0       0.0000003383     0.0000000000     0.0000003383
atom     19.0841272156     7.6318966987    11.4510772028   Al  0.0 0.0      -0.0000007845    -0.0000001103     0.0000001103
atom     19.0835470398    11.4497843409     7.6331895606   Al  0.0 0.0      -0.0000006368     0.0000000000     0.0000000000
atom     15.2676719831     7.6318966987    15.2675324353   Al  0.0 0.0       0.0000001103    -0.0000001103    -0.0000007845
atom     15.2675109676    11.4497843409    19.0850164241   Al  0.0 0.0      -0.0000003145     0.0000000000    -0.0000003652
atom     19.0860110333     7.6281694577    19.0862951329   Al  0.0 0.0       0.0000008992     0.0000000439    -0.0000003531
atom     19.0852047943    11.4497843409    15.2686100140   Al  0.0 0.0       0.0000005832     0.0000000000     0.0000005832
atom     15.2726049791     7.6269637028    22.8995686819   Al  0.0 0.0      -0.0000002609     0.0000002609     0.0000000000
atom     15.2675109676    11.4497843409    26.7141209396   Al  0.0 0.0      -0.0000003145     0.0000000000     0.0000003652
atom     19.0860110333     7.6281694577    26.7128422308   Al  0.0 0.0       0.0000008992     0.0000000439     0.0000003531
atom     19.0835294307    11.4497843409    22.8995686819   Al  0.0 0.0      -0.0000001155     0.0000000000     0.0000000000
atom     15.2676719831    15.2676719831    -0.0011533141   Al  0.0 0.0       0.0000001103     0.0000001103     0.0000007845
atom     15.2676719831    19.0841272156     3.8153019184   Al  0.0 0.0       0.0000001103    -0.0000007845    -0.0000001103
atom     19.0841272156    15.2676719831     3.8153019184   Al  0.0 0.0      -0.0000007845     0.0000001103    -0.0000001103
atom     19.0856178790    19.0856178790    -0.0026439775   Al  0.0 0.0      -0.0000008211    -0.0000008211     0.0000008211
atom     15.2668841698    15.2668841698     7.6331895606   Al  0.0 0.0       0.0000003383     0.0000003383     0.0000000000
atom     15.2676719831    19.0841272156    11.4510772028   Al  0.0 0.0       0.0000001103    -0.0000007845     0.0000001103
atom     19.0841272156    15.2676719831    11.4510772028   Al  0.0 0.0      -0.0000007845     0.0000001103     0.0000001103
atom     19.0852047943    19.0852047943     7.6331895606   Al  0.0 0.0       0.0000005832     0.0000005832    -0.0000000000
atom     15.2676719831    15.2676719831    15.2675324353   Al  0.0 0.0       0.0000001103     0.0000001103    -0.0000007845
atom     15.2713992241    19.0860110333    19.0862951329   Al  0.0 0.0      -0.0000000439     0.0000008992    -0.0000003531
atom     19.0860110333    15.2713992241    19.0862951329   Al  0.0 0.0       0.0000008992    -0.0000000439    -0.0000003531
atom     19.0856178790    19.0856178790    15.2690230987   Al  0.0 0.0      -0.0000008211    -0.0000008211    -0.0000008211
atom     15.2726049791    15.2726049791    22.8995686819   Al  0.0 0.0      -0.0000002609    -0.0000002609     0.0000000000
atom     15.2713992241    19.0860110333    26.7128422308   Al  0.0 0.0      -0.0000000439     0.0000008992     0.0000003531
atom     19.0860110333    15.2713992241    26.7128422308   Al  0.0 0.0       0.0000008992    -0.0000000439     0.0000003531
atom     19.1057697074    19.1057697074    22.8995686819   Al  0.0 0.0      -0.0000000387    -0.0000000387    -0.0000000000
atom     15.2713992241    22.9028899132    -0.0030371318   Al  0.0 0.0      -0.0000000439    -0.0000003531    -0.0000008992
atom     15.2726049791    26.7161634622     3.8103689224   Al  0.0 0.0      -0.0000002609     0.0000000000     0.0000002609
atom     19.0860110333    22.9028899132     3.8115746774   Al  0.0 0.0       0.0000008992    -0.0000003531     0.0000000439
atom     19.1057697074    26.7161634622    -0.0227958059   Al  0.0 0.0      -0.0000000387     0.0000000000     0.0000000387
atom     15.2675109676    22.9016112044     7.6331895606   Al  0.0 0.0      -0.0000003145    -0.0000003652     0.0000000000
atom     15.2726049791    26.7161634622    11.4560101988   Al  0.0 0.0      -0.0000002609     0.0000000000    -0.0000002609
atom     19.0860110333    22.9028899132    11.4548044438   Al  0.0 0.0       0.0000008992    -0.0000003531    -0.0000000439
atom     19.0835294307    26.7161634622     7.6331895606   Al  0.0 0.0      -0.0000001155     0.0000000000     0.0000000000
atom     15.2713992241    22.9028899132    15.2694162530   Al  0.0 0.0      -0.0000000439    -0.0000003531     0.0000008992
atom     15.2656395545    26.7161634622    19.0847465737   Al  0.0 0.0       0.0000013961     0.0000000000     0.0000006397
atom     19.0905958181    22.9046096529    19.0880148726   Al  0.0 0.0      -0.0000008075     0.0000003548     0.0000003548
atom     19.1057697074    26.7161634622    15.2891749271   Al  0.0 0.0      -0.0000000387     0.0000000000    -0.0000000387
atom     15.2656395545    22.9013413540    22.8995686819   Al  0.0 0.0       0.0000013961     0.0000006397     0.0000000000
atom     15.2656395545    26.7161634622    26.7143907901   Al  0.0 0.0       0.0000013961     0.0000000000    -0.0000006397
atom     19.0905958181    22.9046096529    26.7111224911   Al  0.0 0.0      -0.0000008075     0.0000003548    -0.0000003548
atom     19.0981213135    26.7161634622    22.8995686819   Al  0.0 0.0       0.0000005241     0.0000000000     0.0000000000
atom     22.9046096529    -0.0050409710    -0.0076219166   Al  0.0 0.0       0.0000003548    -0.0000003548     0.0000008075
atom     22.9028899132     3.8135576485     3.8115746774   Al  0.0 0.0      -0.0000003531    -0.0000008992     0.0000000439
atom     26.7161634622    -0.0017726721     3.8173343470   Al  0.0 0.0       0.0000000000    -0.0000006397    -0.0000013961
atom     26.7161634622     3.7937989744    -0.0227958059   Al  0.0 0.0       0.0000000000     0.0000000387     0.0000000387
atom     22.8982919124     0.0012767695     7.6331895606   Al  0.0 0.0       0.0000000780    -0.0000000780     0.0000000000
atom     22.9028899132     3.8135576485    11.4548044438   Al  0.0 0.0      -0.0000003531    -0.0000008992    -0.0000000439
atom     26.7161634622    -0.0017726721    11.4490447742   Al  0.0 0.0       0.0000000000    -0.0000006397     0.0000013961
atom     26.7161634622     3.8160392511     7.6331895606   Al  0.0 0.0       0.0000000000     0.0000001155     0.0000000000
atom     22.9046096529    -0.0050409710    15.2740010378   Al  0.0 0.0       0.0000003548    -0.0000003548    -0.0000008075
atom     22.9046096529     3.8089728637    19.0880148726   Al  0.0 0.0       0.0000003548     0.0000008075     0.0000003548
atom     26.7161634622    -0.0669805595    19.1499544611   Al  0.0 0.0       0.0000000000     0.0000007246    -0.0000007246
atom     26.7161634622     3.7937989744    15.2891749271   Al  0.0 0.0       0.0000000000     0.0000000387    -0.0000000387
atom     22.9665492414    -0.0669805595    22.8995686819   Al  0.0 0.0      -0.0000007246     0.0000007246     0.0000000000
atom     22.9046096529     3.8089728637    26.7111224911   Al  0.0 0.0       0.0000003548     0.0000008075    -0.0000003548
atom     26.7161634622    -0.0669805595    26.6491829027   Al  0.0 0.0       0.0000000000     0.0000007246     0.0000007246
atom     26.7161634622     3.8014473683    22.8995686819   Al  0.0 0.0       0.0000000000    -0.0000005241     0.0000000000
atom     22.9028899132     7.6281694577    -0.0030371318   Al  0.0 0.0      -0.0000003531     0.0000000439    -0.0000008992
atom     22.9016112044    11.4497843409     3.8154629340   Al  0.0 0.0      -0.0000003652     0.0000000000     0.0000003145
atom     26.7161634622     7.6269637028     3.8103689224   Al  0.0 0.0       0.0000000000     0.0000002609     0.0000002609
atom     26.7161634622    11.4497843409    -0.0005555292   Al  0.0 0.0       0.0000000000     0.0000000000     0.0000001155
atom     22.9016112044     7.6320577143     7.6331895606   Al  0.0 0.0      -0.0000003652     0.0000003145     0.0000000000
atom     22.9016112044    11.4497843409    11.4509161873   Al  0.0 0.0      -0.0000003652     0.0000000000    -0.0000003145
atom     26.7161634622     7.6269637028    11.4560101988   Al  0.0 0.0       0.0000000000     0.0000002609    -0.0000002609
atom     26.7161634622    11.4497843409     7.6331895606   Al  0.0 0.0       0.0000000000     0.0000000000    -0.0000000000
atom     22.9028899132     7.6281694577    15.2694162530   Al  0.0 0.0      -0.0000003531     0.0000000439     0.0000008992
atom     22.8982919124    11.4497843409    19.0816971321   Al  0.0 0.0       0.0000000780     0.0000000000     0.0000000780
atom     26.7161634622     7.6339291273    19.0847465737   Al  0.0 0.0       0.0000000000    -0.0000013961     0.0000006397
atom     26.7161634622    11.4497843409    15.2669346504   Al  0.0 0.0       0.0000000000     0.0000000000    -0.0000001155
atom     22.9013413540     7.6339291273    22.8995686819   Al  0.0 0.0       0.0000006397    -0.0000013961     0.0000000000
atom     22.8982919124    11.4497843409    26.7174402317   Al  0.0 0.0       0.0000000780     0.0000000000    -0.0000000780
atom     26.7161634622     7.6339291273    26.7143907901   Al  0.0 0.0       0.0000000000    -0.0000013961    -0.0000006397
atom     26.7161634622    11.4497843409    22.8995686819   Al  0.0 0.0       0.0000000000     0.0000000000    -0.0000000000
atom     22.9028899132    15.2713992241    -0.0030371318   Al  0.0 0.0      -0.0000003531    -0.0000000439    -0.0000008992
atom     22.9028899132    19.0860110333     3.8115746774   Al  0.0 0.0      -0.0000003531     0.0000008992     0.0000000439
atom     26.7161634622    15.2726049791     3.8103689224   Al  0.0 0.0       0.0000000000    -0.0000002609     0.0000002609
atom     26.7161634622    19.1057697074    -0.0227958059   Al  0.0 0.0       0.0000000000    -0.0000000387     0.0000000387
atom     22.9016112044    15.2675109676     7.6331895606   Al  0.0 0.0      -0.0000003652    -0.0000003145     0.0000000000
atom     22.9028899132    19.0860110333    11.4548044438   Al  0.0 0.0      -0.0000003531     0.0000008992    -0.0000000439
atom     26.7161634622    15.2726049791    11.4560101988   Al  0.0 0.0       0.0000000000    -0.0000002609    -0.0000002609
atom     26.7161634622    19.0835294307     7.6331895606   Al  0.0 0.0       0.0000000000    -0.0000001155     0.0000000000
atom     22.9028899132    15.2713992241    15.2694162530   Al  0.0 0.0      -0.0000003531    -0.0000000439     0.0000008992
atom     22.9046096529    19.0905958181    19.0880148726   Al  0.0 0.0       0.0000003548    -0.0000008075     0.0000003548
atom     26.7161634622    15.2656395545    19.0847465737   Al  0.0 0.0       0.0000000000     0.0000013961     0.0000006397
atom     26.7161634622    19.1057697074    15.2891749271   Al  0.0 0.0       0.0000000000    -0.0000000387    -0.0000000387
atom     22.9013413540    15.2656395545    22.8995686819   Al  0.0 0.0       0.0000006397     0.0000013961     0.0000000000
atom     22.9046096529    19.0905958181    26.7111224911   Al  0.0 0.0       0.0000003548    -0.0000008075    -0.0000003548
atom     26.7161634622    15.2656395545    26.7143907901   Al  0.0 0.0       0.0000000000     0.0000013961    -0.0000006397
atom     26.7161634622    19.0981213135    22.8995686819   Al  0.0 0.0       0.0000000000     0.0000005241     0.0000000000