begin
comment 256 atoms, species Al255Si
lattice     30.5327582425     0.0000000000     0.0000000000
lattice      0.0000000000    30.5327582425     0.0000000000
lattice      0.0000000000     0.0000000000    30.5327582425
atom     -0.0000000000    -0.0000000000    -0.0000000000   Si  0.0 0.0       0.0000000000     0.0000000000     0.0000000000
atom     -0.0000000000     3.7906454014     3.7906454014   Al  0.0 0.0       0.0000000000    -0.0000001932    -0.0000001932
atom      3.7906454014    -0.0000000000     3.7906454014   Al  0.0 0.0      -0.0000001932     0.0000000000    -0.0000001932
atom      3.7906454014     3.7906454014    -0.0000000000   Al  0.0 0.0      -0.0000001932    -0.0000001932     0.0000000000
atom     -0.0000000000    -0.0000000000     7.6248801740   Al  0.0 0.0       0.0000000000     0.0000000000    -0.0000013642
atom     -0.0000000000     3.8150985930    11.4435364760   Al  0.0 0.0       0.0000000000     0.0000000273     0.0000003891
atom      3.8150985930    -0.0000000000    11.4435364760   Al  0.0 0.0       0.0000000273     0.0000000000     0.0000003891
atom      3.8157158203     3.8157158203     7.6279279239   Al  0.0 0.0       0.0000003141     0.0000003141    -0.0000015173
atom     -0.0000000000    -0.0000000000    15.2663791212   Al  0.0 0.0       0.0000000000     0.0000000000     0.0000000000
atom     -0.0000000000     3.8150985930    19.0892217665   Al  0.0 0.0       0.0000000000     0.0000000273    -0.0000003891
atom      3.8150985930    -0.0000000000    19.0892217665   Al  0.0 0.0       0.0000000273     0.0000000000    -0.0000003891
atom      3.8152609368     3.8152609368    15.2663791212   Al  0.0 0.0      -0.0000005739    -0.0000005739     0.0000000000
atom     -0.0000000000    -0.0000000000    22.9078780684   Al  0.0 0.0       0.0000000000     0.0000000000     0.0000013642
atom     -0.0000000000     3.7906454014    26.7421128411   Al  0.0 0.0       0.0000000000    -0.0000001932     0.0000001932
atom      3.7906454014    -0.0000000000    26.7421128411   Al  0.0 0.0      -0.0000001932     0.0000000000     0.0000001932
atom      3.8157158203     3.8157158203    22.9048303186   Al  0.0 0.0       0.0000003141     0.0000003141     0.0000015173
atom     -0.0000000000     7.6248801740    -0.0000000000   Al  0.0 0.0       0.0000000000    -0.0000013642     0.0000000000
atom     -0.0000000000    11.4435364760     3.8150985930   Al  0.0 0.0       0.0000000000     0.0000003891     0.0000000273
atom      3.8157158203     7.6279279239     3.8157158203   Al  0.0 0.0       0.0000003141    -0.0000015173     0.0000003141
atom      3.8150985930    11.4435364760    -0.0000000000   Al  0.0 0.0       0.0000000273     0.0000003891     0.0000000000
atom     -0.0000000000     7.6224281352     7.6224281352   Al  0.0 0.0       0.0000000000    -0.0000004170    -0.0000004170
atom     -0.0000000000    11.4452763704    11.4452763704   Al  0.0 0.0       0.0000000000     0.0000005303     0.0000005303
atom      3.8155090556     7.6312549994    11.4465224128   Al  0.0 0.0      -0.0000002033     0.0000004477     0.0000004375
atom      3.8155090556    11.4465224128     7.6312549994   Al  0.0 0.0      -0.0000002033     0.0000004375     0.0000004477
atom     -0.0000000000     7.6315525136    15.2663791212   Al  0.0 0.0       0.0000000000     0.0000000193     0.0000000000
atom     -0.0000000000    11.4452763704    19.0874818721   Al  0.0 0.0       0.0000000000     0.0000005303    -0.0000005303
atom      3.8155090556     7.6312549994    19.0862358296   Al  0.0 0.0      -0.0000002033     0.0000004477    -0.0000004375
atom      3.8154628187    11.4493289877    15.2663791212   Al  0.0 0.0       0.0000009379    -0.0000003548     0.0000000000
atom     -0.0000000000     7.6224281352    22.9103301073   Al  0.0 0.0       0.0000000000    -0.0000004170     0.0000004170
atom     -0.0000000000    11.4435364760    26.7176596495   Al  0.0 0.0       0.0000000000     0.0000003891    -0.0000000273
atom      3.8157158203     7.6279279239    26.7170424222   Al  0.0 0.0       0.0000003141    -0.0000015173    -0.0000003141
atom      3.8155090556    11.4465224128    22.9015032431   Al  0.0 0.0      -0.0000002033     0.0000004375    -0.0000004477
atom     -0.0000000000    15.2663791212    -0.0000000000   Al  0.0 0.0       0.0000000000     0.0000000000     0.0000000000
atom     -0.0000000000    19.0892217665     3.8150985930   Al  0.0 0.0       0.0000000000    -0.0000003891     0.0000000273
atom      3.8152609368    15.2663791212     3.8152609368   Al  0.0 0.0      -0.0000005739     0.0000000000    -0.0000005739
atom      3.8150985930    19.0892217665    -0.0000000000   Al  0.0 0.0       0.0000000273    -0.0000003891     0.0000000000
atom     -0.0000000000    15.2663791212     7.6315525136   Al  0.0 0.0       0.0000000000     0.0000000000     0.0000000193
atom     -0.0000000000    19.0874818721    11.4452763704   Al  0.0 0.0       0.0000000000    -0.0000005303     0.0000005303
atom      3.8154628187    15.2663791212    11.4493289877   Al  0.0 0.0       0.0000009379     0.0000000000    -0.0000003548
atom      3.8155090556    19.0862358296     7.6312549994   Al  0.0 0.0      -0.0000002033    -0.0000004375     0.0000004477
atom     -0.0000000000    15.2663791212    15.2663791212   Al  0.0 0.0       0.0000000000     0.0000000000     0.0000000000
atom     -0.0000000000    19.0874818721    19.0874818721   Al  0.0 0.0       0.0000000000    -0.0000005303    -0.0000005303
atom      3.8154628187    15.2663791212    19.0834292548   Al  0.0 0.0       0.0000009379     0.0000000000     0.0000003548
atom      3.8154628187    19.0834292548    15.2663791212   Al  0.0 0.0       0.0000009379     0.0000003548     0.0000000000
atom     -0.0000000000    15.2663791212    22.9012057289   Al  0.0 0.0       0.0000000000     0.0000000000    -0.0000000193
atom     -0.0000000000    19.0892217665    26.7176596495   Al  0.0 0.0       0.0000000000    -0.0000003891    -0.0000000273
atom      3.8152609368    15.2663791212    26.7174973057   Al  0.0 0.0      -0.0000005739     0.0000000000     0.0000005739
atom      3.8155090556    19.0862358296    22.9015032431   Al  0.0 0.0      -0.0000002033    -0.0000004375    -0.0000004477
atom     -0.0000000000    22.9078780684    -0.0000000000   Al  0.0 0.0       0.0000000000     0.0000013642     0.0000000000
atom     -0.0000000000    26.7421128411     3.7906454014   Al  0.0 0.0       0.0000000000     0.0000001932    -0.0000001932
atom      3.8157158203    22.9048303186     3.8157158203   Al  0.0 0.0       0.0000003141     0.0000015173     0.0000003141
atom      3.7906454014    26.7421128411    -0.0000000000   Al  0.0 0.0      -0.0000001932     0.0000001932     0.0000000000
atom     -0.0000000000    22.9103301073     7.6224281352   Al  0.0 0.0       0.0000000000     0.0000004170    -0.0000004170
atom     -0.0000000000    26.7176596495    11.4435364760   Al  0.0 0.0       0.0000000000    -0.0000000273     0.0000003891
atom      3.8155090556    22.9015032431    11.4465224128   Al  0.0 0.0      -0.0000002033    -0.0000004477     0.0000004375
atom      3.8157158203    26.7170424222     7.6279279239   Al  0.0 0.0       0.0000003141    -0.0000003141    -0.0000015173
atom     -0.0000000000    22.9012057289    15.2663791212   Al  0.0 0.0       0.0000000000    -0.0000000193     0.0000000000
atom     -0.0000000000    26.7176596495    19.0892217665   Al  0.0 0.0       0.0000000000    -0.0000000273    -0.0000003891
atom      3.8155090556    22.9015032431    19.0862358296   Al  0.0 0.0      -0.0000002033    -0.0000004477    -0.0000004375
atom      3.8152609368    26.7174973057    15.2663791212   Al  0.0 0.0      -0.0000005739     0.0000005739     0.0000000000
atom     -0.0000000000    22.9103301073    22.9103301073   Al  0.0 0.0       0.0000000000     0.0000004170     0.0000004170
atom     -0.0000000000    26.7421128411    26.7421128411   Al  0.0 0.0       0.0000000000     0.0000001932     0.0000001932
atom      3.8157158203    22.9048303186    26.7170424222   Al  0.0 0.0       0.0000003141     0.0000015173    -0.0000003141
atom      3.8157158203    26.7170424222    22.9048303186   Al  0.0 0.0       0.0000003141    -0.0000003141     0.0000015173
atom      7.6248801740    -0.0000000000    -0.0000000000   Al  0.0 0.0      -0.0000013642     0.0000000000     0.0000000000
atom      7.6279279239     3.8157158203     3.8157158203   Al  0.0 0.0      -0.0000015173     0.0000003141     0.0000003141
atom     11.4435364760    -0.0000000000     3.8150985930   Al  0.0 0.0       0.0000003891     0.0000000000     0.0000000273
atom     11.4435364760     3.8150985930    -0.0000000000   Al  0.0 0.0       0.0000003891     0.0000000273     0.0000000000
atom      7.6224281352    -0.0000000000     7.6224281352   Al  0.0 0.0      -0.0000004170     0.0000000000    -0.0000004170
atom      7.6312549994     3.8155090556    11.4465224128   Al  0.0 0.0       0.0000004477    -0.0000002033     0.0000004375
atom     11.4452763704    -0.0000000000    11.4452763704   Al  0.0 0.0       0.0000005303     0.0000000000     0.0000005303
atom     11.4465224128     3.8155090556     7.6312549994   Al  0.0 0.0       0.0000004375    -0.0000002033     0.0000004477
atom      7.6315525136    -0.0000000000    15.2663791212   Al  0.0 0.0       0.0000000193     0.0000000000     0.0000000000
atom      7.6312549994     3.8155090556    19.0862358296   Al  0.0 0.0       0.0000004477    -0.0000002033    -0.0000004375
atom     11.4452763704    -0.0000000000    19.0874818721   Al  0.0 0.0       0.0000005303     0.0000000000    -0.0000005303
atom     11.4493289877     3.8154628187    15.2663791212   Al  0.0 0.0      -0.0000003548     0.0000009379     0.0000000000
atom      7.6224281352    -0.0000000000    22.9103301073   Al  0.0 0.0      -0.0000004170     0.0000000000     0.0000004170
atom      7.6279279239     3.8157158203    26.7170424222   Al  0.0 0.0      -0.0000015173     0.0000003141    -0.0000003141
atom     11.4435364760    -0.0000000000    26.7176596495   Al  0.0 0.0       0.0000003891     0.0000000000    -0.0000000273
atom     11.4465224128     3.8155090556    22.9015032431   Al  0.0 0.0       0.0000004375    -0.0000002033    -0.0000004477
atom      7.6224281352     7.6224281352    -0.0000000000   Al  0.0 0.0      -0.0000004170    -0.0000004170     0.0000000000
atom      7.6312549994    11.4465224128     3.8155090556   Al  0.0 0.0       0.0000004477     0.0000004375    -0.0000002033
atom     11.4465224128     7.6312549994     3.8155090556   Al  0.0 0.0       0.0000004375     0.0000004477    -0.0000002033
atom     11.4452763704    11.4452763704    -0.0000000000   Al  0.0 0.0       0.0000005303     0.0000005303     0.0000000000
atom      7.6346911210     7.6346911210     7.6346911210   Al  0.0 0.0      -0.0000007259    -0.0000007259    -0.0000007259
atom      7.6340692907    11.4514545964    11.4514545964   Al  0.0 0.0      -0.0000004875    -0.0000007123    -0.0000007123
atom     11.4514545964     7.6340692907    11.4514545964   Al  0.0 0.0      -0.0000007123    -0.0000004875    -0.0000007123
atom     11.4514545964    11.4514545964     7.6340692907   Al  0.0 0.0      -0.0000007123    -0.0000007123    -0.0000004875
atom      7.6341151906     7.6341151906    15.2663791212   Al  0.0 0.0      -0.0000004403    -0.0000004403     0.0000000000
atom      7.6340692907    11.4514545964    19.0813036461   Al  0.0 0.0      -0.0000004875    -0.0000007123     0.0000007123
atom     11.4514545964     7.6340692907    19.0813036461   Al  0.0 0.0      -0.0000007123    -0.0000004875     0.0000007123
atom     11.4509575152    11.4509575152    15.2663791212   Al  0.0 0.0       0.0000001426     0.0000001426     0.0000000000
atom      7.6346911210     7.6346911210    22.8980671214   Al  0.0 0.0      -0.0000007259    -0.0000007259     0.0000007259
atom      7.6312549994    11.4465224128    26.7172491869   Al  0.0 0.0       0.0000004477     0.0000004375     0.0000002033
atom     11.4465224128     7.6312549994    26.7172491869   Al  0.0 0.0       0.0000004375     0.0000004477     0.0000002033
atom     11.4514545964    11.4514545964    22.8986889518   Al  0.0 0.0      -0.0000007123    -0.0000007123     0.0000004875
atom      7.6315525136    15.2663791212    -0.0000000000   Al  0.0 0.0       0.0000000193     0.0000000000     0.0000000000
atom      7.6312549994    19.0862358296     3.8155090556   Al  0.0 0.0       0.0000004477    -0.0000004375    -0.0000002033
atom     11.4493289877    15.2663791212     3.8154628187   Al  0.0 0.0      -0.0000003548     0.0000000000     0.0000009379
atom     11.4452763704    19.0874818721    -0.0000000000   Al  0.0 0.0       0.0000005303    -0.0000005303     0.0000000000
atom      7.6341151906    15.2663791212     7.6341151906   Al  0.0 0.0      -0.0000004403     0.0000000000    -0.0000004403
atom      7.6340692907    19.0813036461    11.4514545964   Al  0.0 0.0      -0.0000004875     0.0000007123    -0.0000007123
atom     11.4509575152    15.2663791212    11.4509575152   Al  0.0 0.0       0.0000001426     0.0000000000     0.0000001426
atom     11.4514545964    19.0813036461     7.6340692907   Al  0.0 0.0      -0.0000007123     0.0000007123    -0.0000004875
atom      7.6329591156    15.2663791212    15.2663791212   Al  0.0 0.0       0.0000015691     0.0000000000     0.0000000000
atom      7.6340692907    19.0813036461    19.0813036461   Al  0.0 0.0      -0.0000004875     0.0000007123     0.0000007123
atom     11.4509575152    15.2663791212    19.0818007273   Al  0.0 0.0       0.0000001426     0.0000000000    -0.0000001426
atom     11.4509575152    19.0818007273    15.2663791212   Al  0.0 0.0       0.0000001426    -0.0000001426     0.0000000000
atom      7.6341151906    15.2663791212    22.8986430518   Al  0.0 0.0      -0.0000004403     0.0000000000     0.0000004403
atom      7.6312549994    19.0862358296    26.7172491869   Al  0.0 0.0       0.0000004477    -0.0000004375     0.0000002033
atom     11.4493289877    15.2663791212    26.7172954239   Al  0.0 0.0      -0.0000003548     0.0000000000    -0.0000009379
atom     11.4514545964    19.0813036461    22.8986889518   Al  0.0 0.0      -0.0000007123     0.0000007123     0.0000004875
atom      7.6224281352    22.9103301073    -0.0000000000   Al  0.0 0.0      -0.0000004170     0.0000004170     0.0000000000
atom      7.6279279239    26.7170424222     3.8157158203   Al  0.0 0.0      -0.0000015173    -0.0000003141     0.0000003141
atom     11.4465224128    22.9015032431     3.8155090556   Al  0.0 0.0       0.0000004375    -0.0000004477    -0.0000002033
atom     11.4435364760    26.7176596495    -0.0000000000   Al  0.0 0.0       0.0000003891    -0.0000000273     0.0000000000
atom      7.6346911210    22.8980671214     7.6346911210   Al  0.0 0.0      -0.0000007259     0.0000007259    -0.0000007259
atom      7.6312549994    26.7172491869    11.4465224128   Al  0.0 0.0       0.0000004477     0.0000002033     0.0000004375
atom     11.4514545964    22.8986889518    11.4514545964   Al  0.0 0.0      -0.0000007123     0.0000004875    -0.0000007123
atom     11.4465224128    26.7172491869     7.6312549994   Al  0.0 0.0       0.0000004375     0.0000002033     0.0000004477
atom      7.6341151906    22.8986430518    15.2663791212   Al  0.0 0.0      -0.0000004403     0.0000004403     0.0000000000
atom      7.6312549994    26.7172491869    19.0862358296   Al  0.0 0.0       0.0000004477     0.0000002033    -0.0000004375
atom     11.4514545964    22.8986889518    19.0813036461   Al  0.0 0.0      -0.0000007123     0.0000004875     0.0000007123
atom     11.4493289877    26.7172954239    15.2663791212   Al  0.0 0.0      -0.0000003548    -0.0000009379     0.0000000000
atom      7.6346911210    22.8980671214    22.8980671214   Al  0.0 0.0      -0.0000007259     0.0000007259     0.0000007259
atom      7.6279279239    26.7170424222    26.7170424222   Al  0.0 0.0      -0.0000015173    -0.0000003141    -0.0000003141
atom     11.4465224128    22.9015032431    26.7172491869   Al  0.0 0.0       0.0000004375    -0.0000004477     0.0000002033
atom     11.4465224128    26.7172491869    22.9015032431   Al  0.0 0.0       0.0000004375     0.0000002033    -0.0000004477
atom     15.2663791212    -0.0000000000    -0.0000000000   Al  0.0 0.0       0.0000000000     0.0000000000     0.0000000000
atom     15.2663791212     3.8152609368     3.8152609368   Al  0.0 0.0       0.0000000000    -0.0000005739    -0.0000005739
atom     19.0892217665    -0.0000000000     3.8150985930   Al  0.0 0.0      -0.0000003891     0.0000000000     0.0000000273
atom     19.0892217665     3.8150985930    -0.0000000000   Al  0.0 0.0      -0.0000003891     0.0000000273     0.0000000000
atom     15.2663791212    -0.0000000000     7.6315525136   Al  0.0 0.0       0.0000000000     0.0000000000     0.0000000193
atom     15.2663791212     3.8154628187    11.4493289877   Al  0.0 0.0       0.0000000000     0.0000009379    -0.0000003548
atom     19.0874818721    -0.0000000000    11.4452763704   Al  0.0 0.0      -0.0000005303     0.0000000000     0.0000005303
atom     19.0862358296     3.8155090556     7.6312549994   Al  0.0 0.0      -0.0000004375    -0.0000002033     0.0000004477
atom     15.2663791212    -0.0000000000    15.2663791212   Al  0.0 0.0       0.0000000000     0.0000000000     0.0000000000
atom     15.2663791212     3.8154628187    19.0834292548   Al  0.0 0.0       0.0000000000     0.0000009379     0.0000003548
atom     19.0874818721    -0.0000000000    19.0874818721   Al  0.0 0.0      -0.0000005303     0.0000000000    -0.0000005303
atom     19.0834292548     3.8154628187    15.2663791212   Al  0.0 0.0       0.0000003548     0.0000009379     0.0000000000
atom     15.2663791212    -0.0000000000    22.9012057289   Al  0.0 0.0       0.0000000000     0.0000000000    -0.0000000193
atom     15.2663791212     3.8152609368    26.7174973057   Al  0.0 0.0       0.0000000000    -0.0000005739     0.0000005739
atom     19.0892217665    -0.0000000000    26.7176596495   Al  0.0 0.0      -0.0000003891     0.0000000000    -0.0000000273
atom     19.0862358296     3.8155090556    22.9015032431   Al  0.0 0.0      -0.0000004375    -0.0000002033    -0.0000004477
atom     15.2663791212     7.6315525136    -0.0000000000   Al  0.0 0.0       0.0000000000     0.0000000193     0.0000000000
atom     15.2663791212    11.4493289877     3.8154628187   Al  0.0 0.0       0.0000000000    -0.0000003548     0.0000009379
atom     19.0862358296     7.6312549994     3.8155090556   Al  0.0 0.0      -0.0000004375     0.0000004477    -0.0000002033
atom     19.0874818721    11.4452763704    -0.0000000000   Al  0.0 0.0      -0.0000005303     0.0000005303     0.0000000000
atom     15.2663791212     7.6341151906     7.6341151906   Al  0.0 0.0       0.0000000000    -0.0000004403    -0.0000004403
atom     15.2663791212    11.4509575152    11.4509575152   Al  0.0 0.0       0.0000000000     0.0000001426     0.0000001426
atom     19.0813036461     7.6340692907    11.4514545964   Al  0.0 0.0       0.0000007123    -0.0000004875    -0.0000007123
atom     19.0813036461    11.4514545964     7.6340692907   Al  0.0 0.0       0.0000007123    -0.0000007123    -0.0000004875
atom     15.2663791212     7.6329591156    15.2663791212   Al  0.0 0.0       0.0000000000     0.0000015691     0.0000000000
atom     15.2663791212    11.4509575152    19.0818007273   Al  0.0 0.0       0.0000000000     0.0000001426    -0.0000001426
atom     19.0813036461     7.6340692907    19.0813036461   Al  0.0 0.0       0.0000007123    -0.0000004875     0.0000007123
atom     19.0818007273    11.4509575152    15.2663791212   Al  0.0 0.0      -0.0000001426     0.0000001426     0.0000000000
atom     15.2663791212     7.6341151906    22.8986430518   Al  0.0 0.0       0.0000000000    -0.0000004403     0.0000004403
atom     15.2663791212    11.4493289877    26.7172954239   Al  0.0 0.0       0.0000000000    -0.0000003548    -0.0000009379
atom     19.0862358296     7.6312549994    26.7172491869   Al  0.0 0.0      -0.0000004375     0.0000004477     0.0000002033
atom     19.0813036461    11.4514545964    22.8986889518   Al  0.0 0.0       0.0000007123    -0.0000007123     0.0000004875
atom     15.2663791212    15.2663791212    -0.0000000000   Al  0.0 0.0       0.0000000000     0.0000000000     0.0000000000
atom     15.2663791212    19.0834292548     3.8154628187   Al  0.0 0.0       0.0000000000     0.0000003548     0.0000009379
atom     19.0834292548    15.2663791212     3.8154628187   Al  0.0 0.0       0.0000003548     0.0000000000     0.0000009379
atom     19.0874818721    19.0874818721    -0.0000000000   Al  0.0 0.0      -0.0000005303    -0.0000005303     0.0000000000
atom     15.2663791212    15.2663791212     7.6329591156   Al  0.0 0.0       0.0000000000     0.0000000000     0.0000015691
atom     15.2663791212    19.0818007273    11.4509575152   Al  0.0 0.0       0.0000000000    -0.0000001426     0.0000001426
atom     19.0818007273    15.2663791212    11.4509575152   Al  0.0 0.0      -0.0000001426     0.0000000000     0.0000001426
atom     19.0813036461    19.0813036461     7.6340692907   Al  0.0 0.0       0.0000007123     0.0000007123    -0.0000004875
atom     15.2663791212    15.2663791212    15.2663791212   Al  0.0 0.0       0.0000000000     0.0000000000     0.0000000000
atom     15.2663791212    19.0818007273    19.0818007273   Al  0.0 0.0       0.0000000000    -0.0000001426    -0.0000001426
atom     19.0818007273    15.2663791212    19.0818007273   Al  0.0 0.0      -0.0000001426     0.0000000000    -0.0000001426
atom     19.0818007273    19.0818007273    15.2663791212   Al  0.0 0.0      -0.0000001426    -0.0000001426     0.0000000000
atom     15.2663791212    15.2663791212    22.8997991268   Al  0.0 0.0       0.0000000000     0.0000000000    -0.0000015691
atom     15.2663791212    19.0834292548    26.7172954239   Al  0.0 0.0       0.0000000000     0.0000003548    -0.0000009379
atom     19.0834292548    15.2663791212    26.7172954239   Al  0.0 0.0       0.0000003548     0.0000000000    -0.0000009379
atom     19.0813036461    19.0813036461    22.8986889518   Al  0.0 0.0       0.0000007123     0.0000007123     0.0000004875
atom     15.2663791212    22.9012057289    -0.0000000000   Al  0.0 0.0       0.0000000000    -0.0000000193     0.0000000000
atom     15.2663791212    26.7174973057     3.8152609368   Al  0.0 0.0       0.0000000000     0.0000005739    -0.0000005739
atom     19.0862358296    22.9015032431     3.8155090556   Al  0.0 0.0      -0.0000004375    -0.0000004477    -0.0000002033
atom     19.0892217665    26.7176596495    -0.0000000000   Al  0.0 0.0      -0.0000003891    -0.0000000273     0.0000000000
atom     15.2663791212    22.8986430518     7.6341151906   Al  0.0 0.0       0.0000000000     0.0000004403    -0.0000004403
atom     15.2663791212    26.7172954239    11.4493289877   Al  0.0 0.0       0.0000000000    -0.0000009379    -0.0000003548
atom     19.0813036461    22.8986889518    11.4514545964   Al  0.0 0.0       0.0000007123     0.0000004875    -0.0000007123
atom     19.0862358296    26.7172491869     7.6312549994   Al  0.0 0.0      -0.0000004375     0.0000002033     0.0000004477
atom     15.2663791212    22.8997991268    15.2663791212   Al  0.0 0.0       0.0000000000    -0.0000015691     0.0000000000
atom     15.2663791212    26.7172954239    19.0834292548   Al  0.0 0.0       0.0000000000    -0.0000009379     0.0000003548
atom     19.0813036461    22.8986889518    19.0813036461   Al  0.0 0.0       0.0000007123     0.0000004875     0.0000007123
atom     19.0834292548    26.7172954239    15.2663791212   Al  0.0 0.0       0.0000003548    -0.0000009379     0.0000000000
atom     15.2663791212    22.8986430518    22.8986430518   Al  0.0 0.0       0.0000000000     0.0000004403     0.0000004403
atom     15.2663791212    26.7174973057    26.7174973057   Al  0.0 0.0       0.0000000000     0.0000005739     0.0000005739
atom     19.0862358296    22.9015032431    26.7172491869   Al  0.0 0.0      -0.0000004375    -0.0000004477     0.0000002033
atom     19.0862358296    26.7172491869    22.9015032431   Al  0.0 0.0      -0.0000004375     0.0000002033    -0.0000004477
atom     22.9078780684    -0.0000000000    -0.0000000000   Al  0.0 0.0       0.0000013642     0.0000000000     0.0000000000
atom     22.9048303186     3.8157158203     3.8157158203   Al  0.0 0.0       0.0000015173     0.0000003141     0.0000003141
atom     26.7421128411    -0.0000000000     3.7906454014   Al  0.0 0.0       0.0000001932     0.0000000000    -0.0000001932
atom     26.7421128411     3.7906454014    -0.0000000000   Al  0.0 0.0       0.0000001932    -0.0000001932     0.0000000000
atom     22.9103301073    -0.0000000000     7.6224281352   Al  0.0 0.0       0.0000004170     0.0000000000    -0.0000004170
atom     22.9015032431     3.8155090556    11.4465224128   Al  0.0 0.0      -0.0000004477    -0.0000002033     0.0000004375
atom     26.7176596495    -0.0000000000    11.4435364760   Al  0.0 0.0      -0.0000000273     0.0000000000     0.0000003891
atom     26.7170424222     3.8157158203     7.6279279239   Al  0.0 0.0      -0.0000003141     0.0000003141    -0.0000015173
atom     22.9012057289    -0.0000000000    15.2663791212   Al  0.0 0.0      -0.0000000193     0.0000000000     0.0000000000
atom     22.9015032431     3.8155090556    19.0862358296   Al  0.0 0.0      -0.0000004477    -0.0000002033    -0.0000004375
atom     26.7176596495    -0.0000000000    19.0892217665   Al  0.0 0.0      -0.0000000273     0.0000000000    -0.0000003891
atom     26.7174973057     3.8152609368    15.2663791212   Al  0.0 0.0       0.0000005739    -0.0000005739     0.0000000000
atom     22.9103301073    -0.0000000000    22.9103301073   Al  0.0 0.0       0.0000004170     0.0000000000     0.0000004170
atom     22.9048303186     3.8157158203    26.7170424222   Al  0.0 0.0       0.0000015173     0.0000003141    -0.0000003141
atom     26.7421128411    -0.0000000000    26.7421128411   Al  0.0 0.0       0.0000001932     0.0000000000     0.0000001932
atom     26.7170424222     3.8157158203    22.9048303186   Al  0.0 0.0      -0.0000003141     0.0000003141     0.0000015173
atom     22.9103301073     7.6224281352    -0.0000000000   Al  0.0 0.0       0.0000004170    -0.0000004170     0.0000000000
atom     22.9015032431    11.4465224128     3.8155090556   Al  0.0 0.0      -0.0000004477     0.0000004375    -0.0000002033
atom     26.7170424222     7.6279279239     3.8157158203   Al  0.0 0.0      -0.0000003141    -0.0000015173     0.0000003141
atom     26.7176596495    11.4435364760    -0.0000000000   Al  0.0 0.0      -0.0000000273     0.0000003891     0.0000000000
atom     22.8980671214     7.6346911210     7.6346911210   Al  0.0 0.0       0.0000007259    -0.0000007259    -0.0000007259
atom     22.8986889518    11.4514545964    11.4514545964   Al  0.0 0.0       0.0000004875    -0.0000007123    -0.0000007123
atom     26.7172491869     7.6312549994    11.4465224128   Al  0.0 0.0       0.0000002033     0.0000004477     0.0000004375
atom     26.7172491869    11.4465224128     7.6312549994   Al  0.0 0.0       0.0000002033     0.0000004375     0.0000004477
atom     22.8986430518     7.6341151906    15.2663791212   Al  0.0 0.0       0.0000004403    -0.0000004403     0.0000000000
atom     22.8986889518    11.4514545964    19.0813036461   Al  0.0 0.0       0.0000004875    -0.0000007123     0.0000007123
atom     26.7172491869     7.6312549994    19.0862358296   Al  0.0 0.0       0.0000002033     0.0000004477    -0.0000004375
atom     26.7172954239    11.4493289877    15.2663791212   Al  0.0 0.0      -0.0000009379    -0.0000003548     0.0000000000
atom     22.8980671214     7.6346911210    22.8980671214   Al  0.0 0.0       0.0000007259    -0.0000007259     0.0000007259
atom     22.9015032431    11.4465224128    26.7172491869   Al  0.0 0.0      -0.0000004477     0.0000004375     0.0000002033
atom     26.7170424222     7.6279279239    26.7170424222   Al  0.0 0.0      -0.0000003141    -0.0000015173    -0.0000003141
atom     26.7172491869    11.4465224128    22.9015032431   Al  0.0 0.0       0.0000002033     0.0000004375    -0.0000004477
atom     22.9012057289    15.2663791212    -0.0000000000   Al  0.0 0.0      -0.0000000193     0.0000000000     0.0000000000
atom     22.9015032431    19.0862358296     3.8155090556   Al  0.0 0.0      -0.0000004477    -0.0000004375    -0.0000002033
atom     26.7174973057    15.2663791212     3.8152609368   Al  0.0 0.0       0.0000005739     0.0000000000    -0.0000005739
atom     26.7176596495    19.0892217665    -0.0000000000   Al  0.0 0.0      -0.0000000273    -0.0000003891     0.0000000000
atom     22.8986430518    15.2663791212     7.6341151906   Al  0.0 0.0       0.0000004403     0.0000000000    -0.0000004403
atom     22.8986889518    19.0813036461    11.4514545964   Al  0.0 0.0       0.0000004875     0.0000007123    -0.0000007123
atom     26.7172954239    15.2663791212    11.4493289877   Al  0.0 0.0      -0.0000009379     0.0000000000    -0.0000003548
atom     26.7172491869    19.0862358296     7.6312549994   Al  0.0 0.0       0.0000002033    -0.0000004375     0.0000004477
atom     22.8997991268    15.2663791212    15.2663791212   Al  0.0 0.0      -0.0000015691     0.0000000000     0.0000000000
atom     22.8986889518    19.0813036461    19.0813036461   Al  0.0 0.0       0.0000004875     0.0000007123     0.0000007123
atom     26.7172954239    15.2663791212    19.0834292548   Al  0.0 0.0      -0.0000009379     0.0000000000     0.0000003548
atom     26.7172954239    19.0834292548    15.2663791212   Al  0.0 0.0      -0.0000009379     0.0000003548     0.0000000000
atom     22.8986430518    15.2663791212    22.8986430518   Al  0.0 0.0       0.0000004403     0.0000000000     0.0000004403
atom     22.9015032431    19.0862358296    26.7172491869   Al  0.0 0.0      -0.0000004477    -0.0000004375     0.0000002033
atom     26.7174973057    15.2663791212    26.7174973057   Al  0.0 0.0       0.0000005739     0.0000000000     0.0000005739
atom     26.7172491869    19.0862358296    22.9015032431   Al  0.0 0.0       0.0000002033    -0.0000004375    -0.0000004477