
     Program PWSCF v.6.3 starts on 27Feb2020 at  2:59:50 

     This program is part of the open-source Quantum ESPRESSO suite
     for quantum simulation of materials; please cite
         "P. Giannozzi et al., J. Phys.:Condens. Matter 21 395502 (2009);
         "P. Giannozzi et al., J. Phys.:Condens. Matter 29 465901 (2017);
          URL http://www.quantum-espresso.org", 
     in publications or presentations arising from this work. More details at
     http://www.quantum-espresso.org/quote

 *** WARNING: using old-style file format, will disappear from next version ***

     Parallel version (MPI & OpenMP), running on     216 processor cores
     Number of MPI processes:               216
     Threads/MPI process:                     1

     MPI processes distributed on     6 nodes
     K-points division:     npool     =      36
     R & G space division:  proc/nbgrp/npool/nimage =       6
     Reading input from aiida.in
Warning: card &IONS ignored
Warning: card   !PRESS_CONV_THR = 0.05                 ! JUST FOR VOLUME RELAXATIONS ignored
Warning: card / ignored

     Current dimensions of program PWSCF are:
     Max number of different atomic species (ntypx) = 10
     Max number of k-points (npk) =  40000
     Max angular momentum in pseudopotentials (lmaxx) =  3
               file Mg.pbe-n-kjpaw_psl.0.3.0.UPF: wavefunction(s)  3S renormalized
               file Al.pbe-n-kjpaw_psl.1.0.0.UPF: wavefunction(s)  3S 3P renormalized

     Subspace diagonalization in iterative solution of the eigenvalue problem:
     a serial algorithm will be used

 
     Parallelization info
     --------------------
     sticks:   dense  smooth     PW     G-vecs:    dense   smooth      PW
     Min       11588    4638   1264               575426   145618   20753
     Max       11589    4639   1265               575427   145619   20754
     Sum       69529   27833   7589              3452559   873713  124519
 


     bravais-lattice index     =            0
     lattice parameter (alat)  =      27.6424  a.u.
     unit-cell volume          =   25556.7983 (a.u.)^3
     number of atoms/cell      =          220
     number of atomic types    =            3
     number of electrons       =       650.00
     number of Kohn-Sham states=          390
     kinetic-energy cutoff     =      40.0000  Ry
     charge density cutoff     =     400.0000  Ry
     convergence threshold     =      1.0E-12
     mixing beta               =       0.4000
     number of iterations used =            8  local-TF  mixing
     Exchange-correlation      = SLA PW PBX PBC ( 1  4  3  4 0 0)

     celldm(1)=  27.642373  celldm(2)=   0.000000  celldm(3)=   0.000000
     celldm(4)=   0.000000  celldm(5)=   0.000000  celldm(6)=   0.000000

     crystal axes: (cart. coord. in units of alat)
               a(1) = (   0.554700   0.000000   0.832050 )  
               a(2) = (   0.000000   2.859968   0.000000 )  
               a(3) = (  -0.416025   0.000000   0.138675 )  

     reciprocal axes: (cart. coord. in units 2 pi/alat)
               b(1) = (  0.327777  0.000000  0.983332 )  
               b(2) = (  0.000000  0.349654  0.000000 )  
               b(3) = ( -1.966664  0.000000  1.311110 )  


     PseudoPot. # 1 for Mg read from file:
     /users/aglensk/Dropbox/Albert/scripts/dotfiles/scripts/potentials/quantum_espresso/pseudo_SSSPefV1.1_alalloy/Mg.pbe-n-kjpaw_psl.0.3.0.UPF
     MD5 check sum: 24ecedc7f3e3cbe212e682f4413594e4
     Pseudo is Projector augmented-wave + core cor, Zval =  2.0
     Generated using "atomic" code by A. Dal Corso v.5.0.99 svn rev. 10869
     Shape of augmentation charge: PSQ
     Using radial grid of 1129 points,  4 beta functions with: 
                l(1) =   0
                l(2) =   0
                l(3) =   1
                l(4) =   1
     Q(r) pseudized with 0 coefficients 


     PseudoPot. # 2 for Si read from file:
     /users/aglensk/Dropbox/Albert/scripts/dotfiles/scripts/potentials/quantum_espresso/pseudo_SSSPefV1.1_alalloy/Si.pbe-n-rrkjus_psl.1.0.0.UPF
     MD5 check sum: 0b0bb1205258b0d07b9f9672cf965d36
     Pseudo is Ultrasoft + core correction, Zval =  4.0
     Generated using "atomic" code by A. Dal Corso v.5.1
     Using radial grid of 1141 points,  6 beta functions with: 
                l(1) =   0
                l(2) =   0
                l(3) =   1
                l(4) =   1
                l(5) =   2
                l(6) =   2
     Q(r) pseudized with 0 coefficients 


     PseudoPot. # 3 for Al read from file:
     /users/aglensk/Dropbox/Albert/scripts/dotfiles/scripts/potentials/quantum_espresso/pseudo_SSSPefV1.1_alalloy/Al.pbe-n-kjpaw_psl.1.0.0.UPF
     MD5 check sum: cfc449ca30b5f3223ec38ddd88ac046d
     Pseudo is Projector augmented-wave + core cor, Zval =  3.0
     Generated using "atomic" code by A. Dal Corso v.5.1
     Shape of augmentation charge: PSQ
     Using radial grid of 1135 points,  6 beta functions with: 
                l(1) =   0
                l(2) =   0
                l(3) =   1
                l(4) =   1
                l(5) =   2
                l(6) =   2
     Q(r) pseudized with 0 coefficients 


     atomic species   valence    mass     pseudopotential
        Mg             2.00    24.30500     Mg( 1.00)
        Si             4.00    28.08500     Si( 1.00)
        Al             3.00    26.98154     Al( 1.00)

     No symmetry found


                                    s                        frac. trans.

      isym =  1     identity                                     

 cryst.   s( 1) = (     1          0          0      )
                  (     0          1          0      )
                  (     0          0          1      )

 cart.    s( 1) = (  1.0000000  0.0000000 -0.0000000 )
                  (  0.0000000  1.0000000  0.0000000 )
                  (  0.0000000  0.0000000  1.0000000 )


   Cartesian axes

     site n.     atom                  positions (alat units)
         1           Mg  tau(   1) = (  -0.4001447   0.3224741   0.1402562  )
         2           Mg  tau(   2) = (  -0.0999883   0.4471106   0.1170117  )
         3           Mg  tau(   3) = (  -0.2818408   0.4496770   0.2542821  )
         4           Mg  tau(   4) = (   0.1643302   0.3113915   0.3042188  )
         5           Mg  tau(   5) = (  -0.0185968   0.3083913   0.4413339  )
         6           Si  tau(   6) = (  -0.2254001   0.3014887   0.1383175  )
         7           Si  tau(   7) = (   0.0212903   0.3074083   0.1856189  )
         8           Al  tau(   8) = (  -0.1288387   0.2961562   0.2778376  )
         9           Al  tau(   9) = (   0.0091072   0.4514055   0.2843986  )
        10           Si  tau(  10) = (  -0.1394121   0.4521131   0.3709559  )
        11           Si  tau(  11) = (   0.1126269   0.4549783   0.4156968  )
        12           Mg  tau(  12) = (  -0.1293188   0.4559382   0.5560122  )
        13           Mg  tau(  13) = (   0.1717167   0.3099770   0.5278501  )
        14           Mg  tau(  14) = (  -0.0102240   0.3049282   0.6674847  )
        15           Mg  tau(  15) = (   0.4433591   0.4410563   0.7194688  )
        16           Mg  tau(  16) = (   0.2644119   0.4445825   0.8528883  )
        17           Si  tau(  17) = (   0.0444471   0.4511681   0.5594840  )
        18           Si  tau(  18) = (   0.2992702   0.4488471   0.6025490  )
        19           Al  tau(  19) = (   0.1503527   0.4453228   0.6894999  )
        20           Al  tau(  20) = (   0.2840223   0.2935503   0.6920670  )
        21           Si  tau(  21) = (   0.1367926   0.2970177   0.7871659  )
        22           Si  tau(  22) = (   0.3979506   0.2757377   0.8230869  )
        23           Mg  tau(  23) = (  -0.4045153   0.5856753   0.1390246  )
        24           Mg  tau(  24) = (  -0.0966335   0.7380470   0.1104726  )
        25           Mg  tau(  25) = (  -0.2850664   0.7407173   0.2518133  )
        26           Mg  tau(  26) = (   0.1678001   0.5983616   0.3043419  )
        27           Mg  tau(  27) = (  -0.0204827   0.5985199   0.4451314  )
        28           Si  tau(  28) = (  -0.2305635   0.5948333   0.1422689  )
        29           Si  tau(  29) = (   0.0236504   0.5968619   0.1860113  )
        30           Al  tau(  30) = (  -0.1258308   0.5974223   0.2726236  )
        31           Al  tau(  31) = (   0.0084716   0.7424492   0.2844282  )
        32           Si  tau(  32) = (  -0.1410340   0.7432412   0.3709506  )
        33           Si  tau(  33) = (   0.1130845   0.7440332   0.4148595  )
        34           Mg  tau(  34) = (  -0.1285268   0.7421966   0.5565043  )
        35           Mg  tau(  35) = (   0.1788854   0.5977996   0.5296654  )
        36           Mg  tau(  36) = (  -0.0083479   0.5955246   0.6697509  )
        37           Mg  tau(  37) = (   0.4452624   0.7369845   0.7213536  )
        38           Mg  tau(  38) = (   0.2564891   0.7380737   0.8623783  )
        39           Si  tau(  39) = (   0.0459817   0.7416115   0.5593221  )
        40           Si  tau(  40) = (   0.3004241   0.7406481   0.6031217  )
        41           Al  tau(  41) = (   0.1509290   0.7395638   0.6895380  )
        42           Al  tau(  42) = (   0.2858567   0.5941702   0.7006468  )
        43           Si  tau(  43) = (   0.1364099   0.5922329   0.7866712  )
        44           Si  tau(  44) = (   0.3918232   0.5892156   0.8301240  )
        45           Mg  tau(  45) = (  -0.4057520   0.8857775   0.1399709  )
        46           Mg  tau(  46) = (  -0.0981309   1.0308745   0.1122946  )
        47           Mg  tau(  47) = (  -0.2855119   1.0322471   0.2526820  )
        48           Mg  tau(  48) = (   0.1670849   0.8890918   0.3048311  )
        49           Mg  tau(  49) = (  -0.0206017   0.8880794   0.4455196  )
        50           Si  tau(  50) = (  -0.2314174   0.8862636   0.1425752  )
        51           Si  tau(  51) = (   0.0229923   0.8875199   0.1862487  )
        52           Al  tau(  52) = (  -0.1264740   0.8877662   0.2723698  )
        53           Al  tau(  53) = (   0.0080705   1.0331080   0.2850145  )
        54           Si  tau(  54) = (  -0.1413770   1.0336269   0.3710596  )
        55           Si  tau(  55) = (   0.1131454   1.0358016   0.4147110  )
        56           Mg  tau(  56) = (  -0.1285539   1.0331833   0.5560084  )
        57           Mg  tau(  57) = (   0.1792923   0.8880553   0.5282625  )
        58           Mg  tau(  58) = (  -0.0081166   0.8866587   0.6688936  )
        59           Mg  tau(  59) = (   0.4443942   1.0297655   0.7209761  )
        60           Mg  tau(  60) = (   0.2568239   1.0307814   0.8613970  )
        61           Si  tau(  61) = (   0.0457760   1.0326169   0.5586526  )
        62           Si  tau(  62) = (   0.3002252   1.0313462   0.6023549  )
        63           Al  tau(  63) = (   0.1507298   1.0310746   0.6884494  )
        64           Al  tau(  64) = (   0.2854387   0.8857058   0.7011041  )
        65           Si  tau(  65) = (   0.1360320   0.8852537   0.7871664  )
        66           Si  tau(  66) = (   0.3906410   0.8829212   0.8307040  )
        67           Mg  tau(  67) = (  -0.4060243   1.1767578   0.1404043  )
        68           Mg  tau(  68) = (  -0.0987671   1.3210889   0.1137265  )
        69           Mg  tau(  69) = (  -0.2860393   1.3233477   0.2538064  )
        70           Mg  tau(  70) = (   0.1676253   1.1817286   0.3053157  )
        71           Mg  tau(  71) = (  -0.0210742   1.1805836   0.4462370  )
        72           Si  tau(  72) = (  -0.2315366   1.1774394   0.1432210  )
        73           Si  tau(  73) = (   0.0228283   1.1782136   0.1870817  )
        74           Al  tau(  74) = (  -0.1266706   1.1793394   0.2735017  )
        75           Al  tau(  75) = (   0.0081555   1.3246954   0.2847047  )
        76           Si  tau(  76) = (  -0.1412835   1.3265945   0.3707404  )
        77           Si  tau(  77) = (   0.1141268   1.3295732   0.4141102  )
        78           Mg  tau(  78) = (  -0.1275032   1.3327124   0.5551651  )
        79           Mg  tau(  79) = (   0.1803195   1.1806417   0.5266790  )
        80           Mg  tau(  80) = (  -0.0080272   1.1781717   0.6678915  )
        81           Mg  tau(  81) = (   0.4449174   1.3205802   0.7202447  )
        82           Mg  tau(  82) = (   0.2567483   1.3204086   0.8609009  )
        83           Si  tau(  83) = (   0.0464994   1.3240255   0.5583033  )
        84           Si  tau(  84) = (   0.3006677   1.3221261   0.6020836  )
        85           Al  tau(  85) = (   0.1512235   1.3215658   0.6886307  )
        86           Al  tau(  86) = (   0.2856367   1.1764774   0.7004175  )
        87           Si  tau(  87) = (   0.1361269   1.1756835   0.7869084  )
        88           Si  tau(  88) = (   0.3902935   1.1749480   0.8308147  )
        89           Mg  tau(  89) = (  -0.4068186   1.4626350   0.1400926  )
        90           Mg  tau(  90) = (  -0.1054070   1.6088265   0.1119697  )
        91           Mg  tau(  91) = (  -0.2874984   1.6138394   0.2517287  )
        92           Mg  tau(  92) = (   0.1658274   1.4777668   0.3036327  )
        93           Mg  tau(  93) = (  -0.0133914   1.4742284   0.4373030  )
        94           Si  tau(  94) = (  -0.2330569   1.4676298   0.1435354  )
        95           Si  tau(  95) = (   0.0216520   1.4700165   0.1866153  )
        96           Al  tau(  96) = (  -0.1272424   1.4735734   0.2736464  )
        97           Al  tau(  97) = (   0.0067475   1.6251986   0.2764327  )
        98           Si  tau(  98) = (  -0.1405476   1.6218277   0.3714366  )
        99           Si  tau(  99) = (   0.1203533   1.6431070   0.4076613  )
       100           Mg  tau( 100) = (  -0.1230087   1.5965343   0.5563359  )
       101           Mg  tau( 101) = (   0.1771205   1.4718840   0.5329896  )
       102           Mg  tau( 102) = (  -0.0048374   1.4691437   0.6704078  )
       103           Mg  tau( 103) = (   0.4416076   1.6076405   0.7202529  )
       104           Mg  tau( 104) = (   0.2586065   1.6103287   0.8578307  )
       105           Si  tau( 105) = (   0.0517017   1.6174277   0.5548405  )
       106           Si  tau( 106) = (   0.2986751   1.6116913   0.6015559  )
       107           Al  tau( 107) = (   0.1488156   1.6226703   0.6940813  )
       108           Al  tau( 108) = (   0.2862565   1.4677191   0.7004207  )
       109           Si  tau( 109) = (   0.1377745   1.4667862   0.7870920  )
       110           Si  tau( 110) = (   0.3898335   1.4639633   0.8317153  )
       111           Al  tau( 111) = (  -0.2816099   2.0461416   0.1360205  )
       112           Al  tau( 112) = (   0.5504578   1.9076543   0.8289333  )
       113           Al  tau( 113) = (  -0.2814531   1.9082445   0.2744783  )
       114           Al  tau( 114) = (  -0.0041314   2.0445044   0.1366334  )
       115           Al  tau( 115) = (   0.1327358   2.0448753   0.2750675  )
       116           Al  tau( 116) = (  -0.0051829   1.9027197   0.2765335  )
       117           Al  tau( 117) = (   0.1265088   1.9085333   0.4129053  )
       118           Al  tau( 118) = (   0.1338311   2.0430724   0.5528642  )
       119           Al  tau( 119) = (   0.1334576   1.9053399   0.6927016  )
       120           Al  tau( 120) = (   0.2733101   1.9075877   0.8287552  )
       121           Al  tau( 121) = (   0.1336941   2.0450251   0.8299676  )
       122           Al  tau( 122) = (   0.4110669   2.0454845   0.8287421  )
       123           Al  tau( 123) = (  -0.1425518   1.9087778   0.1354072  )
       124           Al  tau( 124) = (  -0.1426265   2.0453815   0.2743594  )
       125           Al  tau( 125) = (  -0.0072266   2.0449193   0.4146170  )
       126           Al  tau( 126) = (  -0.1450386   1.9073883   0.4111275  )
       127           Al  tau( 127) = (  -0.0049178   1.9046420   0.5548936  )
       128           Al  tau( 128) = (   0.2709392   2.0426107   0.4144662  )
       129           Al  tau( 129) = (  -0.0044911   2.0437938   0.6913129  )
       130           Al  tau( 130) = (   0.2751170   1.9056723   0.5563508  )
       131           Al  tau( 131) = (   0.2723737   2.0443913   0.6914207  )
       132           Al  tau( 132) = (   0.4124108   1.9037802   0.6897476  )
       133           Al  tau( 133) = (  -0.2826627   2.3206150   0.1365338  )
       134           Al  tau( 134) = (   0.5495856   2.1827466   0.8299842  )
       135           Al  tau( 135) = (  -0.2824665   2.1829145   0.2752382  )
       136           Al  tau( 136) = (  -0.0052473   2.3207154   0.1366413  )
       137           Al  tau( 137) = (   0.1333995   2.3205939   0.2753837  )
       138           Al  tau( 138) = (  -0.0053337   2.1829040   0.2755136  )
       139           Al  tau( 139) = (   0.1330816   2.1821440   0.4144588  )
       140           Al  tau( 140) = (   0.1333068   2.3200347   0.5525073  )
       141           Al  tau( 141) = (   0.1336322   2.1824319   0.6910341  )
       142           Al  tau( 142) = (   0.2722153   2.1829095   0.8295654  )
       143           Al  tau( 143) = (   0.1332954   2.3205430   0.8298984  )
       144           Al  tau( 144) = (   0.4107089   2.3207252   0.8298961  )
       145           Al  tau( 145) = (  -0.1435740   2.1830210   0.1361823  )
       146           Al  tau( 146) = (  -0.1440276   2.3205498   0.2753284  )
       147           Al  tau( 147) = (  -0.0054492   2.3201532   0.4141288  )
       148           Al  tau( 148) = (  -0.1447481   2.1824872   0.4144602  )
       149           Al  tau( 149) = (  -0.0054413   2.1817287   0.5527882  )
       150           Al  tau( 150) = (   0.2719899   2.3202341   0.4140000  )
       151           Al  tau( 151) = (  -0.0053748   2.3203019   0.6910668  )
       152           Al  tau( 152) = (   0.2722399   2.1820969   0.5524685  )
       153           Al  tau( 153) = (   0.2719381   2.3205046   0.6911529  )
       154           Al  tau( 154) = (   0.4109543   2.1827986   0.6908161  )
       155           Al  tau( 155) = (  -0.2832460   2.5970924   0.1367345  )
       156           Al  tau( 156) = (   0.5491134   2.4586738   0.8300405  )
       157           Al  tau( 157) = (  -0.2828826   2.4585496   0.2750626  )
       158           Al  tau( 158) = (  -0.0055438   2.5967150   0.1363705  )
       159           Al  tau( 159) = (   0.1332427   2.5959917   0.2746863  )
       160           Al  tau( 160) = (  -0.0055012   2.4583038   0.2751813  )
       161           Al  tau( 161) = (   0.1333137   2.4581005   0.4138545  )
       162           Al  tau( 162) = (   0.1335514   2.5958433   0.5521085  )
       163           Al  tau( 163) = (   0.1332842   2.4582678   0.6912041  )
       164           Al  tau( 164) = (   0.2716991   2.4587081   0.8300425  )
       165           Al  tau( 165) = (   0.1322414   2.5963044   0.8304111  )
       166           Al  tau( 166) = (   0.4100195   2.5966538   0.8304101  )
       167           Al  tau( 167) = (  -0.1442437   2.4587990   0.1365365  )
       168           Al  tau( 168) = (  -0.1440763   2.5962984   0.2749651  )
       169           Al  tau( 169) = (  -0.0054331   2.5958870   0.4134782  )
       170           Al  tau( 170) = (  -0.1441330   2.4582864   0.4138825  )
       171           Al  tau( 171) = (  -0.0052948   2.4582286   0.5525214  )
       172           Al  tau( 172) = (   0.2719539   2.5961434   0.4138852  )
       173           Al  tau( 173) = (  -0.0053375   2.5959363   0.6911792  )
       174           Al  tau( 174) = (   0.2720937   2.4581515   0.5525690  )
       175           Al  tau( 175) = (   0.2717658   2.5959046   0.6914263  )
       176           Al  tau( 176) = (   0.4105902   2.4582337   0.6913440  )
       177           Al  tau( 177) = (  -0.2830491   0.0143100   0.1388616  )
       178           Al  tau( 178) = (   0.5476414   2.7362220   0.8303719  )
       179           Al  tau( 179) = (  -0.2824392   2.7349646   0.2751724  )
       180           Al  tau( 180) = (  -0.0029383   0.0130824   0.1402235  )
       181           Al  tau( 181) = (   0.1343772   0.0150716   0.2736041  )
       182           Al  tau( 182) = (  -0.0055831   2.7344319   0.2752725  )
       183           Al  tau( 183) = (   0.1331688   2.7334277   0.4125031  )
       184           Al  tau( 184) = (   0.1343214   0.0100748   0.5512205  )
       185           Al  tau( 185) = (   0.1344103   2.7334827   0.6903335  )
       186           Al  tau( 186) = (   0.2696182   2.7339570   0.8305790  )
       187           Al  tau( 187) = (   0.1318930   0.0115667   0.8271183  )
       188           Al  tau( 188) = (   0.4030968   0.0104253   0.8289350  )
       189           Al  tau( 189) = (  -0.1442354   2.7357370   0.1368121  )
       190           Al  tau( 190) = (  -0.1446529   0.0133803   0.2766484  )
       191           Al  tau( 191) = (  -0.0047137   0.0112771   0.4125776  )
       192           Al  tau( 192) = (  -0.1441988   2.7337214   0.4138427  )
       193           Al  tau( 193) = (  -0.0046574   2.7327786   0.5519580  )
       194           Al  tau( 194) = (   0.2725562   0.0111543   0.4127540  )
       195           Al  tau( 195) = (  -0.0045132   0.0105212   0.6903587  )
       196           Al  tau( 196) = (   0.2728363   2.7343144   0.5525250  )
       197           Al  tau( 197) = (   0.2716918   0.0162248   0.6924644  )
       198           Al  tau( 198) = (   0.4096314   2.7339645   0.6910697  )
       199           Al  tau( 199) = (   0.5374791   0.1363595   0.8312127  )
       200           Al  tau( 200) = (  -0.2875968   0.1677768   0.2690092  )
       201           Al  tau( 201) = (  -0.0007095   0.1534903   0.2786320  )
       202           Al  tau( 202) = (   0.1361759   0.1482821   0.4146660  )
       203           Al  tau( 203) = (   0.1347819   0.1514827   0.6826363  )
       204           Al  tau( 204) = (   0.2585522   0.1583333   0.8383641  )
       205           Al  tau( 205) = (  -0.1419069   0.1444697   0.1399557  )
       206           Al  tau( 206) = (  -0.1431611   0.1509892   0.4090070  )
       207           Al  tau( 207) = (  -0.0049440   0.1451898   0.5507432  )
       208           Al  tau( 208) = (   0.2770258   0.1488431   0.5529645  )
       209           Al  tau( 209) = (   0.4137201   0.1514033   0.6864030  )
       210           Al  tau( 210) = (  -0.2818150   1.7735721   0.1348770  )
       211           Al  tau( 211) = (   0.0000568   1.7698461   0.1372195  )
       212           Al  tau( 212) = (   0.1369565   1.7672729   0.2705966  )
       213           Al  tau( 213) = (   0.1362170   1.7742135   0.5557625  )
       214           Al  tau( 214) = (   0.1347500   1.7678133   0.8251042  )
       215           Al  tau( 215) = (   0.4141385   1.7705106   0.8308910  )
       216           Al  tau( 216) = (  -0.1421814   1.7672527   0.2668196  )
       217           Al  tau( 217) = (  -0.0181659   1.7611994   0.4220140  )
       218           Al  tau( 218) = (   0.2610933   1.7826114   0.4150095  )
       219           Al  tau( 219) = (  -0.0095440   1.7512240   0.6849837  )
       220           Al  tau( 220) = (   0.2773071   1.7652975   0.6948507  )

   Crystallographic axes

     site n.     atom                  positions (cryst. coord.)
         1           Mg  tau(   1) = (  0.0067600  0.1127545  0.9708415  )
         2           Mg  tau(   2) = (  0.0822875  0.1563342  0.3500587  )
         3           Mg  tau(   3) = (  0.1576628  0.1572315  0.8876779  )
         4           Mg  tau(   4) = (  0.3530119  0.1088794  0.0756817  )
         5           Mg  tau(   5) = (  0.4278823  0.1078303  0.6152107  )
         6           Si  tau(   6) = (  0.0621311  0.1054168  0.6246357  )
         7           Si  tau(   7) = (  0.1895036  0.1074866  0.2014959  )
         8           Al  tau(   8) = (  0.2309763  0.1035523  0.6176579  )
         9           Al  tau(   9) = (  0.2826434  0.1578359  0.3549669  )
        10           Si  tau(  10) = (  0.3190767  0.1580833  0.7605406  )
        11           Si  tau(  11) = (  0.4456847  0.1590851  0.3235247  )
        12           Mg  tau(  12) = (  0.5043569  0.1594207  0.9833196  )
        13           Mg  tau(  13) = (  0.5753369  0.1083848  0.3543603  )
        14           Mg  tau(  14) = (  0.6530080  0.1066194  0.8952529  )
        15           Mg  tau(  15) = (  0.8527999  0.1542172  0.0713639  )
        16           Mg  tau(  16) = (  0.9253407  0.1554502  0.5982205  )
        17           Si  tau(  17) = (  0.5647273  0.1577529  0.6461323  )
        18           Si  tau(  18) = (  0.6905998  0.1569413  0.2014437  )
        19           Al  tau(  19) = (  0.7272896  0.1557090  0.6083167  )
        20           Al  tau(  20) = (  0.7736278  0.1026411  0.3487991  )
        21           Si  tau(  21) = (  0.8188831  0.1038535  0.7630357  )
        22           Si  tau(  22) = (  0.9398070  0.0964129  0.2965219  )
        23           Mg  tau(  23) = (  0.0041164  0.2047839  0.9778224  )
        24           Mg  tau(  24) = (  0.0769570  0.2580613  0.3348873  )
        25           Mg  tau(  25) = (  0.1541778  0.2589950  0.8907849  )
        26           Mg  tau(  26) = (  0.3542702  0.2092197  0.0690191  )
        27           Mg  tau(  27) = (  0.4309983  0.2092751  0.6238986  )
        28           Si  tau(  28) = (  0.0643241  0.2079860  0.6399711  )
        29           Si  tau(  29) = (  0.1906630  0.2086953  0.1973689  )
        30           Al  tau(  30) = (  0.2268350  0.2088913  0.6049063  )
        31           Al  tau(  31) = (  0.2824642  0.2596006  0.3562558  )
        32           Si  tau(  32) = (  0.3185399  0.2598775  0.7637233  )
        33           Si  tau(  33) = (  0.4450113  0.2601544  0.3215269  )
        34           Mg  tau(  34) = (  0.5051004  0.2595122  0.9824072  )
        35           Mg  tau(  35) = (  0.5794717  0.2090232  0.3426418  )
        36           Mg  tau(  36) = (  0.6558514  0.2082277  0.8945343  )
        37           Mg  tau(  37) = (  0.8552772  0.2576898  0.0700920  )
        38           Mg  tau(  38) = (  0.9320757  0.2580706  0.6262445  )
        39           Si  tau(  39) = (  0.5650712  0.2593076  0.6429021  )
        40           Si  tau(  40) = (  0.6915412  0.2589708  0.1999254  )
        41           Al  tau(  41) = (  0.7275160  0.2585917  0.6072330  )
        42           Al  tau(  42) = (  0.7826659  0.2077542  0.3564405  )
        43           Si  tau(  43) = (  0.8182712  0.2070768  0.7631398  )
        44           Si  tau(  44) = (  0.9447184  0.2060218  0.3177989  )
        45           Mg  tau(  45) = (  0.0046416  0.3097159  0.9814951  )
        46           Mg  tau(  46) = (  0.0782578  0.3604497  0.3402211  )
        47           Mg  tau(  47) = (  0.1548860  0.3609296  0.8927999  )
        48           Mg  tau(  48) = (  0.3545169  0.3108748  0.0710670  )
        49           Mg  tau(  49) = (  0.4313410  0.3105208  0.6246416  )
        50           Si  tau(  50) = (  0.0643454  0.3098859  0.6420521  )
        51           Si  tau(  51) = (  0.1906807  0.3103251  0.1989743  )
        52           Al  tau(  52) = (  0.2263747  0.3104113  0.6058385  )
        53           Al  tau(  53) = (  0.2829093  0.3612307  0.3578133  )
        54           Si  tau(  54) = (  0.3185347  0.3614121  0.7645410  )
        55           Si  tau(  55) = (  0.4448852  0.3621725  0.3212126  )
        56           Mg  tau(  56) = (  0.5046039  0.3612570  0.9818104  )
        57           Mg  tau(  57) = (  0.5782255  0.3105123  0.3400023  )
        58           Mg  tau(  58) = (  0.6550842  0.3100240  0.8929554  )
        59           Mg  tau(  59) = (  0.8546214  0.3600619  0.0713046  )
        60           Mg  tau(  60) = (  0.9312204  0.3604171  0.6242994  )
        61           Si  tau(  61) = (  0.5643455  0.3610589  0.6424287  )
        62           Si  tau(  62) = (  0.6907220  0.3606146  0.1993110  )
        63           Al  tau(  63) = (  0.7263803  0.3605197  0.6061977  )
        64           Al  tau(  64) = (  0.7829786  0.3096908  0.3578623  )
        65           Si  tau(  65) = (  0.8186342  0.3095328  0.7645321  )
        66           Si  tau(  66) = (  0.9449013  0.3087172  0.3208842  )
        67           Mg  tau(  67) = (  0.0049785  0.4114584  0.9825988  )
        68           Mg  tau(  68) = (  0.0794573  0.4619244  0.3433497  )
        69           Mg  tau(  69) = (  0.1558188  0.4627142  0.8953112  )
        70           Mg  tau(  70) = (  0.3551705  0.4131965  0.0706395  )
        71           Mg  tau(  71) = (  0.4318916  0.4127961  0.6265115  )
        72           Si  tau(  72) = (  0.0649413  0.4116967  0.6431332  )
        73           Si  tau(  73) = (  0.1914461  0.4119674  0.2003890  )
        74           Al  tau(  74) = (  0.2274232  0.4123611  0.6077092  )
        75           Al  tau(  75) = (  0.2826325  0.4631854  0.3572399  )
        76           Si  tau(  76) = (  0.3182514  0.4638495  0.7639385  )
        77           Si  tau(  77) = (  0.4446161  0.4648910  0.3184948  )
        78           Mg  tau(  78) = (  0.5041191  0.4659886  0.9786383  )
        79           Mg  tau(  79) = (  0.5770051  0.4128164  0.3359059  )
        80           Mg  tau(  80) = (  0.6541281  0.4119528  0.8914658  )
        81           Mg  tau(  81) = (  0.8540736  0.4617465  0.0693166  )
        82           Mg  tau(  82) = (  0.9307078  0.4616865  0.6237976  )
        83           Si  tau(  83) = (  0.5642390  0.4629512  0.6405479  )
        84           Si  tau(  84) = (  0.6906002  0.4622871  0.1980851  )
        85           Al  tau(  85) = (  0.7267204  0.4620911  0.6054644  )
        86           Al  tau(  86) = (  0.7823683  0.4113604  0.3565726  )
        87           Si  tau(  87) = (  0.8184117  0.4110828  0.7640073  )
        88           Si  tau(  88) = (  0.9448962  0.4108256  0.3217128  )
        89           Mg  tau(  89) = (  0.0044116  0.5114166  0.9837524  )
        90           Mg  tau(  90) = (  0.0755534  0.5625331  0.3541047  )
        91           Mg  tau(  91) = (  0.1532975  0.5642859  0.8954566  )
        92           Mg  tau(  92) = (  0.3529263  0.5167075  0.0719690  )
        93           Mg  tau(  93) = (  0.4256247  0.5154703  0.5996885  )
        94           Si  tau(  94) = (  0.0647522  0.5131631  0.6465353  )
        95           Si  tau(  95) = (  0.1906019  0.5139976  0.2020910  )
        96           Al  tau(  96) = (  0.2273782  0.5152413  0.6090234  )
        97           Al  tau(  97) = (  0.2740368  0.5682577  0.3491635  )
        98           Si  tau(  98) = (  0.3191772  0.5670790  0.7634041  )
        99           Si  tau(  99) = (  0.4403156  0.5745194  0.2977940  )
       100           Mg  tau( 100) = (  0.5067435  0.5582351  0.9713340  )
       101           Mg  tau( 101) = (  0.5821619  0.5146506  0.3504713  )
       102           Mg  tau( 102) = (  0.6576480  0.5136924  0.8884915  )
       103           Mg  tau( 103) = (  0.8529969  0.5621184  0.0758366  )
       104           Mg  tau( 104) = (  0.9282979  0.5630584  0.6161179  )
       105           Si  tau( 105) = (  0.5625392  0.5655405  0.6257768  )
       106           Si  tau( 106) = (  0.6894282  0.5635348  0.2013120  )
       107           Al  tau( 107) = (  0.7312909  0.5673736  0.6173463  )
       108           Al  tau( 108) = (  0.7825746  0.5131943  0.3553578  )
       109           Si  tau( 109) = (  0.8191322  0.5128681  0.7610075  )
       110           Si  tau( 110) = (  0.9456310  0.5118811  0.3237982  )
       111           Al  tau( 111) = (  0.0414479  0.7154422  0.7321698  )
       112           Al  tau( 112) = (  0.9955444  0.6670195  0.0042566  )
       113           Al  tau( 113) = (  0.1776494  0.6672259  0.9133949  )
       114           Al  tau( 114) = (  0.1330018  0.7148697  0.1872664  )
       115           Al  tau( 115) = (  0.3139905  0.7149994  0.0995969  )
       116           Al  tau( 116) = (  0.2702254  0.6652941  0.3727587  )
       117           Al  tau( 117) = (  0.4474898  0.6673269  0.2925636  )
       118           Al  tau( 118) = (  0.5875159  0.7143690  0.4616647  )
       119           Al  tau( 119) = (  0.7249002  0.6662103  0.6457413  )
       120           Al  tau( 120) = (  0.9045265  0.6669962  0.5490797  )
       121           Al  tau( 121) = (  0.8599558  0.7150518  0.8252472  )
       122           Al  tau( 122) = (  0.9496672  0.7152124  0.2781410  )
       123           Al  tau( 123) = (  0.0864250  0.6674124  0.4578852  )
       124           Al  tau( 124) = (  0.2230367  0.7151764  0.6402137  )
       125           Al  tau( 125) = (  0.4053375  0.7150148  0.5578206  )
       126           Al  tau( 126) = (  0.3567346  0.6669265  0.8242754  )
       127           Al  tau( 127) = (  0.5440328  0.6659662  0.7371980  )
       128           Al  tau( 128) = (  0.4963657  0.7142076  0.0105641  )
       129           Al  tau( 129) = (  0.6783182  0.7146213  0.9152194  )
       130           Al  tau( 130) = (  0.6372548  0.6663265  0.1883741  )
       131           Al  tau( 131) = (  0.7691742  0.7148302  0.3708607  )
       132           Al  tau( 132) = (  0.8134299  0.6656649  0.0932610  )
       133           Al  tau( 133) = (  0.0416076  0.8114130  0.7349135  )
       134           Al  tau( 134) = (  0.9962919  0.7632067  0.0073500  )
       135           Al  tau( 135) = (  0.1780644  0.7632654  0.9163841  )
       136           Al  tau( 136) = (  0.1326439  0.8114481  0.1894715  )
       137           Al  tau( 137) = (  0.3145190  0.8114056  0.0987061  )
       138           Al  tau( 138) = (  0.2691731  0.7632618  0.3717181  )
       139           Al  tau( 139) = (  0.4511718  0.7629960  0.2816741  )
       140           Al  tau( 140) = (  0.5869932  0.8112101  0.4622280  )
       141           Al  tau( 141) = (  0.7233176  0.7630967  0.6432118  )
       142           Al  tau( 142) = (  0.9049644  0.7632637  0.5522949  )
       143           Al  tau( 143) = (  0.8597571  0.8113878  0.8259405  )
       144           Al  tau( 144) = (  0.9506846  0.8114515  0.2803582  )
       145           Al  tau( 145) = (  0.0868522  0.7633027  0.4609119  )
       146           Al  tau( 146) = (  0.2235303  0.8113902  0.6442397  )
       147           Al  tau( 147) = (  0.4054401  0.8112515  0.5536849  )
       148           Al  tau( 148) = (  0.3601069  0.7631160  0.8280736  )
       149           Al  tau( 149) = (  0.5417909  0.7628508  0.7354670  )
       150           Al  tau( 150) = (  0.4962516  0.8112798  0.0078866  )
       151           Al  tau( 151) = (  0.6777865  0.8113035  0.9166346  )
       152           Al  tau( 152) = (  0.6324941  0.7629796  0.1889421  )
       153           Al  tau( 153) = (  0.7687681  0.8113744  0.3713662  )
       154           Al  tau( 154) = (  0.8140033  0.7632249  0.0975264  )
       155           Al  tau( 155) = (  0.0416139  0.9080845  0.7363237  )
       156           Al  tau( 156) = (  0.9961925  0.8596858  0.0083525  )
       157           Al  tau( 157) = (  0.1777554  0.8596424  0.9169724  )
       158           Al  tau( 158) = (  0.1322804  0.9079526  0.1896994  )
       159           Al  tau( 159) = (  0.3137818  0.9076996  0.0981003  )
       160           Al  tau( 160) = (  0.2687914  0.8595565  0.3716117  )
       161           Al  tau( 161) = (  0.4506537  0.8594854  0.2804252  )
       162           Al  tau( 162) = (  0.5866812  0.9076477  0.4612239  )
       163           Al  tau( 163) = (  0.7233708  0.8595439  0.6441191  )
       164           Al  tau( 164) = (  0.9052643  0.8596979  0.5539357  )
       165           Al  tau( 165) = (  0.8599157  0.9078090  0.8286856  )
       166           Al  tau( 166) = (  0.9509641  0.9079312  0.2823879  )
       167           Al  tau( 167) = (  0.0869809  0.8597296  0.4626933  )
       168           Al  tau( 168) = (  0.2231571  0.9078069  0.6438591  )
       169           Al  tau( 169) = (  0.4048056  0.9076631  0.5528003  )
       170           Al  tau( 170) = (  0.3597404  0.8595504  0.8261065  )
       171           Al  tau( 171) = (  0.5415766  0.8595302  0.7348291  )
       172           Al  tau( 172) = (  0.4961270  0.9077527  0.0078068  )
       173           Al  tau( 173) = (  0.6779092  0.9076803  0.9167088  )
       174           Al  tau( 174) = (  0.6325451  0.8595032  0.1893615  )
       175           Al  tau( 175) = (  0.7689804  0.9076692  0.3720635  )
       176           Al  tau( 176) = (  0.8144030  0.8595320  0.0989347  )
       177           Al  tau( 177) = (  0.0437700  0.0050036  0.7387253  )
       178           Al  tau( 178) = (  0.9960358  0.9567318  0.0116818  )
       179           Al  tau( 179) = (  0.1780088  0.9562921  0.9162442  )
       180           Al  tau( 180) = (  0.1369232  0.0045743  0.1896271  )
       181           Al  tau( 181) = (  0.3130895  0.0052698  0.0944501  )
       182           Al  tau( 182) = (  0.2688543  0.9561058  0.3718924  )
       183           Al  tau( 183) = (  0.4492773  0.9557547  0.2789385  )
       184           Al  tau( 184) = (  0.5860603  0.0035227  0.4585454  )
       185           Al  tau( 185) = (  0.7228838  0.9557740  0.6407630  )
       186           Al  tau( 186) = (  0.9051098  0.9559398  0.5587315  )
       187           Al  tau( 187) = (  0.8565636  0.0040443  0.8250534  )
       188           Al  tau( 188) = (  0.9472444  0.0036452  0.2940685  )
       189           Al  tau( 189) = (  0.0872547  0.9565622  0.4630382  )
       190           Al  tau( 190) = (  0.2246233  0.0046785  0.6471999  )
       191           Al  tau( 191) = (  0.4041558  0.0039431  0.5502047  )
       192           Al  tau( 192) = (  0.3596797  0.9558574  0.8261837  )
       193           Al  tau( 193) = (  0.5412315  0.9555278  0.7328370  )
       194           Al  tau( 194) = (  0.4952120  0.0039001  0.0051393  )
       195           Al  tau( 195) = (  0.6773726  0.0036788  0.9140119  )
       196           Al  tau( 196) = (  0.6327452  0.9560648  0.1878435  )
       197           Al  tau( 197) = (  0.7699769  0.0056731  0.3735701  )
       198           Al  tau( 198) = (  0.8138190  0.9559424  0.1004606  )
       199           Al  tau( 199) = (  0.9935317  0.0476787  0.0327699  )
       200           Al  tau( 200) = (  0.1702577  0.0586639  0.9183068  )
       201           Al  tau( 201) = (  0.2737552  0.0536685  0.3667124  )
       202           Al  tau( 202) = (  0.4523898  0.0518475  0.2758602  )
       203           Al  tau( 203) = (  0.7154368  0.0529666  0.6299402  )
       204           Al  tau( 204) = (  0.9091380  0.0553619  0.5907019  )
       205           Al  tau( 205) = (  0.0911091  0.0505144  0.4625805  )
       206           Al  tau( 206) = (  0.3552648  0.0527940  0.8178028  )
       207           Al  tau( 207) = (  0.5399430  0.0507662  0.7318079  )
       208           Al  tau( 208) = (  0.6345506  0.0520436  0.1801803  )
       209           Al  tau( 209) = (  0.8105702  0.0529388  0.0863010  )
       210           Al  tau( 210) = (  0.0402563  0.6201371  0.7310740  )
       211           Al  tau( 211) = (  0.1349510  0.6188343  0.1797980  )
       212           Al  tau( 212) = (  0.3109776  0.6179346  0.0854344  )
       213           Al  tau( 213) = (  0.5911480  0.6203614  0.4607725  )
       214           Al  tau( 214) = (  0.8555195  0.6181235  0.8167940  )
       215           Al  tau( 215) = (  0.9527871  0.6190666  0.2749178  )
       216           Al  tau( 216) = (  0.2157685  0.6179275  0.6294528  )
       217           Al  tau( 217) = (  0.4090255  0.6158109  0.5890328  )
       218           Al  tau( 218) = (  0.4936727  0.6232977  0.0306400  )
       219           Al  tau( 219) = (  0.6704382  0.6123230  0.9168584  )
       220           Al  tau( 220) = (  0.7741640  0.6172439  0.3656553  )

     number of k points=    80  Methfessel-Paxton smearing, width (Ry)=  0.0441
                       cart. coord. in units 2pi/alat
        k(    1) = (   0.0000000   0.0000000   0.0000000), wk =   0.0128205
        k(    2) = (  -0.1512819   0.0000000   0.1008546), wk =   0.0256410
        k(    3) = (  -0.3025637   0.0000000   0.2017092), wk =   0.0256410
        k(    4) = (  -0.4538456   0.0000000   0.3025637), wk =   0.0256410
        k(    5) = (  -0.6051275   0.0000000   0.4034183), wk =   0.0256410
        k(    6) = (  -0.7564093   0.0000000   0.5042729), wk =   0.0256410
        k(    7) = (  -0.9076912   0.0000000   0.6051275), wk =   0.0256410
        k(    8) = (   0.0000000  -0.1748271   0.0000000), wk =   0.0128205
        k(    9) = (  -0.1512819  -0.1748271   0.1008546), wk =   0.0256410
        k(   10) = (  -0.3025637  -0.1748271   0.2017092), wk =   0.0256410
        k(   11) = (  -0.4538456  -0.1748271   0.3025637), wk =   0.0256410
        k(   12) = (  -0.6051275  -0.1748271   0.4034183), wk =   0.0256410
        k(   13) = (  -0.7564093  -0.1748271   0.5042729), wk =   0.0256410
        k(   14) = (  -0.9076912  -0.1748271   0.6051275), wk =   0.0256410
        k(   15) = (   0.0546296   0.0000000   0.1638887), wk =   0.0256410
        k(   16) = (  -0.0966523   0.0000000   0.2647433), wk =   0.0256410
        k(   17) = (  -0.2479342   0.0000000   0.3655979), wk =   0.0256410
        k(   18) = (  -0.3992160   0.0000000   0.4664524), wk =   0.0256410
        k(   19) = (  -0.5504979   0.0000000   0.5673070), wk =   0.0256410
        k(   20) = (  -0.7017798   0.0000000   0.6681616), wk =   0.0256410
        k(   21) = (  -0.8530616   0.0000000   0.7690162), wk =   0.0256410
        k(   22) = (   0.9623207   0.0000000  -0.4412388), wk =   0.0256410
        k(   23) = (   0.8110389   0.0000000  -0.3403842), wk =   0.0256410
        k(   24) = (   0.6597570   0.0000000  -0.2395296), wk =   0.0256410
        k(   25) = (   0.5084751   0.0000000  -0.1386750), wk =   0.0256410
        k(   26) = (   0.3571933   0.0000000  -0.0378205), wk =   0.0256410
        k(   27) = (   0.2059114   0.0000000   0.0630341), wk =   0.0256410
        k(   28) = (   0.0546296  -0.1748271   0.1638887), wk =   0.0256410
        k(   29) = (  -0.0966523  -0.1748271   0.2647433), wk =   0.0256410
        k(   30) = (  -0.2479342  -0.1748271   0.3655979), wk =   0.0256410
        k(   31) = (  -0.3992160  -0.1748271   0.4664524), wk =   0.0256410
        k(   32) = (  -0.5504979  -0.1748271   0.5673070), wk =   0.0256410
        k(   33) = (  -0.7017798  -0.1748271   0.6681616), wk =   0.0256410
        k(   34) = (  -0.8530616  -0.1748271   0.7690162), wk =   0.0256410
        k(   35) = (   0.9623207  -0.1748271  -0.4412388), wk =   0.0256410
        k(   36) = (   0.8110389  -0.1748271  -0.3403842), wk =   0.0256410
        k(   37) = (   0.6597570  -0.1748271  -0.2395296), wk =   0.0256410
        k(   38) = (   0.5084751  -0.1748271  -0.1386750), wk =   0.0256410
        k(   39) = (   0.3571933  -0.1748271  -0.0378205), wk =   0.0256410
        k(   40) = (   0.2059114  -0.1748271   0.0630341), wk =   0.0256410
        k(   41) = (   0.1092591   0.0000000   0.3277774), wk =   0.0256410
        k(   42) = (  -0.0420227   0.0000000   0.4286320), wk =   0.0256410
        k(   43) = (  -0.1933046   0.0000000   0.5294866), wk =   0.0256410
        k(   44) = (  -0.3445865   0.0000000   0.6303411), wk =   0.0256410
        k(   45) = (  -0.4958683   0.0000000   0.7311957), wk =   0.0256410
        k(   46) = (  -0.6471502   0.0000000   0.8320503), wk =   0.0256410
        k(   47) = (  -0.7984321   0.0000000   0.9329049), wk =   0.0256410
        k(   48) = (   1.0169503   0.0000000  -0.2773501), wk =   0.0256410
        k(   49) = (   0.8656684   0.0000000  -0.1764955), wk =   0.0256410
        k(   50) = (   0.7143866   0.0000000  -0.0756409), wk =   0.0256410
        k(   51) = (   0.5631047   0.0000000   0.0252137), wk =   0.0256410
        k(   52) = (   0.4118228   0.0000000   0.1260682), wk =   0.0256410
        k(   53) = (   0.2605410   0.0000000   0.2269228), wk =   0.0256410
        k(   54) = (   0.1092591  -0.1748271   0.3277774), wk =   0.0256410
        k(   55) = (  -0.0420227  -0.1748271   0.4286320), wk =   0.0256410
        k(   56) = (  -0.1933046  -0.1748271   0.5294866), wk =   0.0256410
        k(   57) = (  -0.3445865  -0.1748271   0.6303411), wk =   0.0256410
        k(   58) = (  -0.4958683  -0.1748271   0.7311957), wk =   0.0256410
        k(   59) = (  -0.6471502  -0.1748271   0.8320503), wk =   0.0256410
        k(   60) = (  -0.7984321  -0.1748271   0.9329049), wk =   0.0256410
        k(   61) = (   1.0169503  -0.1748271  -0.2773501), wk =   0.0256410
        k(   62) = (   0.8656684  -0.1748271  -0.1764955), wk =   0.0256410
        k(   63) = (   0.7143866  -0.1748271  -0.0756409), wk =   0.0256410
        k(   64) = (   0.5631047  -0.1748271   0.0252137), wk =   0.0256410
        k(   65) = (   0.4118228  -0.1748271   0.1260682), wk =   0.0256410
        k(   66) = (   0.2605410  -0.1748271   0.2269228), wk =   0.0256410
        k(   67) = (  -0.1638887   0.0000000  -0.4916661), wk =   0.0128205
        k(   68) = (  -0.3151705   0.0000000  -0.3908115), wk =   0.0256410
        k(   69) = (  -0.4664524   0.0000000  -0.2899569), wk =   0.0256410
        k(   70) = (  -0.6177343   0.0000000  -0.1891024), wk =   0.0256410
        k(   71) = (  -0.7690161   0.0000000  -0.0882478), wk =   0.0256410
        k(   72) = (  -0.9202980   0.0000000   0.0126068), wk =   0.0256410
        k(   73) = (  -1.0715799   0.0000000   0.1134614), wk =   0.0256410
        k(   74) = (  -0.1638887  -0.1748271  -0.4916661), wk =   0.0128205
        k(   75) = (  -0.3151705  -0.1748271  -0.3908115), wk =   0.0256410
        k(   76) = (  -0.4664524  -0.1748271  -0.2899569), wk =   0.0256410
        k(   77) = (  -0.6177343  -0.1748271  -0.1891024), wk =   0.0256410
        k(   78) = (  -0.7690161  -0.1748271  -0.0882478), wk =   0.0256410
        k(   79) = (  -0.9202980  -0.1748271   0.0126068), wk =   0.0256410
        k(   80) = (  -1.0715799  -0.1748271   0.1134614), wk =   0.0256410

                       cryst. coord.
        k(    1) = (   0.0000000   0.0000000   0.0000000), wk =   0.0128205
        k(    2) = (   0.0000000   0.0000000   0.0769231), wk =   0.0256410
        k(    3) = (   0.0000000   0.0000000   0.1538462), wk =   0.0256410
        k(    4) = (   0.0000000   0.0000000   0.2307692), wk =   0.0256410
        k(    5) = (   0.0000000   0.0000000   0.3076923), wk =   0.0256410
        k(    6) = (  -0.0000000   0.0000000   0.3846154), wk =   0.0256410
        k(    7) = (   0.0000000   0.0000000   0.4615385), wk =   0.0256410
        k(    8) = (   0.0000000  -0.5000000   0.0000000), wk =   0.0128205
        k(    9) = (   0.0000000  -0.5000000   0.0769231), wk =   0.0256410
        k(   10) = (   0.0000000  -0.5000000   0.1538462), wk =   0.0256410
        k(   11) = (   0.0000000  -0.5000000   0.2307692), wk =   0.0256410
        k(   12) = (   0.0000000  -0.5000000   0.3076923), wk =   0.0256410
        k(   13) = (  -0.0000000  -0.5000000   0.3846154), wk =   0.0256410
        k(   14) = (   0.0000000  -0.5000000   0.4615385), wk =   0.0256410
        k(   15) = (   0.1666667   0.0000000   0.0000000), wk =   0.0256410
        k(   16) = (   0.1666667   0.0000000   0.0769231), wk =   0.0256410
        k(   17) = (   0.1666667   0.0000000   0.1538462), wk =   0.0256410
        k(   18) = (   0.1666667   0.0000000   0.2307692), wk =   0.0256410
        k(   19) = (   0.1666667   0.0000000   0.3076923), wk =   0.0256410
        k(   20) = (   0.1666667   0.0000000   0.3846154), wk =   0.0256410
        k(   21) = (   0.1666667   0.0000000   0.4615385), wk =   0.0256410
        k(   22) = (   0.1666667   0.0000000  -0.4615385), wk =   0.0256410
        k(   23) = (   0.1666667   0.0000000  -0.3846154), wk =   0.0256410
        k(   24) = (   0.1666667   0.0000000  -0.3076923), wk =   0.0256410
        k(   25) = (   0.1666667   0.0000000  -0.2307692), wk =   0.0256410
        k(   26) = (   0.1666667   0.0000000  -0.1538462), wk =   0.0256410
        k(   27) = (   0.1666667   0.0000000  -0.0769231), wk =   0.0256410
        k(   28) = (   0.1666667  -0.5000000   0.0000000), wk =   0.0256410
        k(   29) = (   0.1666667  -0.5000000   0.0769231), wk =   0.0256410
        k(   30) = (   0.1666667  -0.5000000   0.1538462), wk =   0.0256410
        k(   31) = (   0.1666667  -0.5000000   0.2307692), wk =   0.0256410
        k(   32) = (   0.1666667  -0.5000000   0.3076923), wk =   0.0256410
        k(   33) = (   0.1666667  -0.5000000   0.3846154), wk =   0.0256410
        k(   34) = (   0.1666667  -0.5000000   0.4615385), wk =   0.0256410
        k(   35) = (   0.1666667  -0.5000000  -0.4615385), wk =   0.0256410
        k(   36) = (   0.1666667  -0.5000000  -0.3846154), wk =   0.0256410
        k(   37) = (   0.1666667  -0.5000000  -0.3076923), wk =   0.0256410
        k(   38) = (   0.1666667  -0.5000000  -0.2307692), wk =   0.0256410
        k(   39) = (   0.1666667  -0.5000000  -0.1538462), wk =   0.0256410
        k(   40) = (   0.1666667  -0.5000000  -0.0769231), wk =   0.0256410
        k(   41) = (   0.3333333   0.0000000   0.0000000), wk =   0.0256410
        k(   42) = (   0.3333333   0.0000000   0.0769231), wk =   0.0256410
        k(   43) = (   0.3333333   0.0000000   0.1538462), wk =   0.0256410
        k(   44) = (   0.3333333   0.0000000   0.2307692), wk =   0.0256410
        k(   45) = (   0.3333333   0.0000000   0.3076923), wk =   0.0256410
        k(   46) = (   0.3333333   0.0000000   0.3846154), wk =   0.0256410
        k(   47) = (   0.3333333   0.0000000   0.4615385), wk =   0.0256410
        k(   48) = (   0.3333333   0.0000000  -0.4615385), wk =   0.0256410
        k(   49) = (   0.3333333   0.0000000  -0.3846154), wk =   0.0256410
        k(   50) = (   0.3333333   0.0000000  -0.3076923), wk =   0.0256410
        k(   51) = (   0.3333333   0.0000000  -0.2307692), wk =   0.0256410
        k(   52) = (   0.3333333   0.0000000  -0.1538462), wk =   0.0256410
        k(   53) = (   0.3333333   0.0000000  -0.0769231), wk =   0.0256410
        k(   54) = (   0.3333333  -0.5000000   0.0000000), wk =   0.0256410
        k(   55) = (   0.3333333  -0.5000000   0.0769231), wk =   0.0256410
        k(   56) = (   0.3333333  -0.5000000   0.1538462), wk =   0.0256410
        k(   57) = (   0.3333333  -0.5000000   0.2307692), wk =   0.0256410
        k(   58) = (   0.3333333  -0.5000000   0.3076923), wk =   0.0256410
        k(   59) = (   0.3333333  -0.5000000   0.3846154), wk =   0.0256410
        k(   60) = (   0.3333333  -0.5000000   0.4615385), wk =   0.0256410
        k(   61) = (   0.3333333  -0.5000000  -0.4615385), wk =   0.0256410
        k(   62) = (   0.3333333  -0.5000000  -0.3846154), wk =   0.0256410
        k(   63) = (   0.3333333  -0.5000000  -0.3076923), wk =   0.0256410
        k(   64) = (   0.3333333  -0.5000000  -0.2307692), wk =   0.0256410
        k(   65) = (   0.3333333  -0.5000000  -0.1538462), wk =   0.0256410
        k(   66) = (   0.3333333  -0.5000000  -0.0769231), wk =   0.0256410
        k(   67) = (  -0.5000000   0.0000000   0.0000000), wk =   0.0128205
        k(   68) = (  -0.5000000   0.0000000   0.0769231), wk =   0.0256410
        k(   69) = (  -0.5000000   0.0000000   0.1538462), wk =   0.0256410
        k(   70) = (  -0.5000000   0.0000000   0.2307692), wk =   0.0256410
        k(   71) = (  -0.5000000   0.0000000   0.3076923), wk =   0.0256410
        k(   72) = (  -0.5000000   0.0000000   0.3846154), wk =   0.0256410
        k(   73) = (  -0.5000000   0.0000000   0.4615385), wk =   0.0256410
        k(   74) = (  -0.5000000  -0.5000000   0.0000000), wk =   0.0128205
        k(   75) = (  -0.5000000  -0.5000000   0.0769231), wk =   0.0256410
        k(   76) = (  -0.5000000  -0.5000000   0.1538462), wk =   0.0256410
        k(   77) = (  -0.5000000  -0.5000000   0.2307692), wk =   0.0256410
        k(   78) = (  -0.5000000  -0.5000000   0.3076923), wk =   0.0256410
        k(   79) = (  -0.5000000  -0.5000000   0.3846154), wk =   0.0256410
        k(   80) = (  -0.5000000  -0.5000000   0.4615385), wk =   0.0256410

     Dense  grid:  3452559 G-vectors     FFT dimensions: ( 180, 512,  80)

     Smooth grid:   873713 G-vectors     FFT dimensions: ( 120, 320,  50)

     Dynamical RAM for                 wfc:     108.28 MB

     Dynamical RAM for     wfc (w. buffer):     433.13 MB

     Dynamical RAM for           str. fact:      26.34 MB

     Dynamical RAM for           local pot:       0.00 MB

     Dynamical RAM for          nlocal pot:     960.67 MB

     Dynamical RAM for                qrad:      21.15 MB

     Dynamical RAM for          rho,v,vnew:      55.87 MB

     Dynamical RAM for               rhoin:      18.62 MB

     Dynamical RAM for            rho*nmix:     140.49 MB

     Dynamical RAM for           G-vectors:      34.04 MB

     Dynamical RAM for          h,s,v(r/c):     111.40 MB

     Dynamical RAM for          <psi|beta>:      20.59 MB

     Dynamical RAM for                 psi:     433.13 MB

     Dynamical RAM for                hpsi:     433.13 MB

     Dynamical RAM for                spsi:     433.13 MB

     Dynamical RAM for      wfcinit/wfcrot:     506.39 MB

     Dynamical RAM for           addusdens:      85.61 MB

     Dynamical RAM for          addusforce:     211.10 MB

     Dynamical RAM for         addusstress:      53.29 MB

     Estimated static dynamical RAM per process >       1.73 GB

     Estimated max dynamical RAM per process >       3.13 GB

     Estimated total dynamical RAM >     676.27 GB

     Initial potential from superposition of free atoms

     starting charge  649.63371, renormalised to  650.00000
     Starting wfcs are  880 randomized atomic wfcs
     Checking if some PAW data can be deallocated... 
       PAW data deallocated on  168 nodes for type:  1
       PAW data deallocated on   86 nodes for type:  3

     total cpu time spent up to now is      289.1 secs

     Self-consistent Calculation

     iteration #  1     ecut=    40.00 Ry     beta= 0.40
     Davidson diagonalization with overlap
     ethr =  1.00E-02,  avg # of iterations =  3.0

     total cpu time spent up to now is      692.3 secs

     total energy              =   -7273.25878418 Ry
     Harris-Foulkes estimate   =   -7274.54710852 Ry
     estimated scf accuracy    <     140.43027662 Ry

     iteration #  2     ecut=    40.00 Ry     beta= 0.40
     Davidson diagonalization with overlap
     ethr =  1.00E-02,  avg # of iterations =  1.0

     total cpu time spent up to now is      991.5 secs

     total energy              =   -7271.86361701 Ry
     Harris-Foulkes estimate   =   -7273.73928350 Ry
     estimated scf accuracy    <      67.84996203 Ry

     iteration #  3     ecut=    40.00 Ry     beta= 0.40
     Davidson diagonalization with overlap
     ethr =  1.00E-02,  avg # of iterations =  1.0

     total cpu time spent up to now is     1291.3 secs

     total energy              =   -7272.75904117 Ry
     Harris-Foulkes estimate   =   -7272.79196048 Ry
     estimated scf accuracy    <       0.26868390 Ry

     iteration #  4     ecut=    40.00 Ry     beta= 0.40
     Davidson diagonalization with overlap
     ethr =  4.13E-05,  avg # of iterations = 12.3

     total cpu time spent up to now is     1971.8 secs

     total energy              =   -7272.89692514 Ry
     Harris-Foulkes estimate   =   -7272.92491070 Ry
     estimated scf accuracy    <       0.22564646 Ry

     iteration #  5     ecut=    40.00 Ry     beta= 0.40
     Davidson diagonalization with overlap
     ethr =  3.47E-05,  avg # of iterations =  7.4

     total cpu time spent up to now is     2325.4 secs

     total energy              =   -7272.89489978 Ry
     Harris-Foulkes estimate   =   -7272.90557327 Ry
     estimated scf accuracy    <       0.12243329 Ry

     iteration #  6     ecut=    40.00 Ry     beta= 0.40
     Davidson diagonalization with overlap
     c_bands:  1 eigenvalues not converged
     ethr =  1.88E-05,  avg # of iterations = 11.6

     total cpu time spent up to now is     2724.9 secs

     total energy              =   -7272.89773555 Ry
     Harris-Foulkes estimate   =   -7272.90100550 Ry
     estimated scf accuracy    <       0.02871962 Ry

     iteration #  7     ecut=    40.00 Ry     beta= 0.40
     Davidson diagonalization with overlap
     ethr =  4.42E-06,  avg # of iterations = 15.1

     total cpu time spent up to now is     3164.6 secs

     total energy              =   -7272.89835116 Ry
     Harris-Foulkes estimate   =   -7272.89887235 Ry
     estimated scf accuracy    <       0.00783503 Ry

     iteration #  8     ecut=    40.00 Ry     beta= 0.40
     Davidson diagonalization with overlap
     ethr =  1.21E-06,  avg # of iterations =  5.2

     total cpu time spent up to now is     3496.5 secs

     total energy              =   -7272.89859068 Ry
     Harris-Foulkes estimate   =   -7272.89872379 Ry
     estimated scf accuracy    <       0.00171311 Ry

     iteration #  9     ecut=    40.00 Ry     beta= 0.40
     Davidson diagonalization with overlap
     ethr =  2.64E-07,  avg # of iterations =  5.7

     total cpu time spent up to now is     3978.4 secs

     total energy              =   -7272.89922004 Ry
     Harris-Foulkes estimate   =   -7272.89923453 Ry
     estimated scf accuracy    <       0.00010674 Ry

     iteration # 10     ecut=    40.00 Ry     beta= 0.40
     Davidson diagonalization with overlap
     ethr =  1.64E-08,  avg # of iterations =  3.7

     total cpu time spent up to now is     4394.7 secs

     total energy              =   -7272.89924550 Ry
     Harris-Foulkes estimate   =   -7272.89925361 Ry
     estimated scf accuracy    <       0.00040847 Ry

     iteration # 11     ecut=    40.00 Ry     beta= 0.40
     Davidson diagonalization with overlap
     ethr =  1.64E-08,  avg # of iterations =  1.0

     total cpu time spent up to now is     4695.3 secs

     total energy              =   -7272.89921295 Ry
     Harris-Foulkes estimate   =   -7272.89924703 Ry
     estimated scf accuracy    <       0.00024118 Ry

     iteration # 12     ecut=    40.00 Ry     beta= 0.40
     Davidson diagonalization with overlap
     ethr =  1.64E-08,  avg # of iterations =  3.0

     total cpu time spent up to now is     5074.2 secs

     total energy              =   -7272.89922963 Ry
     Harris-Foulkes estimate   =   -7272.89924295 Ry
     estimated scf accuracy    <       0.00012416 Ry

     iteration # 13     ecut=    40.00 Ry     beta= 0.40
     Davidson diagonalization with overlap
     ethr =  1.64E-08,  avg # of iterations =  1.0

     total cpu time spent up to now is     5374.4 secs

     total energy              =   -7272.89923258 Ry
     Harris-Foulkes estimate   =   -7272.89923356 Ry
     estimated scf accuracy    <       0.00001996 Ry

     iteration # 14     ecut=    40.00 Ry     beta= 0.40
     Davidson diagonalization with overlap
     ethr =  3.07E-09,  avg # of iterations =  3.5

     total cpu time spent up to now is     5704.2 secs

     total energy              =   -7272.89923341 Ry
     Harris-Foulkes estimate   =   -7272.89923336 Ry
     estimated scf accuracy    <       0.00000671 Ry

     iteration # 15     ecut=    40.00 Ry     beta= 0.40
     Davidson diagonalization with overlap
     ethr =  1.03E-09,  avg # of iterations =  4.1

     total cpu time spent up to now is     6031.7 secs

     total energy              =   -7272.89923365 Ry
     Harris-Foulkes estimate   =   -7272.89923368 Ry
     estimated scf accuracy    <       0.00000481 Ry

     iteration # 16     ecut=    40.00 Ry     beta= 0.40
     Davidson diagonalization with overlap
     ethr =  7.40E-10,  avg # of iterations =  2.0

     total cpu time spent up to now is     6342.0 secs

     total energy              =   -7272.89923333 Ry
     Harris-Foulkes estimate   =   -7272.89923373 Ry
     estimated scf accuracy    <       0.00000345 Ry

     iteration # 17     ecut=    40.00 Ry     beta= 0.40
     Davidson diagonalization with overlap
     ethr =  5.30E-10,  avg # of iterations =  4.1

     total cpu time spent up to now is     6701.4 secs

     total energy              =   -7272.89923364 Ry
     Harris-Foulkes estimate   =   -7272.89923364 Ry
     estimated scf accuracy    <       0.00000003 Ry

     iteration # 18     ecut=    40.00 Ry     beta= 0.40
     Davidson diagonalization with overlap
     ethr =  3.85E-12,  avg # of iterations =  8.3

     total cpu time spent up to now is     7498.3 secs

     total energy              =   -7272.89923360 Ry
     Harris-Foulkes estimate   =   -7272.89923360 Ry
     estimated scf accuracy    <       0.00000009 Ry

     iteration # 19     ecut=    40.00 Ry     beta= 0.40
     Davidson diagonalization with overlap
     ethr =  3.85E-12,  avg # of iterations =  1.0

     total cpu time spent up to now is     7797.8 secs

     total energy              =   -7272.89923358 Ry
     Harris-Foulkes estimate   =   -7272.89923358 Ry
     estimated scf accuracy    <       0.00000007 Ry

     iteration # 20     ecut=    40.00 Ry     beta= 0.40
     Davidson diagonalization with overlap
     ethr =  3.85E-12,  avg # of iterations =  1.0

     total cpu time spent up to now is     8096.7 secs

     total energy              =   -7272.89923358 Ry
     Harris-Foulkes estimate   =   -7272.89923357 Ry
     estimated scf accuracy    <       0.00000006 Ry

     iteration # 21     ecut=    40.00 Ry     beta= 0.40
     Davidson diagonalization with overlap
     ethr =  3.85E-12,  avg # of iterations =  1.1

     total cpu time spent up to now is     8398.7 secs

     total energy              =   -7272.89923357 Ry
     Harris-Foulkes estimate   =   -7272.89923357 Ry
     estimated scf accuracy    <       0.00000007 Ry

     iteration # 22     ecut=    40.00 Ry     beta= 0.40
     Davidson diagonalization with overlap
     ethr =  3.85E-12,  avg # of iterations =  1.3

     total cpu time spent up to now is     8699.9 secs

     total energy              =   -7272.89923357 Ry
     Harris-Foulkes estimate   =   -7272.89923357 Ry
     estimated scf accuracy    <       0.00000010 Ry

     iteration # 23     ecut=    40.00 Ry     beta= 0.40
     Davidson diagonalization with overlap
     ethr =  3.85E-12,  avg # of iterations =  1.0

     total cpu time spent up to now is     9000.2 secs

     total energy              =   -7272.89923356 Ry
     Harris-Foulkes estimate   =   -7272.89923356 Ry
     estimated scf accuracy    <       0.00000012 Ry

     iteration # 24     ecut=    40.00 Ry     beta= 0.40
     Davidson diagonalization with overlap
     ethr =  3.85E-12,  avg # of iterations =  1.0

     total cpu time spent up to now is     9300.2 secs

     total energy              =   -7272.89923356 Ry
     Harris-Foulkes estimate   =   -7272.89923356 Ry
     estimated scf accuracy    <       0.00000012 Ry

     iteration # 25     ecut=    40.00 Ry     beta= 0.40
     Davidson diagonalization with overlap
     ethr =  3.85E-12,  avg # of iterations =  1.0

     total cpu time spent up to now is     9599.9 secs

     total energy              =   -7272.89923356 Ry
     Harris-Foulkes estimate   =   -7272.89923356 Ry
     estimated scf accuracy    <       0.00000012 Ry

     iteration # 26     ecut=    40.00 Ry     beta= 0.40
     Davidson diagonalization with overlap
     ethr =  3.85E-12,  avg # of iterations =  1.0

     total cpu time spent up to now is     9899.9 secs

     total energy              =   -7272.89923354 Ry
     Harris-Foulkes estimate   =   -7272.89923356 Ry
     estimated scf accuracy    <       0.00000014 Ry

     iteration # 27     ecut=    40.00 Ry     beta= 0.40
     Davidson diagonalization with overlap
     ethr =  3.85E-12,  avg # of iterations =  2.9

     total cpu time spent up to now is    10254.4 secs

     total energy              =   -7272.89923353 Ry
     Harris-Foulkes estimate   =   -7272.89923353 Ry
     estimated scf accuracy    <       0.00000003 Ry

     iteration # 28     ecut=    40.00 Ry     beta= 0.40
     Davidson diagonalization with overlap
     ethr =  3.85E-12,  avg # of iterations =  1.0

     total cpu time spent up to now is    10552.9 secs

     total energy              =   -7272.89923352 Ry
     Harris-Foulkes estimate   =   -7272.89923352 Ry
     estimated scf accuracy    <       0.00000001 Ry

     iteration # 29     ecut=    40.00 Ry     beta= 0.40
     Davidson diagonalization with overlap
     ethr =  1.67E-12,  avg # of iterations =  3.2

     total cpu time spent up to now is    10925.7 secs

     total energy              =   -7272.89923351 Ry
     Harris-Foulkes estimate   =   -7272.89923351 Ry
     estimated scf accuracy    <          2.1E-09 Ry

     iteration # 30     ecut=    40.00 Ry     beta= 0.40
     Davidson diagonalization with overlap
     ethr =  3.26E-13,  avg # of iterations =  4.1

     total cpu time spent up to now is    11267.9 secs

     total energy              =   -7272.89923350 Ry
     Harris-Foulkes estimate   =   -7272.89923350 Ry
     estimated scf accuracy    <          5.3E-10 Ry

     iteration # 31     ecut=    40.00 Ry     beta= 0.40
     Davidson diagonalization with overlap
     ethr =  1.00E-13,  avg # of iterations =  5.1

     total cpu time spent up to now is    11631.1 secs

     total energy              =   -7272.89923350 Ry
     Harris-Foulkes estimate   =   -7272.89923350 Ry
     estimated scf accuracy    <          8.9E-11 Ry

     iteration # 32     ecut=    40.00 Ry     beta= 0.40
     Davidson diagonalization with overlap
     ethr =  1.00E-13,  avg # of iterations =  2.6

     total cpu time spent up to now is    11955.1 secs

     total energy              =   -7272.89923349 Ry
     Harris-Foulkes estimate   =   -7272.89923349 Ry
     estimated scf accuracy    <          2.1E-10 Ry

     iteration # 33     ecut=    40.00 Ry     beta= 0.40
     Davidson diagonalization with overlap
     ethr =  1.00E-13,  avg # of iterations =  1.0

     total cpu time spent up to now is    12253.8 secs

     total energy              =   -7272.89923349 Ry
     Harris-Foulkes estimate   =   -7272.89923349 Ry
     estimated scf accuracy    <          6.2E-11 Ry

     iteration # 34     ecut=    40.00 Ry     beta= 0.40
     Davidson diagonalization with overlap
     ethr =  1.00E-13,  avg # of iterations =  1.0

     total cpu time spent up to now is    12553.2 secs

     total energy              =   -7272.89923349 Ry
     Harris-Foulkes estimate   =   -7272.89923349 Ry
     estimated scf accuracy    <          1.4E-11 Ry

     iteration # 35     ecut=    40.00 Ry     beta= 0.40
     Davidson diagonalization with overlap
     ethr =  1.00E-13,  avg # of iterations =  1.0

     total cpu time spent up to now is    12852.3 secs

     total energy              =   -7272.89923349 Ry
     Harris-Foulkes estimate   =   -7272.89923349 Ry
     estimated scf accuracy    <          2.6E-12 Ry

     iteration # 36     ecut=    40.00 Ry     beta= 0.40
     Davidson diagonalization with overlap
     ethr =  1.00E-13,  avg # of iterations =  1.0

     total cpu time spent up to now is    13150.9 secs

     End of self-consistent calculation

          k = 0.0000 0.0000 0.0000 (109179 PWs)   bands (ev):

    -3.9957  -3.9167  -3.8635  -3.7067  -3.6650  -3.4262  -3.4011  -3.3729
    -3.2699  -3.2387  -3.1305  -3.1148  -3.1063  -3.0340  -3.0047  -2.9895
    -2.9262  -2.8626  -2.8548  -2.7520  -2.6118  -2.5635  -2.5461  -2.3065
    -2.1029  -2.0494  -2.0325  -1.9797  -1.9033  -1.7279  -1.6755  -1.6224
    -1.5055  -1.4635  -1.3475  -1.2539  -1.2004  -1.1483  -1.1042  -1.0956
    -1.0713  -1.0091  -0.9008  -0.8918  -0.8726  -0.8707  -0.8411  -0.7958
    -0.7337  -0.7019  -0.5999  -0.5677  -0.5640  -0.3531  -0.3470  -0.3237
    -0.2351  -0.1531  -0.1448  -0.1418  -0.1003  -0.0065   0.0034   0.0268
     0.0301   0.0998   0.1254   0.1285   0.1704   0.1862   0.2166   0.2531
     0.3057   0.3923   0.3978   0.4011   0.4787   0.5179   0.5664   0.6463
     0.6512   0.7046   0.7634   0.8517   0.8544   0.8957   0.9304   0.9378
     0.9945   1.0548   1.1449   1.1472   1.1480   1.1815   1.2412   1.2876
     1.3055   1.3641   1.3665   1.3804   1.4023   1.4065   1.4557   1.5299
     1.5480   1.5618   1.5755   1.5859   1.6009   1.6349   1.6741   1.6847
     1.6894   1.7047   1.7882   1.7908   1.8107   1.8182   1.8326   1.8496
     1.8714   1.8829   1.9255   1.9406   1.9783   1.9936   2.0289   2.0631
     2.0790   2.1197   2.1302   2.1601   2.1710   2.1899   2.2310   2.2803
     2.2875   2.3175   2.3562   2.3680   2.3844   2.4381   2.4702   2.4865
     2.4893   2.5123   2.5740   2.5857   2.6062   2.6353   2.6507   2.6637
     2.6986   2.7090   2.7198   2.7504   2.7567   2.8073   2.8081   2.9006
     2.9149   2.9358   2.9703   3.0270   3.0333   3.0851   3.0964   3.1093
     3.1488   3.1788   3.2164   3.2316   3.2709   3.2891   3.3060   3.3329
     3.3375   3.4103   3.4292   3.4633   3.4770   3.5366   3.5692   3.6057
     3.6316   3.6490   3.6692   3.7244   3.7602   3.7796   3.8144   3.8234
     3.8293   3.8309   3.8353   3.8623   3.9151   3.9267   3.9458   3.9671
     3.9856   3.9874   4.0565   4.0627   4.0880   4.1009   4.1142   4.1753
     4.1894   4.2014   4.2293   4.2392   4.2443   4.2988   4.3160   4.3464
     4.3760   4.3790   4.3893   4.4336   4.4527   4.4599   4.4681   4.4814
     4.5029   4.5300   4.5328   4.5375   4.5689   4.5755   4.6106   4.6579
     4.6648   4.6962   4.6994   4.7246   4.7532   4.7574   4.7773   4.7817
     4.7948   4.8474   4.8591   4.8888   4.8936   4.9084   4.9161   4.9714
     4.9770   5.0086   5.1011   5.1273   5.1497   5.1682   5.1840   5.2153
     5.2581   5.3015   5.3344   5.3651   5.3762   5.3895   5.4332   5.4591
     5.5013   5.5555   5.5940   5.6228   5.6373   5.6849   5.7053   5.7481
     5.7651   5.8387   5.8589   5.8901   5.9117   5.9342   5.9678   5.9821
     5.9839   6.0417   6.0616   6.1319   6.1326   6.1752   6.1805   6.2029
     6.2618   6.2871   6.2948   6.3166   6.3754   6.3889   6.3948   6.4326
     6.4692   6.5192   6.5383   6.5654   6.5812   6.6017   6.6061   6.6197
     6.6541   6.6803   6.7413   6.7612   6.7866   6.8085   6.8160   6.8466
     6.8571   6.9201   6.9441   6.9443   6.9547   7.0272   7.0322   7.0702
     7.1011   7.1304   7.1633   7.2073   7.2404   7.2455   7.2731   7.3132
     7.3423   7.3510   7.3688   7.4398   7.4888   7.5126   7.5254   7.5346
     7.5646   7.5878   7.6533   7.6548   7.6888   7.7104   7.7830   7.7918
     7.8229   7.8439   7.8488   7.8552   7.8819   7.8980   7.9697   7.9880
     7.9893   8.0600   8.0987   8.1194   8.1518   8.1940   8.1968   8.2161
     8.2291   8.2523   8.2863   8.3035   8.3238   8.3437   8.3781   8.3874
     8.4112   8.4431   8.4499   8.4700   8.4879   8.5032   8.5565   8.5632
     8.5783   8.6359   8.6463   8.6881   8.7061   8.7083   8.7358   8.7551
     8.7881   8.7903   8.8176   8.8254   8.8815   8.9085

     occupation numbers 
     1.0000   1.0000   1.0000   1.0000   1.0000   1.0000   1.0000   1.0000
     1.0000   1.0000   1.0000   1.0000   1.0000   1.0000   1.0000   1.0000
     1.0000   1.0000   1.0000   1.0000   1.0000   1.0000   1.0000   1.0000
     1.0000   1.0000   1.0000   1.0000   1.0000   1.0000   1.0000   1.0000
     1.0000   1.0000   1.0000   1.0000   1.0000   1.0000   1.0000   1.0000
     1.0000   1.0000   1.0000   1.0000   1.0000   1.0000   1.0000   1.0000
     1.0000   1.0000   1.0000   1.0000   1.0000   1.0000   1.0000   1.0000
     1.0000   1.0000   1.0000   1.0000   1.0000   1.0000   1.0000   1.0000
     1.0000   1.0000   1.0000   1.0000   1.0000   1.0000   1.0000   1.0000
     1.0000   1.0000   1.0000   1.0000   1.0000   1.0000   1.0000   1.0000
     1.0000   1.0000   1.0000   1.0000   1.0000   1.0000   1.0000   1.0000
     1.0000   1.0000   1.0000   1.0000   1.0000   1.0000   1.0000   1.0000
     1.0000   1.0000   1.0000   1.0000   1.0000   1.0000   1.0000   1.0000
     1.0000   1.0000   1.0000   1.0000   1.0000   1.0000   1.0000   1.0000
     1.0000   1.0000   1.0000   1.0000   1.0000   1.0000   1.0000   1.0000
     1.0000   1.0000   1.0000   1.0000   1.0000   1.0000   1.0000   1.0000
     1.0000   1.0000   1.0000   1.0000   1.0000   1.0000   1.0000   1.0000
     1.0000   1.0000   1.0000   1.0000   1.0000   1.0000   1.0000   1.0000
     1.0000   1.0000   1.0000   1.0000   1.0000   1.0000   1.0000   1.0000
     1.0000   1.0000   1.0000   1.0000   1.0000   1.0000   1.0000   1.0000
     1.0000   1.0000   1.0000   1.0000   1.0000   1.0000   1.0000   1.0000
     1.0000   1.0000   1.0000   1.0000   1.0000   1.0000   1.0000   1.0000
     1.0000   1.0000   1.0000   1.0000   1.0000   1.0000   1.0000   1.0000
     1.0000   1.0000   1.0000   1.0000   1.0000   1.0000   1.0000   1.0000
     1.0000   1.0000   1.0000   1.0000   1.0000   1.0000   1.0000   1.0000
     1.0000   1.0000   1.0000   1.0000   1.0000   1.0000   1.0000   1.0000
     1.0000   1.0000   1.0000   1.0000   1.0000   1.0000   1.0000   1.0000
     1.0000   1.0000   1.0000   1.0000   1.0000   1.0000   1.0000   1.0000
     1.0000   1.0000   1.0000   1.0000   1.0000   1.0000   1.0000   1.0000
     1.0000   1.0000   1.0000   1.0000   1.0000   1.0000   1.0000   1.0000
     1.0000   1.0000   1.0000   1.0000   1.0000   1.0000   1.0000   1.0000
     1.0000   1.0000   1.0000   1.0000   1.0000   1.0000   1.0000   1.0000
     1.0000   1.0000   1.0000   1.0001   1.0001   1.0001   1.0001   1.0001
     1.0002   1.0003   1.0005   1.0006   1.0007   1.0010   1.0011   1.0015
     1.0017   1.0029   1.0033   1.0040   1.0046   1.0052   1.0064   1.0069
     1.0070   1.0095   1.0105   1.0146   1.0147   1.0176   1.0180   1.0196
     1.0241   1.0260   1.0266   1.0282   1.0322   1.0329   1.0332   1.0348
     1.0354   1.0345   1.0334   1.0311   1.0292   1.0263   1.0256   1.0231
     1.0154   1.0079   0.9845   0.9748   0.9610   0.9478   0.9429   0.9215
     0.9136   0.8594   0.8359   0.8357   0.8250   0.7433   0.7372   0.6896
     0.6490   0.6093   0.5636   0.5018   0.4552   0.4480   0.4096   0.3549
     0.3165   0.3053   0.2828   0.1992   0.1486   0.1263   0.1150   0.1070
     0.0830   0.0662   0.0266   0.0258   0.0099   0.0012  -0.0201  -0.0220
    -0.0274  -0.0302  -0.0308  -0.0314  -0.0336  -0.0345  -0.0352  -0.0347
    -0.0346  -0.0311  -0.0284  -0.0268  -0.0244  -0.0211  -0.0209  -0.0195
    -0.0185  -0.0169  -0.0146  -0.0135  -0.0123  -0.0112  -0.0094  -0.0089
    -0.0079  -0.0066  -0.0064  -0.0057  -0.0051  -0.0046  -0.0033  -0.0032
    -0.0029  -0.0020  -0.0018  -0.0013  -0.0012  -0.0012  -0.0009  -0.0008
    -0.0006  -0.0006  -0.0005  -0.0005  -0.0003  -0.0002

          k =-0.1513 0.0000 0.1009 (109157 PWs)   bands (ev):

    -3.9780  -3.8985  -3.8430  -3.6874  -3.6469  -3.4249  -3.3796  -3.3633
    -3.2575  -3.2142  -3.1512  -3.0887  -3.0648  -3.0354  -3.0035  -2.9341
    -2.9050  -2.8497  -2.8330  -2.7404  -2.5758  -2.5741  -2.4958  -2.2907
    -2.0772  -2.0720  -2.0146  -1.9551  -1.9166  -1.7281  -1.6806  -1.6423
    -1.4873  -1.4349  -1.3508  -1.2594  -1.2336  -1.2219  -1.1179  -1.1051
    -1.0973  -1.0863  -0.9781  -0.9185  -0.9156  -0.8729  -0.8245  -0.7993
    -0.7529  -0.7112  -0.6735  -0.6530  -0.6241  -0.5292  -0.4911  -0.4328
    -0.4224  -0.3881  -0.3012  -0.2360  -0.1955  -0.1639  -0.0647  -0.0628
     0.0334   0.0376   0.1149   0.1469   0.1827   0.1958   0.3207   0.3406
     0.3726   0.4011   0.4623   0.4745   0.5952   0.6074   0.6194   0.6450
     0.7245   0.7336   0.7848   0.8314   0.8591   0.8640   0.9167   0.9573
     0.9826   1.0059   1.0140   1.0755   1.0903   1.1821   1.1877   1.2420
     1.2639   1.2983   1.3512   1.3623   1.4255   1.4265   1.4418   1.4712
     1.4966   1.5329   1.5626   1.5659   1.6126   1.6345   1.6387   1.6600
     1.7023   1.7277   1.7437   1.7550   1.8166   1.8185   1.8597   1.8717
     1.9191   1.9324   1.9472   1.9846   1.9946   2.0586   2.0624   2.1506
     2.1717   2.2320   2.2390   2.2620   2.2690   2.2885   2.2904   2.3291
     2.3347   2.3747   2.4104   2.4111   2.4417   2.4580   2.4834   2.5287
     2.5359   2.5863   2.5963   2.6076   2.6763   2.6782   2.6885   2.7272
     2.7380   2.7591   2.7926   2.7950   2.8186   2.8509   2.9092   2.9182
     2.9253   2.9583   2.9821   3.0172   3.0646   3.1154   3.1347   3.1427
     3.1689   3.2060   3.2402   3.2468   3.2880   3.2917   3.3291   3.4097
     3.4427   3.4502   3.4610   3.4856   3.4972   3.4979   3.5143   3.5173
     3.5769   3.5806   3.6438   3.6560   3.7250   3.7313   3.7424   3.7623
     3.7806   3.8321   3.8493   3.8603   3.8891   3.8906   3.9623   3.9720
     3.9964   3.9975   4.0337   4.0345   4.0595   4.0633   4.0832   4.1150
     4.1234   4.1453   4.1818   4.1971   4.2017   4.2198   4.2526   4.2648
     4.2815   4.3183   4.3324   4.3488   4.4106   4.4303   4.4350   4.4638
     4.5004   4.5126   4.5754   4.6168   4.6301   4.6354   4.6455   4.6641
     4.7287   4.7391   4.7652   4.7987   4.8138   4.8458   4.8468   4.8712
     4.9163   4.9499   4.9520   4.9859   4.9927   5.0089   5.0490   5.0638
     5.0980   5.1300   5.1564   5.1736   5.1999   5.2105   5.2232   5.2626
     5.2954   5.3254   5.3518   5.3644   5.4002   5.4214   5.4935   5.5292
     5.5613   5.5714   5.6161   5.6412   5.6568   5.7273   5.7453   5.7510
     5.7820   5.8116   5.8532   5.8919   5.9063   5.9551   5.9665   6.0116
     6.0357   6.0432   6.1084   6.1108   6.1345   6.1446   6.1938   6.2401
     6.2547   6.2758   6.3130   6.3153   6.3540   6.3645   6.4074   6.4314
     6.4584   6.4760   6.5036   6.5895   6.6027   6.6261   6.6413   6.7138
     6.7270   6.7359   6.7473   6.7876   6.8069   6.8169   6.8393   6.8507
     6.8818   6.8947   6.9253   6.9286   6.9445   6.9994   7.0098   7.0296
     7.1123   7.1384   7.1419   7.1967   7.2228   7.2279   7.2757   7.3143
     7.3811   7.3879   7.4252   7.4947   7.5153   7.5476   7.5579   7.6051
     7.6418   7.6526   7.6697   7.6802   7.6904   7.7290   7.7586   7.7749
     7.8075   7.8195   7.8533   7.8862   7.9480   7.9819   7.9925   8.0274
     8.0643   8.0972   8.1071   8.1272   8.1402   8.1613   8.1974   8.2403
     8.2425   8.2723   8.2987   8.3017   8.3037   8.3230   8.3460   8.3828
     8.3887   8.3985   8.4178   8.4761   8.4970   8.5493   8.5591   8.5599
     8.5981   8.5995   8.6517   8.6720   8.6835   8.7231   8.7239   8.7428
     8.7745   8.7900   8.8350   8.8550   8.8731   8.8848

     occupation numbers 
     1.0000   1.0000   1.0000   1.0000   1.0000   1.0000   1.0000   1.0000
     1.0000   1.0000   1.0000   1.0000   1.0000   1.0000   1.0000   1.0000
     1.0000   1.0000   1.0000   1.0000   1.0000   1.0000   1.0000   1.0000
     1.0000   1.0000   1.0000   1.0000   1.0000   1.0000   1.0000   1.0000
     1.0000   1.0000   1.0000   1.0000   1.0000   1.0000   1.0000   1.0000
     1.0000   1.0000   1.0000   1.0000   1.0000   1.0000   1.0000   1.0000
     1.0000   1.0000   1.0000   1.0000   1.0000   1.0000   1.0000   1.0000
     1.0000   1.0000   1.0000   1.0000   1.0000   1.0000   1.0000   1.0000
     1.0000   1.0000   1.0000   1.0000   1.0000   1.0000   1.0000   1.0000
     1.0000   1.0000   1.0000   1.0000   1.0000   1.0000   1.0000   1.0000
     1.0000   1.0000   1.0000   1.0000   1.0000   1.0000   1.0000   1.0000
     1.0000   1.0000   1.0000   1.0000   1.0000   1.0000   1.0000   1.0000
     1.0000   1.0000   1.0000   1.0000   1.0000   1.0000   1.0000   1.0000
     1.0000   1.0000   1.0000   1.0000   1.0000   1.0000   1.0000   1.0000
     1.0000   1.0000   1.0000   1.0000   1.0000   1.0000   1.0000   1.0000
     1.0000   1.0000   1.0000   1.0000   1.0000   1.0000   1.0000   1.0000
     1.0000   1.0000   1.0000   1.0000   1.0000   1.0000   1.0000   1.0000
     1.0000   1.0000   1.0000   1.0000   1.0000   1.0000   1.0000   1.0000
     1.0000   1.0000   1.0000   1.0000   1.0000   1.0000   1.0000   1.0000
     1.0000   1.0000   1.0000   1.0000   1.0000   1.0000   1.0000   1.0000
     1.0000   1.0000   1.0000   1.0000   1.0000   1.0000   1.0000   1.0000
     1.0000   1.0000   1.0000   1.0000   1.0000   1.0000   1.0000   1.0000
     1.0000   1.0000   1.0000   1.0000   1.0000   1.0000   1.0000   1.0000
[...]
     atom   37 type  1   force =     0.00000001   -0.00000003    0.00000002
     atom   38 type  1   force =     0.00000000   -0.00000002    0.00000002
     atom   39 type  2   force =    -0.00000002   -0.00000004   -0.00000004
     atom   40 type  2   force =     0.00000000   -0.00000004   -0.00000005
     atom   41 type  3   force =    -0.00000001   -0.00000004   -0.00000000
     atom   42 type  3   force =     0.00000001   -0.00000010    0.00000002
     atom   43 type  2   force =     0.00000001   -0.00000014    0.00000006
     atom   44 type  2   force =     0.00000001   -0.00000013    0.00000002
     atom   45 type  1   force =    -0.00000000   -0.00000000   -0.00000000
     atom   46 type  1   force =    -0.00000000   -0.00000000   -0.00000002
     atom   47 type  1   force =    -0.00000001   -0.00000000   -0.00000002
     atom   48 type  1   force =     0.00000001   -0.00000000    0.00000002
     atom   49 type  1   force =     0.00000000   -0.00000000    0.00000002
     atom   50 type  2   force =    -0.00000002   -0.00000001   -0.00000005
     atom   51 type  2   force =    -0.00000001   -0.00000001   -0.00000007
     atom   52 type  3   force =    -0.00000001   -0.00000001   -0.00000001
     atom   53 type  3   force =     0.00000001    0.00000000    0.00000001
     atom   54 type  2   force =     0.00000001   -0.00000000    0.00000007
     atom   55 type  2   force =     0.00000002    0.00000000    0.00000005
     atom   56 type  1   force =    -0.00000000   -0.00000000   -0.00000000
     atom   57 type  1   force =    -0.00000000   -0.00000000   -0.00000002
     atom   58 type  1   force =    -0.00000001   -0.00000001   -0.00000002
     atom   59 type  1   force =     0.00000001   -0.00000000    0.00000002
     atom   60 type  1   force =     0.00000000   -0.00000000    0.00000002
     atom   61 type  2   force =    -0.00000002   -0.00000000   -0.00000005
     atom   62 type  2   force =    -0.00000001   -0.00000000   -0.00000006
     atom   63 type  3   force =    -0.00000000   -0.00000000   -0.00000001
     atom   64 type  3   force =     0.00000001   -0.00000001    0.00000001
     atom   65 type  2   force =     0.00000001   -0.00000001    0.00000007
     atom   66 type  2   force =     0.00000002   -0.00000001    0.00000005
     atom   67 type  1   force =     0.00000000    0.00000001    0.00000000
     atom   68 type  1   force =     0.00000000    0.00000002   -0.00000000
     atom   69 type  1   force =    -0.00000000    0.00000004    0.00000001
     atom   70 type  1   force =     0.00000001    0.00000002    0.00000002
     atom   71 type  1   force =     0.00000000    0.00000002    0.00000002
     atom   72 type  2   force =    -0.00000002    0.00000002   -0.00000004
     atom   73 type  2   force =    -0.00000000    0.00000003   -0.00000005
     atom   74 type  3   force =    -0.00000000    0.00000003   -0.00000001
     atom   75 type  3   force =     0.00000001    0.00000009    0.00000002
     atom   76 type  2   force =     0.00000000    0.00000013    0.00000006
     atom   77 type  2   force =     0.00000001    0.00000012    0.00000002
     atom   78 type  1   force =    -0.00000000    0.00000005   -0.00000001
     atom   79 type  1   force =    -0.00000000    0.00000001   -0.00000002
     atom   80 type  1   force =    -0.00000001    0.00000001   -0.00000002
     atom   81 type  1   force =     0.00000001    0.00000003    0.00000000
     atom   82 type  1   force =    -0.00000000    0.00000002    0.00000001
     atom   83 type  2   force =    -0.00000002    0.00000012   -0.00000005
     atom   84 type  2   force =    -0.00000001    0.00000010   -0.00000007
     atom   85 type  3   force =    -0.00000001    0.00000007   -0.00000002
     atom   86 type  3   force =     0.00000000    0.00000002    0.00000001
     atom   87 type  2   force =     0.00000001    0.00000002    0.00000006
     atom   88 type  2   force =     0.00000002    0.00000002    0.00000004
     atom   89 type  1   force =     0.00000000    0.00000005    0.00000001
     atom   90 type  1   force =     0.00000000   -0.00000000    0.00000000
     atom   91 type  1   force =    -0.00000000   -0.00000002    0.00000000
     atom   92 type  1   force =    -0.00000000    0.00000002   -0.00000000
     atom   93 type  1   force =    -0.00000000    0.00000001   -0.00000000
     atom   94 type  2   force =     0.00000001    0.00000012    0.00000003
     atom   95 type  2   force =     0.00000001    0.00000011    0.00000003
     atom   96 type  3   force =     0.00000001    0.00000007    0.00000002
     atom   97 type  3   force =    -0.00000001   -0.00000007   -0.00000003
     atom   98 type  2   force =    -0.00000001   -0.00000009   -0.00000003
     atom   99 type  2   force =    -0.00000001   -0.00000012   -0.00000003
     atom  100 type  1   force =    -0.00000000   -0.00000004   -0.00000001
     atom  101 type  1   force =    -0.00000000    0.00000001   -0.00000001
     atom  102 type  1   force =    -0.00000001    0.00000002   -0.00000001
     atom  103 type  1   force =     0.00000000   -0.00000000    0.00000001
     atom  104 type  1   force =     0.00000000    0.00000000    0.00000001
     atom  105 type  2   force =    -0.00000001   -0.00000010   -0.00000000
     atom  106 type  2   force =     0.00000002   -0.00000006    0.00000002
     atom  107 type  3   force =     0.00000001   -0.00000005    0.00000002
     atom  108 type  3   force =    -0.00000000    0.00000007   -0.00000002
     atom  109 type  2   force =    -0.00000001    0.00000010   -0.00000000
     atom  110 type  2   force =     0.00000001    0.00000012    0.00000001
     atom  111 type  3   force =     0.00000000    0.00000011   -0.00000000
     atom  112 type  3   force =    -0.00000000    0.00000004   -0.00000001
     atom  113 type  3   force =    -0.00000000    0.00000008   -0.00000002
     atom  114 type  3   force =     0.00000000    0.00000012    0.00000000
     atom  115 type  3   force =     0.00000002    0.00000014    0.00000002
     atom  116 type  3   force =    -0.00000001    0.00000010   -0.00000001
     atom  117 type  3   force =     0.00000001    0.00000015    0.00000001
     atom  118 type  3   force =     0.00000000    0.00000014   -0.00000000
     atom  119 type  3   force =     0.00000001    0.00000011    0.00000001
     atom  120 type  3   force =     0.00000000    0.00000006    0.00000000
     atom  121 type  3   force =    -0.00000000    0.00000011   -0.00000002
     atom  122 type  3   force =    -0.00000001    0.00000011   -0.00000001
     atom  123 type  3   force =    -0.00000001    0.00000005   -0.00000002
     atom  124 type  3   force =    -0.00000000    0.00000013    0.00000002
     atom  125 type  3   force =     0.00000000    0.00000014    0.00000003
     atom  126 type  3   force =     0.00000000    0.00000013    0.00000001
     atom  127 type  3   force =    -0.00000000    0.00000015    0.00000001
     atom  128 type  3   force =     0.00000001    0.00000014    0.00000001
     atom  129 type  3   force =    -0.00000001    0.00000014   -0.00000002
     atom  130 type  3   force =     0.00000000    0.00000014    0.00000001
     atom  131 type  3   force =    -0.00000001    0.00000012   -0.00000002
     atom  132 type  3   force =     0.00000000    0.00000008    0.00000002
     atom  133 type  3   force =    -0.00000000    0.00000003   -0.00000000
     atom  134 type  3   force =    -0.00000000    0.00000008   -0.00000001
     atom  135 type  3   force =     0.00000001    0.00000007    0.00000001
     atom  136 type  3   force =     0.00000000    0.00000003   -0.00000000
     atom  137 type  3   force =     0.00000000    0.00000002    0.00000001
     atom  138 type  3   force =     0.00000001    0.00000006    0.00000002
     atom  139 type  3   force =     0.00000001    0.00000004    0.00000001
     atom  140 type  3   force =     0.00000000   -0.00000000    0.00000000
     atom  141 type  3   force =    -0.00000001    0.00000005   -0.00000002
     atom  142 type  3   force =    -0.00000000    0.00000007   -0.00000001
     atom  143 type  3   force =    -0.00000000    0.00000002   -0.00000000
     atom  144 type  3   force =    -0.00000000    0.00000003   -0.00000001
     atom  145 type  3   force =    -0.00000000    0.00000007    0.00000000
     atom  146 type  3   force =    -0.00000000    0.00000003    0.00000000
     atom  147 type  3   force =     0.00000000    0.00000001    0.00000001
     atom  148 type  3   force =     0.00000001    0.00000005    0.00000002
     atom  149 type  3   force =    -0.00000000    0.00000004    0.00000000
     atom  150 type  3   force =     0.00000000    0.00000000    0.00000001
     atom  151 type  3   force =    -0.00000000    0.00000000   -0.00000000
     atom  152 type  3   force =    -0.00000000    0.00000004   -0.00000001
     atom  153 type  3   force =    -0.00000000    0.00000001   -0.00000001
     atom  154 type  3   force =    -0.00000001    0.00000006   -0.00000002
     atom  155 type  3   force =    -0.00000000   -0.00000004    0.00000000
     atom  156 type  3   force =     0.00000000    0.00000001    0.00000000
     atom  157 type  3   force =    -0.00000000    0.00000001   -0.00000001
     atom  158 type  3   force =    -0.00000000   -0.00000004   -0.00000001
     atom  159 type  3   force =    -0.00000001   -0.00000005   -0.00000002
     atom  160 type  3   force =    -0.00000000    0.00000000   -0.00000001
     atom  161 type  3   force =     0.00000000   -0.00000002   -0.00000000
     atom  162 type  3   force =     0.00000000   -0.00000006    0.00000000
     atom  163 type  3   force =     0.00000000   -0.00000001    0.00000001
     atom  164 type  3   force =     0.00000000    0.00000000    0.00000001
     atom  165 type  3   force =     0.00000001   -0.00000005    0.00000002
     atom  166 type  3   force =     0.00000001   -0.00000004    0.00000001
     atom  167 type  3   force =    -0.00000000    0.00000001   -0.00000000
     atom  168 type  3   force =    -0.00000001   -0.00000004   -0.00000002
     atom  169 type  3   force =    -0.00000000   -0.00000005   -0.00000002
     atom  170 type  3   force =    -0.00000000   -0.00000001   -0.00000001
     atom  171 type  3   force =    -0.00000000   -0.00000002    0.00000000
     atom  172 type  3   force =    -0.00000000   -0.00000006   -0.00000000
     atom  173 type  3   force =     0.00000000   -0.00000006    0.00000001
     atom  174 type  3   force =     0.00000000   -0.00000002    0.00000000
     atom  175 type  3   force =     0.00000001   -0.00000005    0.00000002
     atom  176 type  3   force =     0.00000000   -0.00000001    0.00000001
     atom  177 type  3   force =    -0.00000000   -0.00000013    0.00000001
     atom  178 type  3   force =     0.00000001   -0.00000014    0.00000001
     atom  179 type  3   force =    -0.00000001   -0.00000013   -0.00000001
     atom  180 type  3   force =     0.00000000   -0.00000012    0.00000002
     atom  181 type  3   force =     0.00000000   -0.00000008    0.00000002
     atom  182 type  3   force =    -0.00000001   -0.00000011   -0.00000002
     atom  183 type  3   force =    -0.00000001   -0.00000010   -0.00000002
     atom  184 type  3   force =    -0.00000001   -0.00000005   -0.00000003
     atom  185 type  3   force =     0.00000000   -0.00000013    0.00000002
     atom  186 type  3   force =     0.00000000   -0.00000014    0.00000002
     atom  187 type  3   force =     0.00000000   -0.00000012    0.00000001
     atom  188 type  3   force =     0.00000001   -0.00000013    0.00000001
     atom  189 type  3   force =     0.00000000   -0.00000014    0.00000000
     atom  190 type  3   force =     0.00000001   -0.00000010    0.00000002
     atom  191 type  3   force =    -0.00000000   -0.00000005    0.00000000
     atom  192 type  3   force =    -0.00000000   -0.00000010   -0.00000002
     atom  193 type  3   force =    -0.00000000   -0.00000010   -0.00000001
     atom  194 type  3   force =    -0.00000000   -0.00000004   -0.00000002
     atom  195 type  3   force =    -0.00000001   -0.00000007   -0.00000003
     atom  196 type  3   force =     0.00000000   -0.00000012    0.00000000
     atom  197 type  3   force =    -0.00000001   -0.00000009   -0.00000001
     atom  198 type  3   force =     0.00000001   -0.00000014    0.00000003
     atom  199 type  3   force =     0.00000000    0.00000001    0.00000000
     atom  200 type  3   force =     0.00000000    0.00000004    0.00000003
     atom  201 type  3   force =     0.00000001    0.00000002    0.00000004
     atom  202 type  3   force =     0.00000000    0.00000002    0.00000001
     atom  203 type  3   force =    -0.00000001    0.00000005   -0.00000003
     atom  204 type  3   force =    -0.00000001    0.00000005   -0.00000001
     atom  205 type  3   force =     0.00000001    0.00000001    0.00000002
     atom  206 type  3   force =     0.00000001    0.00000001    0.00000004
     atom  207 type  3   force =    -0.00000001    0.00000003   -0.00000002
     atom  208 type  3   force =    -0.00000001    0.00000004   -0.00000004
     atom  209 type  3   force =    -0.00000000    0.00000005   -0.00000003
     atom  210 type  3   force =    -0.00000001   -0.00000002   -0.00000002
     atom  211 type  3   force =    -0.00000001   -0.00000004   -0.00000004
     atom  212 type  3   force =    -0.00000001   -0.00000004   -0.00000003
     atom  213 type  3   force =     0.00000001   -0.00000000    0.00000002
     atom  214 type  3   force =     0.00000001   -0.00000001    0.00000004
     atom  215 type  3   force =     0.00000001   -0.00000002    0.00000001
     atom  216 type  3   force =    -0.00000001   -0.00000005   -0.00000004
     atom  217 type  3   force =    -0.00000001   -0.00000004   -0.00000002
     atom  218 type  3   force =     0.00000000    0.00000000   -0.00000000
     atom  219 type  3   force =     0.00000000   -0.00000003    0.00000003
     atom  220 type  3   force =     0.00000002   -0.00000002    0.00000004

     Total force =     0.011548     Total SCF correction =     0.000001


     Computing stress (Cartesian axis) and pressure

          total   stress  (Ry/bohr**3)                   (kbar)     P=   17.87
   0.00022391   0.00000041   0.00001993         32.94      0.06      2.93
   0.00000041  -0.00003237  -0.00000011          0.06     -4.76     -0.02
   0.00001993  -0.00000011   0.00017287          2.93     -0.02     25.43

     kinetic stress (kbar)   1461.32      0.01      5.99
                                0.01   1433.64     -0.02
                                5.99     -0.02   1447.55

     local   stress (kbar)   -308.12     -0.06     42.06
                               -0.06   1029.66      0.05
                               42.06      0.05   -342.61

     nonloc. stress (kbar)   1105.11      0.04      4.60
                                0.04   1087.55     -0.01
                                4.60     -0.01   1102.32

     hartree stress (kbar)    401.53     -0.03    -14.04
                               -0.03   -244.77     -0.04
                              -14.04     -0.04    394.41

     exc-cor stress (kbar)   1020.42      0.00      0.12
                                0.00   1020.13     -0.00
                                0.12     -0.00   1020.59

     corecor stress (kbar)  -1776.27     -0.01     -0.77
                               -0.01  -1773.68      0.00
                               -0.77      0.00  -1775.83

     ewald   stress (kbar)  -1871.05      0.12    -35.03
                                0.12  -2557.29     -0.00
                              -35.03     -0.00  -1821.01

     hubbard stress (kbar)      0.00      0.00      0.00
                                0.00      0.00      0.00
                                0.00      0.00      0.00

     london  stress (kbar)      0.00      0.00      0.00
                                0.00      0.00      0.00
                                0.00      0.00      0.00

     DFT-D3  stress (kbar)      0.00      0.00      0.00
                                0.00      0.00      0.00
                                0.00      0.00      0.00

     XDM     stress (kbar)      0.00      0.00      0.00
                                0.00      0.00      0.00
                                0.00      0.00      0.00

     dft-nl  stress (kbar)      0.00      0.00      0.00
                                0.00      0.00      0.00
                                0.00      0.00      0.00

     TS-vdW  stress (kbar)      0.00      0.00      0.00
                                0.00      0.00      0.00
                                0.00      0.00      0.00



     Writing output data file aiida.save/
 
     init_run     :    283.46s CPU    286.30s WALL (       1 calls)
     electrons    :  12765.86s CPU  12862.18s WALL (       1 calls)
     forces       :    127.67s CPU    128.67s WALL (       1 calls)
     stress       :   1322.63s CPU   1324.88s WALL (       1 calls)

     Called by init_run:
     wfcinit      :    252.66s CPU    255.04s WALL (       1 calls)
     wfcinit:atom :      0.49s CPU      0.96s WALL (       3 calls)
     wfcinit:wfcr :    248.73s CPU    249.83s WALL (       3 calls)
     potinit      :     11.19s CPU     11.40s WALL (       1 calls)
     hinit0       :     17.17s CPU     17.27s WALL (       1 calls)

     Called by electrons:
     c_bands      :  10904.72s CPU  10977.03s WALL (      36 calls)
     sum_band     :   1715.10s CPU   1724.00s WALL (      36 calls)
     v_of_rho     :     66.57s CPU     74.10s WALL (      37 calls)
     v_h          :      6.76s CPU      8.16s WALL (      37 calls)
     v_xc         :     62.68s CPU     68.97s WALL (      39 calls)
     newd         :     14.19s CPU     17.84s WALL (      37 calls)
     PAW_pot      :      7.99s CPU      8.02s WALL (      37 calls)
     mix_rho      :     47.24s CPU     50.93s WALL (      36 calls)

     Called by c_bands:
     init_us_2    :    149.72s CPU    150.25s WALL (     225 calls)
     cegterg      :   9671.80s CPU   9741.26s WALL (     108 calls)

     Called by sum_band:
     sum_band:bec :      2.01s CPU      2.01s WALL (     108 calls)
     addusdens    :      9.42s CPU     13.68s WALL (      36 calls)

     Called by *egterg:
     h_psi        :   6662.99s CPU   6694.52s WALL (     465 calls)
     s_psi        :   1703.92s CPU   1706.66s WALL (     465 calls)
     g_psi        :      8.87s CPU      8.88s WALL (     354 calls)
     cdiaghg      :    334.34s CPU    335.33s WALL (     462 calls)
     cegterg:over :    469.69s CPU    470.75s WALL (     354 calls)
     cegterg:upda :    296.40s CPU    304.58s WALL (     354 calls)
     cegterg:last :    199.93s CPU    199.93s WALL (     114 calls)

     Called by h_psi:
     h_psi:pot    :   6653.10s CPU   6669.39s WALL (     465 calls)
     h_psi:calbec :   1697.62s CPU   1698.14s WALL (     465 calls)
     vloc_psi     :   3251.36s CPU   3263.82s WALL (     465 calls)
     add_vuspsi   :   1704.11s CPU   1707.42s WALL (     465 calls)

     General routines
     calbec       :   2529.15s CPU   2530.45s WALL (     588 calls)
     fft          :     71.95s CPU     78.16s WALL (     505 calls)
     ffts         :     22.77s CPU     22.84s WALL (     616 calls)
     fftw         :   3458.17s CPU   3471.43s WALL (  239594 calls)
     interpolate  :      7.33s CPU      7.68s WALL (      37 calls)
 
     Parallel routines
     fft_scatt_xy :    820.49s CPU    823.19s WALL (  240715 calls)
     fft_scatt_yz :    896.36s CPU    904.24s WALL (  240715 calls)

     PAW routines
     PAW_pot      :      7.99s CPU      8.02s WALL (      37 calls)
 
     PWSCF        :      4h 4m CPU      4h 7m WALL

 
   This run was terminated on:   7: 7: 1  27Feb2020            

=------------------------------------------------------------------------------=
   JOB DONE.
=------------------------------------------------------------------------------=
