
     Program PWSCF v.6.3 starts on 22Feb2020 at  9:51:21 

     This program is part of the open-source Quantum ESPRESSO suite
     for quantum simulation of materials; please cite
         "P. Giannozzi et al., J. Phys.:Condens. Matter 21 395502 (2009);
         "P. Giannozzi et al., J. Phys.:Condens. Matter 29 465901 (2017);
          URL http://www.quantum-espresso.org", 
     in publications or presentations arising from this work. More details at
     http://www.quantum-espresso.org/quote

 *** WARNING: using old-style file format, will disappear from next version ***

     Parallel version (MPI & OpenMP), running on      36 processor cores
     Number of MPI processes:                36
     Threads/MPI process:                     1

     MPI processes distributed on     1 nodes
     K-points division:     npool     =       4
     R & G space division:  proc/nbgrp/npool/nimage =       9
     Reading input from aiida.in
Warning: card &IONS ignored
Warning: card   !PRESS_CONV_THR = 0.05                 ! JUST FOR VOLUME RELAXATIONS ignored
Warning: card / ignored

     Current dimensions of program PWSCF are:
     Max number of different atomic species (ntypx) = 10
     Max number of k-points (npk) =  40000
     Max angular momentum in pseudopotentials (lmaxx) =  3
               file Al.pbe-n-kjpaw_psl.1.0.0.UPF: wavefunction(s)  3S 3P renormalized
               file Mg.pbe-n-kjpaw_psl.0.3.0.UPF: wavefunction(s)  3S renormalized

     Subspace diagonalization in iterative solution of the eigenvalue problem:
     one sub-group per band group will be used
     scalapack distributed-memory algorithm (size of sub-group:  2*  2 procs)

 
     Parallelization info
     --------------------
     sticks:   dense  smooth     PW     G-vecs:    dense   smooth      PW
     Min         787     315     92                40294    10201    1592
     Max         788     316     93                40295    10204    1593
     Sum        7091    2841    831               362647    91823   14329
 


     bravais-lattice index     =            0
     lattice parameter (alat)  =      28.6415  a.u.
     unit-cell volume          =    2685.4531 (a.u.)^3
     number of atoms/cell      =           22
     number of atomic types    =            3
     number of electrons       =        66.00
     number of Kohn-Sham states=           40
     kinetic-energy cutoff     =      40.0000  Ry
     charge density cutoff     =     400.0000  Ry
     convergence threshold     =      1.0E-12
     mixing beta               =       0.4000
     number of iterations used =            8  local-TF  mixing
     Exchange-correlation      = PBE ( 1  4  3  4 0 0)

     celldm(1)=  28.641491  celldm(2)=   0.000000  celldm(3)=   0.000000
     celldm(4)=   0.000000  celldm(5)=   0.000000  celldm(6)=   0.000000

     crystal axes: (cart. coord. in units of alat)
               a(1) = (   0.958581   0.000000  -0.284820 )  
               a(2) = (   0.000000   0.271937   0.000000 )  
               a(3) = (   0.000000   0.000000   0.438464 )  

     reciprocal axes: (cart. coord. in units 2 pi/alat)
               b(1) = (  1.043209  0.000000  0.000000 )  
               b(2) = (  0.000000  3.677328  0.000000 )  
               b(3) = (  0.677654  0.000000  2.280687 )  


     PseudoPot. # 1 for Al read from file:
     /users/aglensk/Dropbox/Albert/scripts/dotfiles/scripts/potentials/quantum_espresso/pseudo_SSSPefV1.1_alalloy/Al.pbe-n-kjpaw_psl.1.0.0.UPF
     MD5 check sum: cfc449ca30b5f3223ec38ddd88ac046d
     Pseudo is Projector augmented-wave + core cor, Zval =  3.0
     Generated using "atomic" code by A. Dal Corso v.5.1
     Shape of augmentation charge: PSQ
     Using radial grid of 1135 points,  6 beta functions with: 
                l(1) =   0
                l(2) =   0
                l(3) =   1
                l(4) =   1
                l(5) =   2
                l(6) =   2
     Q(r) pseudized with 0 coefficients 


     PseudoPot. # 2 for Mg read from file:
     /users/aglensk/Dropbox/Albert/scripts/dotfiles/scripts/potentials/quantum_espresso/pseudo_SSSPefV1.1_alalloy/Mg.pbe-n-kjpaw_psl.0.3.0.UPF
     MD5 check sum: 24ecedc7f3e3cbe212e682f4413594e4
     Pseudo is Projector augmented-wave + core cor, Zval =  2.0
     Generated using "atomic" code by A. Dal Corso v.5.0.99 svn rev. 10869
     Shape of augmentation charge: PSQ
     Using radial grid of 1129 points,  4 beta functions with: 
                l(1) =   0
                l(2) =   0
                l(3) =   1
                l(4) =   1
     Q(r) pseudized with 0 coefficients 


     PseudoPot. # 3 for Si read from file:
     /users/aglensk/Dropbox/Albert/scripts/dotfiles/scripts/potentials/quantum_espresso/pseudo_SSSPefV1.1_alalloy/Si.pbe-n-rrkjus_psl.1.0.0.UPF
     MD5 check sum: 0b0bb1205258b0d07b9f9672cf965d36
     Pseudo is Ultrasoft + core correction, Zval =  4.0
     Generated using "atomic" code by A. Dal Corso v.5.1
     Using radial grid of 1141 points,  6 beta functions with: 
                l(1) =   0
                l(2) =   0
                l(3) =   1
                l(4) =   1
                l(5) =   2
                l(6) =   2
     Q(r) pseudized with 0 coefficients 


     atomic species   valence    mass     pseudopotential
        Al             3.00    26.98154     Al( 1.00)
        Mg             2.00    24.30500     Mg( 1.00)
        Si             4.00    28.08500     Si( 1.00)

     No symmetry found


                                    s                        frac. trans.

      isym =  1     identity                                     

 cryst.   s( 1) = (     1          0          0      )
                  (     0          1          0      )
                  (     0          0          1      )

 cart.    s( 1) = (  1.0000000  0.0000000  0.0000000 )
                  (  0.0000000  1.0000000  0.0000000 )
                  (  0.0000000  0.0000000  1.0000000 )


   Cartesian axes

     site n.     atom                  positions (alat units)
         1           Al  tau(   1) = (   0.0008779   0.0000000   0.4330805  )
         2           Mg  tau(   2) = (   0.0698046   0.1359683   0.1262221  )
         3           Mg  tau(   3) = (   0.1478483   0.1359683   0.3510000  )
         4           Mg  tau(   4) = (   0.3331868   0.0000000  -0.0657879  )
         5           Mg  tau(   5) = (   0.4112314   0.0000000   0.1589941  )
         6           Si  tau(   6) = (   0.0561764   0.0000000   0.2696977  )
         7           Si  tau(   7) = (   0.1757265   0.0000000   0.0381010  )
         8           Al  tau(   8) = (   0.2097224   0.0000000   0.2044268  )
         9           Al  tau(   9) = (   0.2713097   0.1359683   0.0807848  )
        10           Si  tau(  10) = (   0.3053020   0.1359683   0.2471099  )
        11           Si  tau(  11) = (   0.4248543   0.1359683   0.0155168  )
        12           Al  tau(  12) = (   0.4801551   0.1359683   0.2905993  )
        13           Mg  tau(  13) = (   0.5490713   0.0000000  -0.0162868  )
        14           Mg  tau(  14) = (   0.6271047   0.0000000   0.2085610  )
        15           Mg  tau(  15) = (   0.8125114   0.1359683  -0.2081689  )
        16           Mg  tau(  16) = (   0.8905455   0.1359683   0.0166828  )
        17           Si  tau(  17) = (   0.5354515   0.1359683   0.1272298  )
        18           Si  tau(  18) = (   0.6550275   0.1359683  -0.1043335  )
        19           Al  tau(  19) = (   0.6890110   0.1359683   0.0619993  )
        20           Al  tau(  20) = (   0.7506020   0.0000000  -0.0616076  )
        21           Si  tau(  21) = (   0.7845820   0.0000000   0.1047243  )
        22           Si  tau(  22) = (   0.9041601   0.0000000  -0.1268353  )

   Crystallographic axes

     site n.     atom                  positions (cryst. coord.)
         1           Al  tau(   1) = (  0.0009158  0.0000000  0.9883161  )
         2           Mg  tau(   2) = (  0.0728208  0.5000000  0.3351765  )
         3           Mg  tau(   3) = (  0.1542366  0.5000000  0.9007112  )
         4           Mg  tau(   4) = (  0.3475834  0.0000000  0.0757436  )
         5           Mg  tau(   5) = (  0.4290002  0.0000000  0.6412883  )
         6           Si  tau(   6) = (  0.0586037  0.0000000  0.6531643  )
         7           Si  tau(   7) = (  0.1833194  0.0000000  0.2059782  )
         8           Al  tau(   8) = (  0.2187842  0.0000000  0.6083529  )
         9           Al  tau(   9) = (  0.2830326  0.5000000  0.3680990  )
        10           Si  tau(  10) = (  0.3184937  0.5000000  0.7704696  )
        11           Si  tau(  11) = (  0.4432117  0.5000000  0.3232932  )
        12           Al  tau(  12) = (  0.5009020  0.5000000  0.9881451  )
        13           Mg  tau(  13) = (  0.5727960  0.0000000  0.3349353  )
        14           Mg  tau(  14) = (  0.6542011  0.0000000  0.9006223  )
        15           Mg  tau(  15) = (  0.8476190  0.5000000  0.0758331  )
        16           Mg  tau(  16) = (  0.9290249  0.5000000  0.6415297  )
        17           Si  tau(  17) = (  0.5585877  0.5000000  0.6530221  )
        18           Si  tau(  18) = (  0.6833304  0.5000000  0.2059298  )
        19           Al  tau(  19) = (  0.7187823  0.5000000  0.6083118  )
        20           Al  tau(  20) = (  0.7830345  0.0000000  0.3681405  )
        21           Si  tau(  21) = (  0.8184828  0.0000000  0.7705184  )
        22           Si  tau(  22) = (  0.9432277  0.0000000  0.3234357  )

     number of k points=   782  Methfessel-Paxton smearing, width (Ry)=  0.0441
                       cart. coord. in units 2pi/alat
        k(    1) = (   0.0000000   0.0000000   0.0000000), wk =   0.0012821
        k(    2) = (   0.0521272   0.0000000   0.1754375), wk =   0.0025641
        k(    3) = (   0.1042544   0.0000000   0.3508750), wk =   0.0025641
        k(    4) = (   0.1563816   0.0000000   0.5263125), wk =   0.0025641
        k(    5) = (   0.2085089   0.0000000   0.7017500), wk =   0.0025641
        k(    6) = (   0.2606361   0.0000000   0.8771875), wk =   0.0025641
        k(    7) = (   0.3127633   0.0000000   1.0526250), wk =   0.0025641
        k(    8) = (   0.0000000   0.1838664   0.0000000), wk =   0.0025641
        k(    9) = (   0.0521272   0.1838664   0.1754375), wk =   0.0025641
        k(   10) = (   0.1042544   0.1838664   0.3508750), wk =   0.0025641
        k(   11) = (   0.1563816   0.1838664   0.5263125), wk =   0.0025641
        k(   12) = (   0.2085089   0.1838664   0.7017500), wk =   0.0025641
        k(   13) = (   0.2606361   0.1838664   0.8771875), wk =   0.0025641
        k(   14) = (   0.3127633   0.1838664   1.0526250), wk =   0.0025641
        k(   15) = (  -0.3127633   0.1838664  -1.0526250), wk =   0.0025641
        k(   16) = (  -0.2606361   0.1838664  -0.8771875), wk =   0.0025641
        k(   17) = (  -0.2085089   0.1838664  -0.7017500), wk =   0.0025641
        k(   18) = (  -0.1563816   0.1838664  -0.5263125), wk =   0.0025641
        k(   19) = (  -0.1042544   0.1838664  -0.3508750), wk =   0.0025641
        k(   20) = (  -0.0521272   0.1838664  -0.1754375), wk =   0.0025641
        k(   21) = (   0.0000000   0.3677328   0.0000000), wk =   0.0025641
        k(   22) = (   0.0521272   0.3677328   0.1754375), wk =   0.0025641
        k(   23) = (   0.1042544   0.3677328   0.3508750), wk =   0.0025641
        k(   24) = (   0.1563816   0.3677328   0.5263125), wk =   0.0025641
        k(   25) = (   0.2085089   0.3677328   0.7017500), wk =   0.0025641
        k(   26) = (   0.2606361   0.3677328   0.8771875), wk =   0.0025641
        k(   27) = (   0.3127633   0.3677328   1.0526250), wk =   0.0025641
        k(   28) = (  -0.3127633   0.3677328  -1.0526250), wk =   0.0025641
        k(   29) = (  -0.2606361   0.3677328  -0.8771875), wk =   0.0025641
        k(   30) = (  -0.2085089   0.3677328  -0.7017500), wk =   0.0025641
        k(   31) = (  -0.1563816   0.3677328  -0.5263125), wk =   0.0025641
        k(   32) = (  -0.1042544   0.3677328  -0.3508750), wk =   0.0025641
        k(   33) = (  -0.0521272   0.3677328  -0.1754375), wk =   0.0025641
        k(   34) = (   0.0000000   0.5515991   0.0000000), wk =   0.0025641
        k(   35) = (   0.0521272   0.5515991   0.1754375), wk =   0.0025641
        k(   36) = (   0.1042544   0.5515991   0.3508750), wk =   0.0025641
        k(   37) = (   0.1563816   0.5515991   0.5263125), wk =   0.0025641
        k(   38) = (   0.2085089   0.5515991   0.7017500), wk =   0.0025641
        k(   39) = (   0.2606361   0.5515991   0.8771875), wk =   0.0025641
        k(   40) = (   0.3127633   0.5515991   1.0526250), wk =   0.0025641
        k(   41) = (  -0.3127633   0.5515991  -1.0526250), wk =   0.0025641
        k(   42) = (  -0.2606361   0.5515991  -0.8771875), wk =   0.0025641
        k(   43) = (  -0.2085089   0.5515991  -0.7017500), wk =   0.0025641
        k(   44) = (  -0.1563816   0.5515991  -0.5263125), wk =   0.0025641
        k(   45) = (  -0.1042544   0.5515991  -0.3508750), wk =   0.0025641
        k(   46) = (  -0.0521272   0.5515991  -0.1754375), wk =   0.0025641
        k(   47) = (   0.0000000   0.7354655   0.0000000), wk =   0.0025641
        k(   48) = (   0.0521272   0.7354655   0.1754375), wk =   0.0025641
        k(   49) = (   0.1042544   0.7354655   0.3508750), wk =   0.0025641
        k(   50) = (   0.1563816   0.7354655   0.5263125), wk =   0.0025641
        k(   51) = (   0.2085089   0.7354655   0.7017500), wk =   0.0025641
        k(   52) = (   0.2606361   0.7354655   0.8771875), wk =   0.0025641
        k(   53) = (   0.3127633   0.7354655   1.0526250), wk =   0.0025641
        k(   54) = (  -0.3127633   0.7354655  -1.0526250), wk =   0.0025641
        k(   55) = (  -0.2606361   0.7354655  -0.8771875), wk =   0.0025641
        k(   56) = (  -0.2085089   0.7354655  -0.7017500), wk =   0.0025641
        k(   57) = (  -0.1563816   0.7354655  -0.5263125), wk =   0.0025641
        k(   58) = (  -0.1042544   0.7354655  -0.3508750), wk =   0.0025641
        k(   59) = (  -0.0521272   0.7354655  -0.1754375), wk =   0.0025641
        k(   60) = (   0.0000000   0.9193319   0.0000000), wk =   0.0025641
        k(   61) = (   0.0521272   0.9193319   0.1754375), wk =   0.0025641
        k(   62) = (   0.1042544   0.9193319   0.3508750), wk =   0.0025641
        k(   63) = (   0.1563816   0.9193319   0.5263125), wk =   0.0025641
        k(   64) = (   0.2085089   0.9193319   0.7017500), wk =   0.0025641
        k(   65) = (   0.2606361   0.9193319   0.8771875), wk =   0.0025641
        k(   66) = (   0.3127633   0.9193319   1.0526250), wk =   0.0025641
        k(   67) = (  -0.3127633   0.9193319  -1.0526250), wk =   0.0025641
        k(   68) = (  -0.2606361   0.9193319  -0.8771875), wk =   0.0025641
        k(   69) = (  -0.2085089   0.9193319  -0.7017500), wk =   0.0025641
        k(   70) = (  -0.1563816   0.9193319  -0.5263125), wk =   0.0025641
        k(   71) = (  -0.1042544   0.9193319  -0.3508750), wk =   0.0025641
        k(   72) = (  -0.0521272   0.9193319  -0.1754375), wk =   0.0025641
        k(   73) = (   0.0000000   1.1031983   0.0000000), wk =   0.0025641
        k(   74) = (   0.0521272   1.1031983   0.1754375), wk =   0.0025641
        k(   75) = (   0.1042544   1.1031983   0.3508750), wk =   0.0025641
        k(   76) = (   0.1563816   1.1031983   0.5263125), wk =   0.0025641
        k(   77) = (   0.2085089   1.1031983   0.7017500), wk =   0.0025641
        k(   78) = (   0.2606361   1.1031983   0.8771875), wk =   0.0025641
        k(   79) = (   0.3127633   1.1031983   1.0526250), wk =   0.0025641
        k(   80) = (  -0.3127633   1.1031983  -1.0526250), wk =   0.0025641
        k(   81) = (  -0.2606361   1.1031983  -0.8771875), wk =   0.0025641
        k(   82) = (  -0.2085089   1.1031983  -0.7017500), wk =   0.0025641
        k(   83) = (  -0.1563816   1.1031983  -0.5263125), wk =   0.0025641
        k(   84) = (  -0.1042544   1.1031983  -0.3508750), wk =   0.0025641
        k(   85) = (  -0.0521272   1.1031983  -0.1754375), wk =   0.0025641
        k(   86) = (   0.0000000   1.2870646   0.0000000), wk =   0.0025641
        k(   87) = (   0.0521272   1.2870646   0.1754375), wk =   0.0025641
        k(   88) = (   0.1042544   1.2870646   0.3508750), wk =   0.0025641
        k(   89) = (   0.1563816   1.2870646   0.5263125), wk =   0.0025641
        k(   90) = (   0.2085089   1.2870646   0.7017500), wk =   0.0025641
        k(   91) = (   0.2606361   1.2870646   0.8771875), wk =   0.0025641
        k(   92) = (   0.3127633   1.2870646   1.0526250), wk =   0.0025641
        k(   93) = (  -0.3127633   1.2870646  -1.0526250), wk =   0.0025641
        k(   94) = (  -0.2606361   1.2870646  -0.8771875), wk =   0.0025641
        k(   95) = (  -0.2085089   1.2870646  -0.7017500), wk =   0.0025641
        k(   96) = (  -0.1563816   1.2870646  -0.5263125), wk =   0.0025641
        k(   97) = (  -0.1042544   1.2870646  -0.3508750), wk =   0.0025641
        k(   98) = (  -0.0521272   1.2870646  -0.1754375), wk =   0.0025641
        k(   99) = (   0.0000000   1.4709310   0.0000000), wk =   0.0025641
        k(  100) = (   0.0521272   1.4709310   0.1754375), wk =   0.0025641
        k(  101) = (   0.1042544   1.4709310   0.3508750), wk =   0.0025641
        k(  102) = (   0.1563816   1.4709310   0.5263125), wk =   0.0025641
        k(  103) = (   0.2085089   1.4709310   0.7017500), wk =   0.0025641
        k(  104) = (   0.2606361   1.4709310   0.8771875), wk =   0.0025641
        k(  105) = (   0.3127633   1.4709310   1.0526250), wk =   0.0025641
        k(  106) = (  -0.3127633   1.4709310  -1.0526250), wk =   0.0025641
        k(  107) = (  -0.2606361   1.4709310  -0.8771875), wk =   0.0025641
        k(  108) = (  -0.2085089   1.4709310  -0.7017500), wk =   0.0025641
        k(  109) = (  -0.1563816   1.4709310  -0.5263125), wk =   0.0025641
        k(  110) = (  -0.1042544   1.4709310  -0.3508750), wk =   0.0025641
        k(  111) = (  -0.0521272   1.4709310  -0.1754375), wk =   0.0025641
        k(  112) = (   0.0000000   1.6547974   0.0000000), wk =   0.0025641
        k(  113) = (   0.0521272   1.6547974   0.1754375), wk =   0.0025641
        k(  114) = (   0.1042544   1.6547974   0.3508750), wk =   0.0025641
        k(  115) = (   0.1563816   1.6547974   0.5263125), wk =   0.0025641
        k(  116) = (   0.2085089   1.6547974   0.7017500), wk =   0.0025641
        k(  117) = (   0.2606361   1.6547974   0.8771875), wk =   0.0025641
        k(  118) = (   0.3127633   1.6547974   1.0526250), wk =   0.0025641
        k(  119) = (  -0.3127633   1.6547974  -1.0526250), wk =   0.0025641
        k(  120) = (  -0.2606361   1.6547974  -0.8771875), wk =   0.0025641
        k(  121) = (  -0.2085089   1.6547974  -0.7017500), wk =   0.0025641
        k(  122) = (  -0.1563816   1.6547974  -0.5263125), wk =   0.0025641
        k(  123) = (  -0.1042544   1.6547974  -0.3508750), wk =   0.0025641
        k(  124) = (  -0.0521272   1.6547974  -0.1754375), wk =   0.0025641
        k(  125) = (   0.0000000  -1.8386638   0.0000000), wk =   0.0012821
        k(  126) = (   0.0521272  -1.8386638   0.1754375), wk =   0.0025641
        k(  127) = (   0.1042544  -1.8386638   0.3508750), wk =   0.0025641
        k(  128) = (   0.1563816  -1.8386638   0.5263125), wk =   0.0025641
        k(  129) = (   0.2085089  -1.8386638   0.7017500), wk =   0.0025641
        k(  130) = (   0.2606361  -1.8386638   0.8771875), wk =   0.0025641
        k(  131) = (   0.3127633  -1.8386638   1.0526250), wk =   0.0025641
        k(  132) = (   0.1738681   0.0000000   0.0000000), wk =   0.0025641
        k(  133) = (   0.2259953   0.0000000   0.1754375), wk =   0.0025641
        k(  134) = (   0.2781225   0.0000000   0.3508750), wk =   0.0025641
        k(  135) = (   0.3302498   0.0000000   0.5263125), wk =   0.0025641
        k(  136) = (   0.3823770   0.0000000   0.7017500), wk =   0.0025641
        k(  137) = (   0.4345042   0.0000000   0.8771875), wk =   0.0025641
        k(  138) = (   0.4866314   0.0000000   1.0526250), wk =   0.0025641
        k(  139) = (  -0.1388952   0.0000000  -1.0526250), wk =   0.0025641
        k(  140) = (  -0.0867679   0.0000000  -0.8771875), wk =   0.0025641
        k(  141) = (  -0.0346407   0.0000000  -0.7017500), wk =   0.0025641
        k(  142) = (   0.0174865   0.0000000  -0.5263125), wk =   0.0025641
        k(  143) = (   0.0696137   0.0000000  -0.3508750), wk =   0.0025641
        k(  144) = (   0.1217409   0.0000000  -0.1754375), wk =   0.0025641
        k(  145) = (   0.1738681   0.1838664   0.0000000), wk =   0.0025641
        k(  146) = (   0.2259953   0.1838664   0.1754375), wk =   0.0025641
        k(  147) = (   0.2781225   0.1838664   0.3508750), wk =   0.0025641
        k(  148) = (   0.3302498   0.1838664   0.5263125), wk =   0.0025641
        k(  149) = (   0.3823770   0.1838664   0.7017500), wk =   0.0025641
        k(  150) = (   0.4345042   0.1838664   0.8771875), wk =   0.0025641
        k(  151) = (   0.4866314   0.1838664   1.0526250), wk =   0.0025641
        k(  152) = (  -0.1388952   0.1838664  -1.0526250), wk =   0.0025641
        k(  153) = (  -0.0867679   0.1838664  -0.8771875), wk =   0.0025641
        k(  154) = (  -0.0346407   0.1838664  -0.7017500), wk =   0.0025641
        k(  155) = (   0.0174865   0.1838664  -0.5263125), wk =   0.0025641
        k(  156) = (   0.0696137   0.1838664  -0.3508750), wk =   0.0025641
        k(  157) = (   0.1217409   0.1838664  -0.1754375), wk =   0.0025641
        k(  158) = (   0.1738681   0.3677328   0.0000000), wk =   0.0025641
        k(  159) = (   0.2259953   0.3677328   0.1754375), wk =   0.0025641
        k(  160) = (   0.2781225   0.3677328   0.3508750), wk =   0.0025641
        k(  161) = (   0.3302498   0.3677328   0.5263125), wk =   0.0025641
        k(  162) = (   0.3823770   0.3677328   0.7017500), wk =   0.0025641
        k(  163) = (   0.4345042   0.3677328   0.8771875), wk =   0.0025641
        k(  164) = (   0.4866314   0.3677328   1.0526250), wk =   0.0025641
        k(  165) = (  -0.1388952   0.3677328  -1.0526250), wk =   0.0025641
        k(  166) = (  -0.0867679   0.3677328  -0.8771875), wk =   0.0025641
        k(  167) = (  -0.0346407   0.3677328  -0.7017500), wk =   0.0025641
        k(  168) = (   0.0174865   0.3677328  -0.5263125), wk =   0.0025641
        k(  169) = (   0.0696137   0.3677328  -0.3508750), wk =   0.0025641
        k(  170) = (   0.1217409   0.3677328  -0.1754375), wk =   0.0025641
        k(  171) = (   0.1738681   0.5515991   0.0000000), wk =   0.0025641
        k(  172) = (   0.2259953   0.5515991   0.1754375), wk =   0.0025641
        k(  173) = (   0.2781225   0.5515991   0.3508750), wk =   0.0025641
        k(  174) = (   0.3302498   0.5515991   0.5263125), wk =   0.0025641
        k(  175) = (   0.3823770   0.5515991   0.7017500), wk =   0.0025641
        k(  176) = (   0.4345042   0.5515991   0.8771875), wk =   0.0025641
        k(  177) = (   0.4866314   0.5515991   1.0526250), wk =   0.0025641
        k(  178) = (  -0.1388952   0.5515991  -1.0526250), wk =   0.0025641
        k(  179) = (  -0.0867679   0.5515991  -0.8771875), wk =   0.0025641
        k(  180) = (  -0.0346407   0.5515991  -0.7017500), wk =   0.0025641
        k(  181) = (   0.0174865   0.5515991  -0.5263125), wk =   0.0025641
        k(  182) = (   0.0696137   0.5515991  -0.3508750), wk =   0.0025641
        k(  183) = (   0.1217409   0.5515991  -0.1754375), wk =   0.0025641
        k(  184) = (   0.1738681   0.7354655   0.0000000), wk =   0.0025641
        k(  185) = (   0.2259953   0.7354655   0.1754375), wk =   0.0025641
        k(  186) = (   0.2781225   0.7354655   0.3508750), wk =   0.0025641
        k(  187) = (   0.3302498   0.7354655   0.5263125), wk =   0.0025641
        k(  188) = (   0.3823770   0.7354655   0.7017500), wk =   0.0025641
        k(  189) = (   0.4345042   0.7354655   0.8771875), wk =   0.0025641
        k(  190) = (   0.4866314   0.7354655   1.0526250), wk =   0.0025641
        k(  191) = (  -0.1388952   0.7354655  -1.0526250), wk =   0.0025641
        k(  192) = (  -0.0867679   0.7354655  -0.8771875), wk =   0.0025641
        k(  193) = (  -0.0346407   0.7354655  -0.7017500), wk =   0.0025641
        k(  194) = (   0.0174865   0.7354655  -0.5263125), wk =   0.0025641
        k(  195) = (   0.0696137   0.7354655  -0.3508750), wk =   0.0025641
        k(  196) = (   0.1217409   0.7354655  -0.1754375), wk =   0.0025641
        k(  197) = (   0.1738681   0.9193319   0.0000000), wk =   0.0025641
        k(  198) = (   0.2259953   0.9193319   0.1754375), wk =   0.0025641
        k(  199) = (   0.2781225   0.9193319   0.3508750), wk =   0.0025641
        k(  200) = (   0.3302498   0.9193319   0.5263125), wk =   0.0025641
        k(  201) = (   0.3823770   0.9193319   0.7017500), wk =   0.0025641
        k(  202) = (   0.4345042   0.9193319   0.8771875), wk =   0.0025641
        k(  203) = (   0.4866314   0.9193319   1.0526250), wk =   0.0025641
        k(  204) = (  -0.1388952   0.9193319  -1.0526250), wk =   0.0025641
        k(  205) = (  -0.0867679   0.9193319  -0.8771875), wk =   0.0025641
        k(  206) = (  -0.0346407   0.9193319  -0.7017500), wk =   0.0025641
        k(  207) = (   0.0174865   0.9193319  -0.5263125), wk =   0.0025641
        k(  208) = (   0.0696137   0.9193319  -0.3508750), wk =   0.0025641
        k(  209) = (   0.1217409   0.9193319  -0.1754375), wk =   0.0025641
        k(  210) = (   0.1738681   1.1031983   0.0000000), wk =   0.0025641
        k(  211) = (   0.2259953   1.1031983   0.1754375), wk =   0.0025641
        k(  212) = (   0.2781225   1.1031983   0.3508750), wk =   0.0025641
        k(  213) = (   0.3302498   1.1031983   0.5263125), wk =   0.0025641
        k(  214) = (   0.3823770   1.1031983   0.7017500), wk =   0.0025641
        k(  215) = (   0.4345042   1.1031983   0.8771875), wk =   0.0025641
        k(  216) = (   0.4866314   1.1031983   1.0526250), wk =   0.0025641
        k(  217) = (  -0.1388952   1.1031983  -1.0526250), wk =   0.0025641
        k(  218) = (  -0.0867679   1.1031983  -0.8771875), wk =   0.0025641
        k(  219) = (  -0.0346407   1.1031983  -0.7017500), wk =   0.0025641
        k(  220) = (   0.0174865   1.1031983  -0.5263125), wk =   0.0025641
        k(  221) = (   0.0696137   1.1031983  -0.3508750), wk =   0.0025641
        k(  222) = (   0.1217409   1.1031983  -0.1754375), wk =   0.0025641
        k(  223) = (   0.1738681   1.2870646   0.0000000), wk =   0.0025641
        k(  224) = (   0.2259953   1.2870646   0.1754375), wk =   0.0025641
        k(  225) = (   0.2781225   1.2870646   0.3508750), wk =   0.0025641
        k(  226) = (   0.3302498   1.2870646   0.5263125), wk =   0.0025641
        k(  227) = (   0.3823770   1.2870646   0.7017500), wk =   0.0025641
        k(  228) = (   0.4345042   1.2870646   0.8771875), wk =   0.0025641
        k(  229) = (   0.4866314   1.2870646   1.0526250), wk =   0.0025641
        k(  230) = (  -0.1388952   1.2870646  -1.0526250), wk =   0.0025641
        k(  231) = (  -0.0867679   1.2870646  -0.8771875), wk =   0.0025641
        k(  232) = (  -0.0346407   1.2870646  -0.7017500), wk =   0.0025641
        k(  233) = (   0.0174865   1.2870646  -0.5263125), wk =   0.0025641
        k(  234) = (   0.0696137   1.2870646  -0.3508750), wk =   0.0025641
        k(  235) = (   0.1217409   1.2870646  -0.1754375), wk =   0.0025641
        k(  236) = (   0.1738681   1.4709310   0.0000000), wk =   0.0025641
        k(  237) = (   0.2259953   1.4709310   0.1754375), wk =   0.0025641
        k(  238) = (   0.2781225   1.4709310   0.3508750), wk =   0.0025641
        k(  239) = (   0.3302498   1.4709310   0.5263125), wk =   0.0025641
        k(  240) = (   0.3823770   1.4709310   0.7017500), wk =   0.0025641
        k(  241) = (   0.4345042   1.4709310   0.8771875), wk =   0.0025641
        k(  242) = (   0.4866314   1.4709310   1.0526250), wk =   0.0025641
        k(  243) = (  -0.1388952   1.4709310  -1.0526250), wk =   0.0025641
        k(  244) = (  -0.0867679   1.4709310  -0.8771875), wk =   0.0025641
        k(  245) = (  -0.0346407   1.4709310  -0.7017500), wk =   0.0025641
        k(  246) = (   0.0174865   1.4709310  -0.5263125), wk =   0.0025641
        k(  247) = (   0.0696137   1.4709310  -0.3508750), wk =   0.0025641
        k(  248) = (   0.1217409   1.4709310  -0.1754375), wk =   0.0025641
        k(  249) = (   0.1738681   1.6547974   0.0000000), wk =   0.0025641
        k(  250) = (   0.2259953   1.6547974   0.1754375), wk =   0.0025641
        k(  251) = (   0.2781225   1.6547974   0.3508750), wk =   0.0025641
        k(  252) = (   0.3302498   1.6547974   0.5263125), wk =   0.0025641
        k(  253) = (   0.3823770   1.6547974   0.7017500), wk =   0.0025641
        k(  254) = (   0.4345042   1.6547974   0.8771875), wk =   0.0025641
        k(  255) = (   0.4866314   1.6547974   1.0526250), wk =   0.0025641
        k(  256) = (  -0.1388952   1.6547974  -1.0526250), wk =   0.0025641
        k(  257) = (  -0.0867679   1.6547974  -0.8771875), wk =   0.0025641
        k(  258) = (  -0.0346407   1.6547974  -0.7017500), wk =   0.0025641
        k(  259) = (   0.0174865   1.6547974  -0.5263125), wk =   0.0025641
        k(  260) = (   0.0696137   1.6547974  -0.3508750), wk =   0.0025641
        k(  261) = (   0.1217409   1.6547974  -0.1754375), wk =   0.0025641
        k(  262) = (   0.1738681  -1.8386638   0.0000000), wk =   0.0025641
        k(  263) = (   0.2259953  -1.8386638   0.1754375), wk =   0.0025641
        k(  264) = (   0.2781225  -1.8386638   0.3508750), wk =   0.0025641
        k(  265) = (   0.3302498  -1.8386638   0.5263125), wk =   0.0025641
        k(  266) = (   0.3823770  -1.8386638   0.7017500), wk =   0.0025641
        k(  267) = (   0.4345042  -1.8386638   0.8771875), wk =   0.0025641
        k(  268) = (   0.4866314  -1.8386638   1.0526250), wk =   0.0025641
        k(  269) = (  -0.1388952  -1.8386638  -1.0526250), wk =   0.0025641
        k(  270) = (  -0.0867679  -1.8386638  -0.8771875), wk =   0.0025641
        k(  271) = (  -0.0346407  -1.8386638  -0.7017500), wk =   0.0025641
        k(  272) = (   0.0174865  -1.8386638  -0.5263125), wk =   0.0025641
        k(  273) = (   0.0696137  -1.8386638  -0.3508750), wk =   0.0025641
        k(  274) = (   0.1217409  -1.8386638  -0.1754375), wk =   0.0025641
        k(  275) = (   0.1738681  -1.6547974   0.0000000), wk =   0.0025641
        k(  276) = (   0.2259953  -1.6547974   0.1754375), wk =   0.0025641
        k(  277) = (   0.2781225  -1.6547974   0.3508750), wk =   0.0025641
        k(  278) = (   0.3302498  -1.6547974   0.5263125), wk =   0.0025641
        k(  279) = (   0.3823770  -1.6547974   0.7017500), wk =   0.0025641
        k(  280) = (   0.4345042  -1.6547974   0.8771875), wk =   0.0025641
        k(  281) = (   0.4866314  -1.6547974   1.0526250), wk =   0.0025641
        k(  282) = (  -0.1388952  -1.6547974  -1.0526250), wk =   0.0025641
        k(  283) = (  -0.0867679  -1.6547974  -0.8771875), wk =   0.0025641
        k(  284) = (  -0.0346407  -1.6547974  -0.7017500), wk =   0.0025641
        k(  285) = (   0.0174865  -1.6547974  -0.5263125), wk =   0.0025641
        k(  286) = (   0.0696137  -1.6547974  -0.3508750), wk =   0.0025641
        k(  287) = (   0.1217409  -1.6547974  -0.1754375), wk =   0.0025641
        k(  288) = (   0.1738681  -1.4709310   0.0000000), wk =   0.0025641
        k(  289) = (   0.2259953  -1.4709310   0.1754375), wk =   0.0025641
        k(  290) = (   0.2781225  -1.4709310   0.3508750), wk =   0.0025641
        k(  291) = (   0.3302498  -1.4709310   0.5263125), wk =   0.0025641
        k(  292) = (   0.3823770  -1.4709310   0.7017500), wk =   0.0025641
        k(  293) = (   0.4345042  -1.4709310   0.8771875), wk =   0.0025641
        k(  294) = (   0.4866314  -1.4709310   1.0526250), wk =   0.0025641
        k(  295) = (  -0.1388952  -1.4709310  -1.0526250), wk =   0.0025641
        k(  296) = (  -0.0867679  -1.4709310  -0.8771875), wk =   0.0025641
        k(  297) = (  -0.0346407  -1.4709310  -0.7017500), wk =   0.0025641
        k(  298) = (   0.0174865  -1.4709310  -0.5263125), wk =   0.0025641
        k(  299) = (   0.0696137  -1.4709310  -0.3508750), wk =   0.0025641
        k(  300) = (   0.1217409  -1.4709310  -0.1754375), wk =   0.0025641
        k(  301) = (   0.1738681  -1.2870646   0.0000000), wk =   0.0025641
        k(  302) = (   0.2259953  -1.2870646   0.1754375), wk =   0.0025641
        k(  303) = (   0.2781225  -1.2870646   0.3508750), wk =   0.0025641
        k(  304) = (   0.3302498  -1.2870646   0.5263125), wk =   0.0025641
        k(  305) = (   0.3823770  -1.2870646   0.7017500), wk =   0.0025641
        k(  306) = (   0.4345042  -1.2870646   0.8771875), wk =   0.0025641
        k(  307) = (   0.4866314  -1.2870646   1.0526250), wk =   0.0025641
        k(  308) = (  -0.1388952  -1.2870646  -1.0526250), wk =   0.0025641
        k(  309) = (  -0.0867679  -1.2870646  -0.8771875), wk =   0.0025641
        k(  310) = (  -0.0346407  -1.2870646  -0.7017500), wk =   0.0025641
        k(  311) = (   0.0174865  -1.2870646  -0.5263125), wk =   0.0025641
        k(  312) = (   0.0696137  -1.2870646  -0.3508750), wk =   0.0025641
        k(  313) = (   0.1217409  -1.2870646  -0.1754375), wk =   0.0025641
        k(  314) = (   0.1738681  -1.1031983   0.0000000), wk =   0.0025641
        k(  315) = (   0.2259953  -1.1031983   0.1754375), wk =   0.0025641
        k(  316) = (   0.2781225  -1.1031983   0.3508750), wk =   0.0025641
        k(  317) = (   0.3302498  -1.1031983   0.5263125), wk =   0.0025641
        k(  318) = (   0.3823770  -1.1031983   0.7017500), wk =   0.0025641
        k(  319) = (   0.4345042  -1.1031983   0.8771875), wk =   0.0025641
        k(  320) = (   0.4866314  -1.1031983   1.0526250), wk =   0.0025641
        k(  321) = (  -0.1388952  -1.1031983  -1.0526250), wk =   0.0025641
        k(  322) = (  -0.0867679  -1.1031983  -0.8771875), wk =   0.0025641
        k(  323) = (  -0.0346407  -1.1031983  -0.7017500), wk =   0.0025641
        k(  324) = (   0.0174865  -1.1031983  -0.5263125), wk =   0.0025641
        k(  325) = (   0.0696137  -1.1031983  -0.3508750), wk =   0.0025641
        k(  326) = (   0.1217409  -1.1031983  -0.1754375), wk =   0.0025641
        k(  327) = (   0.1738681  -0.9193319   0.0000000), wk =   0.0025641
        k(  328) = (   0.2259953  -0.9193319   0.1754375), wk =   0.0025641
        k(  329) = (   0.2781225  -0.9193319   0.3508750), wk =   0.0025641
        k(  330) = (   0.3302498  -0.9193319   0.5263125), wk =   0.0025641
        k(  331) = (   0.3823770  -0.9193319   0.7017500), wk =   0.0025641
        k(  332) = (   0.4345042  -0.9193319   0.8771875), wk =   0.0025641
        k(  333) = (   0.4866314  -0.9193319   1.0526250), wk =   0.0025641
        k(  334) = (  -0.1388952  -0.9193319  -1.0526250), wk =   0.0025641
        k(  335) = (  -0.0867679  -0.9193319  -0.8771875), wk =   0.0025641
        k(  336) = (  -0.0346407  -0.9193319  -0.7017500), wk =   0.0025641
        k(  337) = (   0.0174865  -0.9193319  -0.5263125), wk =   0.0025641
        k(  338) = (   0.0696137  -0.9193319  -0.3508750), wk =   0.0025641
        k(  339) = (   0.1217409  -0.9193319  -0.1754375), wk =   0.0025641
        k(  340) = (   0.1738681  -0.7354655   0.0000000), wk =   0.0025641
        k(  341) = (   0.2259953  -0.7354655   0.1754375), wk =   0.0025641
        k(  342) = (   0.2781225  -0.7354655   0.3508750), wk =   0.0025641
        k(  343) = (   0.3302498  -0.7354655   0.5263125), wk =   0.0025641
        k(  344) = (   0.3823770  -0.7354655   0.7017500), wk =   0.0025641
        k(  345) = (   0.4345042  -0.7354655   0.8771875), wk =   0.0025641
        k(  346) = (   0.4866314  -0.7354655   1.0526250), wk =   0.0025641
        k(  347) = (  -0.1388952  -0.7354655  -1.0526250), wk =   0.0025641
        k(  348) = (  -0.0867679  -0.7354655  -0.8771875), wk =   0.0025641
        k(  349) = (  -0.0346407  -0.7354655  -0.7017500), wk =   0.0025641
        k(  350) = (   0.0174865  -0.7354655  -0.5263125), wk =   0.0025641
        k(  351) = (   0.0696137  -0.7354655  -0.3508750), wk =   0.0025641
        k(  352) = (   0.1217409  -0.7354655  -0.1754375), wk =   0.0025641
        k(  353) = (   0.1738681  -0.5515991   0.0000000), wk =   0.0025641
        k(  354) = (   0.2259953  -0.5515991   0.1754375), wk =   0.0025641
        k(  355) = (   0.2781225  -0.5515991   0.3508750), wk =   0.0025641
        k(  356) = (   0.3302498  -0.5515991   0.5263125), wk =   0.0025641
        k(  357) = (   0.3823770  -0.5515991   0.7017500), wk =   0.0025641
        k(  358) = (   0.4345042  -0.5515991   0.8771875), wk =   0.0025641
        k(  359) = (   0.4866314  -0.5515991   1.0526250), wk =   0.0025641
        k(  360) = (  -0.1388952  -0.5515991  -1.0526250), wk =   0.0025641
        k(  361) = (  -0.0867679  -0.5515991  -0.8771875), wk =   0.0025641
        k(  362) = (  -0.0346407  -0.5515991  -0.7017500), wk =   0.0025641
        k(  363) = (   0.0174865  -0.5515991  -0.5263125), wk =   0.0025641
        k(  364) = (   0.0696137  -0.5515991  -0.3508750), wk =   0.0025641
        k(  365) = (   0.1217409  -0.5515991  -0.1754375), wk =   0.0025641
        k(  366) = (   0.1738681  -0.3677328   0.0000000), wk =   0.0025641
        k(  367) = (   0.2259953  -0.3677328   0.1754375), wk =   0.0025641
        k(  368) = (   0.2781225  -0.3677328   0.3508750), wk =   0.0025641
        k(  369) = (   0.3302498  -0.3677328   0.5263125), wk =   0.0025641
        k(  370) = (   0.3823770  -0.3677328   0.7017500), wk =   0.0025641
        k(  371) = (   0.4345042  -0.3677328   0.8771875), wk =   0.0025641
        k(  372) = (   0.4866314  -0.3677328   1.0526250), wk =   0.0025641
        k(  373) = (  -0.1388952  -0.3677328  -1.0526250), wk =   0.0025641
        k(  374) = (  -0.0867679  -0.3677328  -0.8771875), wk =   0.0025641
        k(  375) = (  -0.0346407  -0.3677328  -0.7017500), wk =   0.0025641
        k(  376) = (   0.0174865  -0.3677328  -0.5263125), wk =   0.0025641
        k(  377) = (   0.0696137  -0.3677328  -0.3508750), wk =   0.0025641
        k(  378) = (   0.1217409  -0.3677328  -0.1754375), wk =   0.0025641
        k(  379) = (   0.1738681  -0.1838664   0.0000000), wk =   0.0025641
        k(  380) = (   0.2259953  -0.1838664   0.1754375), wk =   0.0025641
        k(  381) = (   0.2781225  -0.1838664   0.3508750), wk =   0.0025641
        k(  382) = (   0.3302498  -0.1838664   0.5263125), wk =   0.0025641
        k(  383) = (   0.3823770  -0.1838664   0.7017500), wk =   0.0025641
        k(  384) = (   0.4345042  -0.1838664   0.8771875), wk =   0.0025641
        k(  385) = (   0.4866314  -0.1838664   1.0526250), wk =   0.0025641
        k(  386) = (  -0.1388952  -0.1838664  -1.0526250), wk =   0.0025641
        k(  387) = (  -0.0867679  -0.1838664  -0.8771875), wk =   0.0025641
        k(  388) = (  -0.0346407  -0.1838664  -0.7017500), wk =   0.0025641
        k(  389) = (   0.0174865  -0.1838664  -0.5263125), wk =   0.0025641
        k(  390) = (   0.0696137  -0.1838664  -0.3508750), wk =   0.0025641
        k(  391) = (   0.1217409  -0.1838664  -0.1754375), wk =   0.0025641
        k(  392) = (   0.3477362   0.0000000   0.0000000), wk =   0.0025641
        k(  393) = (   0.3998635   0.0000000   0.1754375), wk =   0.0025641
        k(  394) = (   0.4519907   0.0000000   0.3508750), wk =   0.0025641
        k(  395) = (   0.5041179   0.0000000   0.5263125), wk =   0.0025641
        k(  396) = (   0.5562451   0.0000000   0.7017500), wk =   0.0025641
        k(  397) = (   0.6083723   0.0000000   0.8771875), wk =   0.0025641
        k(  398) = (   0.6604995   0.0000000   1.0526250), wk =   0.0025641
        k(  399) = (   0.0349730   0.0000000  -1.0526250), wk =   0.0025641
        k(  400) = (   0.0871002   0.0000000  -0.8771875), wk =   0.0025641
        k(  401) = (   0.1392274   0.0000000  -0.7017500), wk =   0.0025641
        k(  402) = (   0.1913546   0.0000000  -0.5263125), wk =   0.0025641
        k(  403) = (   0.2434818   0.0000000  -0.3508750), wk =   0.0025641
        k(  404) = (   0.2956090   0.0000000  -0.1754375), wk =   0.0025641
        k(  405) = (   0.3477362   0.1838664   0.0000000), wk =   0.0025641
        k(  406) = (   0.3998635   0.1838664   0.1754375), wk =   0.0025641
        k(  407) = (   0.4519907   0.1838664   0.3508750), wk =   0.0025641
        k(  408) = (   0.5041179   0.1838664   0.5263125), wk =   0.0025641
        k(  409) = (   0.5562451   0.1838664   0.7017500), wk =   0.0025641
        k(  410) = (   0.6083723   0.1838664   0.8771875), wk =   0.0025641
        k(  411) = (   0.6604995   0.1838664   1.0526250), wk =   0.0025641
        k(  412) = (   0.0349730   0.1838664  -1.0526250), wk =   0.0025641
        k(  413) = (   0.0871002   0.1838664  -0.8771875), wk =   0.0025641
        k(  414) = (   0.1392274   0.1838664  -0.7017500), wk =   0.0025641
        k(  415) = (   0.1913546   0.1838664  -0.5263125), wk =   0.0025641
        k(  416) = (   0.2434818   0.1838664  -0.3508750), wk =   0.0025641
        k(  417) = (   0.2956090   0.1838664  -0.1754375), wk =   0.0025641
        k(  418) = (   0.3477362   0.3677328   0.0000000), wk =   0.0025641
        k(  419) = (   0.3998635   0.3677328   0.1754375), wk =   0.0025641
        k(  420) = (   0.4519907   0.3677328   0.3508750), wk =   0.0025641
        k(  421) = (   0.5041179   0.3677328   0.5263125), wk =   0.0025641
        k(  422) = (   0.5562451   0.3677328   0.7017500), wk =   0.0025641
        k(  423) = (   0.6083723   0.3677328   0.8771875), wk =   0.0025641
        k(  424) = (   0.6604995   0.3677328   1.0526250), wk =   0.0025641
        k(  425) = (   0.0349730   0.3677328  -1.0526250), wk =   0.0025641
        k(  426) = (   0.0871002   0.3677328  -0.8771875), wk =   0.0025641
        k(  427) = (   0.1392274   0.3677328  -0.7017500), wk =   0.0025641
        k(  428) = (   0.1913546   0.3677328  -0.5263125), wk =   0.0025641
        k(  429) = (   0.2434818   0.3677328  -0.3508750), wk =   0.0025641
        k(  430) = (   0.2956090   0.3677328  -0.1754375), wk =   0.0025641
        k(  431) = (   0.3477362   0.5515991   0.0000000), wk =   0.0025641
        k(  432) = (   0.3998635   0.5515991   0.1754375), wk =   0.0025641
        k(  433) = (   0.4519907   0.5515991   0.3508750), wk =   0.0025641
        k(  434) = (   0.5041179   0.5515991   0.5263125), wk =   0.0025641
        k(  435) = (   0.5562451   0.5515991   0.7017500), wk =   0.0025641
        k(  436) = (   0.6083723   0.5515991   0.8771875), wk =   0.0025641
        k(  437) = (   0.6604995   0.5515991   1.0526250), wk =   0.0025641
        k(  438) = (   0.0349730   0.5515991  -1.0526250), wk =   0.0025641
        k(  439) = (   0.0871002   0.5515991  -0.8771875), wk =   0.0025641
        k(  440) = (   0.1392274   0.5515991  -0.7017500), wk =   0.0025641
        k(  441) = (   0.1913546   0.5515991  -0.5263125), wk =   0.0025641
        k(  442) = (   0.2434818   0.5515991  -0.3508750), wk =   0.0025641
        k(  443) = (   0.2956090   0.5515991  -0.1754375), wk =   0.0025641
        k(  444) = (   0.3477362   0.7354655   0.0000000), wk =   0.0025641
        k(  445) = (   0.3998635   0.7354655   0.1754375), wk =   0.0025641
        k(  446) = (   0.4519907   0.7354655   0.3508750), wk =   0.0025641
        k(  447) = (   0.5041179   0.7354655   0.5263125), wk =   0.0025641
        k(  448) = (   0.5562451   0.7354655   0.7017500), wk =   0.0025641
        k(  449) = (   0.6083723   0.7354655   0.8771875), wk =   0.0025641
        k(  450) = (   0.6604995   0.7354655   1.0526250), wk =   0.0025641
        k(  451) = (   0.0349730   0.7354655  -1.0526250), wk =   0.0025641
        k(  452) = (   0.0871002   0.7354655  -0.8771875), wk =   0.0025641
        k(  453) = (   0.1392274   0.7354655  -0.7017500), wk =   0.0025641
        k(  454) = (   0.1913546   0.7354655  -0.5263125), wk =   0.0025641
        k(  455) = (   0.2434818   0.7354655  -0.3508750), wk =   0.0025641
        k(  456) = (   0.2956090   0.7354655  -0.1754375), wk =   0.0025641
        k(  457) = (   0.3477362   0.9193319   0.0000000), wk =   0.0025641
        k(  458) = (   0.3998635   0.9193319   0.1754375), wk =   0.0025641
        k(  459) = (   0.4519907   0.9193319   0.3508750), wk =   0.0025641
        k(  460) = (   0.5041179   0.9193319   0.5263125), wk =   0.0025641
        k(  461) = (   0.5562451   0.9193319   0.7017500), wk =   0.0025641
        k(  462) = (   0.6083723   0.9193319   0.8771875), wk =   0.0025641
        k(  463) = (   0.6604995   0.9193319   1.0526250), wk =   0.0025641
        k(  464) = (   0.0349730   0.9193319  -1.0526250), wk =   0.0025641
        k(  465) = (   0.0871002   0.9193319  -0.8771875), wk =   0.0025641
        k(  466) = (   0.1392274   0.9193319  -0.7017500), wk =   0.0025641
        k(  467) = (   0.1913546   0.9193319  -0.5263125), wk =   0.0025641
        k(  468) = (   0.2434818   0.9193319  -0.3508750), wk =   0.0025641
        k(  469) = (   0.2956090   0.9193319  -0.1754375), wk =   0.0025641
        k(  470) = (   0.3477362   1.1031983   0.0000000), wk =   0.0025641
        k(  471) = (   0.3998635   1.1031983   0.1754375), wk =   0.0025641
        k(  472) = (   0.4519907   1.1031983   0.3508750), wk =   0.0025641
        k(  473) = (   0.5041179   1.1031983   0.5263125), wk =   0.0025641
        k(  474) = (   0.5562451   1.1031983   0.7017500), wk =   0.0025641
        k(  475) = (   0.6083723   1.1031983   0.8771875), wk =   0.0025641
        k(  476) = (   0.6604995   1.1031983   1.0526250), wk =   0.0025641
        k(  477) = (   0.0349730   1.1031983  -1.0526250), wk =   0.0025641
        k(  478) = (   0.0871002   1.1031983  -0.8771875), wk =   0.0025641
        k(  479) = (   0.1392274   1.1031983  -0.7017500), wk =   0.0025641
        k(  480) = (   0.1913546   1.1031983  -0.5263125), wk =   0.0025641
        k(  481) = (   0.2434818   1.1031983  -0.3508750), wk =   0.0025641
        k(  482) = (   0.2956090   1.1031983  -0.1754375), wk =   0.0025641
        k(  483) = (   0.3477362   1.2870646   0.0000000), wk =   0.0025641
        k(  484) = (   0.3998635   1.2870646   0.1754375), wk =   0.0025641
        k(  485) = (   0.4519907   1.2870646   0.3508750), wk =   0.0025641
        k(  486) = (   0.5041179   1.2870646   0.5263125), wk =   0.0025641
        k(  487) = (   0.5562451   1.2870646   0.7017500), wk =   0.0025641
        k(  488) = (   0.6083723   1.2870646   0.8771875), wk =   0.0025641
        k(  489) = (   0.6604995   1.2870646   1.0526250), wk =   0.0025641
        k(  490) = (   0.0349730   1.2870646  -1.0526250), wk =   0.0025641
        k(  491) = (   0.0871002   1.2870646  -0.8771875), wk =   0.0025641
        k(  492) = (   0.1392274   1.2870646  -0.7017500), wk =   0.0025641
        k(  493) = (   0.1913546   1.2870646  -0.5263125), wk =   0.0025641
        k(  494) = (   0.2434818   1.2870646  -0.3508750), wk =   0.0025641
        k(  495) = (   0.2956090   1.2870646  -0.1754375), wk =   0.0025641
        k(  496) = (   0.3477362   1.4709310   0.0000000), wk =   0.0025641
        k(  497) = (   0.3998635   1.4709310   0.1754375), wk =   0.0025641
        k(  498) = (   0.4519907   1.4709310   0.3508750), wk =   0.0025641
        k(  499) = (   0.5041179   1.4709310   0.5263125), wk =   0.0025641
        k(  500) = (   0.5562451   1.4709310   0.7017500), wk =   0.0025641
        k(  501) = (   0.6083723   1.4709310   0.8771875), wk =   0.0025641
        k(  502) = (   0.6604995   1.4709310   1.0526250), wk =   0.0025641
        k(  503) = (   0.0349730   1.4709310  -1.0526250), wk =   0.0025641
        k(  504) = (   0.0871002   1.4709310  -0.8771875), wk =   0.0025641
        k(  505) = (   0.1392274   1.4709310  -0.7017500), wk =   0.0025641
        k(  506) = (   0.1913546   1.4709310  -0.5263125), wk =   0.0025641
        k(  507) = (   0.2434818   1.4709310  -0.3508750), wk =   0.0025641
        k(  508) = (   0.2956090   1.4709310  -0.1754375), wk =   0.0025641
        k(  509) = (   0.3477362   1.6547974   0.0000000), wk =   0.0025641
        k(  510) = (   0.3998635   1.6547974   0.1754375), wk =   0.0025641
        k(  511) = (   0.4519907   1.6547974   0.3508750), wk =   0.0025641
        k(  512) = (   0.5041179   1.6547974   0.5263125), wk =   0.0025641
        k(  513) = (   0.5562451   1.6547974   0.7017500), wk =   0.0025641
        k(  514) = (   0.6083723   1.6547974   0.8771875), wk =   0.0025641
        k(  515) = (   0.6604995   1.6547974   1.0526250), wk =   0.0025641
        k(  516) = (   0.0349730   1.6547974  -1.0526250), wk =   0.0025641
        k(  517) = (   0.0871002   1.6547974  -0.8771875), wk =   0.0025641
        k(  518) = (   0.1392274   1.6547974  -0.7017500), wk =   0.0025641
        k(  519) = (   0.1913546   1.6547974  -0.5263125), wk =   0.0025641
        k(  520) = (   0.2434818   1.6547974  -0.3508750), wk =   0.0025641
        k(  521) = (   0.2956090   1.6547974  -0.1754375), wk =   0.0025641
        k(  522) = (   0.3477362  -1.8386638   0.0000000), wk =   0.0025641
        k(  523) = (   0.3998635  -1.8386638   0.1754375), wk =   0.0025641
        k(  524) = (   0.4519907  -1.8386638   0.3508750), wk =   0.0025641
        k(  525) = (   0.5041179  -1.8386638   0.5263125), wk =   0.0025641
        k(  526) = (   0.5562451  -1.8386638   0.7017500), wk =   0.0025641
        k(  527) = (   0.6083723  -1.8386638   0.8771875), wk =   0.0025641
        k(  528) = (   0.6604995  -1.8386638   1.0526250), wk =   0.0025641
        k(  529) = (   0.0349730  -1.8386638  -1.0526250), wk =   0.0025641
        k(  530) = (   0.0871002  -1.8386638  -0.8771875), wk =   0.0025641
        k(  531) = (   0.1392274  -1.8386638  -0.7017500), wk =   0.0025641
        k(  532) = (   0.1913546  -1.8386638  -0.5263125), wk =   0.0025641
        k(  533) = (   0.2434818  -1.8386638  -0.3508750), wk =   0.0025641
        k(  534) = (   0.2956090  -1.8386638  -0.1754375), wk =   0.0025641
        k(  535) = (   0.3477362  -1.6547974   0.0000000), wk =   0.0025641
        k(  536) = (   0.3998635  -1.6547974   0.1754375), wk =   0.0025641
        k(  537) = (   0.4519907  -1.6547974   0.3508750), wk =   0.0025641
        k(  538) = (   0.5041179  -1.6547974   0.5263125), wk =   0.0025641
        k(  539) = (   0.5562451  -1.6547974   0.7017500), wk =   0.0025641
        k(  540) = (   0.6083723  -1.6547974   0.8771875), wk =   0.0025641
        k(  541) = (   0.6604995  -1.6547974   1.0526250), wk =   0.0025641
        k(  542) = (   0.0349730  -1.6547974  -1.0526250), wk =   0.0025641
        k(  543) = (   0.0871002  -1.6547974  -0.8771875), wk =   0.0025641
        k(  544) = (   0.1392274  -1.6547974  -0.7017500), wk =   0.0025641
        k(  545) = (   0.1913546  -1.6547974  -0.5263125), wk =   0.0025641
        k(  546) = (   0.2434818  -1.6547974  -0.3508750), wk =   0.0025641
        k(  547) = (   0.2956090  -1.6547974  -0.1754375), wk =   0.0025641
        k(  548) = (   0.3477362  -1.4709310   0.0000000), wk =   0.0025641
        k(  549) = (   0.3998635  -1.4709310   0.1754375), wk =   0.0025641
        k(  550) = (   0.4519907  -1.4709310   0.3508750), wk =   0.0025641
        k(  551) = (   0.5041179  -1.4709310   0.5263125), wk =   0.0025641
        k(  552) = (   0.5562451  -1.4709310   0.7017500), wk =   0.0025641
        k(  553) = (   0.6083723  -1.4709310   0.8771875), wk =   0.0025641
        k(  554) = (   0.6604995  -1.4709310   1.0526250), wk =   0.0025641
        k(  555) = (   0.0349730  -1.4709310  -1.0526250), wk =   0.0025641
        k(  556) = (   0.0871002  -1.4709310  -0.8771875), wk =   0.0025641
        k(  557) = (   0.1392274  -1.4709310  -0.7017500), wk =   0.0025641
        k(  558) = (   0.1913546  -1.4709310  -0.5263125), wk =   0.0025641
        k(  559) = (   0.2434818  -1.4709310  -0.3508750), wk =   0.0025641
        k(  560) = (   0.2956090  -1.4709310  -0.1754375), wk =   0.0025641
        k(  561) = (   0.3477362  -1.2870646   0.0000000), wk =   0.0025641
        k(  562) = (   0.3998635  -1.2870646   0.1754375), wk =   0.0025641
        k(  563) = (   0.4519907  -1.2870646   0.3508750), wk =   0.0025641
        k(  564) = (   0.5041179  -1.2870646   0.5263125), wk =   0.0025641
        k(  565) = (   0.5562451  -1.2870646   0.7017500), wk =   0.0025641
        k(  566) = (   0.6083723  -1.2870646   0.8771875), wk =   0.0025641
        k(  567) = (   0.6604995  -1.2870646   1.0526250), wk =   0.0025641
        k(  568) = (   0.0349730  -1.2870646  -1.0526250), wk =   0.0025641
        k(  569) = (   0.0871002  -1.2870646  -0.8771875), wk =   0.0025641
        k(  570) = (   0.1392274  -1.2870646  -0.7017500), wk =   0.0025641
        k(  571) = (   0.1913546  -1.2870646  -0.5263125), wk =   0.0025641
        k(  572) = (   0.2434818  -1.2870646  -0.3508750), wk =   0.0025641
        k(  573) = (   0.2956090  -1.2870646  -0.1754375), wk =   0.0025641
        k(  574) = (   0.3477362  -1.1031983   0.0000000), wk =   0.0025641
        k(  575) = (   0.3998635  -1.1031983   0.1754375), wk =   0.0025641
        k(  576) = (   0.4519907  -1.1031983   0.3508750), wk =   0.0025641
        k(  577) = (   0.5041179  -1.1031983   0.5263125), wk =   0.0025641
        k(  578) = (   0.5562451  -1.1031983   0.7017500), wk =   0.0025641
        k(  579) = (   0.6083723  -1.1031983   0.8771875), wk =   0.0025641
        k(  580) = (   0.6604995  -1.1031983   1.0526250), wk =   0.0025641
        k(  581) = (   0.0349730  -1.1031983  -1.0526250), wk =   0.0025641
        k(  582) = (   0.0871002  -1.1031983  -0.8771875), wk =   0.0025641
        k(  583) = (   0.1392274  -1.1031983  -0.7017500), wk =   0.0025641
        k(  584) = (   0.1913546  -1.1031983  -0.5263125), wk =   0.0025641
        k(  585) = (   0.2434818  -1.1031983  -0.3508750), wk =   0.0025641
        k(  586) = (   0.2956090  -1.1031983  -0.1754375), wk =   0.0025641
        k(  587) = (   0.3477362  -0.9193319   0.0000000), wk =   0.0025641
        k(  588) = (   0.3998635  -0.9193319   0.1754375), wk =   0.0025641
        k(  589) = (   0.4519907  -0.9193319   0.3508750), wk =   0.0025641
        k(  590) = (   0.5041179  -0.9193319   0.5263125), wk =   0.0025641
        k(  591) = (   0.5562451  -0.9193319   0.7017500), wk =   0.0025641
        k(  592) = (   0.6083723  -0.9193319   0.8771875), wk =   0.0025641
        k(  593) = (   0.6604995  -0.9193319   1.0526250), wk =   0.0025641
        k(  594) = (   0.0349730  -0.9193319  -1.0526250), wk =   0.0025641
        k(  595) = (   0.0871002  -0.9193319  -0.8771875), wk =   0.0025641
        k(  596) = (   0.1392274  -0.9193319  -0.7017500), wk =   0.0025641
        k(  597) = (   0.1913546  -0.9193319  -0.5263125), wk =   0.0025641
        k(  598) = (   0.2434818  -0.9193319  -0.3508750), wk =   0.0025641
        k(  599) = (   0.2956090  -0.9193319  -0.1754375), wk =   0.0025641
        k(  600) = (   0.3477362  -0.7354655   0.0000000), wk =   0.0025641
        k(  601) = (   0.3998635  -0.7354655   0.1754375), wk =   0.0025641
        k(  602) = (   0.4519907  -0.7354655   0.3508750), wk =   0.0025641
        k(  603) = (   0.5041179  -0.7354655   0.5263125), wk =   0.0025641
        k(  604) = (   0.5562451  -0.7354655   0.7017500), wk =   0.0025641
        k(  605) = (   0.6083723  -0.7354655   0.8771875), wk =   0.0025641
        k(  606) = (   0.6604995  -0.7354655   1.0526250), wk =   0.0025641
        k(  607) = (   0.0349730  -0.7354655  -1.0526250), wk =   0.0025641
        k(  608) = (   0.0871002  -0.7354655  -0.8771875), wk =   0.0025641
        k(  609) = (   0.1392274  -0.7354655  -0.7017500), wk =   0.0025641
        k(  610) = (   0.1913546  -0.7354655  -0.5263125), wk =   0.0025641
        k(  611) = (   0.2434818  -0.7354655  -0.3508750), wk =   0.0025641
        k(  612) = (   0.2956090  -0.7354655  -0.1754375), wk =   0.0025641
        k(  613) = (   0.3477362  -0.5515991   0.0000000), wk =   0.0025641
        k(  614) = (   0.3998635  -0.5515991   0.1754375), wk =   0.0025641
        k(  615) = (   0.4519907  -0.5515991   0.3508750), wk =   0.0025641
        k(  616) = (   0.5041179  -0.5515991   0.5263125), wk =   0.0025641
        k(  617) = (   0.5562451  -0.5515991   0.7017500), wk =   0.0025641
        k(  618) = (   0.6083723  -0.5515991   0.8771875), wk =   0.0025641
        k(  619) = (   0.6604995  -0.5515991   1.0526250), wk =   0.0025641
        k(  620) = (   0.0349730  -0.5515991  -1.0526250), wk =   0.0025641
        k(  621) = (   0.0871002  -0.5515991  -0.8771875), wk =   0.0025641
        k(  622) = (   0.1392274  -0.5515991  -0.7017500), wk =   0.0025641
        k(  623) = (   0.1913546  -0.5515991  -0.5263125), wk =   0.0025641
        k(  624) = (   0.2434818  -0.5515991  -0.3508750), wk =   0.0025641
        k(  625) = (   0.2956090  -0.5515991  -0.1754375), wk =   0.0025641
        k(  626) = (   0.3477362  -0.3677328   0.0000000), wk =   0.0025641
        k(  627) = (   0.3998635  -0.3677328   0.1754375), wk =   0.0025641
        k(  628) = (   0.4519907  -0.3677328   0.3508750), wk =   0.0025641
        k(  629) = (   0.5041179  -0.3677328   0.5263125), wk =   0.0025641
        k(  630) = (   0.5562451  -0.3677328   0.7017500), wk =   0.0025641
        k(  631) = (   0.6083723  -0.3677328   0.8771875), wk =   0.0025641
        k(  632) = (   0.6604995  -0.3677328   1.0526250), wk =   0.0025641
        k(  633) = (   0.0349730  -0.3677328  -1.0526250), wk =   0.0025641
        k(  634) = (   0.0871002  -0.3677328  -0.8771875), wk =   0.0025641
        k(  635) = (   0.1392274  -0.3677328  -0.7017500), wk =   0.0025641
        k(  636) = (   0.1913546  -0.3677328  -0.5263125), wk =   0.0025641
        k(  637) = (   0.2434818  -0.3677328  -0.3508750), wk =   0.0025641
        k(  638) = (   0.2956090  -0.3677328  -0.1754375), wk =   0.0025641
        k(  639) = (   0.3477362  -0.1838664   0.0000000), wk =   0.0025641
        k(  640) = (   0.3998635  -0.1838664   0.1754375), wk =   0.0025641
        k(  641) = (   0.4519907  -0.1838664   0.3508750), wk =   0.0025641
        k(  642) = (   0.5041179  -0.1838664   0.5263125), wk =   0.0025641
        k(  643) = (   0.5562451  -0.1838664   0.7017500), wk =   0.0025641
        k(  644) = (   0.6083723  -0.1838664   0.8771875), wk =   0.0025641
        k(  645) = (   0.6604995  -0.1838664   1.0526250), wk =   0.0025641
        k(  646) = (   0.0349730  -0.1838664  -1.0526250), wk =   0.0025641
        k(  647) = (   0.0871002  -0.1838664  -0.8771875), wk =   0.0025641
        k(  648) = (   0.1392274  -0.1838664  -0.7017500), wk =   0.0025641
        k(  649) = (   0.1913546  -0.1838664  -0.5263125), wk =   0.0025641
        k(  650) = (   0.2434818  -0.1838664  -0.3508750), wk =   0.0025641
        k(  651) = (   0.2956090  -0.1838664  -0.1754375), wk =   0.0025641
        k(  652) = (  -0.5216044   0.0000000   0.0000000), wk =   0.0012821
        k(  653) = (  -0.4694771   0.0000000   0.1754375), wk =   0.0025641
        k(  654) = (  -0.4173499   0.0000000   0.3508750), wk =   0.0025641
        k(  655) = (  -0.3652227   0.0000000   0.5263125), wk =   0.0025641
        k(  656) = (  -0.3130955   0.0000000   0.7017500), wk =   0.0025641
        k(  657) = (  -0.2609683   0.0000000   0.8771875), wk =   0.0025641
        k(  658) = (  -0.2088411   0.0000000   1.0526250), wk =   0.0025641
        k(  659) = (  -0.5216044   0.1838664   0.0000000), wk =   0.0025641
        k(  660) = (  -0.4694771   0.1838664   0.1754375), wk =   0.0025641
        k(  661) = (  -0.4173499   0.1838664   0.3508750), wk =   0.0025641
        k(  662) = (  -0.3652227   0.1838664   0.5263125), wk =   0.0025641
        k(  663) = (  -0.3130955   0.1838664   0.7017500), wk =   0.0025641
        k(  664) = (  -0.2609683   0.1838664   0.8771875), wk =   0.0025641
        k(  665) = (  -0.2088411   0.1838664   1.0526250), wk =   0.0025641
        k(  666) = (  -0.8343676   0.1838664  -1.0526250), wk =   0.0025641
        k(  667) = (  -0.7822404   0.1838664  -0.8771875), wk =   0.0025641
        k(  668) = (  -0.7301132   0.1838664  -0.7017500), wk =   0.0025641
        k(  669) = (  -0.6779860   0.1838664  -0.5263125), wk =   0.0025641
        k(  670) = (  -0.6258588   0.1838664  -0.3508750), wk =   0.0025641
        k(  671) = (  -0.5737316   0.1838664  -0.1754375), wk =   0.0025641
        k(  672) = (  -0.5216044   0.3677328   0.0000000), wk =   0.0025641
        k(  673) = (  -0.4694771   0.3677328   0.1754375), wk =   0.0025641
        k(  674) = (  -0.4173499   0.3677328   0.3508750), wk =   0.0025641
        k(  675) = (  -0.3652227   0.3677328   0.5263125), wk =   0.0025641
        k(  676) = (  -0.3130955   0.3677328   0.7017500), wk =   0.0025641
        k(  677) = (  -0.2609683   0.3677328   0.8771875), wk =   0.0025641
        k(  678) = (  -0.2088411   0.3677328   1.0526250), wk =   0.0025641
        k(  679) = (  -0.8343676   0.3677328  -1.0526250), wk =   0.0025641
        k(  680) = (  -0.7822404   0.3677328  -0.8771875), wk =   0.0025641
        k(  681) = (  -0.7301132   0.3677328  -0.7017500), wk =   0.0025641
        k(  682) = (  -0.6779860   0.3677328  -0.5263125), wk =   0.0025641
        k(  683) = (  -0.6258588   0.3677328  -0.3508750), wk =   0.0025641
        k(  684) = (  -0.5737316   0.3677328  -0.1754375), wk =   0.0025641
        k(  685) = (  -0.5216044   0.5515991   0.0000000), wk =   0.0025641
        k(  686) = (  -0.4694771   0.5515991   0.1754375), wk =   0.0025641
        k(  687) = (  -0.4173499   0.5515991   0.3508750), wk =   0.0025641
        k(  688) = (  -0.3652227   0.5515991   0.5263125), wk =   0.0025641
        k(  689) = (  -0.3130955   0.5515991   0.7017500), wk =   0.0025641
        k(  690) = (  -0.2609683   0.5515991   0.8771875), wk =   0.0025641
        k(  691) = (  -0.2088411   0.5515991   1.0526250), wk =   0.0025641
        k(  692) = (  -0.8343676   0.5515991  -1.0526250), wk =   0.0025641
        k(  693) = (  -0.7822404   0.5515991  -0.8771875), wk =   0.0025641
        k(  694) = (  -0.7301132   0.5515991  -0.7017500), wk =   0.0025641
        k(  695) = (  -0.6779860   0.5515991  -0.5263125), wk =   0.0025641
        k(  696) = (  -0.6258588   0.5515991  -0.3508750), wk =   0.0025641
        k(  697) = (  -0.5737316   0.5515991  -0.1754375), wk =   0.0025641
        k(  698) = (  -0.5216044   0.7354655   0.0000000), wk =   0.0025641
        k(  699) = (  -0.4694771   0.7354655   0.1754375), wk =   0.0025641
        k(  700) = (  -0.4173499   0.7354655   0.3508750), wk =   0.0025641
        k(  701) = (  -0.3652227   0.7354655   0.5263125), wk =   0.0025641
        k(  702) = (  -0.3130955   0.7354655   0.7017500), wk =   0.0025641
        k(  703) = (  -0.2609683   0.7354655   0.8771875), wk =   0.0025641
        k(  704) = (  -0.2088411   0.7354655   1.0526250), wk =   0.0025641
        k(  705) = (  -0.8343676   0.7354655  -1.0526250), wk =   0.0025641
        k(  706) = (  -0.7822404   0.7354655  -0.8771875), wk =   0.0025641
        k(  707) = (  -0.7301132   0.7354655  -0.7017500), wk =   0.0025641
        k(  708) = (  -0.6779860   0.7354655  -0.5263125), wk =   0.0025641
        k(  709) = (  -0.6258588   0.7354655  -0.3508750), wk =   0.0025641
        k(  710) = (  -0.5737316   0.7354655  -0.1754375), wk =   0.0025641
        k(  711) = (  -0.5216044   0.9193319   0.0000000), wk =   0.0025641
        k(  712) = (  -0.4694771   0.9193319   0.1754375), wk =   0.0025641
        k(  713) = (  -0.4173499   0.9193319   0.3508750), wk =   0.0025641
        k(  714) = (  -0.3652227   0.9193319   0.5263125), wk =   0.0025641
        k(  715) = (  -0.3130955   0.9193319   0.7017500), wk =   0.0025641
        k(  716) = (  -0.2609683   0.9193319   0.8771875), wk =   0.0025641
        k(  717) = (  -0.2088411   0.9193319   1.0526250), wk =   0.0025641
        k(  718) = (  -0.8343676   0.9193319  -1.0526250), wk =   0.0025641
        k(  719) = (  -0.7822404   0.9193319  -0.8771875), wk =   0.0025641
        k(  720) = (  -0.7301132   0.9193319  -0.7017500), wk =   0.0025641
        k(  721) = (  -0.6779860   0.9193319  -0.5263125), wk =   0.0025641
        k(  722) = (  -0.6258588   0.9193319  -0.3508750), wk =   0.0025641
        k(  723) = (  -0.5737316   0.9193319  -0.1754375), wk =   0.0025641
        k(  724) = (  -0.5216044   1.1031983   0.0000000), wk =   0.0025641
        k(  725) = (  -0.4694771   1.1031983   0.1754375), wk =   0.0025641
        k(  726) = (  -0.4173499   1.1031983   0.3508750), wk =   0.0025641
        k(  727) = (  -0.3652227   1.1031983   0.5263125), wk =   0.0025641
        k(  728) = (  -0.3130955   1.1031983   0.7017500), wk =   0.0025641
        k(  729) = (  -0.2609683   1.1031983   0.8771875), wk =   0.0025641
        k(  730) = (  -0.2088411   1.1031983   1.0526250), wk =   0.0025641
        k(  731) = (  -0.8343676   1.1031983  -1.0526250), wk =   0.0025641
        k(  732) = (  -0.7822404   1.1031983  -0.8771875), wk =   0.0025641
        k(  733) = (  -0.7301132   1.1031983  -0.7017500), wk =   0.0025641
        k(  734) = (  -0.6779860   1.1031983  -0.5263125), wk =   0.0025641
        k(  735) = (  -0.6258588   1.1031983  -0.3508750), wk =   0.0025641
        k(  736) = (  -0.5737316   1.1031983  -0.1754375), wk =   0.0025641
        k(  737) = (  -0.5216044   1.2870646   0.0000000), wk =   0.0025641
        k(  738) = (  -0.4694771   1.2870646   0.1754375), wk =   0.0025641
        k(  739) = (  -0.4173499   1.2870646   0.3508750), wk =   0.0025641
        k(  740) = (  -0.3652227   1.2870646   0.5263125), wk =   0.0025641
        k(  741) = (  -0.3130955   1.2870646   0.7017500), wk =   0.0025641
        k(  742) = (  -0.2609683   1.2870646   0.8771875), wk =   0.0025641
        k(  743) = (  -0.2088411   1.2870646   1.0526250), wk =   0.0025641
        k(  744) = (  -0.8343676   1.2870646  -1.0526250), wk =   0.0025641
        k(  745) = (  -0.7822404   1.2870646  -0.8771875), wk =   0.0025641
        k(  746) = (  -0.7301132   1.2870646  -0.7017500), wk =   0.0025641
        k(  747) = (  -0.6779860   1.2870646  -0.5263125), wk =   0.0025641
        k(  748) = (  -0.6258588   1.2870646  -0.3508750), wk =   0.0025641
        k(  749) = (  -0.5737316   1.2870646  -0.1754375), wk =   0.0025641
        k(  750) = (  -0.5216044   1.4709310   0.0000000), wk =   0.0025641
        k(  751) = (  -0.4694771   1.4709310   0.1754375), wk =   0.0025641
        k(  752) = (  -0.4173499   1.4709310   0.3508750), wk =   0.0025641
        k(  753) = (  -0.3652227   1.4709310   0.5263125), wk =   0.0025641
        k(  754) = (  -0.3130955   1.4709310   0.7017500), wk =   0.0025641
        k(  755) = (  -0.2609683   1.4709310   0.8771875), wk =   0.0025641
        k(  756) = (  -0.2088411   1.4709310   1.0526250), wk =   0.0025641
        k(  757) = (  -0.8343676   1.4709310  -1.0526250), wk =   0.0025641
        k(  758) = (  -0.7822404   1.4709310  -0.8771875), wk =   0.0025641
        k(  759) = (  -0.7301132   1.4709310  -0.7017500), wk =   0.0025641
        k(  760) = (  -0.6779860   1.4709310  -0.5263125), wk =   0.0025641
        k(  761) = (  -0.6258588   1.4709310  -0.3508750), wk =   0.0025641
        k(  762) = (  -0.5737316   1.4709310  -0.1754375), wk =   0.0025641
        k(  763) = (  -0.5216044   1.6547974   0.0000000), wk =   0.0025641
        k(  764) = (  -0.4694771   1.6547974   0.1754375), wk =   0.0025641
        k(  765) = (  -0.4173499   1.6547974   0.3508750), wk =   0.0025641
        k(  766) = (  -0.3652227   1.6547974   0.5263125), wk =   0.0025641
        k(  767) = (  -0.3130955   1.6547974   0.7017500), wk =   0.0025641
        k(  768) = (  -0.2609683   1.6547974   0.8771875), wk =   0.0025641
        k(  769) = (  -0.2088411   1.6547974   1.0526250), wk =   0.0025641
        k(  770) = (  -0.8343676   1.6547974  -1.0526250), wk =   0.0025641
        k(  771) = (  -0.7822404   1.6547974  -0.8771875), wk =   0.0025641
        k(  772) = (  -0.7301132   1.6547974  -0.7017500), wk =   0.0025641
        k(  773) = (  -0.6779860   1.6547974  -0.5263125), wk =   0.0025641
        k(  774) = (  -0.6258588   1.6547974  -0.3508750), wk =   0.0025641
        k(  775) = (  -0.5737316   1.6547974  -0.1754375), wk =   0.0025641
        k(  776) = (  -0.5216044  -1.8386638   0.0000000), wk =   0.0012821
        k(  777) = (  -0.4694771  -1.8386638   0.1754375), wk =   0.0025641
        k(  778) = (  -0.4173499  -1.8386638   0.3508750), wk =   0.0025641
        k(  779) = (  -0.3652227  -1.8386638   0.5263125), wk =   0.0025641
        k(  780) = (  -0.3130955  -1.8386638   0.7017500), wk =   0.0025641
        k(  781) = (  -0.2609683  -1.8386638   0.8771875), wk =   0.0025641
        k(  782) = (  -0.2088411  -1.8386638   1.0526250), wk =   0.0025641

                       cryst. coord.
        k(    1) = (   0.0000000   0.0000000   0.0000000), wk =   0.0012821
        k(    2) = (   0.0000000   0.0000000   0.0769231), wk =   0.0025641
        k(    3) = (   0.0000000   0.0000000   0.1538462), wk =   0.0025641
        k(    4) = (   0.0000000   0.0000000   0.2307692), wk =   0.0025641
        k(    5) = (   0.0000000   0.0000000   0.3076923), wk =   0.0025641
        k(    6) = (   0.0000000   0.0000000   0.3846154), wk =   0.0025641
        k(    7) = (   0.0000000   0.0000000   0.4615385), wk =   0.0025641
        k(    8) = (   0.0000000   0.0500000   0.0000000), wk =   0.0025641
        k(    9) = (   0.0000000   0.0500000   0.0769231), wk =   0.0025641
        k(   10) = (   0.0000000   0.0500000   0.1538462), wk =   0.0025641
        k(   11) = (   0.0000000   0.0500000   0.2307692), wk =   0.0025641
        k(   12) = (   0.0000000   0.0500000   0.3076923), wk =   0.0025641
        k(   13) = (   0.0000000   0.0500000   0.3846154), wk =   0.0025641
        k(   14) = (   0.0000000   0.0500000   0.4615385), wk =   0.0025641
        k(   15) = (  -0.0000000   0.0500000  -0.4615385), wk =   0.0025641
        k(   16) = (  -0.0000000   0.0500000  -0.3846154), wk =   0.0025641
        k(   17) = (  -0.0000000   0.0500000  -0.3076923), wk =   0.0025641
        k(   18) = (  -0.0000000   0.0500000  -0.2307692), wk =   0.0025641
        k(   19) = (  -0.0000000   0.0500000  -0.1538462), wk =   0.0025641
        k(   20) = (   0.0000000   0.0500000  -0.0769231), wk =   0.0025641
        k(   21) = (   0.0000000   0.1000000   0.0000000), wk =   0.0025641
        k(   22) = (   0.0000000   0.1000000   0.0769231), wk =   0.0025641
        k(   23) = (   0.0000000   0.1000000   0.1538462), wk =   0.0025641
        k(   24) = (   0.0000000   0.1000000   0.2307692), wk =   0.0025641
        k(   25) = (   0.0000000   0.1000000   0.3076923), wk =   0.0025641
        k(   26) = (   0.0000000   0.1000000   0.3846154), wk =   0.0025641
        k(   27) = (   0.0000000   0.1000000   0.4615385), wk =   0.0025641
        k(   28) = (  -0.0000000   0.1000000  -0.4615385), wk =   0.0025641
        k(   29) = (  -0.0000000   0.1000000  -0.3846154), wk =   0.0025641
        k(   30) = (  -0.0000000   0.1000000  -0.3076923), wk =   0.0025641
        k(   31) = (  -0.0000000   0.1000000  -0.2307692), wk =   0.0025641
        k(   32) = (  -0.0000000   0.1000000  -0.1538462), wk =   0.0025641
        k(   33) = (   0.0000000   0.1000000  -0.0769231), wk =   0.0025641
        k(   34) = (   0.0000000   0.1500000   0.0000000), wk =   0.0025641
        k(   35) = (   0.0000000   0.1500000   0.0769231), wk =   0.0025641
        k(   36) = (   0.0000000   0.1500000   0.1538462), wk =   0.0025641
        k(   37) = (   0.0000000   0.1500000   0.2307692), wk =   0.0025641
        k(   38) = (   0.0000000   0.1500000   0.3076923), wk =   0.0025641
        k(   39) = (   0.0000000   0.1500000   0.3846154), wk =   0.0025641
        k(   40) = (   0.0000000   0.1500000   0.4615385), wk =   0.0025641
        k(   41) = (  -0.0000000   0.1500000  -0.4615385), wk =   0.0025641
        k(   42) = (  -0.0000000   0.1500000  -0.3846154), wk =   0.0025641
        k(   43) = (  -0.0000000   0.1500000  -0.3076923), wk =   0.0025641
        k(   44) = (  -0.0000000   0.1500000  -0.2307692), wk =   0.0025641
        k(   45) = (  -0.0000000   0.1500000  -0.1538462), wk =   0.0025641
        k(   46) = (   0.0000000   0.1500000  -0.0769231), wk =   0.0025641
        k(   47) = (   0.0000000   0.2000000   0.0000000), wk =   0.0025641
        k(   48) = (   0.0000000   0.2000000   0.0769231), wk =   0.0025641
        k(   49) = (   0.0000000   0.2000000   0.1538462), wk =   0.0025641
        k(   50) = (   0.0000000   0.2000000   0.2307692), wk =   0.0025641
        k(   51) = (   0.0000000   0.2000000   0.3076923), wk =   0.0025641
        k(   52) = (   0.0000000   0.2000000   0.3846154), wk =   0.0025641
        k(   53) = (   0.0000000   0.2000000   0.4615385), wk =   0.0025641
        k(   54) = (  -0.0000000   0.2000000  -0.4615385), wk =   0.0025641
        k(   55) = (  -0.0000000   0.2000000  -0.3846154), wk =   0.0025641
        k(   56) = (  -0.0000000   0.2000000  -0.3076923), wk =   0.0025641
        k(   57) = (  -0.0000000   0.2000000  -0.2307692), wk =   0.0025641
        k(   58) = (  -0.0000000   0.2000000  -0.1538462), wk =   0.0025641
        k(   59) = (   0.0000000   0.2000000  -0.0769231), wk =   0.0025641
        k(   60) = (   0.0000000   0.2500000   0.0000000), wk =   0.0025641
        k(   61) = (   0.0000000   0.2500000   0.0769231), wk =   0.0025641
        k(   62) = (   0.0000000   0.2500000   0.1538462), wk =   0.0025641
        k(   63) = (   0.0000000   0.2500000   0.2307692), wk =   0.0025641
        k(   64) = (   0.0000000   0.2500000   0.3076923), wk =   0.0025641
        k(   65) = (   0.0000000   0.2500000   0.3846154), wk =   0.0025641
        k(   66) = (   0.0000000   0.2500000   0.4615385), wk =   0.0025641
        k(   67) = (  -0.0000000   0.2500000  -0.4615385), wk =   0.0025641
        k(   68) = (  -0.0000000   0.2500000  -0.3846154), wk =   0.0025641
        k(   69) = (  -0.0000000   0.2500000  -0.3076923), wk =   0.0025641
        k(   70) = (  -0.0000000   0.2500000  -0.2307692), wk =   0.0025641
        k(   71) = (  -0.0000000   0.2500000  -0.1538462), wk =   0.0025641
        k(   72) = (   0.0000000   0.2500000  -0.0769231), wk =   0.0025641
        k(   73) = (   0.0000000   0.3000000   0.0000000), wk =   0.0025641
        k(   74) = (   0.0000000   0.3000000   0.0769231), wk =   0.0025641
        k(   75) = (   0.0000000   0.3000000   0.1538462), wk =   0.0025641
        k(   76) = (   0.0000000   0.3000000   0.2307692), wk =   0.0025641
        k(   77) = (   0.0000000   0.3000000   0.3076923), wk =   0.0025641
        k(   78) = (   0.0000000   0.3000000   0.3846154), wk =   0.0025641
        k(   79) = (   0.0000000   0.3000000   0.4615385), wk =   0.0025641
        k(   80) = (  -0.0000000   0.3000000  -0.4615385), wk =   0.0025641
        k(   81) = (  -0.0000000   0.3000000  -0.3846154), wk =   0.0025641
        k(   82) = (  -0.0000000   0.3000000  -0.3076923), wk =   0.0025641
        k(   83) = (  -0.0000000   0.3000000  -0.2307692), wk =   0.0025641
        k(   84) = (  -0.0000000   0.3000000  -0.1538462), wk =   0.0025641
        k(   85) = (   0.0000000   0.3000000  -0.0769231), wk =   0.0025641
        k(   86) = (   0.0000000   0.3500000   0.0000000), wk =   0.0025641
        k(   87) = (   0.0000000   0.3500000   0.0769231), wk =   0.0025641
        k(   88) = (   0.0000000   0.3500000   0.1538462), wk =   0.0025641
        k(   89) = (   0.0000000   0.3500000   0.2307692), wk =   0.0025641
        k(   90) = (   0.0000000   0.3500000   0.3076923), wk =   0.0025641
        k(   91) = (   0.0000000   0.3500000   0.3846154), wk =   0.0025641
        k(   92) = (   0.0000000   0.3500000   0.4615385), wk =   0.0025641
        k(   93) = (  -0.0000000   0.3500000  -0.4615385), wk =   0.0025641
        k(   94) = (  -0.0000000   0.3500000  -0.3846154), wk =   0.0025641
        k(   95) = (  -0.0000000   0.3500000  -0.3076923), wk =   0.0025641
        k(   96) = (  -0.0000000   0.3500000  -0.2307692), wk =   0.0025641
        k(   97) = (  -0.0000000   0.3500000  -0.1538462), wk =   0.0025641
        k(   98) = (   0.0000000   0.3500000  -0.0769231), wk =   0.0025641
        k(   99) = (   0.0000000   0.4000000   0.0000000), wk =   0.0025641
        k(  100) = (   0.0000000   0.4000000   0.0769231), wk =   0.0025641
        k(  101) = (   0.0000000   0.4000000   0.1538462), wk =   0.0025641
        k(  102) = (   0.0000000   0.4000000   0.2307692), wk =   0.0025641
        k(  103) = (   0.0000000   0.4000000   0.3076923), wk =   0.0025641
        k(  104) = (   0.0000000   0.4000000   0.3846154), wk =   0.0025641
        k(  105) = (   0.0000000   0.4000000   0.4615385), wk =   0.0025641
        k(  106) = (  -0.0000000   0.4000000  -0.4615385), wk =   0.0025641
        k(  107) = (  -0.0000000   0.4000000  -0.3846154), wk =   0.0025641
        k(  108) = (  -0.0000000   0.4000000  -0.3076923), wk =   0.0025641
        k(  109) = (  -0.0000000   0.4000000  -0.2307692), wk =   0.0025641
        k(  110) = (  -0.0000000   0.4000000  -0.1538462), wk =   0.0025641
        k(  111) = (   0.0000000   0.4000000  -0.0769231), wk =   0.0025641
        k(  112) = (   0.0000000   0.4500000   0.0000000), wk =   0.0025641
        k(  113) = (   0.0000000   0.4500000   0.0769231), wk =   0.0025641
        k(  114) = (   0.0000000   0.4500000   0.1538462), wk =   0.0025641
        k(  115) = (   0.0000000   0.4500000   0.2307692), wk =   0.0025641
        k(  116) = (   0.0000000   0.4500000   0.3076923), wk =   0.0025641
        k(  117) = (   0.0000000   0.4500000   0.3846154), wk =   0.0025641
        k(  118) = (   0.0000000   0.4500000   0.4615385), wk =   0.0025641
        k(  119) = (  -0.0000000   0.4500000  -0.4615385), wk =   0.0025641
        k(  120) = (  -0.0000000   0.4500000  -0.3846154), wk =   0.0025641
        k(  121) = (  -0.0000000   0.4500000  -0.3076923), wk =   0.0025641
        k(  122) = (  -0.0000000   0.4500000  -0.2307692), wk =   0.0025641
        k(  123) = (  -0.0000000   0.4500000  -0.1538462), wk =   0.0025641
        k(  124) = (   0.0000000   0.4500000  -0.0769231), wk =   0.0025641
        k(  125) = (   0.0000000  -0.5000000   0.0000000), wk =   0.0012821
        k(  126) = (   0.0000000  -0.5000000   0.0769231), wk =   0.0025641
        k(  127) = (   0.0000000  -0.5000000   0.1538462), wk =   0.0025641
        k(  128) = (   0.0000000  -0.5000000   0.2307692), wk =   0.0025641
        k(  129) = (   0.0000000  -0.5000000   0.3076923), wk =   0.0025641
        k(  130) = (   0.0000000  -0.5000000   0.3846154), wk =   0.0025641
        k(  131) = (   0.0000000  -0.5000000   0.4615385), wk =   0.0025641
        k(  132) = (   0.1666667   0.0000000   0.0000000), wk =   0.0025641
        k(  133) = (   0.1666667   0.0000000   0.0769231), wk =   0.0025641
        k(  134) = (   0.1666667   0.0000000   0.1538462), wk =   0.0025641
        k(  135) = (   0.1666667   0.0000000   0.2307692), wk =   0.0025641
        k(  136) = (   0.1666667   0.0000000   0.3076923), wk =   0.0025641
        k(  137) = (   0.1666667   0.0000000   0.3846154), wk =   0.0025641
        k(  138) = (   0.1666667   0.0000000   0.4615385), wk =   0.0025641
        k(  139) = (   0.1666667   0.0000000  -0.4615385), wk =   0.0025641
        k(  140) = (   0.1666667   0.0000000  -0.3846154), wk =   0.0025641
        k(  141) = (   0.1666667   0.0000000  -0.3076923), wk =   0.0025641
        k(  142) = (   0.1666667   0.0000000  -0.2307692), wk =   0.0025641
        k(  143) = (   0.1666667   0.0000000  -0.1538462), wk =   0.0025641
[...]

          k =-0.2088-1.8387 1.0526 ( 11456 PWs)   bands (ev):

    -2.9043  -2.9043  -2.0965  -2.0965  -1.7336  -1.7336  -1.1430  -1.1430
     0.2422   0.2422   0.8050   0.8050   1.0993   1.0993   1.9449   1.9449
     2.0551   2.0551   3.0208   3.0208   3.4875   3.4875   4.0098   4.0098
     4.3799   4.3799   4.8060   4.8060   5.2651   5.2651   5.7571   5.7571
     6.3957   6.3957   6.7177   6.7177   7.0209   7.0209   7.3228   7.3228

     occupation numbers 
     1.0000   1.0000   1.0000   1.0000   1.0000   1.0000   1.0000   1.0000
     1.0000   1.0000   1.0000   1.0000   1.0000   1.0000   1.0000   1.0000
     1.0000   1.0000   1.0000   1.0000   1.0000   1.0000   1.0000   1.0000
     1.0000   1.0000   1.0000   1.0000   1.0010   1.0010   1.0182   1.0182
     0.9388   0.9388   0.5902   0.5902   0.1910   0.1910  -0.0116  -0.0116

     the Fermi energy is     6.7821 ev

!    total energy              =    -597.36824611 Ry
     Harris-Foulkes estimate   =    -597.36824611 Ry
     estimated scf accuracy    <          9.8E-14 Ry

     The total energy is the sum of the following terms:

     one-electron contribution =      48.73402281 Ry
     hartree contribution      =       6.72289658 Ry
     xc contribution           =     -77.80266530 Ry
     ewald contribution        =    -116.67130360 Ry
     one-center paw contrib.   =    -458.35078871 Ry
      -> PAW hartree energy AE =       1.24987312 Ry
      -> PAW hartree energy PS =      -1.24543465 Ry
      -> PAW xc energy AE      =     -36.50927395 Ry
      -> PAW xc energy PS      =       1.83096444 Ry
      -> total E_H with PAW    =       6.72733505 Ry
      -> total E_XC with PAW   =    -112.48097482 Ry
     smearing contrib. (-TS)   =      -0.00040789 Ry

     convergence has been achieved in  16 iterations

     Forces acting on atoms (cartesian axes, Ry/au):

     atom    1 type  1   force =    -0.00000392   -0.00000002   -0.00001403
     atom    2 type  2   force =    -0.00089591    0.00000006   -0.00009646
     atom    3 type  2   force =    -0.00163520   -0.00000001   -0.00063131
     atom    4 type  2   force =     0.00163725   -0.00000001    0.00063156
     atom    5 type  2   force =     0.00089457    0.00000006    0.00009680
     atom    6 type  3   force =    -0.00053216    0.00000021   -0.00006735
     atom    7 type  3   force =     0.00093237    0.00000006    0.00079979
     atom    8 type  1   force =    -0.00080787    0.00000004   -0.00119703
     atom    9 type  1   force =     0.00080742   -0.00000001    0.00119675
     atom   10 type  3   force =    -0.00093236    0.00000000   -0.00079999
     atom   11 type  3   force =     0.00053192    0.00000012    0.00006733
     atom   12 type  1   force =     0.00000349    0.00000001    0.00001386
     atom   13 type  2   force =    -0.00088015   -0.00000005   -0.00005861
     atom   14 type  2   force =    -0.00161442    0.00000001   -0.00062100
     atom   15 type  2   force =     0.00161628    0.00000000    0.00062114
     atom   16 type  2   force =     0.00087894   -0.00000006    0.00005907
     atom   17 type  3   force =    -0.00051998   -0.00000012   -0.00007869
     atom   18 type  3   force =     0.00092435   -0.00000001    0.00079766
     atom   19 type  1   force =    -0.00081460   -0.00000001   -0.00118363
     atom   20 type  1   force =     0.00081424   -0.00000002    0.00118336
     atom   21 type  3   force =    -0.00092420   -0.00000004   -0.00079790
     atom   22 type  3   force =     0.00051992   -0.00000020    0.00007868
     The non-local contrib.  to forces
     atom    1 type  1   force =    -0.00002757   -0.00000002   -0.00002436
     atom    2 type  2   force =     0.01173690    0.00000039    0.01040230
     atom    3 type  2   force =     0.00895170    0.00000009    0.01225071
     atom    4 type  2   force =    -0.00896630   -0.00000009   -0.01225141
     atom    5 type  2   force =    -0.01175595    0.00000035   -0.01040603
     atom    6 type  3   force =    -0.03090139    0.00000011   -0.04017906
     atom    7 type  3   force =     0.00670779    0.00000028    0.01768958
     atom    8 type  1   force =     0.00646985    0.00000003   -0.00229262
     atom    9 type  1   force =    -0.00647913    0.00000001    0.00229048
     atom   10 type  3   force =    -0.00669628   -0.00000015   -0.01768442
     atom   11 type  3   force =     0.03090760    0.00000026    0.04017668
     atom   12 type  1   force =     0.00001800    0.00000002    0.00002221
     atom   13 type  2   force =     0.01178761   -0.00000032    0.01055656
     atom   14 type  2   force =     0.00899291    0.00000014    0.01226693
     atom   15 type  2   force =    -0.00900777   -0.00000012   -0.01226775
     atom   16 type  2   force =    -0.01180558   -0.00000042   -0.01056025
     atom   17 type  3   force =    -0.03088832   -0.00000017   -0.04017859
     atom   18 type  3   force =     0.00664928    0.00000012    0.01773068
     atom   19 type  1   force =     0.00646330   -0.00000002   -0.00227826
     atom   20 type  1   force =    -0.00647256   -0.00000001    0.00227608
     atom   21 type  3   force =    -0.00663772   -0.00000026   -0.01772568
     atom   22 type  3   force =     0.03089472   -0.00000018    0.04017574
     The ionic contribution  to forces
     atom    1 type  1   force =    -0.00061947   -0.00000000   -0.00013909
     atom    2 type  2   force =    -0.06432807    0.00000000   -0.13189273
     atom    3 type  2   force =    -0.02558012    0.00000000    0.07470401
     atom    4 type  2   force =     0.02557569   -0.00000000   -0.07470376
     atom    5 type  2   force =     0.06428499   -0.00000000    0.13190457
     atom    6 type  3   force =     0.27950307   -0.00000000    0.46952592
     atom    7 type  3   force =    -0.22498100   -0.00000000   -0.58500186
     atom    8 type  1   force =    -0.01768411   -0.00000000    0.30508452
     atom    9 type  1   force =     0.01768321    0.00000000   -0.30510972
     atom   10 type  3   force =     0.22507204    0.00000000    0.58503528
     atom   11 type  3   force =    -0.27949861    0.00000000   -0.46954286
     atom   12 type  1   force =     0.00051978    0.00000000    0.00013490
     atom   13 type  2   force =    -0.06388332   -0.00000000   -0.13180076
     atom   14 type  2   force =    -0.02530294   -0.00000000    0.07481177
     atom   15 type  2   force =     0.02529906    0.00000000   -0.07481217
     atom   16 type  2   force =     0.06384218    0.00000000    0.13181309
     atom   17 type  3   force =     0.28057128    0.00000000    0.46929436
     atom   18 type  3   force =    -0.22453447    0.00000000   -0.58528296
     atom   19 type  1   force =    -0.01757796    0.00000000    0.30511305
     atom   20 type  1   force =     0.01757833   -0.00000000   -0.30513787
     atom   21 type  3   force =     0.22462750   -0.00000000    0.58531634
     atom   22 type  3   force =    -0.28056705   -0.00000000   -0.46931404
     The local contribution  to forces
     atom    1 type  1   force =     0.00063656   -0.00000000    0.00014572
     atom    2 type  2   force =     0.05329700   -0.00000030    0.12246179
     atom    3 type  2   force =     0.01602601   -0.00000009   -0.08607940
     atom    4 type  2   force =    -0.01601208    0.00000007    0.08607918
     atom    5 type  2   force =    -0.05324394   -0.00000026   -0.12247073
     atom    6 type  3   force =    -0.25212402    0.00000011   -0.43339636
     atom    7 type  3   force =     0.21984758   -0.00000019    0.56975689
     atom    8 type  1   force =     0.01118880    0.00000001   -0.30389049
     atom    9 type  1   force =    -0.01118572   -0.00000002    0.30391641
     atom   10 type  3   force =    -0.21993689    0.00000014   -0.56979007
     atom   11 type  3   force =     0.25212233   -0.00000011    0.43341332
     atom   12 type  1   force =    -0.00053455   -0.00000000   -0.00014067
     atom   13 type  2   force =     0.05282224    0.00000024    0.12227110
     atom   14 type  2   force =     0.01573297   -0.00000012   -0.08619078
     atom   15 type  2   force =    -0.01571957    0.00000011    0.08619123
     atom   16 type  2   force =    -0.05277196    0.00000032   -0.12228046
     atom   17 type  3   force =    -0.25319183    0.00000003   -0.43317661
     atom   18 type  3   force =     0.21944512   -0.00000012    0.56999889
     atom   19 type  1   force =     0.01108221    0.00000001   -0.30391849
     atom   20 type  1   force =    -0.01108035   -0.00000002    0.30394407
     atom   21 type  3   force =    -0.21953649    0.00000019   -0.57003203
     atom   22 type  3   force =     0.25319019   -0.00000004    0.43319619
     The core correction contribution to forces
     atom    1 type  1   force =     0.00000381    0.00000000    0.00000328
     atom    2 type  2   force =    -0.00160449   -0.00000004   -0.00106826
     atom    3 type  2   force =    -0.00103553   -0.00000001   -0.00150704
     atom    4 type  2   force =     0.00103718    0.00000001    0.00150711
     atom    5 type  2   force =     0.00160671   -0.00000003    0.00106861
     atom    6 type  3   force =     0.00298747   -0.00000001    0.00398181
     atom    7 type  3   force =    -0.00064476   -0.00000003   -0.00164530
     atom    8 type  1   force =    -0.00078514   -0.00000000   -0.00009882
     atom    9 type  1   force =     0.00078630   -0.00000000    0.00009913
     atom   10 type  3   force =     0.00062604    0.00000002    0.00163886
     atom   11 type  3   force =    -0.00300219   -0.00000003   -0.00398031
     atom   12 type  1   force =    -0.00000249   -0.00000000   -0.00000300
     atom   13 type  2   force =    -0.00160944    0.00000003   -0.00108597
     atom   14 type  2   force =    -0.00104011   -0.00000001   -0.00150931
     atom   15 type  2   force =     0.00104180    0.00000001    0.00150939
     atom   16 type  2   force =     0.00161155    0.00000004    0.00108631
     atom   17 type  3   force =     0.00298616    0.00000002    0.00398180
     atom   18 type  3   force =    -0.00063837   -0.00000001   -0.00164944
     atom   19 type  1   force =    -0.00078490    0.00000000   -0.00010032
     atom   20 type  1   force =     0.00078605    0.00000000    0.00010063
     atom   21 type  3   force =     0.00061978    0.00000003    0.00164311
     atom   22 type  3   force =    -0.00300073    0.00000002   -0.00397970
     The Hubbard contrib.    to forces
     atom    1 type  1   force =     0.00000000    0.00000000    0.00000000
     atom    2 type  2   force =     0.00000000    0.00000000    0.00000000
     atom    3 type  2   force =     0.00000000    0.00000000    0.00000000
     atom    4 type  2   force =     0.00000000    0.00000000    0.00000000
     atom    5 type  2   force =     0.00000000    0.00000000    0.00000000
     atom    6 type  3   force =     0.00000000    0.00000000    0.00000000
     atom    7 type  3   force =     0.00000000    0.00000000    0.00000000
     atom    8 type  1   force =     0.00000000    0.00000000    0.00000000
     atom    9 type  1   force =     0.00000000    0.00000000    0.00000000
     atom   10 type  3   force =     0.00000000    0.00000000    0.00000000
     atom   11 type  3   force =     0.00000000    0.00000000    0.00000000
     atom   12 type  1   force =     0.00000000    0.00000000    0.00000000
     atom   13 type  2   force =     0.00000000    0.00000000    0.00000000
     atom   14 type  2   force =     0.00000000    0.00000000    0.00000000
     atom   15 type  2   force =     0.00000000    0.00000000    0.00000000
     atom   16 type  2   force =     0.00000000    0.00000000    0.00000000
     atom   17 type  3   force =     0.00000000    0.00000000    0.00000000
     atom   18 type  3   force =     0.00000000    0.00000000    0.00000000
     atom   19 type  1   force =     0.00000000    0.00000000    0.00000000
     atom   20 type  1   force =     0.00000000    0.00000000    0.00000000
     atom   21 type  3   force =     0.00000000    0.00000000    0.00000000
     atom   22 type  3   force =     0.00000000    0.00000000    0.00000000
     The SCF correction term to forces
     atom    1 type  1   force =    -0.00000000   -0.00000000   -0.00000000
     atom    2 type  2   force =    -0.00000000   -0.00000000    0.00000003
     atom    3 type  2   force =    -0.00000001   -0.00000000   -0.00000002
     atom    4 type  2   force =     0.00000000   -0.00000000    0.00000002
     atom    5 type  2   force =    -0.00000000   -0.00000000   -0.00000004
     atom    6 type  3   force =    -0.00000004    0.00000000   -0.00000007
     atom    7 type  3   force =     0.00000001    0.00000000    0.00000006
     atom    8 type  1   force =    -0.00000002    0.00000000   -0.00000003
     atom    9 type  1   force =     0.00000001    0.00000000    0.00000003
     atom   10 type  3   force =    -0.00000002    0.00000000   -0.00000006
     atom   11 type  3   force =     0.00000003    0.00000000    0.00000008
     atom   12 type  1   force =     0.00000000    0.00000000    0.00000000
     atom   13 type  2   force =     0.00000000   -0.00000000    0.00000004
     atom   14 type  2   force =     0.00000000    0.00000000   -0.00000002
     atom   15 type  2   force =     0.00000001    0.00000000    0.00000002
     atom   16 type  2   force =     0.00000000    0.00000000   -0.00000003
     atom   17 type  3   force =    -0.00000002    0.00000000   -0.00000008
     atom   18 type  3   force =     0.00000003   -0.00000000    0.00000006
     atom   19 type  1   force =    -0.00000000   -0.00000000   -0.00000003
     atom   20 type  1   force =     0.00000002    0.00000000    0.00000003
     atom   21 type  3   force =    -0.00000001   -0.00000000   -0.00000006
     atom   22 type  3   force =     0.00000003   -0.00000000    0.00000007

     Total force =     0.005545     Total SCF correction =     0.000000


     Computing stress (Cartesian axis) and pressure

          total   stress  (Ry/bohr**3)                   (kbar)     P=   -4.82
  -0.00003299   0.00000000  -0.00000695         -4.85      0.00     -1.02
   0.00000000  -0.00001850  -0.00000000          0.00     -2.72     -0.00
  -0.00000695  -0.00000000  -0.00004685         -1.02     -0.00     -6.89

     kinetic stress (kbar)   1458.26      0.00    -14.24
                                0.00   1480.94     -0.00
                              -14.24     -0.00   1457.65

     local   stress (kbar)    -47.04     -0.00   -125.29
                               -0.00    489.88     -0.00
                             -125.29     -0.00     14.89

     nonloc. stress (kbar)   1130.84     -0.00      3.68
                               -0.00   1127.04      0.00
                                3.68      0.00   1126.46

     hartree stress (kbar)    184.06      0.00     30.09
                                0.00     20.79      0.00
                               30.09      0.00    163.41

     exc-cor stress (kbar)   1484.04     -0.00      0.23
                               -0.00   1483.52      0.00
                                0.23      0.00   1483.69

     corecor stress (kbar)  -2227.57      0.00     -0.33
                                0.00  -2227.30     -0.00
                               -0.33     -0.00  -2226.96

     ewald   stress (kbar)  -1987.45      0.00    104.83
                                0.00  -2377.59      0.00
                              104.83      0.00  -2026.03

     hubbard stress (kbar)      0.00      0.00      0.00
                                0.00      0.00      0.00
                                0.00      0.00      0.00

     london  stress (kbar)      0.00      0.00      0.00
                                0.00      0.00      0.00
                                0.00      0.00      0.00

     DFT-D3  stress (kbar)      0.00      0.00      0.00
                                0.00      0.00      0.00
                                0.00      0.00      0.00

     XDM     stress (kbar)      0.00      0.00      0.00
                                0.00      0.00      0.00
                                0.00      0.00      0.00

     dft-nl  stress (kbar)      0.00      0.00      0.00
                                0.00      0.00      0.00
                                0.00      0.00      0.00

     TS-vdW  stress (kbar)      0.00      0.00      0.00
                                0.00      0.00      0.00
                                0.00      0.00      0.00



     Writing output data file aiida.save/
 
     init_run     :     23.88s CPU     24.37s WALL (       1 calls)
     electrons    :    800.65s CPU    811.68s WALL (       1 calls)
     forces       :      9.40s CPU      9.50s WALL (       1 calls)
     stress       :     64.69s CPU     65.51s WALL (       1 calls)

     Called by init_run:
     wfcinit      :     21.38s CPU     21.78s WALL (       1 calls)
     wfcinit:atom :      0.16s CPU      0.18s WALL (     196 calls)
     wfcinit:wfcr :     19.90s CPU     20.20s WALL (     196 calls)
     potinit      :      0.85s CPU      0.87s WALL (       1 calls)
     hinit0       :      1.48s CPU      1.50s WALL (       1 calls)

     Called by electrons:
     c_bands      :    717.34s CPU    725.73s WALL (      17 calls)
     sum_band     :     78.15s CPU     79.99s WALL (      17 calls)
     v_of_rho     :      1.23s CPU      1.32s WALL (      17 calls)
     v_h          :      0.09s CPU      0.09s WALL (      17 calls)
     v_xc         :      1.26s CPU      1.36s WALL (      19 calls)
     newd         :      1.37s CPU      2.01s WALL (      17 calls)
     PAW_pot      :      2.09s CPU      2.17s WALL (      17 calls)
     mix_rho      :      0.49s CPU      0.52s WALL (      17 calls)

     Called by c_bands:
     init_us_2    :     22.27s CPU     22.55s WALL (    7252 calls)
     cegterg      :    564.89s CPU    572.25s WALL (    3332 calls)

     Called by sum_band:
     sum_band:bec :      0.50s CPU      0.50s WALL (    3332 calls)
     addusdens    :      1.37s CPU      2.14s WALL (      17 calls)

     Called by *egterg:
     h_psi        :    385.30s CPU    391.32s WALL (   16308 calls)
     s_psi        :     56.22s CPU     56.36s WALL (   16308 calls)
     g_psi        :      2.62s CPU      2.64s WALL (   12780 calls)
     cdiaghg      :     64.17s CPU     65.17s WALL (   15916 calls)
     cegterg:over :     29.71s CPU     29.88s WALL (   12780 calls)
     cegterg:upda :     23.46s CPU     23.71s WALL (   12780 calls)
     cegterg:last :      9.67s CPU      9.72s WALL (    3838 calls)
     cdiaghg:chol :      4.29s CPU      4.33s WALL (   15916 calls)
     cdiaghg:inve :      0.85s CPU      0.86s WALL (   15916 calls)
     cdiaghg:para :      8.53s CPU      8.59s WALL (   31832 calls)

     Called by h_psi:
     h_psi:pot    :    383.40s CPU    389.41s WALL (   16308 calls)
     h_psi:calbec :     55.90s CPU     56.45s WALL (   16308 calls)
     vloc_psi     :    271.02s CPU    276.33s WALL (   16308 calls)
     add_vuspsi   :     56.33s CPU     56.51s WALL (   16308 calls)

     General routines
     calbec       :    102.28s CPU    103.78s WALL (   20620 calls)
     fft          :      0.98s CPU      1.07s WALL (     246 calls)
     ffts         :      0.19s CPU      0.20s WALL (     265 calls)
     fftw         :    286.86s CPU    292.27s WALL (  932304 calls)
     interpolate  :      0.10s CPU      0.10s WALL (      17 calls)
 
     Parallel routines
     fft_scatt_xy :     36.04s CPU     36.77s WALL (  932815 calls)
     fft_scatt_yz :    111.98s CPU    114.31s WALL (  932815 calls)

     PAW routines
     PAW_pot      :      2.09s CPU      2.17s WALL (      17 calls)
 
     PWSCF        :  15m23.22s CPU  15m51.53s WALL

 
   This run was terminated on:  10: 7:13  22Feb2020            

=------------------------------------------------------------------------------=
   JOB DONE.
=------------------------------------------------------------------------------=
