
     Program PWSCF v.6.3 starts on 22Feb2020 at 14:12:35 

     This program is part of the open-source Quantum ESPRESSO suite
     for quantum simulation of materials; please cite
         "P. Giannozzi et al., J. Phys.:Condens. Matter 21 395502 (2009);
         "P. Giannozzi et al., J. Phys.:Condens. Matter 29 465901 (2017);
          URL http://www.quantum-espresso.org", 
     in publications or presentations arising from this work. More details at
     http://www.quantum-espresso.org/quote

 *** WARNING: using old-style file format, will disappear from next version ***

     Parallel version (MPI & OpenMP), running on      36 processor cores
     Number of MPI processes:                36
     Threads/MPI process:                     1

     MPI processes distributed on     1 nodes
     K-points division:     npool     =       4
     R & G space division:  proc/nbgrp/npool/nimage =       9
     Reading input from aiida.in
Warning: card &IONS ignored
Warning: card   !PRESS_CONV_THR = 0.05                 ! JUST FOR VOLUME RELAXATIONS ignored
Warning: card / ignored

     Current dimensions of program PWSCF are:
     Max number of different atomic species (ntypx) = 10
     Max number of k-points (npk) =  40000
     Max angular momentum in pseudopotentials (lmaxx) =  3
               file Al.pbe-n-kjpaw_psl.1.0.0.UPF: wavefunction(s)  3S 3P renormalized
               file Mg.pbe-n-kjpaw_psl.0.3.0.UPF: wavefunction(s)  3S renormalized

     Subspace diagonalization in iterative solution of the eigenvalue problem:
     one sub-group per band group will be used
     scalapack distributed-memory algorithm (size of sub-group:  2*  2 procs)

 
     Parallelization info
     --------------------
     sticks:   dense  smooth     PW     G-vecs:    dense   smooth      PW
     Min         786     315     91                40219    10181    1587
     Max         787     316     92                40222    10182    1589
     Sum        7077    2841    821               361983    91631   14293
 


     bravais-lattice index     =            0
     lattice parameter (alat)  =      28.5872  a.u.
     unit-cell volume          =    2680.0921 (a.u.)^3
     number of atoms/cell      =           22
     number of atomic types    =            3
     number of electrons       =        66.00
     number of Kohn-Sham states=           40
     kinetic-energy cutoff     =      40.0000  Ry
     charge density cutoff     =     400.0000  Ry
     convergence threshold     =      1.0E-12
     mixing beta               =       0.4000
     number of iterations used =            8  local-TF  mixing
     Exchange-correlation      = PBE ( 1  4  3  4 0 0)

     celldm(1)=  28.587173  celldm(2)=   0.000000  celldm(3)=   0.000000
     celldm(4)=   0.000000  celldm(5)=   0.000000  celldm(6)=   0.000000

     crystal axes: (cart. coord. in units of alat)
               a(1) = (   0.958485   0.000000  -0.285142 )  
               a(2) = (   0.000000   0.272453   0.000000 )  
               a(3) = (   0.000479   0.000000   0.439155 )  

     reciprocal axes: (cart. coord. in units 2 pi/alat)
               b(1) = (  1.042974  0.000000 -0.001138 )  
               b(2) = (  0.000000  3.670354  0.000000 )  
               b(3) = (  0.677200  0.000000  2.276363 )  


     PseudoPot. # 1 for Al read from file:
     /users/aglensk/Dropbox/Albert/scripts/dotfiles/scripts/potentials/quantum_espresso/pseudo_SSSPefV1.1_alalloy/Al.pbe-n-kjpaw_psl.1.0.0.UPF
     MD5 check sum: cfc449ca30b5f3223ec38ddd88ac046d
     Pseudo is Projector augmented-wave + core cor, Zval =  3.0
     Generated using "atomic" code by A. Dal Corso v.5.1
     Shape of augmentation charge: PSQ
     Using radial grid of 1135 points,  6 beta functions with: 
                l(1) =   0
                l(2) =   0
                l(3) =   1
                l(4) =   1
                l(5) =   2
                l(6) =   2
     Q(r) pseudized with 0 coefficients 


     PseudoPot. # 2 for Mg read from file:
     /users/aglensk/Dropbox/Albert/scripts/dotfiles/scripts/potentials/quantum_espresso/pseudo_SSSPefV1.1_alalloy/Mg.pbe-n-kjpaw_psl.0.3.0.UPF
     MD5 check sum: 24ecedc7f3e3cbe212e682f4413594e4
     Pseudo is Projector augmented-wave + core cor, Zval =  2.0
     Generated using "atomic" code by A. Dal Corso v.5.0.99 svn rev. 10869
     Shape of augmentation charge: PSQ
     Using radial grid of 1129 points,  4 beta functions with: 
                l(1) =   0
                l(2) =   0
                l(3) =   1
                l(4) =   1
     Q(r) pseudized with 0 coefficients 


     PseudoPot. # 3 for Si read from file:
     /users/aglensk/Dropbox/Albert/scripts/dotfiles/scripts/potentials/quantum_espresso/pseudo_SSSPefV1.1_alalloy/Si.pbe-n-rrkjus_psl.1.0.0.UPF
     MD5 check sum: 0b0bb1205258b0d07b9f9672cf965d36
     Pseudo is Ultrasoft + core correction, Zval =  4.0
     Generated using "atomic" code by A. Dal Corso v.5.1
     Using radial grid of 1141 points,  6 beta functions with: 
                l(1) =   0
                l(2) =   0
                l(3) =   1
                l(4) =   1
                l(5) =   2
                l(6) =   2
     Q(r) pseudized with 0 coefficients 


     atomic species   valence    mass     pseudopotential
        Al             3.00    26.98154     Al( 1.00)
        Mg             2.00    24.30500     Mg( 1.00)
        Si             4.00    28.08500     Si( 1.00)

     No symmetry found


                                    s                        frac. trans.

      isym =  1     identity                                     

 cryst.   s( 1) = (     1          0          0      )
                  (     0          1          0      )
                  (     0          0          1      )

 cart.    s( 1) = (  1.0000000  0.0000000 -0.0000000 )
                  (  0.0000000  1.0000000  0.0000000 )
                  (  0.0000000  0.0000000  1.0000000 )


   Cartesian axes

     site n.     atom                  positions (alat units)
         1           Al  tau(   1) = (   0.0018325   0.0000000   0.4336959  )
         2           Mg  tau(   2) = (   0.0704500   0.1362267   0.1263688  )
         3           Mg  tau(   3) = (   0.1486794   0.1362267   0.3515413  )
         4           Mg  tau(   4) = (   0.3337492   0.0000000  -0.0659301  )
         5           Mg  tau(   5) = (   0.4119797   0.0000000   0.1592470  )
         6           Si  tau(   6) = (   0.0569624   0.0000000   0.2700735  )
         7           Si  tau(   7) = (   0.1762693   0.0000000   0.0380851  )
         8           Al  tau(   8) = (   0.2105634   0.0000000   0.2046700  )
         9           Al  tau(   9) = (   0.2718620   0.1362267   0.0809406  )
        10           Si  tau(  10) = (   0.3061518   0.1362267   0.2475247  )
        11           Si  tau(  11) = (   0.4254613   0.1362267   0.0155406  )
        12           Al  tau(  12) = (   0.4810726   0.1362267   0.2910739  )
        13           Mg  tau(  13) = (   0.5496809   0.0000000  -0.0162593  )
        14           Mg  tau(  14) = (   0.6279026   0.0000000   0.2089483  )
        15           Mg  tau(  15) = (   0.8130115   0.1362267  -0.2084787  )
        16           Mg  tau(  16) = (   0.8912341   0.1362267   0.0167334  )
        17           Si  tau(  17) = (   0.5361965   0.1362267   0.1274565  )
        18           Si  tau(  18) = (   0.6555210   0.1362267  -0.1044996  )
        19           Al  tau(  19) = (   0.6898116   0.1362267   0.0620895  )
        20           Al  tau(  20) = (   0.7510991   0.0000000  -0.0616205  )
        21           Si  tau(  21) = (   0.7853854   0.0000000   0.1049678  )
        22           Si  tau(  22) = (   0.9047127   0.0000000  -0.1269842  )

   Crystallographic axes

     site n.     atom                  positions (cryst. coord.)
         1           Al  tau(   1) = (  0.0014177  0.0000000  0.9884901  )
         2           Mg  tau(   2) = (  0.0733337  0.5000000  0.3353701  )
         3           Mg  tau(   3) = (  0.1546687  0.5000000  0.9009212  )
         4           Mg  tau(   4) = (  0.3481669  0.0000000  0.0759342  )
         5           Mg  tau(   5) = (  0.4295029  0.0000000  0.6414966  )
         6           Si  tau(   6) = (  0.0591030  0.0000000  0.6533601  )
         7           Si  tau(   7) = (  0.1838009  0.0000000  0.2060650  )
         8           Al  tau(   8) = (  0.2193792  0.0000000  0.6084967  )
         9           Al  tau(   9) = (  0.2834529  0.5000000  0.3683551  )
        10           Si  tau(  10) = (  0.3190267  0.5000000  0.7707819  )
        11           Si  tau(  11) = (  0.4437275  0.5000000  0.3234984  )
        12           Al  tau(  12) = (  0.5014150  0.5000000  0.9883721  )
        13           Mg  tau(  13) = (  0.5733215  0.0000000  0.3352319  )
        14           Mg  tau(  14) = (  0.6546484  0.0000000  0.9008577  )
        15           Mg  tau(  15) = (  0.8481873  0.5000000  0.0759981  )
        16           Mg  tau(  16) = (  0.9295151  0.5000000  0.6416351  )
        17           Si  tau(  17) = (  0.5590940  0.5000000  0.6532495  )
        18           Si  tau(  18) = (  0.6838104  0.5000000  0.2060398  )
        19           Al  tau(  19) = (  0.7193850  0.5000000  0.6084786  )
        20           Al  tau(  20) = (  0.7834471  0.0000000  0.3683736  )
        21           Si  tau(  21) = (  0.8190173  0.0000000  0.7708077  )
        22           Si  tau(  22) = (  0.9437365  0.0000000  0.3236093  )

     number of k points=   782  Methfessel-Paxton smearing, width (Ry)=  0.0441
                       cart. coord. in units 2pi/alat
        k(    1) = (   0.0000000   0.0000000   0.0000000), wk =   0.0012821
        k(    2) = (   0.0520923   0.0000000   0.1751048), wk =   0.0025641
        k(    3) = (   0.1041846   0.0000000   0.3502097), wk =   0.0025641
        k(    4) = (   0.1562769   0.0000000   0.5253145), wk =   0.0025641
        k(    5) = (   0.2083692   0.0000000   0.7004193), wk =   0.0025641
        k(    6) = (   0.2604615   0.0000000   0.8755241), wk =   0.0025641
        k(    7) = (   0.3125538   0.0000000   1.0506290), wk =   0.0025641
        k(    8) = (   0.0000000   0.1835177   0.0000000), wk =   0.0025641
        k(    9) = (   0.0520923   0.1835177   0.1751048), wk =   0.0025641
        k(   10) = (   0.1041846   0.1835177   0.3502097), wk =   0.0025641
        k(   11) = (   0.1562769   0.1835177   0.5253145), wk =   0.0025641
        k(   12) = (   0.2083692   0.1835177   0.7004193), wk =   0.0025641
        k(   13) = (   0.2604615   0.1835177   0.8755241), wk =   0.0025641
        k(   14) = (   0.3125538   0.1835177   1.0506290), wk =   0.0025641
        k(   15) = (  -0.3125538   0.1835177  -1.0506290), wk =   0.0025641
        k(   16) = (  -0.2604615   0.1835177  -0.8755241), wk =   0.0025641
        k(   17) = (  -0.2083692   0.1835177  -0.7004193), wk =   0.0025641
        k(   18) = (  -0.1562769   0.1835177  -0.5253145), wk =   0.0025641
        k(   19) = (  -0.1041846   0.1835177  -0.3502097), wk =   0.0025641
        k(   20) = (  -0.0520923   0.1835177  -0.1751048), wk =   0.0025641
        k(   21) = (   0.0000000   0.3670354   0.0000000), wk =   0.0025641
        k(   22) = (   0.0520923   0.3670354   0.1751048), wk =   0.0025641
        k(   23) = (   0.1041846   0.3670354   0.3502097), wk =   0.0025641
        k(   24) = (   0.1562769   0.3670354   0.5253145), wk =   0.0025641
        k(   25) = (   0.2083692   0.3670354   0.7004193), wk =   0.0025641
        k(   26) = (   0.2604615   0.3670354   0.8755241), wk =   0.0025641
        k(   27) = (   0.3125538   0.3670354   1.0506290), wk =   0.0025641
        k(   28) = (  -0.3125538   0.3670354  -1.0506290), wk =   0.0025641
        k(   29) = (  -0.2604615   0.3670354  -0.8755241), wk =   0.0025641
        k(   30) = (  -0.2083692   0.3670354  -0.7004193), wk =   0.0025641
        k(   31) = (  -0.1562769   0.3670354  -0.5253145), wk =   0.0025641
        k(   32) = (  -0.1041846   0.3670354  -0.3502097), wk =   0.0025641
        k(   33) = (  -0.0520923   0.3670354  -0.1751048), wk =   0.0025641
        k(   34) = (   0.0000000   0.5505530   0.0000000), wk =   0.0025641
        k(   35) = (   0.0520923   0.5505530   0.1751048), wk =   0.0025641
        k(   36) = (   0.1041846   0.5505530   0.3502097), wk =   0.0025641
        k(   37) = (   0.1562769   0.5505530   0.5253145), wk =   0.0025641
        k(   38) = (   0.2083692   0.5505530   0.7004193), wk =   0.0025641
        k(   39) = (   0.2604615   0.5505530   0.8755241), wk =   0.0025641
        k(   40) = (   0.3125538   0.5505530   1.0506290), wk =   0.0025641
        k(   41) = (  -0.3125538   0.5505530  -1.0506290), wk =   0.0025641
        k(   42) = (  -0.2604615   0.5505530  -0.8755241), wk =   0.0025641
        k(   43) = (  -0.2083692   0.5505530  -0.7004193), wk =   0.0025641
        k(   44) = (  -0.1562769   0.5505530  -0.5253145), wk =   0.0025641
        k(   45) = (  -0.1041846   0.5505530  -0.3502097), wk =   0.0025641
        k(   46) = (  -0.0520923   0.5505530  -0.1751048), wk =   0.0025641
        k(   47) = (   0.0000000   0.7340707   0.0000000), wk =   0.0025641
        k(   48) = (   0.0520923   0.7340707   0.1751048), wk =   0.0025641
        k(   49) = (   0.1041846   0.7340707   0.3502097), wk =   0.0025641
        k(   50) = (   0.1562769   0.7340707   0.5253145), wk =   0.0025641
        k(   51) = (   0.2083692   0.7340707   0.7004193), wk =   0.0025641
        k(   52) = (   0.2604615   0.7340707   0.8755241), wk =   0.0025641
        k(   53) = (   0.3125538   0.7340707   1.0506290), wk =   0.0025641
        k(   54) = (  -0.3125538   0.7340707  -1.0506290), wk =   0.0025641
        k(   55) = (  -0.2604615   0.7340707  -0.8755241), wk =   0.0025641
        k(   56) = (  -0.2083692   0.7340707  -0.7004193), wk =   0.0025641
        k(   57) = (  -0.1562769   0.7340707  -0.5253145), wk =   0.0025641
        k(   58) = (  -0.1041846   0.7340707  -0.3502097), wk =   0.0025641
        k(   59) = (  -0.0520923   0.7340707  -0.1751048), wk =   0.0025641
        k(   60) = (   0.0000000   0.9175884   0.0000000), wk =   0.0025641
        k(   61) = (   0.0520923   0.9175884   0.1751048), wk =   0.0025641
        k(   62) = (   0.1041846   0.9175884   0.3502097), wk =   0.0025641
        k(   63) = (   0.1562769   0.9175884   0.5253145), wk =   0.0025641
        k(   64) = (   0.2083692   0.9175884   0.7004193), wk =   0.0025641
        k(   65) = (   0.2604615   0.9175884   0.8755241), wk =   0.0025641
        k(   66) = (   0.3125538   0.9175884   1.0506290), wk =   0.0025641
        k(   67) = (  -0.3125538   0.9175884  -1.0506290), wk =   0.0025641
        k(   68) = (  -0.2604615   0.9175884  -0.8755241), wk =   0.0025641
        k(   69) = (  -0.2083692   0.9175884  -0.7004193), wk =   0.0025641
        k(   70) = (  -0.1562769   0.9175884  -0.5253145), wk =   0.0025641
        k(   71) = (  -0.1041846   0.9175884  -0.3502097), wk =   0.0025641
        k(   72) = (  -0.0520923   0.9175884  -0.1751048), wk =   0.0025641
        k(   73) = (   0.0000000   1.1011061   0.0000000), wk =   0.0025641
        k(   74) = (   0.0520923   1.1011061   0.1751048), wk =   0.0025641
        k(   75) = (   0.1041846   1.1011061   0.3502097), wk =   0.0025641
        k(   76) = (   0.1562769   1.1011061   0.5253145), wk =   0.0025641
        k(   77) = (   0.2083692   1.1011061   0.7004193), wk =   0.0025641
        k(   78) = (   0.2604615   1.1011061   0.8755241), wk =   0.0025641
        k(   79) = (   0.3125538   1.1011061   1.0506290), wk =   0.0025641
        k(   80) = (  -0.3125538   1.1011061  -1.0506290), wk =   0.0025641
        k(   81) = (  -0.2604615   1.1011061  -0.8755241), wk =   0.0025641
        k(   82) = (  -0.2083692   1.1011061  -0.7004193), wk =   0.0025641
        k(   83) = (  -0.1562769   1.1011061  -0.5253145), wk =   0.0025641
        k(   84) = (  -0.1041846   1.1011061  -0.3502097), wk =   0.0025641
        k(   85) = (  -0.0520923   1.1011061  -0.1751048), wk =   0.0025641
        k(   86) = (   0.0000000   1.2846237   0.0000000), wk =   0.0025641
        k(   87) = (   0.0520923   1.2846237   0.1751048), wk =   0.0025641
        k(   88) = (   0.1041846   1.2846237   0.3502097), wk =   0.0025641
        k(   89) = (   0.1562769   1.2846237   0.5253145), wk =   0.0025641
        k(   90) = (   0.2083692   1.2846237   0.7004193), wk =   0.0025641
        k(   91) = (   0.2604615   1.2846237   0.8755241), wk =   0.0025641
        k(   92) = (   0.3125538   1.2846237   1.0506290), wk =   0.0025641
        k(   93) = (  -0.3125538   1.2846237  -1.0506290), wk =   0.0025641
        k(   94) = (  -0.2604615   1.2846237  -0.8755241), wk =   0.0025641
        k(   95) = (  -0.2083692   1.2846237  -0.7004193), wk =   0.0025641
        k(   96) = (  -0.1562769   1.2846237  -0.5253145), wk =   0.0025641
        k(   97) = (  -0.1041846   1.2846237  -0.3502097), wk =   0.0025641
        k(   98) = (  -0.0520923   1.2846237  -0.1751048), wk =   0.0025641
        k(   99) = (   0.0000000   1.4681414   0.0000000), wk =   0.0025641
        k(  100) = (   0.0520923   1.4681414   0.1751048), wk =   0.0025641
        k(  101) = (   0.1041846   1.4681414   0.3502097), wk =   0.0025641
        k(  102) = (   0.1562769   1.4681414   0.5253145), wk =   0.0025641
        k(  103) = (   0.2083692   1.4681414   0.7004193), wk =   0.0025641
        k(  104) = (   0.2604615   1.4681414   0.8755241), wk =   0.0025641
        k(  105) = (   0.3125538   1.4681414   1.0506290), wk =   0.0025641
        k(  106) = (  -0.3125538   1.4681414  -1.0506290), wk =   0.0025641
        k(  107) = (  -0.2604615   1.4681414  -0.8755241), wk =   0.0025641
        k(  108) = (  -0.2083692   1.4681414  -0.7004193), wk =   0.0025641
        k(  109) = (  -0.1562769   1.4681414  -0.5253145), wk =   0.0025641
        k(  110) = (  -0.1041846   1.4681414  -0.3502097), wk =   0.0025641
        k(  111) = (  -0.0520923   1.4681414  -0.1751048), wk =   0.0025641
        k(  112) = (   0.0000000   1.6516591   0.0000000), wk =   0.0025641
        k(  113) = (   0.0520923   1.6516591   0.1751048), wk =   0.0025641
        k(  114) = (   0.1041846   1.6516591   0.3502097), wk =   0.0025641
        k(  115) = (   0.1562769   1.6516591   0.5253145), wk =   0.0025641
        k(  116) = (   0.2083692   1.6516591   0.7004193), wk =   0.0025641
        k(  117) = (   0.2604615   1.6516591   0.8755241), wk =   0.0025641
        k(  118) = (   0.3125538   1.6516591   1.0506290), wk =   0.0025641
        k(  119) = (  -0.3125538   1.6516591  -1.0506290), wk =   0.0025641
        k(  120) = (  -0.2604615   1.6516591  -0.8755241), wk =   0.0025641
        k(  121) = (  -0.2083692   1.6516591  -0.7004193), wk =   0.0025641
        k(  122) = (  -0.1562769   1.6516591  -0.5253145), wk =   0.0025641
        k(  123) = (  -0.1041846   1.6516591  -0.3502097), wk =   0.0025641
        k(  124) = (  -0.0520923   1.6516591  -0.1751048), wk =   0.0025641
        k(  125) = (   0.0000000  -1.8351768   0.0000000), wk =   0.0012821
        k(  126) = (   0.0520923  -1.8351768   0.1751048), wk =   0.0025641
        k(  127) = (   0.1041846  -1.8351768   0.3502097), wk =   0.0025641
        k(  128) = (   0.1562769  -1.8351768   0.5253145), wk =   0.0025641
        k(  129) = (   0.2083692  -1.8351768   0.7004193), wk =   0.0025641
        k(  130) = (   0.2604615  -1.8351768   0.8755241), wk =   0.0025641
        k(  131) = (   0.3125538  -1.8351768   1.0506290), wk =   0.0025641
        k(  132) = (   0.1738290   0.0000000  -0.0001897), wk =   0.0025641
        k(  133) = (   0.2259213   0.0000000   0.1749151), wk =   0.0025641
        k(  134) = (   0.2780136   0.0000000   0.3500200), wk =   0.0025641
        k(  135) = (   0.3301059   0.0000000   0.5251248), wk =   0.0025641
        k(  136) = (   0.3821982   0.0000000   0.7002296), wk =   0.0025641
        k(  137) = (   0.4342905   0.0000000   0.8753344), wk =   0.0025641
        k(  138) = (   0.4863828   0.0000000   1.0504393), wk =   0.0025641
        k(  139) = (  -0.1387248   0.0000000  -1.0508187), wk =   0.0025641
        k(  140) = (  -0.0866325   0.0000000  -0.8757138), wk =   0.0025641
        k(  141) = (  -0.0345402   0.0000000  -0.7006090), wk =   0.0025641
        k(  142) = (   0.0175521   0.0000000  -0.5255042), wk =   0.0025641
        k(  143) = (   0.0696444   0.0000000  -0.3503993), wk =   0.0025641
        k(  144) = (   0.1217367   0.0000000  -0.1752945), wk =   0.0025641
        k(  145) = (   0.1738290   0.1835177  -0.0001897), wk =   0.0025641
        k(  146) = (   0.2259213   0.1835177   0.1749151), wk =   0.0025641
        k(  147) = (   0.2780136   0.1835177   0.3500200), wk =   0.0025641
        k(  148) = (   0.3301059   0.1835177   0.5251248), wk =   0.0025641
        k(  149) = (   0.3821982   0.1835177   0.7002296), wk =   0.0025641
        k(  150) = (   0.4342905   0.1835177   0.8753344), wk =   0.0025641
        k(  151) = (   0.4863828   0.1835177   1.0504393), wk =   0.0025641
        k(  152) = (  -0.1387248   0.1835177  -1.0508187), wk =   0.0025641
        k(  153) = (  -0.0866325   0.1835177  -0.8757138), wk =   0.0025641
        k(  154) = (  -0.0345402   0.1835177  -0.7006090), wk =   0.0025641
        k(  155) = (   0.0175521   0.1835177  -0.5255042), wk =   0.0025641
        k(  156) = (   0.0696444   0.1835177  -0.3503993), wk =   0.0025641
        k(  157) = (   0.1217367   0.1835177  -0.1752945), wk =   0.0025641
        k(  158) = (   0.1738290   0.3670354  -0.0001897), wk =   0.0025641
        k(  159) = (   0.2259213   0.3670354   0.1749151), wk =   0.0025641
        k(  160) = (   0.2780136   0.3670354   0.3500200), wk =   0.0025641
        k(  161) = (   0.3301059   0.3670354   0.5251248), wk =   0.0025641
        k(  162) = (   0.3821982   0.3670354   0.7002296), wk =   0.0025641
        k(  163) = (   0.4342905   0.3670354   0.8753344), wk =   0.0025641
        k(  164) = (   0.4863828   0.3670354   1.0504393), wk =   0.0025641
        k(  165) = (  -0.1387248   0.3670354  -1.0508187), wk =   0.0025641
        k(  166) = (  -0.0866325   0.3670354  -0.8757138), wk =   0.0025641
        k(  167) = (  -0.0345402   0.3670354  -0.7006090), wk =   0.0025641
        k(  168) = (   0.0175521   0.3670354  -0.5255042), wk =   0.0025641
        k(  169) = (   0.0696444   0.3670354  -0.3503993), wk =   0.0025641
        k(  170) = (   0.1217367   0.3670354  -0.1752945), wk =   0.0025641
        k(  171) = (   0.1738290   0.5505530  -0.0001897), wk =   0.0025641
        k(  172) = (   0.2259213   0.5505530   0.1749151), wk =   0.0025641
        k(  173) = (   0.2780136   0.5505530   0.3500200), wk =   0.0025641
        k(  174) = (   0.3301059   0.5505530   0.5251248), wk =   0.0025641
        k(  175) = (   0.3821982   0.5505530   0.7002296), wk =   0.0025641
        k(  176) = (   0.4342905   0.5505530   0.8753344), wk =   0.0025641
        k(  177) = (   0.4863828   0.5505530   1.0504393), wk =   0.0025641
        k(  178) = (  -0.1387248   0.5505530  -1.0508187), wk =   0.0025641
        k(  179) = (  -0.0866325   0.5505530  -0.8757138), wk =   0.0025641
        k(  180) = (  -0.0345402   0.5505530  -0.7006090), wk =   0.0025641
        k(  181) = (   0.0175521   0.5505530  -0.5255042), wk =   0.0025641
        k(  182) = (   0.0696444   0.5505530  -0.3503993), wk =   0.0025641
        k(  183) = (   0.1217367   0.5505530  -0.1752945), wk =   0.0025641
        k(  184) = (   0.1738290   0.7340707  -0.0001897), wk =   0.0025641
        k(  185) = (   0.2259213   0.7340707   0.1749151), wk =   0.0025641
        k(  186) = (   0.2780136   0.7340707   0.3500200), wk =   0.0025641
        k(  187) = (   0.3301059   0.7340707   0.5251248), wk =   0.0025641
        k(  188) = (   0.3821982   0.7340707   0.7002296), wk =   0.0025641
        k(  189) = (   0.4342905   0.7340707   0.8753344), wk =   0.0025641
        k(  190) = (   0.4863828   0.7340707   1.0504393), wk =   0.0025641
        k(  191) = (  -0.1387248   0.7340707  -1.0508187), wk =   0.0025641
        k(  192) = (  -0.0866325   0.7340707  -0.8757138), wk =   0.0025641
        k(  193) = (  -0.0345402   0.7340707  -0.7006090), wk =   0.0025641
        k(  194) = (   0.0175521   0.7340707  -0.5255042), wk =   0.0025641
        k(  195) = (   0.0696444   0.7340707  -0.3503993), wk =   0.0025641
        k(  196) = (   0.1217367   0.7340707  -0.1752945), wk =   0.0025641
        k(  197) = (   0.1738290   0.9175884  -0.0001897), wk =   0.0025641
        k(  198) = (   0.2259213   0.9175884   0.1749151), wk =   0.0025641
        k(  199) = (   0.2780136   0.9175884   0.3500200), wk =   0.0025641
        k(  200) = (   0.3301059   0.9175884   0.5251248), wk =   0.0025641
        k(  201) = (   0.3821982   0.9175884   0.7002296), wk =   0.0025641
        k(  202) = (   0.4342905   0.9175884   0.8753344), wk =   0.0025641
        k(  203) = (   0.4863828   0.9175884   1.0504393), wk =   0.0025641
        k(  204) = (  -0.1387248   0.9175884  -1.0508187), wk =   0.0025641
        k(  205) = (  -0.0866325   0.9175884  -0.8757138), wk =   0.0025641
        k(  206) = (  -0.0345402   0.9175884  -0.7006090), wk =   0.0025641
        k(  207) = (   0.0175521   0.9175884  -0.5255042), wk =   0.0025641
        k(  208) = (   0.0696444   0.9175884  -0.3503993), wk =   0.0025641
        k(  209) = (   0.1217367   0.9175884  -0.1752945), wk =   0.0025641
        k(  210) = (   0.1738290   1.1011061  -0.0001897), wk =   0.0025641
        k(  211) = (   0.2259213   1.1011061   0.1749151), wk =   0.0025641
        k(  212) = (   0.2780136   1.1011061   0.3500200), wk =   0.0025641
        k(  213) = (   0.3301059   1.1011061   0.5251248), wk =   0.0025641
        k(  214) = (   0.3821982   1.1011061   0.7002296), wk =   0.0025641
        k(  215) = (   0.4342905   1.1011061   0.8753344), wk =   0.0025641
        k(  216) = (   0.4863828   1.1011061   1.0504393), wk =   0.0025641
        k(  217) = (  -0.1387248   1.1011061  -1.0508187), wk =   0.0025641
        k(  218) = (  -0.0866325   1.1011061  -0.8757138), wk =   0.0025641
        k(  219) = (  -0.0345402   1.1011061  -0.7006090), wk =   0.0025641
        k(  220) = (   0.0175521   1.1011061  -0.5255042), wk =   0.0025641
        k(  221) = (   0.0696444   1.1011061  -0.3503993), wk =   0.0025641
        k(  222) = (   0.1217367   1.1011061  -0.1752945), wk =   0.0025641
        k(  223) = (   0.1738290   1.2846237  -0.0001897), wk =   0.0025641
        k(  224) = (   0.2259213   1.2846237   0.1749151), wk =   0.0025641
        k(  225) = (   0.2780136   1.2846237   0.3500200), wk =   0.0025641
        k(  226) = (   0.3301059   1.2846237   0.5251248), wk =   0.0025641
        k(  227) = (   0.3821982   1.2846237   0.7002296), wk =   0.0025641
        k(  228) = (   0.4342905   1.2846237   0.8753344), wk =   0.0025641
        k(  229) = (   0.4863828   1.2846237   1.0504393), wk =   0.0025641
        k(  230) = (  -0.1387248   1.2846237  -1.0508187), wk =   0.0025641
        k(  231) = (  -0.0866325   1.2846237  -0.8757138), wk =   0.0025641
        k(  232) = (  -0.0345402   1.2846237  -0.7006090), wk =   0.0025641
        k(  233) = (   0.0175521   1.2846237  -0.5255042), wk =   0.0025641
        k(  234) = (   0.0696444   1.2846237  -0.3503993), wk =   0.0025641
        k(  235) = (   0.1217367   1.2846237  -0.1752945), wk =   0.0025641
        k(  236) = (   0.1738290   1.4681414  -0.0001897), wk =   0.0025641
        k(  237) = (   0.2259213   1.4681414   0.1749151), wk =   0.0025641
        k(  238) = (   0.2780136   1.4681414   0.3500200), wk =   0.0025641
        k(  239) = (   0.3301059   1.4681414   0.5251248), wk =   0.0025641
        k(  240) = (   0.3821982   1.4681414   0.7002296), wk =   0.0025641
        k(  241) = (   0.4342905   1.4681414   0.8753344), wk =   0.0025641
        k(  242) = (   0.4863828   1.4681414   1.0504393), wk =   0.0025641
        k(  243) = (  -0.1387248   1.4681414  -1.0508187), wk =   0.0025641
        k(  244) = (  -0.0866325   1.4681414  -0.8757138), wk =   0.0025641
        k(  245) = (  -0.0345402   1.4681414  -0.7006090), wk =   0.0025641
        k(  246) = (   0.0175521   1.4681414  -0.5255042), wk =   0.0025641
        k(  247) = (   0.0696444   1.4681414  -0.3503993), wk =   0.0025641
        k(  248) = (   0.1217367   1.4681414  -0.1752945), wk =   0.0025641
        k(  249) = (   0.1738290   1.6516591  -0.0001897), wk =   0.0025641
        k(  250) = (   0.2259213   1.6516591   0.1749151), wk =   0.0025641
        k(  251) = (   0.2780136   1.6516591   0.3500200), wk =   0.0025641
        k(  252) = (   0.3301059   1.6516591   0.5251248), wk =   0.0025641
        k(  253) = (   0.3821982   1.6516591   0.7002296), wk =   0.0025641
        k(  254) = (   0.4342905   1.6516591   0.8753344), wk =   0.0025641
        k(  255) = (   0.4863828   1.6516591   1.0504393), wk =   0.0025641
        k(  256) = (  -0.1387248   1.6516591  -1.0508187), wk =   0.0025641
        k(  257) = (  -0.0866325   1.6516591  -0.8757138), wk =   0.0025641
        k(  258) = (  -0.0345402   1.6516591  -0.7006090), wk =   0.0025641
        k(  259) = (   0.0175521   1.6516591  -0.5255042), wk =   0.0025641
        k(  260) = (   0.0696444   1.6516591  -0.3503993), wk =   0.0025641
        k(  261) = (   0.1217367   1.6516591  -0.1752945), wk =   0.0025641
        k(  262) = (   0.1738290  -1.8351768  -0.0001897), wk =   0.0025641
        k(  263) = (   0.2259213  -1.8351768   0.1749151), wk =   0.0025641
        k(  264) = (   0.2780136  -1.8351768   0.3500200), wk =   0.0025641
        k(  265) = (   0.3301059  -1.8351768   0.5251248), wk =   0.0025641
        k(  266) = (   0.3821982  -1.8351768   0.7002296), wk =   0.0025641
        k(  267) = (   0.4342905  -1.8351768   0.8753344), wk =   0.0025641
        k(  268) = (   0.4863828  -1.8351768   1.0504393), wk =   0.0025641
        k(  269) = (  -0.1387248  -1.8351768  -1.0508187), wk =   0.0025641
        k(  270) = (  -0.0866325  -1.8351768  -0.8757138), wk =   0.0025641
        k(  271) = (  -0.0345402  -1.8351768  -0.7006090), wk =   0.0025641
        k(  272) = (   0.0175521  -1.8351768  -0.5255042), wk =   0.0025641
        k(  273) = (   0.0696444  -1.8351768  -0.3503993), wk =   0.0025641
        k(  274) = (   0.1217367  -1.8351768  -0.1752945), wk =   0.0025641
        k(  275) = (   0.1738290  -1.6516591  -0.0001897), wk =   0.0025641
        k(  276) = (   0.2259213  -1.6516591   0.1749151), wk =   0.0025641
        k(  277) = (   0.2780136  -1.6516591   0.3500200), wk =   0.0025641
        k(  278) = (   0.3301059  -1.6516591   0.5251248), wk =   0.0025641
        k(  279) = (   0.3821982  -1.6516591   0.7002296), wk =   0.0025641
        k(  280) = (   0.4342905  -1.6516591   0.8753344), wk =   0.0025641
        k(  281) = (   0.4863828  -1.6516591   1.0504393), wk =   0.0025641
        k(  282) = (  -0.1387248  -1.6516591  -1.0508187), wk =   0.0025641
        k(  283) = (  -0.0866325  -1.6516591  -0.8757138), wk =   0.0025641
        k(  284) = (  -0.0345402  -1.6516591  -0.7006090), wk =   0.0025641
        k(  285) = (   0.0175521  -1.6516591  -0.5255042), wk =   0.0025641
        k(  286) = (   0.0696444  -1.6516591  -0.3503993), wk =   0.0025641
        k(  287) = (   0.1217367  -1.6516591  -0.1752945), wk =   0.0025641
        k(  288) = (   0.1738290  -1.4681414  -0.0001897), wk =   0.0025641
        k(  289) = (   0.2259213  -1.4681414   0.1749151), wk =   0.0025641
        k(  290) = (   0.2780136  -1.4681414   0.3500200), wk =   0.0025641
        k(  291) = (   0.3301059  -1.4681414   0.5251248), wk =   0.0025641
        k(  292) = (   0.3821982  -1.4681414   0.7002296), wk =   0.0025641
        k(  293) = (   0.4342905  -1.4681414   0.8753344), wk =   0.0025641
        k(  294) = (   0.4863828  -1.4681414   1.0504393), wk =   0.0025641
        k(  295) = (  -0.1387248  -1.4681414  -1.0508187), wk =   0.0025641
        k(  296) = (  -0.0866325  -1.4681414  -0.8757138), wk =   0.0025641
        k(  297) = (  -0.0345402  -1.4681414  -0.7006090), wk =   0.0025641
        k(  298) = (   0.0175521  -1.4681414  -0.5255042), wk =   0.0025641
        k(  299) = (   0.0696444  -1.4681414  -0.3503993), wk =   0.0025641
        k(  300) = (   0.1217367  -1.4681414  -0.1752945), wk =   0.0025641
        k(  301) = (   0.1738290  -1.2846237  -0.0001897), wk =   0.0025641
        k(  302) = (   0.2259213  -1.2846237   0.1749151), wk =   0.0025641
        k(  303) = (   0.2780136  -1.2846237   0.3500200), wk =   0.0025641
        k(  304) = (   0.3301059  -1.2846237   0.5251248), wk =   0.0025641
        k(  305) = (   0.3821982  -1.2846237   0.7002296), wk =   0.0025641
        k(  306) = (   0.4342905  -1.2846237   0.8753344), wk =   0.0025641
        k(  307) = (   0.4863828  -1.2846237   1.0504393), wk =   0.0025641
        k(  308) = (  -0.1387248  -1.2846237  -1.0508187), wk =   0.0025641
        k(  309) = (  -0.0866325  -1.2846237  -0.8757138), wk =   0.0025641
        k(  310) = (  -0.0345402  -1.2846237  -0.7006090), wk =   0.0025641
        k(  311) = (   0.0175521  -1.2846237  -0.5255042), wk =   0.0025641
        k(  312) = (   0.0696444  -1.2846237  -0.3503993), wk =   0.0025641
        k(  313) = (   0.1217367  -1.2846237  -0.1752945), wk =   0.0025641
        k(  314) = (   0.1738290  -1.1011061  -0.0001897), wk =   0.0025641
        k(  315) = (   0.2259213  -1.1011061   0.1749151), wk =   0.0025641
        k(  316) = (   0.2780136  -1.1011061   0.3500200), wk =   0.0025641
        k(  317) = (   0.3301059  -1.1011061   0.5251248), wk =   0.0025641
        k(  318) = (   0.3821982  -1.1011061   0.7002296), wk =   0.0025641
        k(  319) = (   0.4342905  -1.1011061   0.8753344), wk =   0.0025641
        k(  320) = (   0.4863828  -1.1011061   1.0504393), wk =   0.0025641
        k(  321) = (  -0.1387248  -1.1011061  -1.0508187), wk =   0.0025641
        k(  322) = (  -0.0866325  -1.1011061  -0.8757138), wk =   0.0025641
        k(  323) = (  -0.0345402  -1.1011061  -0.7006090), wk =   0.0025641
        k(  324) = (   0.0175521  -1.1011061  -0.5255042), wk =   0.0025641
        k(  325) = (   0.0696444  -1.1011061  -0.3503993), wk =   0.0025641
        k(  326) = (   0.1217367  -1.1011061  -0.1752945), wk =   0.0025641
        k(  327) = (   0.1738290  -0.9175884  -0.0001897), wk =   0.0025641
        k(  328) = (   0.2259213  -0.9175884   0.1749151), wk =   0.0025641
        k(  329) = (   0.2780136  -0.9175884   0.3500200), wk =   0.0025641
        k(  330) = (   0.3301059  -0.9175884   0.5251248), wk =   0.0025641
        k(  331) = (   0.3821982  -0.9175884   0.7002296), wk =   0.0025641
        k(  332) = (   0.4342905  -0.9175884   0.8753344), wk =   0.0025641
        k(  333) = (   0.4863828  -0.9175884   1.0504393), wk =   0.0025641
        k(  334) = (  -0.1387248  -0.9175884  -1.0508187), wk =   0.0025641
        k(  335) = (  -0.0866325  -0.9175884  -0.8757138), wk =   0.0025641
        k(  336) = (  -0.0345402  -0.9175884  -0.7006090), wk =   0.0025641
        k(  337) = (   0.0175521  -0.9175884  -0.5255042), wk =   0.0025641
        k(  338) = (   0.0696444  -0.9175884  -0.3503993), wk =   0.0025641
        k(  339) = (   0.1217367  -0.9175884  -0.1752945), wk =   0.0025641
        k(  340) = (   0.1738290  -0.7340707  -0.0001897), wk =   0.0025641
        k(  341) = (   0.2259213  -0.7340707   0.1749151), wk =   0.0025641
        k(  342) = (   0.2780136  -0.7340707   0.3500200), wk =   0.0025641
        k(  343) = (   0.3301059  -0.7340707   0.5251248), wk =   0.0025641
        k(  344) = (   0.3821982  -0.7340707   0.7002296), wk =   0.0025641
        k(  345) = (   0.4342905  -0.7340707   0.8753344), wk =   0.0025641
        k(  346) = (   0.4863828  -0.7340707   1.0504393), wk =   0.0025641
        k(  347) = (  -0.1387248  -0.7340707  -1.0508187), wk =   0.0025641
        k(  348) = (  -0.0866325  -0.7340707  -0.8757138), wk =   0.0025641
        k(  349) = (  -0.0345402  -0.7340707  -0.7006090), wk =   0.0025641
        k(  350) = (   0.0175521  -0.7340707  -0.5255042), wk =   0.0025641
        k(  351) = (   0.0696444  -0.7340707  -0.3503993), wk =   0.0025641
        k(  352) = (   0.1217367  -0.7340707  -0.1752945), wk =   0.0025641
        k(  353) = (   0.1738290  -0.5505530  -0.0001897), wk =   0.0025641
        k(  354) = (   0.2259213  -0.5505530   0.1749151), wk =   0.0025641
        k(  355) = (   0.2780136  -0.5505530   0.3500200), wk =   0.0025641
        k(  356) = (   0.3301059  -0.5505530   0.5251248), wk =   0.0025641
        k(  357) = (   0.3821982  -0.5505530   0.7002296), wk =   0.0025641
        k(  358) = (   0.4342905  -0.5505530   0.8753344), wk =   0.0025641
        k(  359) = (   0.4863828  -0.5505530   1.0504393), wk =   0.0025641
        k(  360) = (  -0.1387248  -0.5505530  -1.0508187), wk =   0.0025641
        k(  361) = (  -0.0866325  -0.5505530  -0.8757138), wk =   0.0025641
        k(  362) = (  -0.0345402  -0.5505530  -0.7006090), wk =   0.0025641
        k(  363) = (   0.0175521  -0.5505530  -0.5255042), wk =   0.0025641
        k(  364) = (   0.0696444  -0.5505530  -0.3503993), wk =   0.0025641
        k(  365) = (   0.1217367  -0.5505530  -0.1752945), wk =   0.0025641
        k(  366) = (   0.1738290  -0.3670354  -0.0001897), wk =   0.0025641
        k(  367) = (   0.2259213  -0.3670354   0.1749151), wk =   0.0025641
        k(  368) = (   0.2780136  -0.3670354   0.3500200), wk =   0.0025641
        k(  369) = (   0.3301059  -0.3670354   0.5251248), wk =   0.0025641
        k(  370) = (   0.3821982  -0.3670354   0.7002296), wk =   0.0025641
        k(  371) = (   0.4342905  -0.3670354   0.8753344), wk =   0.0025641
        k(  372) = (   0.4863828  -0.3670354   1.0504393), wk =   0.0025641
        k(  373) = (  -0.1387248  -0.3670354  -1.0508187), wk =   0.0025641
        k(  374) = (  -0.0866325  -0.3670354  -0.8757138), wk =   0.0025641
        k(  375) = (  -0.0345402  -0.3670354  -0.7006090), wk =   0.0025641
        k(  376) = (   0.0175521  -0.3670354  -0.5255042), wk =   0.0025641
        k(  377) = (   0.0696444  -0.3670354  -0.3503993), wk =   0.0025641
        k(  378) = (   0.1217367  -0.3670354  -0.1752945), wk =   0.0025641
        k(  379) = (   0.1738290  -0.1835177  -0.0001897), wk =   0.0025641
        k(  380) = (   0.2259213  -0.1835177   0.1749151), wk =   0.0025641
        k(  381) = (   0.2780136  -0.1835177   0.3500200), wk =   0.0025641
        k(  382) = (   0.3301059  -0.1835177   0.5251248), wk =   0.0025641
        k(  383) = (   0.3821982  -0.1835177   0.7002296), wk =   0.0025641
        k(  384) = (   0.4342905  -0.1835177   0.8753344), wk =   0.0025641
        k(  385) = (   0.4863828  -0.1835177   1.0504393), wk =   0.0025641
        k(  386) = (  -0.1387248  -0.1835177  -1.0508187), wk =   0.0025641
        k(  387) = (  -0.0866325  -0.1835177  -0.8757138), wk =   0.0025641
        k(  388) = (  -0.0345402  -0.1835177  -0.7006090), wk =   0.0025641
        k(  389) = (   0.0175521  -0.1835177  -0.5255042), wk =   0.0025641
        k(  390) = (   0.0696444  -0.1835177  -0.3503993), wk =   0.0025641
        k(  391) = (   0.1217367  -0.1835177  -0.1752945), wk =   0.0025641
        k(  392) = (   0.3476581   0.0000000  -0.0003794), wk =   0.0025641
        k(  393) = (   0.3997504   0.0000000   0.1747254), wk =   0.0025641
        k(  394) = (   0.4518427   0.0000000   0.3498303), wk =   0.0025641
        k(  395) = (   0.5039350   0.0000000   0.5249351), wk =   0.0025641
        k(  396) = (   0.5560273   0.0000000   0.7000399), wk =   0.0025641
        k(  397) = (   0.6081196   0.0000000   0.8751447), wk =   0.0025641
        k(  398) = (   0.6602119   0.0000000   1.0502496), wk =   0.0025641
        k(  399) = (   0.0351043   0.0000000  -1.0510084), wk =   0.0025641
        k(  400) = (   0.0871966   0.0000000  -0.8759035), wk =   0.0025641
        k(  401) = (   0.1392889   0.0000000  -0.7007987), wk =   0.0025641
        k(  402) = (   0.1913812   0.0000000  -0.5256939), wk =   0.0025641
        k(  403) = (   0.2434735   0.0000000  -0.3505890), wk =   0.0025641
        k(  404) = (   0.2955658   0.0000000  -0.1754842), wk =   0.0025641
        k(  405) = (   0.3476581   0.1835177  -0.0003794), wk =   0.0025641
        k(  406) = (   0.3997504   0.1835177   0.1747254), wk =   0.0025641
        k(  407) = (   0.4518427   0.1835177   0.3498303), wk =   0.0025641
        k(  408) = (   0.5039350   0.1835177   0.5249351), wk =   0.0025641
        k(  409) = (   0.5560273   0.1835177   0.7000399), wk =   0.0025641
        k(  410) = (   0.6081196   0.1835177   0.8751447), wk =   0.0025641
        k(  411) = (   0.6602119   0.1835177   1.0502496), wk =   0.0025641
        k(  412) = (   0.0351043   0.1835177  -1.0510084), wk =   0.0025641
        k(  413) = (   0.0871966   0.1835177  -0.8759035), wk =   0.0025641
        k(  414) = (   0.1392889   0.1835177  -0.7007987), wk =   0.0025641
        k(  415) = (   0.1913812   0.1835177  -0.5256939), wk =   0.0025641
        k(  416) = (   0.2434735   0.1835177  -0.3505890), wk =   0.0025641
        k(  417) = (   0.2955658   0.1835177  -0.1754842), wk =   0.0025641
        k(  418) = (   0.3476581   0.3670354  -0.0003794), wk =   0.0025641
        k(  419) = (   0.3997504   0.3670354   0.1747254), wk =   0.0025641
        k(  420) = (   0.4518427   0.3670354   0.3498303), wk =   0.0025641
        k(  421) = (   0.5039350   0.3670354   0.5249351), wk =   0.0025641
        k(  422) = (   0.5560273   0.3670354   0.7000399), wk =   0.0025641
        k(  423) = (   0.6081196   0.3670354   0.8751447), wk =   0.0025641
        k(  424) = (   0.6602119   0.3670354   1.0502496), wk =   0.0025641
        k(  425) = (   0.0351043   0.3670354  -1.0510084), wk =   0.0025641
        k(  426) = (   0.0871966   0.3670354  -0.8759035), wk =   0.0025641
        k(  427) = (   0.1392889   0.3670354  -0.7007987), wk =   0.0025641
        k(  428) = (   0.1913812   0.3670354  -0.5256939), wk =   0.0025641
        k(  429) = (   0.2434735   0.3670354  -0.3505890), wk =   0.0025641
        k(  430) = (   0.2955658   0.3670354  -0.1754842), wk =   0.0025641
        k(  431) = (   0.3476581   0.5505530  -0.0003794), wk =   0.0025641
        k(  432) = (   0.3997504   0.5505530   0.1747254), wk =   0.0025641
        k(  433) = (   0.4518427   0.5505530   0.3498303), wk =   0.0025641
        k(  434) = (   0.5039350   0.5505530   0.5249351), wk =   0.0025641
        k(  435) = (   0.5560273   0.5505530   0.7000399), wk =   0.0025641
        k(  436) = (   0.6081196   0.5505530   0.8751447), wk =   0.0025641
        k(  437) = (   0.6602119   0.5505530   1.0502496), wk =   0.0025641
        k(  438) = (   0.0351043   0.5505530  -1.0510084), wk =   0.0025641
        k(  439) = (   0.0871966   0.5505530  -0.8759035), wk =   0.0025641
        k(  440) = (   0.1392889   0.5505530  -0.7007987), wk =   0.0025641
        k(  441) = (   0.1913812   0.5505530  -0.5256939), wk =   0.0025641
        k(  442) = (   0.2434735   0.5505530  -0.3505890), wk =   0.0025641
        k(  443) = (   0.2955658   0.5505530  -0.1754842), wk =   0.0025641
        k(  444) = (   0.3476581   0.7340707  -0.0003794), wk =   0.0025641
        k(  445) = (   0.3997504   0.7340707   0.1747254), wk =   0.0025641
        k(  446) = (   0.4518427   0.7340707   0.3498303), wk =   0.0025641
        k(  447) = (   0.5039350   0.7340707   0.5249351), wk =   0.0025641
        k(  448) = (   0.5560273   0.7340707   0.7000399), wk =   0.0025641
        k(  449) = (   0.6081196   0.7340707   0.8751447), wk =   0.0025641
        k(  450) = (   0.6602119   0.7340707   1.0502496), wk =   0.0025641
        k(  451) = (   0.0351043   0.7340707  -1.0510084), wk =   0.0025641
        k(  452) = (   0.0871966   0.7340707  -0.8759035), wk =   0.0025641
        k(  453) = (   0.1392889   0.7340707  -0.7007987), wk =   0.0025641
        k(  454) = (   0.1913812   0.7340707  -0.5256939), wk =   0.0025641
        k(  455) = (   0.2434735   0.7340707  -0.3505890), wk =   0.0025641
        k(  456) = (   0.2955658   0.7340707  -0.1754842), wk =   0.0025641
        k(  457) = (   0.3476581   0.9175884  -0.0003794), wk =   0.0025641
        k(  458) = (   0.3997504   0.9175884   0.1747254), wk =   0.0025641
        k(  459) = (   0.4518427   0.9175884   0.3498303), wk =   0.0025641
        k(  460) = (   0.5039350   0.9175884   0.5249351), wk =   0.0025641
        k(  461) = (   0.5560273   0.9175884   0.7000399), wk =   0.0025641
        k(  462) = (   0.6081196   0.9175884   0.8751447), wk =   0.0025641
        k(  463) = (   0.6602119   0.9175884   1.0502496), wk =   0.0025641
        k(  464) = (   0.0351043   0.9175884  -1.0510084), wk =   0.0025641
        k(  465) = (   0.0871966   0.9175884  -0.8759035), wk =   0.0025641
        k(  466) = (   0.1392889   0.9175884  -0.7007987), wk =   0.0025641
        k(  467) = (   0.1913812   0.9175884  -0.5256939), wk =   0.0025641
        k(  468) = (   0.2434735   0.9175884  -0.3505890), wk =   0.0025641
        k(  469) = (   0.2955658   0.9175884  -0.1754842), wk =   0.0025641
        k(  470) = (   0.3476581   1.1011061  -0.0003794), wk =   0.0025641
        k(  471) = (   0.3997504   1.1011061   0.1747254), wk =   0.0025641
        k(  472) = (   0.4518427   1.1011061   0.3498303), wk =   0.0025641
        k(  473) = (   0.5039350   1.1011061   0.5249351), wk =   0.0025641
        k(  474) = (   0.5560273   1.1011061   0.7000399), wk =   0.0025641
        k(  475) = (   0.6081196   1.1011061   0.8751447), wk =   0.0025641
        k(  476) = (   0.6602119   1.1011061   1.0502496), wk =   0.0025641
        k(  477) = (   0.0351043   1.1011061  -1.0510084), wk =   0.0025641
        k(  478) = (   0.0871966   1.1011061  -0.8759035), wk =   0.0025641
        k(  479) = (   0.1392889   1.1011061  -0.7007987), wk =   0.0025641
        k(  480) = (   0.1913812   1.1011061  -0.5256939), wk =   0.0025641
        k(  481) = (   0.2434735   1.1011061  -0.3505890), wk =   0.0025641
        k(  482) = (   0.2955658   1.1011061  -0.1754842), wk =   0.0025641
        k(  483) = (   0.3476581   1.2846237  -0.0003794), wk =   0.0025641
        k(  484) = (   0.3997504   1.2846237   0.1747254), wk =   0.0025641
        k(  485) = (   0.4518427   1.2846237   0.3498303), wk =   0.0025641
        k(  486) = (   0.5039350   1.2846237   0.5249351), wk =   0.0025641
        k(  487) = (   0.5560273   1.2846237   0.7000399), wk =   0.0025641
        k(  488) = (   0.6081196   1.2846237   0.8751447), wk =   0.0025641
        k(  489) = (   0.6602119   1.2846237   1.0502496), wk =   0.0025641
        k(  490) = (   0.0351043   1.2846237  -1.0510084), wk =   0.0025641
        k(  491) = (   0.0871966   1.2846237  -0.8759035), wk =   0.0025641
        k(  492) = (   0.1392889   1.2846237  -0.7007987), wk =   0.0025641
        k(  493) = (   0.1913812   1.2846237  -0.5256939), wk =   0.0025641
        k(  494) = (   0.2434735   1.2846237  -0.3505890), wk =   0.0025641
        k(  495) = (   0.2955658   1.2846237  -0.1754842), wk =   0.0025641
        k(  496) = (   0.3476581   1.4681414  -0.0003794), wk =   0.0025641
        k(  497) = (   0.3997504   1.4681414   0.1747254), wk =   0.0025641
        k(  498) = (   0.4518427   1.4681414   0.3498303), wk =   0.0025641
        k(  499) = (   0.5039350   1.4681414   0.5249351), wk =   0.0025641
        k(  500) = (   0.5560273   1.4681414   0.7000399), wk =   0.0025641
        k(  501) = (   0.6081196   1.4681414   0.8751447), wk =   0.0025641
        k(  502) = (   0.6602119   1.4681414   1.0502496), wk =   0.0025641
        k(  503) = (   0.0351043   1.4681414  -1.0510084), wk =   0.0025641
        k(  504) = (   0.0871966   1.4681414  -0.8759035), wk =   0.0025641
        k(  505) = (   0.1392889   1.4681414  -0.7007987), wk =   0.0025641
        k(  506) = (   0.1913812   1.4681414  -0.5256939), wk =   0.0025641
        k(  507) = (   0.2434735   1.4681414  -0.3505890), wk =   0.0025641
        k(  508) = (   0.2955658   1.4681414  -0.1754842), wk =   0.0025641
        k(  509) = (   0.3476581   1.6516591  -0.0003794), wk =   0.0025641
        k(  510) = (   0.3997504   1.6516591   0.1747254), wk =   0.0025641
        k(  511) = (   0.4518427   1.6516591   0.3498303), wk =   0.0025641
        k(  512) = (   0.5039350   1.6516591   0.5249351), wk =   0.0025641
        k(  513) = (   0.5560273   1.6516591   0.7000399), wk =   0.0025641
        k(  514) = (   0.6081196   1.6516591   0.8751447), wk =   0.0025641
        k(  515) = (   0.6602119   1.6516591   1.0502496), wk =   0.0025641
        k(  516) = (   0.0351043   1.6516591  -1.0510084), wk =   0.0025641
        k(  517) = (   0.0871966   1.6516591  -0.8759035), wk =   0.0025641
        k(  518) = (   0.1392889   1.6516591  -0.7007987), wk =   0.0025641
        k(  519) = (   0.1913812   1.6516591  -0.5256939), wk =   0.0025641
        k(  520) = (   0.2434735   1.6516591  -0.3505890), wk =   0.0025641
        k(  521) = (   0.2955658   1.6516591  -0.1754842), wk =   0.0025641
        k(  522) = (   0.3476581  -1.8351768  -0.0003794), wk =   0.0025641
        k(  523) = (   0.3997504  -1.8351768   0.1747254), wk =   0.0025641
        k(  524) = (   0.4518427  -1.8351768   0.3498303), wk =   0.0025641
        k(  525) = (   0.5039350  -1.8351768   0.5249351), wk =   0.0025641
        k(  526) = (   0.5560273  -1.8351768   0.7000399), wk =   0.0025641
        k(  527) = (   0.6081196  -1.8351768   0.8751447), wk =   0.0025641
        k(  528) = (   0.6602119  -1.8351768   1.0502496), wk =   0.0025641
        k(  529) = (   0.0351043  -1.8351768  -1.0510084), wk =   0.0025641
        k(  530) = (   0.0871966  -1.8351768  -0.8759035), wk =   0.0025641
        k(  531) = (   0.1392889  -1.8351768  -0.7007987), wk =   0.0025641
        k(  532) = (   0.1913812  -1.8351768  -0.5256939), wk =   0.0025641
        k(  533) = (   0.2434735  -1.8351768  -0.3505890), wk =   0.0025641
        k(  534) = (   0.2955658  -1.8351768  -0.1754842), wk =   0.0025641
        k(  535) = (   0.3476581  -1.6516591  -0.0003794), wk =   0.0025641
        k(  536) = (   0.3997504  -1.6516591   0.1747254), wk =   0.0025641
        k(  537) = (   0.4518427  -1.6516591   0.3498303), wk =   0.0025641
        k(  538) = (   0.5039350  -1.6516591   0.5249351), wk =   0.0025641
        k(  539) = (   0.5560273  -1.6516591   0.7000399), wk =   0.0025641
        k(  540) = (   0.6081196  -1.6516591   0.8751447), wk =   0.0025641
        k(  541) = (   0.6602119  -1.6516591   1.0502496), wk =   0.0025641
        k(  542) = (   0.0351043  -1.6516591  -1.0510084), wk =   0.0025641
        k(  543) = (   0.0871966  -1.6516591  -0.8759035), wk =   0.0025641
        k(  544) = (   0.1392889  -1.6516591  -0.7007987), wk =   0.0025641
        k(  545) = (   0.1913812  -1.6516591  -0.5256939), wk =   0.0025641
        k(  546) = (   0.2434735  -1.6516591  -0.3505890), wk =   0.0025641
        k(  547) = (   0.2955658  -1.6516591  -0.1754842), wk =   0.0025641
        k(  548) = (   0.3476581  -1.4681414  -0.0003794), wk =   0.0025641
        k(  549) = (   0.3997504  -1.4681414   0.1747254), wk =   0.0025641
        k(  550) = (   0.4518427  -1.4681414   0.3498303), wk =   0.0025641
        k(  551) = (   0.5039350  -1.4681414   0.5249351), wk =   0.0025641
        k(  552) = (   0.5560273  -1.4681414   0.7000399), wk =   0.0025641
        k(  553) = (   0.6081196  -1.4681414   0.8751447), wk =   0.0025641
        k(  554) = (   0.6602119  -1.4681414   1.0502496), wk =   0.0025641
        k(  555) = (   0.0351043  -1.4681414  -1.0510084), wk =   0.0025641
        k(  556) = (   0.0871966  -1.4681414  -0.8759035), wk =   0.0025641
        k(  557) = (   0.1392889  -1.4681414  -0.7007987), wk =   0.0025641
        k(  558) = (   0.1913812  -1.4681414  -0.5256939), wk =   0.0025641
        k(  559) = (   0.2434735  -1.4681414  -0.3505890), wk =   0.0025641
        k(  560) = (   0.2955658  -1.4681414  -0.1754842), wk =   0.0025641
        k(  561) = (   0.3476581  -1.2846237  -0.0003794), wk =   0.0025641
        k(  562) = (   0.3997504  -1.2846237   0.1747254), wk =   0.0025641
        k(  563) = (   0.4518427  -1.2846237   0.3498303), wk =   0.0025641
        k(  564) = (   0.5039350  -1.2846237   0.5249351), wk =   0.0025641
        k(  565) = (   0.5560273  -1.2846237   0.7000399), wk =   0.0025641
        k(  566) = (   0.6081196  -1.2846237   0.8751447), wk =   0.0025641
        k(  567) = (   0.6602119  -1.2846237   1.0502496), wk =   0.0025641
        k(  568) = (   0.0351043  -1.2846237  -1.0510084), wk =   0.0025641
        k(  569) = (   0.0871966  -1.2846237  -0.8759035), wk =   0.0025641
        k(  570) = (   0.1392889  -1.2846237  -0.7007987), wk =   0.0025641
        k(  571) = (   0.1913812  -1.2846237  -0.5256939), wk =   0.0025641
        k(  572) = (   0.2434735  -1.2846237  -0.3505890), wk =   0.0025641
        k(  573) = (   0.2955658  -1.2846237  -0.1754842), wk =   0.0025641
        k(  574) = (   0.3476581  -1.1011061  -0.0003794), wk =   0.0025641
        k(  575) = (   0.3997504  -1.1011061   0.1747254), wk =   0.0025641
        k(  576) = (   0.4518427  -1.1011061   0.3498303), wk =   0.0025641
        k(  577) = (   0.5039350  -1.1011061   0.5249351), wk =   0.0025641
        k(  578) = (   0.5560273  -1.1011061   0.7000399), wk =   0.0025641
        k(  579) = (   0.6081196  -1.1011061   0.8751447), wk =   0.0025641
        k(  580) = (   0.6602119  -1.1011061   1.0502496), wk =   0.0025641
        k(  581) = (   0.0351043  -1.1011061  -1.0510084), wk =   0.0025641
        k(  582) = (   0.0871966  -1.1011061  -0.8759035), wk =   0.0025641
        k(  583) = (   0.1392889  -1.1011061  -0.7007987), wk =   0.0025641
        k(  584) = (   0.1913812  -1.1011061  -0.5256939), wk =   0.0025641
        k(  585) = (   0.2434735  -1.1011061  -0.3505890), wk =   0.0025641
        k(  586) = (   0.2955658  -1.1011061  -0.1754842), wk =   0.0025641
        k(  587) = (   0.3476581  -0.9175884  -0.0003794), wk =   0.0025641
        k(  588) = (   0.3997504  -0.9175884   0.1747254), wk =   0.0025641
        k(  589) = (   0.4518427  -0.9175884   0.3498303), wk =   0.0025641
        k(  590) = (   0.5039350  -0.9175884   0.5249351), wk =   0.0025641
        k(  591) = (   0.5560273  -0.9175884   0.7000399), wk =   0.0025641
        k(  592) = (   0.6081196  -0.9175884   0.8751447), wk =   0.0025641
        k(  593) = (   0.6602119  -0.9175884   1.0502496), wk =   0.0025641
        k(  594) = (   0.0351043  -0.9175884  -1.0510084), wk =   0.0025641
        k(  595) = (   0.0871966  -0.9175884  -0.8759035), wk =   0.0025641
        k(  596) = (   0.1392889  -0.9175884  -0.7007987), wk =   0.0025641
        k(  597) = (   0.1913812  -0.9175884  -0.5256939), wk =   0.0025641
        k(  598) = (   0.2434735  -0.9175884  -0.3505890), wk =   0.0025641
        k(  599) = (   0.2955658  -0.9175884  -0.1754842), wk =   0.0025641
        k(  600) = (   0.3476581  -0.7340707  -0.0003794), wk =   0.0025641
        k(  601) = (   0.3997504  -0.7340707   0.1747254), wk =   0.0025641
        k(  602) = (   0.4518427  -0.7340707   0.3498303), wk =   0.0025641
        k(  603) = (   0.5039350  -0.7340707   0.5249351), wk =   0.0025641
        k(  604) = (   0.5560273  -0.7340707   0.7000399), wk =   0.0025641
        k(  605) = (   0.6081196  -0.7340707   0.8751447), wk =   0.0025641
        k(  606) = (   0.6602119  -0.7340707   1.0502496), wk =   0.0025641
        k(  607) = (   0.0351043  -0.7340707  -1.0510084), wk =   0.0025641
        k(  608) = (   0.0871966  -0.7340707  -0.8759035), wk =   0.0025641
        k(  609) = (   0.1392889  -0.7340707  -0.7007987), wk =   0.0025641
        k(  610) = (   0.1913812  -0.7340707  -0.5256939), wk =   0.0025641
        k(  611) = (   0.2434735  -0.7340707  -0.3505890), wk =   0.0025641
        k(  612) = (   0.2955658  -0.7340707  -0.1754842), wk =   0.0025641
        k(  613) = (   0.3476581  -0.5505530  -0.0003794), wk =   0.0025641
        k(  614) = (   0.3997504  -0.5505530   0.1747254), wk =   0.0025641
        k(  615) = (   0.4518427  -0.5505530   0.3498303), wk =   0.0025641
        k(  616) = (   0.5039350  -0.5505530   0.5249351), wk =   0.0025641
        k(  617) = (   0.5560273  -0.5505530   0.7000399), wk =   0.0025641
        k(  618) = (   0.6081196  -0.5505530   0.8751447), wk =   0.0025641
        k(  619) = (   0.6602119  -0.5505530   1.0502496), wk =   0.0025641
        k(  620) = (   0.0351043  -0.5505530  -1.0510084), wk =   0.0025641
        k(  621) = (   0.0871966  -0.5505530  -0.8759035), wk =   0.0025641
        k(  622) = (   0.1392889  -0.5505530  -0.7007987), wk =   0.0025641
        k(  623) = (   0.1913812  -0.5505530  -0.5256939), wk =   0.0025641
        k(  624) = (   0.2434735  -0.5505530  -0.3505890), wk =   0.0025641
        k(  625) = (   0.2955658  -0.5505530  -0.1754842), wk =   0.0025641
        k(  626) = (   0.3476581  -0.3670354  -0.0003794), wk =   0.0025641
        k(  627) = (   0.3997504  -0.3670354   0.1747254), wk =   0.0025641
        k(  628) = (   0.4518427  -0.3670354   0.3498303), wk =   0.0025641
        k(  629) = (   0.5039350  -0.3670354   0.5249351), wk =   0.0025641
        k(  630) = (   0.5560273  -0.3670354   0.7000399), wk =   0.0025641
        k(  631) = (   0.6081196  -0.3670354   0.8751447), wk =   0.0025641
        k(  632) = (   0.6602119  -0.3670354   1.0502496), wk =   0.0025641
        k(  633) = (   0.0351043  -0.3670354  -1.0510084), wk =   0.0025641
        k(  634) = (   0.0871966  -0.3670354  -0.8759035), wk =   0.0025641
        k(  635) = (   0.1392889  -0.3670354  -0.7007987), wk =   0.0025641
        k(  636) = (   0.1913812  -0.3670354  -0.5256939), wk =   0.0025641
        k(  637) = (   0.2434735  -0.3670354  -0.3505890), wk =   0.0025641
        k(  638) = (   0.2955658  -0.3670354  -0.1754842), wk =   0.0025641
        k(  639) = (   0.3476581  -0.1835177  -0.0003794), wk =   0.0025641
        k(  640) = (   0.3997504  -0.1835177   0.1747254), wk =   0.0025641
        k(  641) = (   0.4518427  -0.1835177   0.3498303), wk =   0.0025641
        k(  642) = (   0.5039350  -0.1835177   0.5249351), wk =   0.0025641
        k(  643) = (   0.5560273  -0.1835177   0.7000399), wk =   0.0025641
        k(  644) = (   0.6081196  -0.1835177   0.8751447), wk =   0.0025641
        k(  645) = (   0.6602119  -0.1835177   1.0502496), wk =   0.0025641
        k(  646) = (   0.0351043  -0.1835177  -1.0510084), wk =   0.0025641
        k(  647) = (   0.0871966  -0.1835177  -0.8759035), wk =   0.0025641
        k(  648) = (   0.1392889  -0.1835177  -0.7007987), wk =   0.0025641
        k(  649) = (   0.1913812  -0.1835177  -0.5256939), wk =   0.0025641
        k(  650) = (   0.2434735  -0.1835177  -0.3505890), wk =   0.0025641
        k(  651) = (   0.2955658  -0.1835177  -0.1754842), wk =   0.0025641
        k(  652) = (  -0.5214871   0.0000000   0.0005691), wk =   0.0012821
        k(  653) = (  -0.4693948   0.0000000   0.1756739), wk =   0.0025641
        k(  654) = (  -0.4173025   0.0000000   0.3507787), wk =   0.0025641
        k(  655) = (  -0.3652102   0.0000000   0.5258836), wk =   0.0025641
        k(  656) = (  -0.3131179   0.0000000   0.7009884), wk =   0.0025641
        k(  657) = (  -0.2610256   0.0000000   0.8760932), wk =   0.0025641
        k(  658) = (  -0.2089333   0.0000000   1.0511980), wk =   0.0025641
        k(  659) = (  -0.5214871   0.1835177   0.0005691), wk =   0.0025641
        k(  660) = (  -0.4693948   0.1835177   0.1756739), wk =   0.0025641
        k(  661) = (  -0.4173025   0.1835177   0.3507787), wk =   0.0025641
        k(  662) = (  -0.3652102   0.1835177   0.5258836), wk =   0.0025641
        k(  663) = (  -0.3131179   0.1835177   0.7009884), wk =   0.0025641
        k(  664) = (  -0.2610256   0.1835177   0.8760932), wk =   0.0025641
        k(  665) = (  -0.2089333   0.1835177   1.0511980), wk =   0.0025641
        k(  666) = (  -0.8340409   0.1835177  -1.0500599), wk =   0.0025641
        k(  667) = (  -0.7819486   0.1835177  -0.8749551), wk =   0.0025641
        k(  668) = (  -0.7298563   0.1835177  -0.6998502), wk =   0.0025641
        k(  669) = (  -0.6777640   0.1835177  -0.5247454), wk =   0.0025641
        k(  670) = (  -0.6256717   0.1835177  -0.3496406), wk =   0.0025641
        k(  671) = (  -0.5735794   0.1835177  -0.1745357), wk =   0.0025641
        k(  672) = (  -0.5214871   0.3670354   0.0005691), wk =   0.0025641
        k(  673) = (  -0.4693948   0.3670354   0.1756739), wk =   0.0025641
        k(  674) = (  -0.4173025   0.3670354   0.3507787), wk =   0.0025641
        k(  675) = (  -0.3652102   0.3670354   0.5258836), wk =   0.0025641
        k(  676) = (  -0.3131179   0.3670354   0.7009884), wk =   0.0025641
        k(  677) = (  -0.2610256   0.3670354   0.8760932), wk =   0.0025641
        k(  678) = (  -0.2089333   0.3670354   1.0511980), wk =   0.0025641
        k(  679) = (  -0.8340409   0.3670354  -1.0500599), wk =   0.0025641
        k(  680) = (  -0.7819486   0.3670354  -0.8749551), wk =   0.0025641
        k(  681) = (  -0.7298563   0.3670354  -0.6998502), wk =   0.0025641
        k(  682) = (  -0.6777640   0.3670354  -0.5247454), wk =   0.0025641
        k(  683) = (  -0.6256717   0.3670354  -0.3496406), wk =   0.0025641
        k(  684) = (  -0.5735794   0.3670354  -0.1745357), wk =   0.0025641
        k(  685) = (  -0.5214871   0.5505530   0.0005691), wk =   0.0025641
        k(  686) = (  -0.4693948   0.5505530   0.1756739), wk =   0.0025641
        k(  687) = (  -0.4173025   0.5505530   0.3507787), wk =   0.0025641
        k(  688) = (  -0.3652102   0.5505530   0.5258836), wk =   0.0025641
        k(  689) = (  -0.3131179   0.5505530   0.7009884), wk =   0.0025641
        k(  690) = (  -0.2610256   0.5505530   0.8760932), wk =   0.0025641
        k(  691) = (  -0.2089333   0.5505530   1.0511980), wk =   0.0025641
        k(  692) = (  -0.8340409   0.5505530  -1.0500599), wk =   0.0025641
        k(  693) = (  -0.7819486   0.5505530  -0.8749551), wk =   0.0025641
        k(  694) = (  -0.7298563   0.5505530  -0.6998502), wk =   0.0025641
        k(  695) = (  -0.6777640   0.5505530  -0.5247454), wk =   0.0025641
        k(  696) = (  -0.6256717   0.5505530  -0.3496406), wk =   0.0025641
        k(  697) = (  -0.5735794   0.5505530  -0.1745357), wk =   0.0025641
        k(  698) = (  -0.5214871   0.7340707   0.0005691), wk =   0.0025641
        k(  699) = (  -0.4693948   0.7340707   0.1756739), wk =   0.0025641
        k(  700) = (  -0.4173025   0.7340707   0.3507787), wk =   0.0025641
        k(  701) = (  -0.3652102   0.7340707   0.5258836), wk =   0.0025641
        k(  702) = (  -0.3131179   0.7340707   0.7009884), wk =   0.0025641
        k(  703) = (  -0.2610256   0.7340707   0.8760932), wk =   0.0025641
        k(  704) = (  -0.2089333   0.7340707   1.0511980), wk =   0.0025641
        k(  705) = (  -0.8340409   0.7340707  -1.0500599), wk =   0.0025641
        k(  706) = (  -0.7819486   0.7340707  -0.8749551), wk =   0.0025641
        k(  707) = (  -0.7298563   0.7340707  -0.6998502), wk =   0.0025641
        k(  708) = (  -0.6777640   0.7340707  -0.5247454), wk =   0.0025641
        k(  709) = (  -0.6256717   0.7340707  -0.3496406), wk =   0.0025641
        k(  710) = (  -0.5735794   0.7340707  -0.1745357), wk =   0.0025641
        k(  711) = (  -0.5214871   0.9175884   0.0005691), wk =   0.0025641
        k(  712) = (  -0.4693948   0.9175884   0.1756739), wk =   0.0025641
        k(  713) = (  -0.4173025   0.9175884   0.3507787), wk =   0.0025641
        k(  714) = (  -0.3652102   0.9175884   0.5258836), wk =   0.0025641
        k(  715) = (  -0.3131179   0.9175884   0.7009884), wk =   0.0025641
        k(  716) = (  -0.2610256   0.9175884   0.8760932), wk =   0.0025641
        k(  717) = (  -0.2089333   0.9175884   1.0511980), wk =   0.0025641
        k(  718) = (  -0.8340409   0.9175884  -1.0500599), wk =   0.0025641
        k(  719) = (  -0.7819486   0.9175884  -0.8749551), wk =   0.0025641
        k(  720) = (  -0.7298563   0.9175884  -0.6998502), wk =   0.0025641
        k(  721) = (  -0.6777640   0.9175884  -0.5247454), wk =   0.0025641
        k(  722) = (  -0.6256717   0.9175884  -0.3496406), wk =   0.0025641
        k(  723) = (  -0.5735794   0.9175884  -0.1745357), wk =   0.0025641
        k(  724) = (  -0.5214871   1.1011061   0.0005691), wk =   0.0025641
        k(  725) = (  -0.4693948   1.1011061   0.1756739), wk =   0.0025641
        k(  726) = (  -0.4173025   1.1011061   0.3507787), wk =   0.0025641
        k(  727) = (  -0.3652102   1.1011061   0.5258836), wk =   0.0025641
        k(  728) = (  -0.3131179   1.1011061   0.7009884), wk =   0.0025641
        k(  729) = (  -0.2610256   1.1011061   0.8760932), wk =   0.0025641
        k(  730) = (  -0.2089333   1.1011061   1.0511980), wk =   0.0025641
        k(  731) = (  -0.8340409   1.1011061  -1.0500599), wk =   0.0025641
        k(  732) = (  -0.7819486   1.1011061  -0.8749551), wk =   0.0025641
        k(  733) = (  -0.7298563   1.1011061  -0.6998502), wk =   0.0025641
        k(  734) = (  -0.6777640   1.1011061  -0.5247454), wk =   0.0025641
        k(  735) = (  -0.6256717   1.1011061  -0.3496406), wk =   0.0025641
        k(  736) = (  -0.5735794   1.1011061  -0.1745357), wk =   0.0025641
        k(  737) = (  -0.5214871   1.2846237   0.0005691), wk =   0.0025641
        k(  738) = (  -0.4693948   1.2846237   0.1756739), wk =   0.0025641
        k(  739) = (  -0.4173025   1.2846237   0.3507787), wk =   0.0025641
        k(  740) = (  -0.3652102   1.2846237   0.5258836), wk =   0.0025641
        k(  741) = (  -0.3131179   1.2846237   0.7009884), wk =   0.0025641
        k(  742) = (  -0.2610256   1.2846237   0.8760932), wk =   0.0025641
        k(  743) = (  -0.2089333   1.2846237   1.0511980), wk =   0.0025641
        k(  744) = (  -0.8340409   1.2846237  -1.0500599), wk =   0.0025641
        k(  745) = (  -0.7819486   1.2846237  -0.8749551), wk =   0.0025641
        k(  746) = (  -0.7298563   1.2846237  -0.6998502), wk =   0.0025641
        k(  747) = (  -0.6777640   1.2846237  -0.5247454), wk =   0.0025641
        k(  748) = (  -0.6256717   1.2846237  -0.3496406), wk =   0.0025641
        k(  749) = (  -0.5735794   1.2846237  -0.1745357), wk =   0.0025641
        k(  750) = (  -0.5214871   1.4681414   0.0005691), wk =   0.0025641
        k(  751) = (  -0.4693948   1.4681414   0.1756739), wk =   0.0025641
        k(  752) = (  -0.4173025   1.4681414   0.3507787), wk =   0.0025641
        k(  753) = (  -0.3652102   1.4681414   0.5258836), wk =   0.0025641
        k(  754) = (  -0.3131179   1.4681414   0.7009884), wk =   0.0025641
        k(  755) = (  -0.2610256   1.4681414   0.8760932), wk =   0.0025641
        k(  756) = (  -0.2089333   1.4681414   1.0511980), wk =   0.0025641
        k(  757) = (  -0.8340409   1.4681414  -1.0500599), wk =   0.0025641
        k(  758) = (  -0.7819486   1.4681414  -0.8749551), wk =   0.0025641
        k(  759) = (  -0.7298563   1.4681414  -0.6998502), wk =   0.0025641
        k(  760) = (  -0.6777640   1.4681414  -0.5247454), wk =   0.0025641
        k(  761) = (  -0.6256717   1.4681414  -0.3496406), wk =   0.0025641
        k(  762) = (  -0.5735794   1.4681414  -0.1745357), wk =   0.0025641
        k(  763) = (  -0.5214871   1.6516591   0.0005691), wk =   0.0025641
        k(  764) = (  -0.4693948   1.6516591   0.1756739), wk =   0.0025641
        k(  765) = (  -0.4173025   1.6516591   0.3507787), wk =   0.0025641
        k(  766) = (  -0.3652102   1.6516591   0.5258836), wk =   0.0025641
        k(  767) = (  -0.3131179   1.6516591   0.7009884), wk =   0.0025641
        k(  768) = (  -0.2610256   1.6516591   0.8760932), wk =   0.0025641
        k(  769) = (  -0.2089333   1.6516591   1.0511980), wk =   0.0025641
        k(  770) = (  -0.8340409   1.6516591  -1.0500599), wk =   0.0025641
        k(  771) = (  -0.7819486   1.6516591  -0.8749551), wk =   0.0025641
        k(  772) = (  -0.7298563   1.6516591  -0.6998502), wk =   0.0025641
        k(  773) = (  -0.6777640   1.6516591  -0.5247454), wk =   0.0025641
        k(  774) = (  -0.6256717   1.6516591  -0.3496406), wk =   0.0025641
        k(  775) = (  -0.5735794   1.6516591  -0.1745357), wk =   0.0025641
        k(  776) = (  -0.5214871  -1.8351768   0.0005691), wk =   0.0012821
        k(  777) = (  -0.4693948  -1.8351768   0.1756739), wk =   0.0025641
        k(  778) = (  -0.4173025  -1.8351768   0.3507787), wk =   0.0025641
        k(  779) = (  -0.3652102  -1.8351768   0.5258836), wk =   0.0025641
        k(  780) = (  -0.3131179  -1.8351768   0.7009884), wk =   0.0025641
        k(  781) = (  -0.2610256  -1.8351768   0.8760932), wk =   0.0025641
        k(  782) = (  -0.2089333  -1.8351768   1.0511980), wk =   0.0025641

                       cryst. coord.
        k(    1) = (   0.0000000   0.0000000   0.0000000), wk =   0.0012821
        k(    2) = (  -0.0000000   0.0000000   0.0769231), wk =   0.0025641
        k(    3) = (  -0.0000000   0.0000000   0.1538462), wk =   0.0025641
        k(    4) = (   0.0000000   0.0000000   0.2307692), wk =   0.0025641
        k(    5) = (  -0.0000000   0.0000000   0.3076923), wk =   0.0025641
        k(    6) = (  -0.0000000   0.0000000   0.3846154), wk =   0.0025641
        k(    7) = (   0.0000000   0.0000000   0.4615385), wk =   0.0025641
        k(    8) = (   0.0000000   0.0500000   0.0000000), wk =   0.0025641
        k(    9) = (  -0.0000000   0.0500000   0.0769231), wk =   0.0025641
        k(   10) = (  -0.0000000   0.0500000   0.1538462), wk =   0.0025641
        k(   11) = (   0.0000000   0.0500000   0.2307692), wk =   0.0025641
        k(   12) = (  -0.0000000   0.0500000   0.3076923), wk =   0.0025641
        k(   13) = (  -0.0000000   0.0500000   0.3846154), wk =   0.0025641
        k(   14) = (   0.0000000   0.0500000   0.4615385), wk =   0.0025641
        k(   15) = (  -0.0000000   0.0500000  -0.4615385), wk =   0.0025641
        k(   16) = (  -0.0000000   0.0500000  -0.3846154), wk =   0.0025641
        k(   17) = (   0.0000000   0.0500000  -0.3076923), wk =   0.0025641
        k(   18) = (  -0.0000000   0.0500000  -0.2307692), wk =   0.0025641
        k(   19) = (   0.0000000   0.0500000  -0.1538462), wk =   0.0025641
        k(   20) = (   0.0000000   0.0500000  -0.0769231), wk =   0.0025641
        k(   21) = (   0.0000000   0.1000000   0.0000000), wk =   0.0025641
        k(   22) = (  -0.0000000   0.1000000   0.0769231), wk =   0.0025641
        k(   23) = (  -0.0000000   0.1000000   0.1538462), wk =   0.0025641
        k(   24) = (   0.0000000   0.1000000   0.2307692), wk =   0.0025641
        k(   25) = (  -0.0000000   0.1000000   0.3076923), wk =   0.0025641
        k(   26) = (  -0.0000000   0.1000000   0.3846154), wk =   0.0025641
        k(   27) = (   0.0000000   0.1000000   0.4615385), wk =   0.0025641
        k(   28) = (  -0.0000000   0.1000000  -0.4615385), wk =   0.0025641
        k(   29) = (  -0.0000000   0.1000000  -0.3846154), wk =   0.0025641
        k(   30) = (   0.0000000   0.1000000  -0.3076923), wk =   0.0025641
        k(   31) = (  -0.0000000   0.1000000  -0.2307692), wk =   0.0025641
        k(   32) = (   0.0000000   0.1000000  -0.1538462), wk =   0.0025641
        k(   33) = (   0.0000000   0.1000000  -0.0769231), wk =   0.0025641
        k(   34) = (   0.0000000   0.1500000   0.0000000), wk =   0.0025641
        k(   35) = (  -0.0000000   0.1500000   0.0769231), wk =   0.0025641
        k(   36) = (  -0.0000000   0.1500000   0.1538462), wk =   0.0025641
        k(   37) = (   0.0000000   0.1500000   0.2307692), wk =   0.0025641
        k(   38) = (  -0.0000000   0.1500000   0.3076923), wk =   0.0025641
        k(   39) = (  -0.0000000   0.1500000   0.3846154), wk =   0.0025641
        k(   40) = (   0.0000000   0.1500000   0.4615385), wk =   0.0025641
        k(   41) = (  -0.0000000   0.1500000  -0.4615385), wk =   0.0025641
        k(   42) = (  -0.0000000   0.1500000  -0.3846154), wk =   0.0025641
        k(   43) = (   0.0000000   0.1500000  -0.3076923), wk =   0.0025641
        k(   44) = (  -0.0000000   0.1500000  -0.2307692), wk =   0.0025641
        k(   45) = (   0.0000000   0.1500000  -0.1538462), wk =   0.0025641
        k(   46) = (   0.0000000   0.1500000  -0.0769231), wk =   0.0025641
        k(   47) = (   0.0000000   0.2000000   0.0000000), wk =   0.0025641
        k(   48) = (  -0.0000000   0.2000000   0.0769231), wk =   0.0025641
        k(   49) = (  -0.0000000   0.2000000   0.1538462), wk =   0.0025641
        k(   50) = (   0.0000000   0.2000000   0.2307692), wk =   0.0025641
        k(   51) = (  -0.0000000   0.2000000   0.3076923), wk =   0.0025641
        k(   52) = (  -0.0000000   0.2000000   0.3846154), wk =   0.0025641
        k(   53) = (   0.0000000   0.2000000   0.4615385), wk =   0.0025641
        k(   54) = (  -0.0000000   0.2000000  -0.4615385), wk =   0.0025641
        k(   55) = (  -0.0000000   0.2000000  -0.3846154), wk =   0.0025641
        k(   56) = (   0.0000000   0.2000000  -0.3076923), wk =   0.0025641
        k(   57) = (  -0.0000000   0.2000000  -0.2307692), wk =   0.0025641
        k(   58) = (   0.0000000   0.2000000  -0.1538462), wk =   0.0025641
        k(   59) = (   0.0000000   0.2000000  -0.0769231), wk =   0.0025641
        k(   60) = (   0.0000000   0.2500000   0.0000000), wk =   0.0025641
        k(   61) = (  -0.0000000   0.2500000   0.0769231), wk =   0.0025641
        k(   62) = (  -0.0000000   0.2500000   0.1538462), wk =   0.0025641
        k(   63) = (   0.0000000   0.2500000   0.2307692), wk =   0.0025641
        k(   64) = (  -0.0000000   0.2500000   0.3076923), wk =   0.0025641
        k(   65) = (  -0.0000000   0.2500000   0.3846154), wk =   0.0025641
        k(   66) = (   0.0000000   0.2500000   0.4615385), wk =   0.0025641
        k(   67) = (  -0.0000000   0.2500000  -0.4615385), wk =   0.0025641
        k(   68) = (  -0.0000000   0.2500000  -0.3846154), wk =   0.0025641
        k(   69) = (   0.0000000   0.2500000  -0.3076923), wk =   0.0025641
        k(   70) = (  -0.0000000   0.2500000  -0.2307692), wk =   0.0025641
        k(   71) = (   0.0000000   0.2500000  -0.1538462), wk =   0.0025641
        k(   72) = (   0.0000000   0.2500000  -0.0769231), wk =   0.0025641
        k(   73) = (   0.0000000   0.3000000   0.0000000), wk =   0.0025641
        k(   74) = (  -0.0000000   0.3000000   0.0769231), wk =   0.0025641
        k(   75) = (  -0.0000000   0.3000000   0.1538462), wk =   0.0025641
        k(   76) = (   0.0000000   0.3000000   0.2307692), wk =   0.0025641
        k(   77) = (  -0.0000000   0.3000000   0.3076923), wk =   0.0025641
        k(   78) = (  -0.0000000   0.3000000   0.3846154), wk =   0.0025641
        k(   79) = (   0.0000000   0.3000000   0.4615385), wk =   0.0025641
        k(   80) = (  -0.0000000   0.3000000  -0.4615385), wk =   0.0025641
        k(   81) = (  -0.0000000   0.3000000  -0.3846154), wk =   0.0025641
        k(   82) = (   0.0000000   0.3000000  -0.3076923), wk =   0.0025641
        k(   83) = (  -0.0000000   0.3000000  -0.2307692), wk =   0.0025641
        k(   84) = (   0.0000000   0.3000000  -0.1538462), wk =   0.0025641
        k(   85) = (   0.0000000   0.3000000  -0.0769231), wk =   0.0025641
        k(   86) = (   0.0000000   0.3500000   0.0000000), wk =   0.0025641
        k(   87) = (  -0.0000000   0.3500000   0.0769231), wk =   0.0025641
        k(   88) = (  -0.0000000   0.3500000   0.1538462), wk =   0.0025641
        k(   89) = (   0.0000000   0.3500000   0.2307692), wk =   0.0025641
        k(   90) = (  -0.0000000   0.3500000   0.3076923), wk =   0.0025641
        k(   91) = (  -0.0000000   0.3500000   0.3846154), wk =   0.0025641
        k(   92) = (   0.0000000   0.3500000   0.4615385), wk =   0.0025641
        k(   93) = (  -0.0000000   0.3500000  -0.4615385), wk =   0.0025641
        k(   94) = (  -0.0000000   0.3500000  -0.3846154), wk =   0.0025641
        k(   95) = (   0.0000000   0.3500000  -0.3076923), wk =   0.0025641
        k(   96) = (  -0.0000000   0.3500000  -0.2307692), wk =   0.0025641
        k(   97) = (   0.0000000   0.3500000  -0.1538462), wk =   0.0025641
        k(   98) = (   0.0000000   0.3500000  -0.0769231), wk =   0.0025641
        k(   99) = (   0.0000000   0.4000000   0.0000000), wk =   0.0025641
        k(  100) = (  -0.0000000   0.4000000   0.0769231), wk =   0.0025641
        k(  101) = (  -0.0000000   0.4000000   0.1538462), wk =   0.0025641
        k(  102) = (   0.0000000   0.4000000   0.2307692), wk =   0.0025641
        k(  103) = (  -0.0000000   0.4000000   0.3076923), wk =   0.0025641
        k(  104) = (  -0.0000000   0.4000000   0.3846154), wk =   0.0025641
        k(  105) = (   0.0000000   0.4000000   0.4615385), wk =   0.0025641
        k(  106) = (  -0.0000000   0.4000000  -0.4615385), wk =   0.0025641
        k(  107) = (  -0.0000000   0.4000000  -0.3846154), wk =   0.0025641
        k(  108) = (   0.0000000   0.4000000  -0.3076923), wk =   0.0025641
        k(  109) = (  -0.0000000   0.4000000  -0.2307692), wk =   0.0025641
        k(  110) = (   0.0000000   0.4000000  -0.1538462), wk =   0.0025641
        k(  111) = (   0.0000000   0.4000000  -0.0769231), wk =   0.0025641
        k(  112) = (   0.0000000   0.4500000   0.0000000), wk =   0.0025641
        k(  113) = (  -0.0000000   0.4500000   0.0769231), wk =   0.0025641
        k(  114) = (  -0.0000000   0.4500000   0.1538462), wk =   0.0025641
        k(  115) = (   0.0000000   0.4500000   0.2307692), wk =   0.0025641
        k(  116) = (  -0.0000000   0.4500000   0.3076923), wk =   0.0025641
        k(  117) = (  -0.0000000   0.4500000   0.3846154), wk =   0.0025641
        k(  118) = (   0.0000000   0.4500000   0.4615385), wk =   0.0025641
        k(  119) = (  -0.0000000   0.4500000  -0.4615385), wk =   0.0025641
        k(  120) = (  -0.0000000   0.4500000  -0.3846154), wk =   0.0025641
        k(  121) = (   0.0000000   0.4500000  -0.3076923), wk =   0.0025641
        k(  122) = (  -0.0000000   0.4500000  -0.2307692), wk =   0.0025641
        k(  123) = (   0.0000000   0.4500000  -0.1538462), wk =   0.0025641
        k(  124) = (   0.0000000   0.4500000  -0.0769231), wk =   0.0025641
        k(  125) = (   0.0000000  -0.5000000   0.0000000), wk =   0.0012821
        k(  126) = (  -0.0000000  -0.5000000   0.0769231), wk =   0.0025641
        k(  127) = (  -0.0000000  -0.5000000   0.1538462), wk =   0.0025641
        k(  128) = (   0.0000000  -0.5000000   0.2307692), wk =   0.0025641
        k(  129) = (  -0.0000000  -0.5000000   0.3076923), wk =   0.0025641
        k(  130) = (  -0.0000000  -0.5000000   0.3846154), wk =   0.0025641
        k(  131) = (   0.0000000  -0.5000000   0.4615385), wk =   0.0025641
        k(  132) = (   0.1666667   0.0000000  -0.0000000), wk =   0.0025641
        k(  133) = (   0.1666667   0.0000000   0.0769231), wk =   0.0025641
        k(  134) = (   0.1666667   0.0000000   0.1538462), wk =   0.0025641
        k(  135) = (   0.1666667   0.0000000   0.2307692), wk =   0.0025641
        k(  136) = (   0.1666667   0.0000000   0.3076923), wk =   0.0025641
        k(  137) = (   0.1666667   0.0000000   0.3846154), wk =   0.0025641
        k(  138) = (   0.1666667   0.0000000   0.4615385), wk =   0.0025641
        k(  139) = (   0.1666667   0.0000000  -0.4615385), wk =   0.0025641
        k(  140) = (   0.1666667   0.0000000  -0.3846154), wk =   0.0025641
        k(  141) = (   0.1666667   0.0000000  -0.3076923), wk =   0.0025641
        k(  142) = (   0.1666667   0.0000000  -0.2307692), wk =   0.0025641
        k(  143) = (   0.1666667   0.0000000  -0.1538462), wk =   0.0025641
[...]

          k =-0.2089-1.8352 1.0512 ( 11440 PWs)   bands (ev):

    -2.8951  -2.8951  -2.0886  -2.0886  -1.7217  -1.7217  -1.1342  -1.1342
     0.2509   0.2509   0.8172   0.8172   1.1090   1.1090   1.9619   1.9619
     2.0641   2.0641   3.0399   3.0399   3.5004   3.5004   4.0224   4.0224
     4.3893   4.3893   4.8199   4.8199   5.2859   5.2859   5.7851   5.7851
     6.4154   6.4154   6.7462   6.7462   7.0342   7.0342   7.3357   7.3357

     occupation numbers 
     1.0000   1.0000   1.0000   1.0000   1.0000   1.0000   1.0000   1.0000
     1.0000   1.0000   1.0000   1.0000   1.0000   1.0000   1.0000   1.0000
     1.0000   1.0000   1.0000   1.0000   1.0000   1.0000   1.0000   1.0000
     1.0000   1.0000   1.0000   1.0000   1.0010   1.0010   1.0189   1.0189
     0.9379   0.9379   0.5761   0.5761   0.1964   0.1964  -0.0100  -0.0100

     the Fermi energy is     6.8005 ev

!    total energy              =    -597.36836921 Ry
     Harris-Foulkes estimate   =    -597.36836921 Ry
     estimated scf accuracy    <          6.8E-13 Ry

     The total energy is the sum of the following terms:

     one-electron contribution =      48.84020589 Ry
     hartree contribution      =       6.71726528 Ry
     xc contribution           =     -77.82426437 Ry
     ewald contribution        =    -116.74804799 Ry
     one-center paw contrib.   =    -458.35311820 Ry
      -> PAW hartree energy AE =       1.25369514 Ry
      -> PAW hartree energy PS =      -1.24925067 Ry
      -> PAW xc energy AE      =     -36.51125823 Ry
      -> PAW xc energy PS      =       1.83281170 Ry
      -> total E_H with PAW    =       6.72170975 Ry
      -> total E_XC with PAW   =    -112.50271089 Ry
     smearing contrib. (-TS)   =      -0.00040982 Ry

     convergence has been achieved in  17 iterations

     Forces acting on atoms (cartesian axes, Ry/au):

     atom    1 type  1   force =    -0.00000404    0.00000011   -0.00001165
     atom    2 type  2   force =    -0.00088718   -0.00000003   -0.00007890
     atom    3 type  2   force =    -0.00162272   -0.00000002   -0.00064556
     atom    4 type  2   force =     0.00162494    0.00000001    0.00064580
     atom    5 type  2   force =     0.00088562   -0.00000007    0.00007940
     atom    6 type  3   force =    -0.00051789   -0.00000013   -0.00008932
     atom    7 type  3   force =     0.00090751    0.00000002    0.00082854
     atom    8 type  1   force =    -0.00081637   -0.00000002   -0.00120284
     atom    9 type  1   force =     0.00081556    0.00000002    0.00120247
     atom   10 type  3   force =    -0.00090740   -0.00000015   -0.00082849
     atom   11 type  3   force =     0.00051786   -0.00000024    0.00008914
     atom   12 type  1   force =     0.00000400   -0.00000011    0.00001134
     atom   13 type  2   force =    -0.00088111    0.00000003   -0.00006326
     atom   14 type  2   force =    -0.00161490   -0.00000001   -0.00063548
     atom   15 type  2   force =     0.00161705    0.00000002    0.00063589
     atom   16 type  2   force =     0.00087971    0.00000008    0.00006352
     atom   17 type  3   force =    -0.00050735    0.00000011   -0.00008490
     atom   18 type  3   force =     0.00088802    0.00000013    0.00081666
     atom   19 type  1   force =    -0.00083712   -0.00000003   -0.00119826
     atom   20 type  1   force =     0.00083643    0.00000003    0.00119783
     atom   21 type  3   force =    -0.00088794    0.00000001   -0.00081686
     atom   22 type  3   force =     0.00050735    0.00000024    0.00008494
     The non-local contrib.  to forces
     atom    1 type  1   force =    -0.00002202    0.00000041   -0.00001752
     atom    2 type  2   force =     0.01174397   -0.00000028    0.01038739
     atom    3 type  2   force =     0.00875013   -0.00000009    0.01230828
     atom    4 type  2   force =    -0.00876684   -0.00000010   -0.01230896
     atom    5 type  2   force =    -0.01176503   -0.00000037   -0.01039205
     atom    6 type  3   force =    -0.03096911   -0.00000008   -0.04019587
     atom    7 type  3   force =     0.00665470   -0.00000001    0.01785829
     atom    8 type  1   force =     0.00670461   -0.00000017   -0.00235057
     atom    9 type  1   force =    -0.00671578   -0.00000015    0.00234798
     atom   10 type  3   force =    -0.00664108   -0.00000007   -0.01785196
     atom   11 type  3   force =     0.03097567   -0.00000014    0.04019312
     atom   12 type  1   force =     0.00001190   -0.00000047    0.00001482
     atom   13 type  2   force =     0.01176614   -0.00000020    0.01045332
     atom   14 type  2   force =     0.00875960    0.00000013    0.01232954
     atom   15 type  2   force =    -0.00877663    0.00000006   -0.01233033
     atom   16 type  2   force =    -0.01178735    0.00000079   -0.01045773
     atom   17 type  3   force =    -0.03095891   -0.00000028   -0.04017223
     atom   18 type  3   force =     0.00659814    0.00000012    0.01787004
     atom   19 type  1   force =     0.00667456    0.00000032   -0.00234950
     atom   20 type  1   force =    -0.00668546    0.00000001    0.00234699
     atom   21 type  3   force =    -0.00658508   -0.00000005   -0.01786423
     atom   22 type  3   force =     0.03096508    0.00000049    0.04016892
     The ionic contribution  to forces
     atom    1 type  1   force =    -0.00037235   -0.00000000   -0.00006311
     atom    2 type  2   force =    -0.06487661    0.00000000   -0.13126174
     atom    3 type  2   force =    -0.02574843    0.00000000    0.07522230
     atom    4 type  2   force =     0.02574416   -0.00000000   -0.07522168
     atom    5 type  2   force =     0.06482925   -0.00000000    0.13127478
     atom    6 type  3   force =     0.27960429   -0.00000000    0.46968400
     atom    7 type  3   force =    -0.22270460   -0.00000000   -0.58544403
     atom    8 type  1   force =    -0.01540670   -0.00000000    0.30446920
     atom    9 type  1   force =     0.01540617    0.00000000   -0.30450030
     atom   10 type  3   force =     0.22281037    0.00000000    0.58548396
     atom   11 type  3   force =    -0.27959821    0.00000000   -0.46970234
     atom   12 type  1   force =     0.00026296    0.00000000    0.00005743
     atom   13 type  2   force =    -0.06470038   -0.00000000   -0.13124369
     atom   14 type  2   force =    -0.02566764   -0.00000000    0.07533484
     atom   15 type  2   force =     0.02566181    0.00000000   -0.07533404
     atom   16 type  2   force =     0.06465262    0.00000000    0.13125667
     atom   17 type  3   force =     0.28005121    0.00000000    0.46961815
     atom   18 type  3   force =    -0.22260873    0.00000000   -0.58573423
     atom   19 type  1   force =    -0.01539847    0.00000000    0.30454739
     atom   20 type  1   force =     0.01539679   -0.00000000   -0.30457771
     atom   21 type  3   force =     0.22271100   -0.00000000    0.58577267
     atom   22 type  3   force =    -0.28004852   -0.00000000   -0.46963853
     The local contribution  to forces
     atom    1 type  1   force =     0.00038417   -0.00000025    0.00006622
     atom    2 type  2   force =     0.05384404    0.00000022    0.12186622
     atom    3 type  2   force =     0.01638512    0.00000006   -0.08665939
     atom    4 type  2   force =    -0.01637011    0.00000010    0.08665863
     atom    5 type  2   force =    -0.05378590    0.00000026   -0.12187554
     atom    6 type  3   force =    -0.25215211   -0.00000006   -0.43355873
     atom    7 type  3   force =     0.21759265    0.00000003    0.57007628
     atom    8 type  1   force =     0.00870051    0.00000013   -0.30323328
     atom    9 type  1   force =    -0.00869730    0.00000015    0.30326522
     atom   10 type  3   force =    -0.21769690   -0.00000009   -0.57011600
     atom   11 type  3   force =     0.25214899   -0.00000011    0.43357701
     atom   12 type  1   force =    -0.00027239    0.00000030   -0.00005950
     atom   13 type  2   force =     0.05365379    0.00000021    0.12180545
     atom   14 type  2   force =     0.01630366   -0.00000012   -0.08678029
     atom   15 type  2   force =    -0.01628685   -0.00000003    0.08677959
     atom   16 type  2   force =    -0.05359497   -0.00000063   -0.12181517
     atom   17 type  3   force =    -0.25259757    0.00000036   -0.43350967
     atom   18 type  3   force =     0.21752760    0.00000002    0.57034396
     atom   19 type  1   force =     0.00869850   -0.00000031   -0.30330784
     atom   20 type  1   force =    -0.00869424    0.00000003    0.30333890
     atom   21 type  3   force =    -0.21762797    0.00000006   -0.57038204
     atom   22 type  3   force =     0.25259801   -0.00000020    0.43353018
     The core correction contribution to forces
     atom    1 type  1   force =     0.00000300   -0.00000004    0.00000226
     atom    2 type  2   force =    -0.00160185    0.00000003   -0.00107116
     atom    3 type  2   force =    -0.00101277    0.00000001   -0.00151732
     atom    4 type  2   force =     0.00101467    0.00000001    0.00151739
     atom    5 type  2   force =     0.00160430    0.00000004    0.00107159
     atom    6 type  3   force =     0.00299570    0.00000001    0.00398060
     atom    7 type  3   force =    -0.00063846    0.00000000   -0.00166258
     atom    8 type  1   force =    -0.00081811    0.00000002   -0.00008860
     atom    9 type  1   force =     0.00081949    0.00000002    0.00008898
     atom   10 type  3   force =     0.00061712    0.00000001    0.00165510
     atom   11 type  3   force =    -0.00301150    0.00000001   -0.00397896
     atom   12 type  1   force =    -0.00000159    0.00000005   -0.00000190
     atom   13 type  2   force =    -0.00160391    0.00000002   -0.00107872
     atom   14 type  2   force =    -0.00101373   -0.00000001   -0.00152015
     atom   15 type  2   force =     0.00101566   -0.00000001    0.00152022
     atom   16 type  2   force =     0.00160638   -0.00000008    0.00107913
     atom   17 type  3   force =     0.00299463    0.00000003    0.00397814
     atom   18 type  3   force =    -0.00063217   -0.00000001   -0.00166366
     atom   19 type  1   force =    -0.00081502   -0.00000003   -0.00008872
     atom   20 type  1   force =     0.00081636   -0.00000000    0.00008908
     atom   21 type  3   force =     0.00061101    0.00000001    0.00165629
     atom   22 type  3   force =    -0.00301018   -0.00000005   -0.00397591
     The Hubbard contrib.    to forces
     atom    1 type  1   force =     0.00000000    0.00000000    0.00000000
     atom    2 type  2   force =     0.00000000    0.00000000    0.00000000
     atom    3 type  2   force =     0.00000000    0.00000000    0.00000000
     atom    4 type  2   force =     0.00000000    0.00000000    0.00000000
     atom    5 type  2   force =     0.00000000    0.00000000    0.00000000
     atom    6 type  3   force =     0.00000000    0.00000000    0.00000000
     atom    7 type  3   force =     0.00000000    0.00000000    0.00000000
     atom    8 type  1   force =     0.00000000    0.00000000    0.00000000
     atom    9 type  1   force =     0.00000000    0.00000000    0.00000000
     atom   10 type  3   force =     0.00000000    0.00000000    0.00000000
     atom   11 type  3   force =     0.00000000    0.00000000    0.00000000
     atom   12 type  1   force =     0.00000000    0.00000000    0.00000000
     atom   13 type  2   force =     0.00000000    0.00000000    0.00000000
     atom   14 type  2   force =     0.00000000    0.00000000    0.00000000
     atom   15 type  2   force =     0.00000000    0.00000000    0.00000000
     atom   16 type  2   force =     0.00000000    0.00000000    0.00000000
     atom   17 type  3   force =     0.00000000    0.00000000    0.00000000
     atom   18 type  3   force =     0.00000000    0.00000000    0.00000000
     atom   19 type  1   force =     0.00000000    0.00000000    0.00000000
     atom   20 type  1   force =     0.00000000    0.00000000    0.00000000
     atom   21 type  3   force =     0.00000000    0.00000000    0.00000000
     atom   22 type  3   force =     0.00000000    0.00000000    0.00000000
     The SCF correction term to forces
     atom    1 type  1   force =     0.00000000    0.00000000    0.00000001
     atom    2 type  2   force =     0.00000013   -0.00000000   -0.00000011
     atom    3 type  2   force =     0.00000008   -0.00000000    0.00000006
     atom    4 type  2   force =    -0.00000008   -0.00000000   -0.00000007
     atom    5 type  2   force =    -0.00000014   -0.00000000    0.00000012
     atom    6 type  3   force =     0.00000021    0.00000000    0.00000019
     atom    7 type  3   force =     0.00000008    0.00000000    0.00000008
     atom    8 type  1   force =     0.00000018    0.00000000   -0.00000009
     atom    9 type  1   force =    -0.00000016    0.00000000    0.00000009
     atom   10 type  3   force =    -0.00000005   -0.00000000   -0.00000008
     atom   11 type  3   force =    -0.00000023    0.00000000   -0.00000020
     atom   12 type  1   force =    -0.00000002    0.00000000   -0.00000001
     atom   13 type  2   force =     0.00000011   -0.00000000   -0.00000012
     atom   14 type  2   force =     0.00000007    0.00000000    0.00000007
     atom   15 type  2   force =    -0.00000006    0.00000000   -0.00000007
     atom   16 type  2   force =    -0.00000011    0.00000000    0.00000011
     atom   17 type  3   force =     0.00000015    0.00000000    0.00000022
     atom   18 type  3   force =     0.00000004    0.00000000    0.00000005
     atom   19 type  1   force =     0.00000017   -0.00000000   -0.00000008
     atom   20 type  1   force =    -0.00000016   -0.00000000    0.00000007
     atom   21 type  3   force =    -0.00000003   -0.00000000   -0.00000005
     atom   22 type  3   force =    -0.00000017   -0.00000000   -0.00000021

     Total force =     0.005549     Total SCF correction =     0.000001


     Computing stress (Cartesian axis) and pressure

          total   stress  (Ry/bohr**3)                   (kbar)     P=   -3.51
  -0.00001900  -0.00000000  -0.00000995         -2.80     -0.00     -1.46
  -0.00000000  -0.00001269  -0.00000000         -0.00     -1.87     -0.00
  -0.00000995  -0.00000000  -0.00003983         -1.46     -0.00     -5.86

     kinetic stress (kbar)   1463.12     -0.00    -14.62
                               -0.00   1485.11     -0.00
                              -14.62     -0.00   1462.03

     local   stress (kbar)    -47.63      0.00   -124.50
                                0.00    493.37     -0.00
                             -124.50     -0.00     16.54

     nonloc. stress (kbar)   1134.04      0.00      3.36
                                0.00   1129.59      0.00
                                3.36      0.00   1128.98

     hartree stress (kbar)    184.62     -0.00     29.97
                               -0.00     20.32      0.00
                               29.97      0.00    163.76

     exc-cor stress (kbar)   1486.73     -0.00      0.22
                               -0.00   1486.18      0.00
                                0.22      0.00   1486.36

     corecor stress (kbar)  -2232.22     -0.00     -0.27
                               -0.00  -2231.85     -0.00
                               -0.27     -0.00  -2231.50

     ewald   stress (kbar)  -1991.46      0.00    104.38
                                0.00  -2384.59     -0.00
                              104.38     -0.00  -2032.03

     hubbard stress (kbar)      0.00      0.00      0.00
                                0.00      0.00      0.00
                                0.00      0.00      0.00

     london  stress (kbar)      0.00      0.00      0.00
                                0.00      0.00      0.00
                                0.00      0.00      0.00

     DFT-D3  stress (kbar)      0.00      0.00      0.00
                                0.00      0.00      0.00
                                0.00      0.00      0.00

     XDM     stress (kbar)      0.00      0.00      0.00
                                0.00      0.00      0.00
                                0.00      0.00      0.00

     dft-nl  stress (kbar)      0.00      0.00      0.00
                                0.00      0.00      0.00
                                0.00      0.00      0.00

     TS-vdW  stress (kbar)      0.00      0.00      0.00
                                0.00      0.00      0.00
                                0.00      0.00      0.00



     Writing output data file aiida.save/
 
     init_run     :     23.77s CPU     24.29s WALL (       1 calls)
     electrons    :    826.44s CPU    839.32s WALL (       1 calls)
     forces       :      9.27s CPU      9.43s WALL (       1 calls)
     stress       :     64.78s CPU     64.90s WALL (       1 calls)

     Called by init_run:
     wfcinit      :     21.26s CPU     21.68s WALL (       1 calls)
     wfcinit:atom :      0.16s CPU      0.18s WALL (     196 calls)
     wfcinit:wfcr :     19.79s CPU     20.11s WALL (     196 calls)
     potinit      :      0.85s CPU      0.87s WALL (       1 calls)
     hinit0       :      1.49s CPU      1.51s WALL (       1 calls)

     Called by electrons:
     c_bands      :    739.04s CPU    748.98s WALL (      18 calls)
     sum_band     :     82.01s CPU     83.97s WALL (      18 calls)
     v_of_rho     :      1.33s CPU      1.39s WALL (      18 calls)
     v_h          :      0.09s CPU      0.09s WALL (      18 calls)
     v_xc         :      1.35s CPU      1.43s WALL (      20 calls)
     newd         :      1.35s CPU      2.13s WALL (      18 calls)
     PAW_pot      :      2.19s CPU      2.30s WALL (      18 calls)
     mix_rho      :      0.51s CPU      0.56s WALL (      18 calls)

     Called by c_bands:
     init_us_2    :     24.11s CPU     24.44s WALL (    7644 calls)
     cegterg      :    579.21s CPU    586.94s WALL (    3528 calls)

     Called by sum_band:
     sum_band:bec :      0.53s CPU      0.53s WALL (    3528 calls)
     addusdens    :      1.42s CPU      2.25s WALL (      18 calls)

     Called by *egterg:
     h_psi        :    395.77s CPU    402.15s WALL (   16759 calls)
     s_psi        :     57.71s CPU     57.86s WALL (   16759 calls)
     g_psi        :      2.68s CPU      2.70s WALL (   13035 calls)
     cdiaghg      :     65.25s CPU     66.28s WALL (   16367 calls)
     cegterg:over :     30.69s CPU     30.88s WALL (   13035 calls)
     cegterg:upda :     23.60s CPU     23.81s WALL (   13035 calls)
     cegterg:last :      9.82s CPU      9.88s WALL (    4003 calls)
     cdiaghg:chol :      4.36s CPU      4.40s WALL (   16367 calls)
     cdiaghg:inve :      0.86s CPU      0.87s WALL (   16367 calls)
     cdiaghg:para :      8.63s CPU      8.69s WALL (   32734 calls)

     Called by h_psi:
     h_psi:pot    :    393.95s CPU    400.32s WALL (   16759 calls)
     h_psi:calbec :     57.31s CPU     57.92s WALL (   16759 calls)
     vloc_psi     :    277.94s CPU    283.58s WALL (   16759 calls)
     add_vuspsi   :     58.55s CPU     58.70s WALL (   16759 calls)

     General routines
     calbec       :     82.30s CPU     83.23s WALL (   21267 calls)
     fft          :      1.02s CPU      1.10s WALL (     259 calls)
     ffts         :      0.19s CPU      0.21s WALL (     276 calls)
     fftw         :    294.87s CPU    300.69s WALL (  970492 calls)
     interpolate  :      0.11s CPU      0.11s WALL (      18 calls)
 
     Parallel routines
     fft_scatt_xy :     36.77s CPU     37.55s WALL (  971027 calls)
     fft_scatt_yz :    115.57s CPU    118.01s WALL (  971027 calls)

     PAW routines
     PAW_pot      :      2.19s CPU      2.30s WALL (      18 calls)
 
     PWSCF        :  15m48.66s CPU  16m27.04s WALL

 
   This run was terminated on:  14:29: 2  22Feb2020            

=------------------------------------------------------------------------------=
   JOB DONE.
=------------------------------------------------------------------------------=
