
     Program PWSCF v.6.3 starts on 22Feb2020 at 14:12:22 

     This program is part of the open-source Quantum ESPRESSO suite
     for quantum simulation of materials; please cite
         "P. Giannozzi et al., J. Phys.:Condens. Matter 21 395502 (2009);
         "P. Giannozzi et al., J. Phys.:Condens. Matter 29 465901 (2017);
          URL http://www.quantum-espresso.org", 
     in publications or presentations arising from this work. More details at
     http://www.quantum-espresso.org/quote

 *** WARNING: using old-style file format, will disappear from next version ***

     Parallel version (MPI & OpenMP), running on      36 processor cores
     Number of MPI processes:                36
     Threads/MPI process:                     1

     MPI processes distributed on     1 nodes
     K-points division:     npool     =       4
     R & G space division:  proc/nbgrp/npool/nimage =       9
     Reading input from aiida.in
Warning: card &IONS ignored
Warning: card   !PRESS_CONV_THR = 0.05                 ! JUST FOR VOLUME RELAXATIONS ignored
Warning: card / ignored

     Current dimensions of program PWSCF are:
     Max number of different atomic species (ntypx) = 10
     Max number of k-points (npk) =  40000
     Max angular momentum in pseudopotentials (lmaxx) =  3
               file Mg.pbe-n-kjpaw_psl.0.3.0.UPF: wavefunction(s)  3S renormalized
               file Al.pbe-n-kjpaw_psl.1.0.0.UPF: wavefunction(s)  3S 3P renormalized

     Subspace diagonalization in iterative solution of the eigenvalue problem:
     one sub-group per band group will be used
     scalapack distributed-memory algorithm (size of sub-group:  2*  2 procs)

 
     Parallelization info
     --------------------
     sticks:   dense  smooth     PW     G-vecs:    dense   smooth      PW
     Min         786     314     91                41394    10468    1635
     Max         787     315     92                41395    10471    1637
     Sum        7077    2831    827               372549    94227   14723
 


     bravais-lattice index     =            0
     lattice parameter (alat)  =      28.9720  a.u.
     unit-cell volume          =    2757.3348 (a.u.)^3
     number of atoms/cell      =           22
     number of atomic types    =            3
     number of electrons       =        64.00
     number of Kohn-Sham states=           38
     kinetic-energy cutoff     =      40.0000  Ry
     charge density cutoff     =     400.0000  Ry
     convergence threshold     =      1.0E-12
     mixing beta               =       0.4000
     number of iterations used =            8  local-TF  mixing
     Exchange-correlation      = SLA PW PBX PBC ( 1  4  3  4 0 0)

     celldm(1)=  28.972009  celldm(2)=   0.000000  celldm(3)=   0.000000
     celldm(4)=   0.000000  celldm(5)=   0.000000  celldm(6)=   0.000000

     crystal axes: (cart. coord. in units of alat)
               a(1) = (   0.961440   0.000000  -0.275016 )  
               a(2) = (   0.000000   0.264445   0.000000 )  
               a(3) = (   0.000961   0.000000   0.445685 )  

     reciprocal axes: (cart. coord. in units 2 pi/alat)
               b(1) = (  1.039466  0.000000 -0.002242 )  
               b(2) = (  0.000000  3.781503  0.000000 )  
               b(3) = (  0.641416  0.000000  2.242353 )  


     PseudoPot. # 1 for Mg read from file:
     /users/aglensk/Dropbox/Albert/scripts/dotfiles/scripts/potentials/quantum_espresso/pseudo_SSSPefV1.1_alalloy/Mg.pbe-n-kjpaw_psl.0.3.0.UPF
     MD5 check sum: 24ecedc7f3e3cbe212e682f4413594e4
     Pseudo is Projector augmented-wave + core cor, Zval =  2.0
     Generated using "atomic" code by A. Dal Corso v.5.0.99 svn rev. 10869
     Shape of augmentation charge: PSQ
     Using radial grid of 1129 points,  4 beta functions with: 
                l(1) =   0
                l(2) =   0
                l(3) =   1
                l(4) =   1
     Q(r) pseudized with 0 coefficients 


     PseudoPot. # 2 for Si read from file:
     /users/aglensk/Dropbox/Albert/scripts/dotfiles/scripts/potentials/quantum_espresso/pseudo_SSSPefV1.1_alalloy/Si.pbe-n-rrkjus_psl.1.0.0.UPF
     MD5 check sum: 0b0bb1205258b0d07b9f9672cf965d36
     Pseudo is Ultrasoft + core correction, Zval =  4.0
     Generated using "atomic" code by A. Dal Corso v.5.1
     Using radial grid of 1141 points,  6 beta functions with: 
                l(1) =   0
                l(2) =   0
                l(3) =   1
                l(4) =   1
                l(5) =   2
                l(6) =   2
     Q(r) pseudized with 0 coefficients 


     PseudoPot. # 3 for Al read from file:
     /users/aglensk/Dropbox/Albert/scripts/dotfiles/scripts/potentials/quantum_espresso/pseudo_SSSPefV1.1_alalloy/Al.pbe-n-kjpaw_psl.1.0.0.UPF
     MD5 check sum: cfc449ca30b5f3223ec38ddd88ac046d
     Pseudo is Projector augmented-wave + core cor, Zval =  3.0
     Generated using "atomic" code by A. Dal Corso v.5.1
     Shape of augmentation charge: PSQ
     Using radial grid of 1135 points,  6 beta functions with: 
                l(1) =   0
                l(2) =   0
                l(3) =   1
                l(4) =   1
                l(5) =   2
                l(6) =   2
     Q(r) pseudized with 0 coefficients 


     atomic species   valence    mass     pseudopotential
        Mg             2.00    24.30500     Mg( 1.00)
        Si             4.00    28.08500     Si( 1.00)
        Al             3.00    26.98154     Al( 1.00)

     No symmetry found


                                    s                        frac. trans.

      isym =  1     identity                                     

 cryst.   s( 1) = (     1          0          0      )
                  (     0          1          0      )
                  (     0          0          1      )

 cart.    s( 1) = (  1.0000000  0.0000000 -0.0000000 )
                  (  0.0000000  1.0000000  0.0000000 )
                  ( -0.0000000  0.0000000  1.0000000 )


   Cartesian axes

     site n.     atom                  positions (alat units)
         1           Mg  tau(   1) = (   0.0023158   0.0000000   0.4400939  )
         2           Mg  tau(   2) = (   0.0732718   0.1322226   0.1339671  )
         3           Mg  tau(   3) = (   0.1509813   0.1322226   0.3589479  )
         4           Mg  tau(   4) = (   0.3334126   0.0000000  -0.0619802  )
         5           Mg  tau(   5) = (   0.4111219   0.0000000   0.1630008  )
         6           Si  tau(   6) = (   0.0574836   0.0000000   0.2718082  )
         7           Si  tau(   7) = (   0.1801157   0.0000000   0.0424831  )
         8           Al  tau(   8) = (   0.2103803   0.0000000   0.2098797  )
         9           Al  tau(   9) = (   0.2740130   0.1322226   0.0870891  )
        10           Si  tau(  10) = (   0.3042790   0.1322226   0.2544845  )
        11           Si  tau(  11) = (   0.4269083   0.1322226   0.0251600  )
        12           Mg  tau(  12) = (   0.4830383   0.1322226   0.3025598  )
        13           Mg  tau(  13) = (   0.5539977   0.0000000  -0.0035674  )
        14           Mg  tau(  14) = (   0.6316938   0.0000000   0.2214244  )
        15           Mg  tau(  15) = (   0.8141397   0.1322226  -0.1994727  )
        16           Mg  tau(  16) = (   0.8918355   0.1322226   0.0255191  )
        17           Si  tau(  17) = (   0.5382012   0.1322226   0.1342746  )
        18           Si  tau(  18) = (   0.6608403   0.1322226  -0.0950399  )
        19           Al  tau(  19) = (   0.6911039   0.1322226   0.0723606  )
        20           Al  tau(  20) = (   0.7547290   0.0000000  -0.0504079  )
        21           Si  tau(  21) = (   0.7849941   0.0000000   0.1169915  )
        22           Si  tau(  22) = (   0.9076303   0.0000000  -0.1123224  )

   Crystallographic axes

     site n.     atom                  positions (cryst. coord.)
         1           Mg  tau(   1) = (  0.0014203  0.0000000  0.9883312  )
         2           Mg  tau(   2) = (  0.0758631  0.5000001  0.3473991  )
         3           Mg  tau(   3) = (  0.1561350  0.5000001  0.9017297  )
         4           Mg  tau(   4) = (  0.3467099  0.0000000  0.0748750  )
         5           Mg  tau(   5) = (  0.4269815  0.0000000  0.6292056  )
         6           Si  tau(   6) = (  0.0591427  0.0000000  0.6463607  )
         7           Si  tau(   7) = (  0.1871288  0.0000000  0.2107913  )
         8           Al  tau(   8) = (  0.2182124  0.0000000  0.6055656  )
         9           Al  tau(   9) = (  0.2846318  0.5000001  0.3710408  )
        10           Si  tau(  10) = (  0.3157169  0.5000001  0.7658137  )
        11           Si  tau(  11) = (  0.4437001  0.5000001  0.3302436  )
        12           Mg  tau(  12) = (  0.5014232  0.5000001  0.9882744  )
        13           Mg  tau(  13) = (  0.5758695  0.0000000  0.3473439  )
        14           Mg  tau(  14) = (  0.6561274  0.0000000  0.9016904  )
        15           Mg  tau(  15) = (  0.8467174  0.5000001  0.0749145  )
        16           Mg  tau(  16) = (  0.9269751  0.5000001  0.6292609  )
        17           Si  tau(  17) = (  0.5591405  0.5000001  0.6463020  )
        18           Si  tau(  18) = (  0.6871338  0.5000001  0.2107609  )
        19           Al  tau(  19) = (  0.7182164  0.5000001  0.6055434  )
        20           Al  tau(  20) = (  0.7846277  0.0000000  0.3710633  )
        21           Si  tau(  21) = (  0.8157120  0.0000000  0.7658443  )
        22           Si  tau(  22) = (  0.9437023  0.0000000  0.3303025  )

     number of k points=   782  Methfessel-Paxton smearing, width (Ry)=  0.0441
                       cart. coord. in units 2pi/alat
        k(    1) = (   0.0000000   0.0000000   0.0000000), wk =   0.0012821
        k(    2) = (   0.0493397   0.0000000   0.1724887), wk =   0.0025641
        k(    3) = (   0.0986795   0.0000000   0.3449773), wk =   0.0025641
        k(    4) = (   0.1480192   0.0000000   0.5174660), wk =   0.0025641
        k(    5) = (   0.1973589   0.0000000   0.6899547), wk =   0.0025641
        k(    6) = (   0.2466986   0.0000000   0.8624434), wk =   0.0025641
        k(    7) = (   0.2960384   0.0000000   1.0349320), wk =   0.0025641
        k(    8) = (   0.0000000   0.1890751   0.0000000), wk =   0.0025641
        k(    9) = (   0.0493397   0.1890751   0.1724887), wk =   0.0025641
        k(   10) = (   0.0986795   0.1890751   0.3449773), wk =   0.0025641
        k(   11) = (   0.1480192   0.1890751   0.5174660), wk =   0.0025641
        k(   12) = (   0.1973589   0.1890751   0.6899547), wk =   0.0025641
        k(   13) = (   0.2466986   0.1890751   0.8624434), wk =   0.0025641
        k(   14) = (   0.2960384   0.1890751   1.0349320), wk =   0.0025641
        k(   15) = (  -0.2960384   0.1890751  -1.0349320), wk =   0.0025641
        k(   16) = (  -0.2466986   0.1890751  -0.8624434), wk =   0.0025641
        k(   17) = (  -0.1973589   0.1890751  -0.6899547), wk =   0.0025641
        k(   18) = (  -0.1480192   0.1890751  -0.5174660), wk =   0.0025641
        k(   19) = (  -0.0986795   0.1890751  -0.3449773), wk =   0.0025641
        k(   20) = (  -0.0493397   0.1890751  -0.1724887), wk =   0.0025641
        k(   21) = (   0.0000000   0.3781503   0.0000000), wk =   0.0025641
        k(   22) = (   0.0493397   0.3781503   0.1724887), wk =   0.0025641
        k(   23) = (   0.0986795   0.3781503   0.3449773), wk =   0.0025641
        k(   24) = (   0.1480192   0.3781503   0.5174660), wk =   0.0025641
        k(   25) = (   0.1973589   0.3781503   0.6899547), wk =   0.0025641
        k(   26) = (   0.2466986   0.3781503   0.8624434), wk =   0.0025641
        k(   27) = (   0.2960384   0.3781503   1.0349320), wk =   0.0025641
        k(   28) = (  -0.2960384   0.3781503  -1.0349320), wk =   0.0025641
        k(   29) = (  -0.2466986   0.3781503  -0.8624434), wk =   0.0025641
        k(   30) = (  -0.1973589   0.3781503  -0.6899547), wk =   0.0025641
        k(   31) = (  -0.1480192   0.3781503  -0.5174660), wk =   0.0025641
        k(   32) = (  -0.0986795   0.3781503  -0.3449773), wk =   0.0025641
        k(   33) = (  -0.0493397   0.3781503  -0.1724887), wk =   0.0025641
        k(   34) = (   0.0000000   0.5672254   0.0000000), wk =   0.0025641
        k(   35) = (   0.0493397   0.5672254   0.1724887), wk =   0.0025641
        k(   36) = (   0.0986795   0.5672254   0.3449773), wk =   0.0025641
        k(   37) = (   0.1480192   0.5672254   0.5174660), wk =   0.0025641
        k(   38) = (   0.1973589   0.5672254   0.6899547), wk =   0.0025641
        k(   39) = (   0.2466986   0.5672254   0.8624434), wk =   0.0025641
        k(   40) = (   0.2960384   0.5672254   1.0349320), wk =   0.0025641
        k(   41) = (  -0.2960384   0.5672254  -1.0349320), wk =   0.0025641
        k(   42) = (  -0.2466986   0.5672254  -0.8624434), wk =   0.0025641
        k(   43) = (  -0.1973589   0.5672254  -0.6899547), wk =   0.0025641
        k(   44) = (  -0.1480192   0.5672254  -0.5174660), wk =   0.0025641
        k(   45) = (  -0.0986795   0.5672254  -0.3449773), wk =   0.0025641
        k(   46) = (  -0.0493397   0.5672254  -0.1724887), wk =   0.0025641
        k(   47) = (   0.0000000   0.7563005   0.0000000), wk =   0.0025641
        k(   48) = (   0.0493397   0.7563005   0.1724887), wk =   0.0025641
        k(   49) = (   0.0986795   0.7563005   0.3449773), wk =   0.0025641
        k(   50) = (   0.1480192   0.7563005   0.5174660), wk =   0.0025641
        k(   51) = (   0.1973589   0.7563005   0.6899547), wk =   0.0025641
        k(   52) = (   0.2466986   0.7563005   0.8624434), wk =   0.0025641
        k(   53) = (   0.2960384   0.7563005   1.0349320), wk =   0.0025641
        k(   54) = (  -0.2960384   0.7563005  -1.0349320), wk =   0.0025641
        k(   55) = (  -0.2466986   0.7563005  -0.8624434), wk =   0.0025641
        k(   56) = (  -0.1973589   0.7563005  -0.6899547), wk =   0.0025641
        k(   57) = (  -0.1480192   0.7563005  -0.5174660), wk =   0.0025641
        k(   58) = (  -0.0986795   0.7563005  -0.3449773), wk =   0.0025641
        k(   59) = (  -0.0493397   0.7563005  -0.1724887), wk =   0.0025641
        k(   60) = (   0.0000000   0.9453757   0.0000000), wk =   0.0025641
        k(   61) = (   0.0493397   0.9453757   0.1724887), wk =   0.0025641
        k(   62) = (   0.0986795   0.9453757   0.3449773), wk =   0.0025641
        k(   63) = (   0.1480192   0.9453757   0.5174660), wk =   0.0025641
        k(   64) = (   0.1973589   0.9453757   0.6899547), wk =   0.0025641
        k(   65) = (   0.2466986   0.9453757   0.8624434), wk =   0.0025641
        k(   66) = (   0.2960384   0.9453757   1.0349320), wk =   0.0025641
        k(   67) = (  -0.2960384   0.9453757  -1.0349320), wk =   0.0025641
        k(   68) = (  -0.2466986   0.9453757  -0.8624434), wk =   0.0025641
        k(   69) = (  -0.1973589   0.9453757  -0.6899547), wk =   0.0025641
        k(   70) = (  -0.1480192   0.9453757  -0.5174660), wk =   0.0025641
        k(   71) = (  -0.0986795   0.9453757  -0.3449773), wk =   0.0025641
        k(   72) = (  -0.0493397   0.9453757  -0.1724887), wk =   0.0025641
        k(   73) = (   0.0000000   1.1344508   0.0000000), wk =   0.0025641
        k(   74) = (   0.0493397   1.1344508   0.1724887), wk =   0.0025641
        k(   75) = (   0.0986795   1.1344508   0.3449773), wk =   0.0025641
        k(   76) = (   0.1480192   1.1344508   0.5174660), wk =   0.0025641
        k(   77) = (   0.1973589   1.1344508   0.6899547), wk =   0.0025641
        k(   78) = (   0.2466986   1.1344508   0.8624434), wk =   0.0025641
        k(   79) = (   0.2960384   1.1344508   1.0349320), wk =   0.0025641
        k(   80) = (  -0.2960384   1.1344508  -1.0349320), wk =   0.0025641
        k(   81) = (  -0.2466986   1.1344508  -0.8624434), wk =   0.0025641
        k(   82) = (  -0.1973589   1.1344508  -0.6899547), wk =   0.0025641
        k(   83) = (  -0.1480192   1.1344508  -0.5174660), wk =   0.0025641
        k(   84) = (  -0.0986795   1.1344508  -0.3449773), wk =   0.0025641
        k(   85) = (  -0.0493397   1.1344508  -0.1724887), wk =   0.0025641
        k(   86) = (   0.0000000   1.3235259   0.0000000), wk =   0.0025641
        k(   87) = (   0.0493397   1.3235259   0.1724887), wk =   0.0025641
        k(   88) = (   0.0986795   1.3235259   0.3449773), wk =   0.0025641
        k(   89) = (   0.1480192   1.3235259   0.5174660), wk =   0.0025641
        k(   90) = (   0.1973589   1.3235259   0.6899547), wk =   0.0025641
        k(   91) = (   0.2466986   1.3235259   0.8624434), wk =   0.0025641
        k(   92) = (   0.2960384   1.3235259   1.0349320), wk =   0.0025641
        k(   93) = (  -0.2960384   1.3235259  -1.0349320), wk =   0.0025641
        k(   94) = (  -0.2466986   1.3235259  -0.8624434), wk =   0.0025641
        k(   95) = (  -0.1973589   1.3235259  -0.6899547), wk =   0.0025641
        k(   96) = (  -0.1480192   1.3235259  -0.5174660), wk =   0.0025641
        k(   97) = (  -0.0986795   1.3235259  -0.3449773), wk =   0.0025641
        k(   98) = (  -0.0493397   1.3235259  -0.1724887), wk =   0.0025641
        k(   99) = (   0.0000000   1.5126011   0.0000000), wk =   0.0025641
        k(  100) = (   0.0493397   1.5126011   0.1724887), wk =   0.0025641
        k(  101) = (   0.0986795   1.5126011   0.3449773), wk =   0.0025641
        k(  102) = (   0.1480192   1.5126011   0.5174660), wk =   0.0025641
        k(  103) = (   0.1973589   1.5126011   0.6899547), wk =   0.0025641
        k(  104) = (   0.2466986   1.5126011   0.8624434), wk =   0.0025641
        k(  105) = (   0.2960384   1.5126011   1.0349320), wk =   0.0025641
        k(  106) = (  -0.2960384   1.5126011  -1.0349320), wk =   0.0025641
        k(  107) = (  -0.2466986   1.5126011  -0.8624434), wk =   0.0025641
        k(  108) = (  -0.1973589   1.5126011  -0.6899547), wk =   0.0025641
        k(  109) = (  -0.1480192   1.5126011  -0.5174660), wk =   0.0025641
        k(  110) = (  -0.0986795   1.5126011  -0.3449773), wk =   0.0025641
        k(  111) = (  -0.0493397   1.5126011  -0.1724887), wk =   0.0025641
        k(  112) = (   0.0000000   1.7016762   0.0000000), wk =   0.0025641
        k(  113) = (   0.0493397   1.7016762   0.1724887), wk =   0.0025641
        k(  114) = (   0.0986795   1.7016762   0.3449773), wk =   0.0025641
        k(  115) = (   0.1480192   1.7016762   0.5174660), wk =   0.0025641
        k(  116) = (   0.1973589   1.7016762   0.6899547), wk =   0.0025641
        k(  117) = (   0.2466986   1.7016762   0.8624434), wk =   0.0025641
        k(  118) = (   0.2960384   1.7016762   1.0349320), wk =   0.0025641
        k(  119) = (  -0.2960384   1.7016762  -1.0349320), wk =   0.0025641
        k(  120) = (  -0.2466986   1.7016762  -0.8624434), wk =   0.0025641
        k(  121) = (  -0.1973589   1.7016762  -0.6899547), wk =   0.0025641
        k(  122) = (  -0.1480192   1.7016762  -0.5174660), wk =   0.0025641
        k(  123) = (  -0.0986795   1.7016762  -0.3449773), wk =   0.0025641
        k(  124) = (  -0.0493397   1.7016762  -0.1724887), wk =   0.0025641
        k(  125) = (   0.0000000  -1.8907513   0.0000000), wk =   0.0012821
        k(  126) = (   0.0493397  -1.8907513   0.1724887), wk =   0.0025641
        k(  127) = (   0.0986795  -1.8907513   0.3449773), wk =   0.0025641
        k(  128) = (   0.1480192  -1.8907513   0.5174660), wk =   0.0025641
        k(  129) = (   0.1973589  -1.8907513   0.6899547), wk =   0.0025641
        k(  130) = (   0.2466986  -1.8907513   0.8624434), wk =   0.0025641
        k(  131) = (   0.2960384  -1.8907513   1.0349320), wk =   0.0025641
        k(  132) = (   0.1732443   0.0000000  -0.0003737), wk =   0.0025641
        k(  133) = (   0.2225840   0.0000000   0.1721149), wk =   0.0025641
        k(  134) = (   0.2719237   0.0000000   0.3446036), wk =   0.0025641
        k(  135) = (   0.3212634   0.0000000   0.5170923), wk =   0.0025641
        k(  136) = (   0.3706032   0.0000000   0.6895810), wk =   0.0025641
        k(  137) = (   0.4199429   0.0000000   0.8620696), wk =   0.0025641
        k(  138) = (   0.4692826   0.0000000   1.0345583), wk =   0.0025641
        k(  139) = (  -0.1227941   0.0000000  -1.0353058), wk =   0.0025641
        k(  140) = (  -0.0734544   0.0000000  -0.8628171), wk =   0.0025641
        k(  141) = (  -0.0241147   0.0000000  -0.6903284), wk =   0.0025641
        k(  142) = (   0.0252251   0.0000000  -0.5178397), wk =   0.0025641
        k(  143) = (   0.0745648   0.0000000  -0.3453511), wk =   0.0025641
        k(  144) = (   0.1239045   0.0000000  -0.1728624), wk =   0.0025641
        k(  145) = (   0.1732443   0.1890751  -0.0003737), wk =   0.0025641
        k(  146) = (   0.2225840   0.1890751   0.1721149), wk =   0.0025641
        k(  147) = (   0.2719237   0.1890751   0.3446036), wk =   0.0025641
        k(  148) = (   0.3212634   0.1890751   0.5170923), wk =   0.0025641
        k(  149) = (   0.3706032   0.1890751   0.6895810), wk =   0.0025641
        k(  150) = (   0.4199429   0.1890751   0.8620696), wk =   0.0025641
        k(  151) = (   0.4692826   0.1890751   1.0345583), wk =   0.0025641
        k(  152) = (  -0.1227941   0.1890751  -1.0353058), wk =   0.0025641
        k(  153) = (  -0.0734544   0.1890751  -0.8628171), wk =   0.0025641
        k(  154) = (  -0.0241147   0.1890751  -0.6903284), wk =   0.0025641
        k(  155) = (   0.0252251   0.1890751  -0.5178397), wk =   0.0025641
        k(  156) = (   0.0745648   0.1890751  -0.3453511), wk =   0.0025641
        k(  157) = (   0.1239045   0.1890751  -0.1728624), wk =   0.0025641
        k(  158) = (   0.1732443   0.3781503  -0.0003737), wk =   0.0025641
        k(  159) = (   0.2225840   0.3781503   0.1721149), wk =   0.0025641
        k(  160) = (   0.2719237   0.3781503   0.3446036), wk =   0.0025641
        k(  161) = (   0.3212634   0.3781503   0.5170923), wk =   0.0025641
        k(  162) = (   0.3706032   0.3781503   0.6895810), wk =   0.0025641
        k(  163) = (   0.4199429   0.3781503   0.8620696), wk =   0.0025641
        k(  164) = (   0.4692826   0.3781503   1.0345583), wk =   0.0025641
        k(  165) = (  -0.1227941   0.3781503  -1.0353058), wk =   0.0025641
        k(  166) = (  -0.0734544   0.3781503  -0.8628171), wk =   0.0025641
        k(  167) = (  -0.0241147   0.3781503  -0.6903284), wk =   0.0025641
        k(  168) = (   0.0252251   0.3781503  -0.5178397), wk =   0.0025641
        k(  169) = (   0.0745648   0.3781503  -0.3453511), wk =   0.0025641
        k(  170) = (   0.1239045   0.3781503  -0.1728624), wk =   0.0025641
        k(  171) = (   0.1732443   0.5672254  -0.0003737), wk =   0.0025641
        k(  172) = (   0.2225840   0.5672254   0.1721149), wk =   0.0025641
        k(  173) = (   0.2719237   0.5672254   0.3446036), wk =   0.0025641
        k(  174) = (   0.3212634   0.5672254   0.5170923), wk =   0.0025641
        k(  175) = (   0.3706032   0.5672254   0.6895810), wk =   0.0025641
        k(  176) = (   0.4199429   0.5672254   0.8620696), wk =   0.0025641
        k(  177) = (   0.4692826   0.5672254   1.0345583), wk =   0.0025641
        k(  178) = (  -0.1227941   0.5672254  -1.0353058), wk =   0.0025641
        k(  179) = (  -0.0734544   0.5672254  -0.8628171), wk =   0.0025641
        k(  180) = (  -0.0241147   0.5672254  -0.6903284), wk =   0.0025641
        k(  181) = (   0.0252251   0.5672254  -0.5178397), wk =   0.0025641
        k(  182) = (   0.0745648   0.5672254  -0.3453511), wk =   0.0025641
        k(  183) = (   0.1239045   0.5672254  -0.1728624), wk =   0.0025641
        k(  184) = (   0.1732443   0.7563005  -0.0003737), wk =   0.0025641
        k(  185) = (   0.2225840   0.7563005   0.1721149), wk =   0.0025641
        k(  186) = (   0.2719237   0.7563005   0.3446036), wk =   0.0025641
        k(  187) = (   0.3212634   0.7563005   0.5170923), wk =   0.0025641
        k(  188) = (   0.3706032   0.7563005   0.6895810), wk =   0.0025641
        k(  189) = (   0.4199429   0.7563005   0.8620696), wk =   0.0025641
        k(  190) = (   0.4692826   0.7563005   1.0345583), wk =   0.0025641
        k(  191) = (  -0.1227941   0.7563005  -1.0353058), wk =   0.0025641
        k(  192) = (  -0.0734544   0.7563005  -0.8628171), wk =   0.0025641
        k(  193) = (  -0.0241147   0.7563005  -0.6903284), wk =   0.0025641
        k(  194) = (   0.0252251   0.7563005  -0.5178397), wk =   0.0025641
        k(  195) = (   0.0745648   0.7563005  -0.3453511), wk =   0.0025641
        k(  196) = (   0.1239045   0.7563005  -0.1728624), wk =   0.0025641
        k(  197) = (   0.1732443   0.9453757  -0.0003737), wk =   0.0025641
        k(  198) = (   0.2225840   0.9453757   0.1721149), wk =   0.0025641
        k(  199) = (   0.2719237   0.9453757   0.3446036), wk =   0.0025641
        k(  200) = (   0.3212634   0.9453757   0.5170923), wk =   0.0025641
        k(  201) = (   0.3706032   0.9453757   0.6895810), wk =   0.0025641
        k(  202) = (   0.4199429   0.9453757   0.8620696), wk =   0.0025641
        k(  203) = (   0.4692826   0.9453757   1.0345583), wk =   0.0025641
        k(  204) = (  -0.1227941   0.9453757  -1.0353058), wk =   0.0025641
        k(  205) = (  -0.0734544   0.9453757  -0.8628171), wk =   0.0025641
        k(  206) = (  -0.0241147   0.9453757  -0.6903284), wk =   0.0025641
        k(  207) = (   0.0252251   0.9453757  -0.5178397), wk =   0.0025641
        k(  208) = (   0.0745648   0.9453757  -0.3453511), wk =   0.0025641
        k(  209) = (   0.1239045   0.9453757  -0.1728624), wk =   0.0025641
        k(  210) = (   0.1732443   1.1344508  -0.0003737), wk =   0.0025641
        k(  211) = (   0.2225840   1.1344508   0.1721149), wk =   0.0025641
        k(  212) = (   0.2719237   1.1344508   0.3446036), wk =   0.0025641
        k(  213) = (   0.3212634   1.1344508   0.5170923), wk =   0.0025641
        k(  214) = (   0.3706032   1.1344508   0.6895810), wk =   0.0025641
        k(  215) = (   0.4199429   1.1344508   0.8620696), wk =   0.0025641
        k(  216) = (   0.4692826   1.1344508   1.0345583), wk =   0.0025641
        k(  217) = (  -0.1227941   1.1344508  -1.0353058), wk =   0.0025641
        k(  218) = (  -0.0734544   1.1344508  -0.8628171), wk =   0.0025641
        k(  219) = (  -0.0241147   1.1344508  -0.6903284), wk =   0.0025641
        k(  220) = (   0.0252251   1.1344508  -0.5178397), wk =   0.0025641
        k(  221) = (   0.0745648   1.1344508  -0.3453511), wk =   0.0025641
        k(  222) = (   0.1239045   1.1344508  -0.1728624), wk =   0.0025641
        k(  223) = (   0.1732443   1.3235259  -0.0003737), wk =   0.0025641
        k(  224) = (   0.2225840   1.3235259   0.1721149), wk =   0.0025641
        k(  225) = (   0.2719237   1.3235259   0.3446036), wk =   0.0025641
        k(  226) = (   0.3212634   1.3235259   0.5170923), wk =   0.0025641
        k(  227) = (   0.3706032   1.3235259   0.6895810), wk =   0.0025641
        k(  228) = (   0.4199429   1.3235259   0.8620696), wk =   0.0025641
        k(  229) = (   0.4692826   1.3235259   1.0345583), wk =   0.0025641
        k(  230) = (  -0.1227941   1.3235259  -1.0353058), wk =   0.0025641
        k(  231) = (  -0.0734544   1.3235259  -0.8628171), wk =   0.0025641
        k(  232) = (  -0.0241147   1.3235259  -0.6903284), wk =   0.0025641
        k(  233) = (   0.0252251   1.3235259  -0.5178397), wk =   0.0025641
        k(  234) = (   0.0745648   1.3235259  -0.3453511), wk =   0.0025641
        k(  235) = (   0.1239045   1.3235259  -0.1728624), wk =   0.0025641
        k(  236) = (   0.1732443   1.5126011  -0.0003737), wk =   0.0025641
        k(  237) = (   0.2225840   1.5126011   0.1721149), wk =   0.0025641
        k(  238) = (   0.2719237   1.5126011   0.3446036), wk =   0.0025641
        k(  239) = (   0.3212634   1.5126011   0.5170923), wk =   0.0025641
        k(  240) = (   0.3706032   1.5126011   0.6895810), wk =   0.0025641
        k(  241) = (   0.4199429   1.5126011   0.8620696), wk =   0.0025641
        k(  242) = (   0.4692826   1.5126011   1.0345583), wk =   0.0025641
        k(  243) = (  -0.1227941   1.5126011  -1.0353058), wk =   0.0025641
        k(  244) = (  -0.0734544   1.5126011  -0.8628171), wk =   0.0025641
        k(  245) = (  -0.0241147   1.5126011  -0.6903284), wk =   0.0025641
        k(  246) = (   0.0252251   1.5126011  -0.5178397), wk =   0.0025641
        k(  247) = (   0.0745648   1.5126011  -0.3453511), wk =   0.0025641
        k(  248) = (   0.1239045   1.5126011  -0.1728624), wk =   0.0025641
        k(  249) = (   0.1732443   1.7016762  -0.0003737), wk =   0.0025641
        k(  250) = (   0.2225840   1.7016762   0.1721149), wk =   0.0025641
        k(  251) = (   0.2719237   1.7016762   0.3446036), wk =   0.0025641
        k(  252) = (   0.3212634   1.7016762   0.5170923), wk =   0.0025641
        k(  253) = (   0.3706032   1.7016762   0.6895810), wk =   0.0025641
        k(  254) = (   0.4199429   1.7016762   0.8620696), wk =   0.0025641
        k(  255) = (   0.4692826   1.7016762   1.0345583), wk =   0.0025641
        k(  256) = (  -0.1227941   1.7016762  -1.0353058), wk =   0.0025641
        k(  257) = (  -0.0734544   1.7016762  -0.8628171), wk =   0.0025641
        k(  258) = (  -0.0241147   1.7016762  -0.6903284), wk =   0.0025641
        k(  259) = (   0.0252251   1.7016762  -0.5178397), wk =   0.0025641
        k(  260) = (   0.0745648   1.7016762  -0.3453511), wk =   0.0025641
        k(  261) = (   0.1239045   1.7016762  -0.1728624), wk =   0.0025641
        k(  262) = (   0.1732443  -1.8907513  -0.0003737), wk =   0.0025641
        k(  263) = (   0.2225840  -1.8907513   0.1721149), wk =   0.0025641
        k(  264) = (   0.2719237  -1.8907513   0.3446036), wk =   0.0025641
        k(  265) = (   0.3212634  -1.8907513   0.5170923), wk =   0.0025641
        k(  266) = (   0.3706032  -1.8907513   0.6895810), wk =   0.0025641
        k(  267) = (   0.4199429  -1.8907513   0.8620696), wk =   0.0025641
        k(  268) = (   0.4692826  -1.8907513   1.0345583), wk =   0.0025641
        k(  269) = (  -0.1227941  -1.8907513  -1.0353058), wk =   0.0025641
        k(  270) = (  -0.0734544  -1.8907513  -0.8628171), wk =   0.0025641
        k(  271) = (  -0.0241147  -1.8907513  -0.6903284), wk =   0.0025641
        k(  272) = (   0.0252251  -1.8907513  -0.5178397), wk =   0.0025641
        k(  273) = (   0.0745648  -1.8907513  -0.3453511), wk =   0.0025641
        k(  274) = (   0.1239045  -1.8907513  -0.1728624), wk =   0.0025641
        k(  275) = (   0.1732443  -1.7016762  -0.0003737), wk =   0.0025641
        k(  276) = (   0.2225840  -1.7016762   0.1721149), wk =   0.0025641
        k(  277) = (   0.2719237  -1.7016762   0.3446036), wk =   0.0025641
        k(  278) = (   0.3212634  -1.7016762   0.5170923), wk =   0.0025641
        k(  279) = (   0.3706032  -1.7016762   0.6895810), wk =   0.0025641
        k(  280) = (   0.4199429  -1.7016762   0.8620696), wk =   0.0025641
        k(  281) = (   0.4692826  -1.7016762   1.0345583), wk =   0.0025641
        k(  282) = (  -0.1227941  -1.7016762  -1.0353058), wk =   0.0025641
        k(  283) = (  -0.0734544  -1.7016762  -0.8628171), wk =   0.0025641
        k(  284) = (  -0.0241147  -1.7016762  -0.6903284), wk =   0.0025641
        k(  285) = (   0.0252251  -1.7016762  -0.5178397), wk =   0.0025641
        k(  286) = (   0.0745648  -1.7016762  -0.3453511), wk =   0.0025641
        k(  287) = (   0.1239045  -1.7016762  -0.1728624), wk =   0.0025641
        k(  288) = (   0.1732443  -1.5126011  -0.0003737), wk =   0.0025641
        k(  289) = (   0.2225840  -1.5126011   0.1721149), wk =   0.0025641
        k(  290) = (   0.2719237  -1.5126011   0.3446036), wk =   0.0025641
        k(  291) = (   0.3212634  -1.5126011   0.5170923), wk =   0.0025641
        k(  292) = (   0.3706032  -1.5126011   0.6895810), wk =   0.0025641
        k(  293) = (   0.4199429  -1.5126011   0.8620696), wk =   0.0025641
        k(  294) = (   0.4692826  -1.5126011   1.0345583), wk =   0.0025641
        k(  295) = (  -0.1227941  -1.5126011  -1.0353058), wk =   0.0025641
        k(  296) = (  -0.0734544  -1.5126011  -0.8628171), wk =   0.0025641
        k(  297) = (  -0.0241147  -1.5126011  -0.6903284), wk =   0.0025641
        k(  298) = (   0.0252251  -1.5126011  -0.5178397), wk =   0.0025641
        k(  299) = (   0.0745648  -1.5126011  -0.3453511), wk =   0.0025641
        k(  300) = (   0.1239045  -1.5126011  -0.1728624), wk =   0.0025641
        k(  301) = (   0.1732443  -1.3235259  -0.0003737), wk =   0.0025641
        k(  302) = (   0.2225840  -1.3235259   0.1721149), wk =   0.0025641
        k(  303) = (   0.2719237  -1.3235259   0.3446036), wk =   0.0025641
        k(  304) = (   0.3212634  -1.3235259   0.5170923), wk =   0.0025641
        k(  305) = (   0.3706032  -1.3235259   0.6895810), wk =   0.0025641
        k(  306) = (   0.4199429  -1.3235259   0.8620696), wk =   0.0025641
        k(  307) = (   0.4692826  -1.3235259   1.0345583), wk =   0.0025641
        k(  308) = (  -0.1227941  -1.3235259  -1.0353058), wk =   0.0025641
        k(  309) = (  -0.0734544  -1.3235259  -0.8628171), wk =   0.0025641
        k(  310) = (  -0.0241147  -1.3235259  -0.6903284), wk =   0.0025641
        k(  311) = (   0.0252251  -1.3235259  -0.5178397), wk =   0.0025641
        k(  312) = (   0.0745648  -1.3235259  -0.3453511), wk =   0.0025641
        k(  313) = (   0.1239045  -1.3235259  -0.1728624), wk =   0.0025641
        k(  314) = (   0.1732443  -1.1344508  -0.0003737), wk =   0.0025641
        k(  315) = (   0.2225840  -1.1344508   0.1721149), wk =   0.0025641
        k(  316) = (   0.2719237  -1.1344508   0.3446036), wk =   0.0025641
        k(  317) = (   0.3212634  -1.1344508   0.5170923), wk =   0.0025641
        k(  318) = (   0.3706032  -1.1344508   0.6895810), wk =   0.0025641
        k(  319) = (   0.4199429  -1.1344508   0.8620696), wk =   0.0025641
        k(  320) = (   0.4692826  -1.1344508   1.0345583), wk =   0.0025641
        k(  321) = (  -0.1227941  -1.1344508  -1.0353058), wk =   0.0025641
        k(  322) = (  -0.0734544  -1.1344508  -0.8628171), wk =   0.0025641
        k(  323) = (  -0.0241147  -1.1344508  -0.6903284), wk =   0.0025641
        k(  324) = (   0.0252251  -1.1344508  -0.5178397), wk =   0.0025641
        k(  325) = (   0.0745648  -1.1344508  -0.3453511), wk =   0.0025641
        k(  326) = (   0.1239045  -1.1344508  -0.1728624), wk =   0.0025641
        k(  327) = (   0.1732443  -0.9453757  -0.0003737), wk =   0.0025641
        k(  328) = (   0.2225840  -0.9453757   0.1721149), wk =   0.0025641
        k(  329) = (   0.2719237  -0.9453757   0.3446036), wk =   0.0025641
        k(  330) = (   0.3212634  -0.9453757   0.5170923), wk =   0.0025641
        k(  331) = (   0.3706032  -0.9453757   0.6895810), wk =   0.0025641
        k(  332) = (   0.4199429  -0.9453757   0.8620696), wk =   0.0025641
        k(  333) = (   0.4692826  -0.9453757   1.0345583), wk =   0.0025641
        k(  334) = (  -0.1227941  -0.9453757  -1.0353058), wk =   0.0025641
        k(  335) = (  -0.0734544  -0.9453757  -0.8628171), wk =   0.0025641
        k(  336) = (  -0.0241147  -0.9453757  -0.6903284), wk =   0.0025641
        k(  337) = (   0.0252251  -0.9453757  -0.5178397), wk =   0.0025641
        k(  338) = (   0.0745648  -0.9453757  -0.3453511), wk =   0.0025641
        k(  339) = (   0.1239045  -0.9453757  -0.1728624), wk =   0.0025641
        k(  340) = (   0.1732443  -0.7563005  -0.0003737), wk =   0.0025641
        k(  341) = (   0.2225840  -0.7563005   0.1721149), wk =   0.0025641
        k(  342) = (   0.2719237  -0.7563005   0.3446036), wk =   0.0025641
        k(  343) = (   0.3212634  -0.7563005   0.5170923), wk =   0.0025641
        k(  344) = (   0.3706032  -0.7563005   0.6895810), wk =   0.0025641
        k(  345) = (   0.4199429  -0.7563005   0.8620696), wk =   0.0025641
        k(  346) = (   0.4692826  -0.7563005   1.0345583), wk =   0.0025641
        k(  347) = (  -0.1227941  -0.7563005  -1.0353058), wk =   0.0025641
        k(  348) = (  -0.0734544  -0.7563005  -0.8628171), wk =   0.0025641
        k(  349) = (  -0.0241147  -0.7563005  -0.6903284), wk =   0.0025641
        k(  350) = (   0.0252251  -0.7563005  -0.5178397), wk =   0.0025641
        k(  351) = (   0.0745648  -0.7563005  -0.3453511), wk =   0.0025641
        k(  352) = (   0.1239045  -0.7563005  -0.1728624), wk =   0.0025641
        k(  353) = (   0.1732443  -0.5672254  -0.0003737), wk =   0.0025641
        k(  354) = (   0.2225840  -0.5672254   0.1721149), wk =   0.0025641
        k(  355) = (   0.2719237  -0.5672254   0.3446036), wk =   0.0025641
        k(  356) = (   0.3212634  -0.5672254   0.5170923), wk =   0.0025641
        k(  357) = (   0.3706032  -0.5672254   0.6895810), wk =   0.0025641
        k(  358) = (   0.4199429  -0.5672254   0.8620696), wk =   0.0025641
        k(  359) = (   0.4692826  -0.5672254   1.0345583), wk =   0.0025641
        k(  360) = (  -0.1227941  -0.5672254  -1.0353058), wk =   0.0025641
        k(  361) = (  -0.0734544  -0.5672254  -0.8628171), wk =   0.0025641
        k(  362) = (  -0.0241147  -0.5672254  -0.6903284), wk =   0.0025641
        k(  363) = (   0.0252251  -0.5672254  -0.5178397), wk =   0.0025641
        k(  364) = (   0.0745648  -0.5672254  -0.3453511), wk =   0.0025641
        k(  365) = (   0.1239045  -0.5672254  -0.1728624), wk =   0.0025641
        k(  366) = (   0.1732443  -0.3781503  -0.0003737), wk =   0.0025641
        k(  367) = (   0.2225840  -0.3781503   0.1721149), wk =   0.0025641
        k(  368) = (   0.2719237  -0.3781503   0.3446036), wk =   0.0025641
        k(  369) = (   0.3212634  -0.3781503   0.5170923), wk =   0.0025641
        k(  370) = (   0.3706032  -0.3781503   0.6895810), wk =   0.0025641
        k(  371) = (   0.4199429  -0.3781503   0.8620696), wk =   0.0025641
        k(  372) = (   0.4692826  -0.3781503   1.0345583), wk =   0.0025641
        k(  373) = (  -0.1227941  -0.3781503  -1.0353058), wk =   0.0025641
        k(  374) = (  -0.0734544  -0.3781503  -0.8628171), wk =   0.0025641
        k(  375) = (  -0.0241147  -0.3781503  -0.6903284), wk =   0.0025641
        k(  376) = (   0.0252251  -0.3781503  -0.5178397), wk =   0.0025641
        k(  377) = (   0.0745648  -0.3781503  -0.3453511), wk =   0.0025641
        k(  378) = (   0.1239045  -0.3781503  -0.1728624), wk =   0.0025641
        k(  379) = (   0.1732443  -0.1890751  -0.0003737), wk =   0.0025641
        k(  380) = (   0.2225840  -0.1890751   0.1721149), wk =   0.0025641
        k(  381) = (   0.2719237  -0.1890751   0.3446036), wk =   0.0025641
        k(  382) = (   0.3212634  -0.1890751   0.5170923), wk =   0.0025641
        k(  383) = (   0.3706032  -0.1890751   0.6895810), wk =   0.0025641
        k(  384) = (   0.4199429  -0.1890751   0.8620696), wk =   0.0025641
        k(  385) = (   0.4692826  -0.1890751   1.0345583), wk =   0.0025641
        k(  386) = (  -0.1227941  -0.1890751  -1.0353058), wk =   0.0025641
        k(  387) = (  -0.0734544  -0.1890751  -0.8628171), wk =   0.0025641
        k(  388) = (  -0.0241147  -0.1890751  -0.6903284), wk =   0.0025641
        k(  389) = (   0.0252251  -0.1890751  -0.5178397), wk =   0.0025641
        k(  390) = (   0.0745648  -0.1890751  -0.3453511), wk =   0.0025641
        k(  391) = (   0.1239045  -0.1890751  -0.1728624), wk =   0.0025641
        k(  392) = (   0.3464885   0.0000000  -0.0007475), wk =   0.0025641
        k(  393) = (   0.3958282   0.0000000   0.1717412), wk =   0.0025641
        k(  394) = (   0.4451680   0.0000000   0.3442299), wk =   0.0025641
        k(  395) = (   0.4945077   0.0000000   0.5167186), wk =   0.0025641
        k(  396) = (   0.5438474   0.0000000   0.6892072), wk =   0.0025641
        k(  397) = (   0.5931871   0.0000000   0.8616959), wk =   0.0025641
        k(  398) = (   0.6425269   0.0000000   1.0341846), wk =   0.0025641
        k(  399) = (   0.0504501   0.0000000  -1.0356795), wk =   0.0025641
        k(  400) = (   0.0997899   0.0000000  -0.8631908), wk =   0.0025641
        k(  401) = (   0.1491296   0.0000000  -0.6907022), wk =   0.0025641
        k(  402) = (   0.1984693   0.0000000  -0.5182135), wk =   0.0025641
        k(  403) = (   0.2478090   0.0000000  -0.3457248), wk =   0.0025641
        k(  404) = (   0.2971488   0.0000000  -0.1732361), wk =   0.0025641
        k(  405) = (   0.3464885   0.1890751  -0.0007475), wk =   0.0025641
        k(  406) = (   0.3958282   0.1890751   0.1717412), wk =   0.0025641
        k(  407) = (   0.4451680   0.1890751   0.3442299), wk =   0.0025641
        k(  408) = (   0.4945077   0.1890751   0.5167186), wk =   0.0025641
        k(  409) = (   0.5438474   0.1890751   0.6892072), wk =   0.0025641
        k(  410) = (   0.5931871   0.1890751   0.8616959), wk =   0.0025641
        k(  411) = (   0.6425269   0.1890751   1.0341846), wk =   0.0025641
        k(  412) = (   0.0504501   0.1890751  -1.0356795), wk =   0.0025641
        k(  413) = (   0.0997899   0.1890751  -0.8631908), wk =   0.0025641
        k(  414) = (   0.1491296   0.1890751  -0.6907022), wk =   0.0025641
        k(  415) = (   0.1984693   0.1890751  -0.5182135), wk =   0.0025641
        k(  416) = (   0.2478090   0.1890751  -0.3457248), wk =   0.0025641
        k(  417) = (   0.2971488   0.1890751  -0.1732361), wk =   0.0025641
        k(  418) = (   0.3464885   0.3781503  -0.0007475), wk =   0.0025641
        k(  419) = (   0.3958282   0.3781503   0.1717412), wk =   0.0025641
        k(  420) = (   0.4451680   0.3781503   0.3442299), wk =   0.0025641
        k(  421) = (   0.4945077   0.3781503   0.5167186), wk =   0.0025641
        k(  422) = (   0.5438474   0.3781503   0.6892072), wk =   0.0025641
        k(  423) = (   0.5931871   0.3781503   0.8616959), wk =   0.0025641
        k(  424) = (   0.6425269   0.3781503   1.0341846), wk =   0.0025641
        k(  425) = (   0.0504501   0.3781503  -1.0356795), wk =   0.0025641
        k(  426) = (   0.0997899   0.3781503  -0.8631908), wk =   0.0025641
        k(  427) = (   0.1491296   0.3781503  -0.6907022), wk =   0.0025641
        k(  428) = (   0.1984693   0.3781503  -0.5182135), wk =   0.0025641
        k(  429) = (   0.2478090   0.3781503  -0.3457248), wk =   0.0025641
        k(  430) = (   0.2971488   0.3781503  -0.1732361), wk =   0.0025641
        k(  431) = (   0.3464885   0.5672254  -0.0007475), wk =   0.0025641
        k(  432) = (   0.3958282   0.5672254   0.1717412), wk =   0.0025641
        k(  433) = (   0.4451680   0.5672254   0.3442299), wk =   0.0025641
        k(  434) = (   0.4945077   0.5672254   0.5167186), wk =   0.0025641
        k(  435) = (   0.5438474   0.5672254   0.6892072), wk =   0.0025641
        k(  436) = (   0.5931871   0.5672254   0.8616959), wk =   0.0025641
        k(  437) = (   0.6425269   0.5672254   1.0341846), wk =   0.0025641
        k(  438) = (   0.0504501   0.5672254  -1.0356795), wk =   0.0025641
        k(  439) = (   0.0997899   0.5672254  -0.8631908), wk =   0.0025641
        k(  440) = (   0.1491296   0.5672254  -0.6907022), wk =   0.0025641
        k(  441) = (   0.1984693   0.5672254  -0.5182135), wk =   0.0025641
        k(  442) = (   0.2478090   0.5672254  -0.3457248), wk =   0.0025641
        k(  443) = (   0.2971488   0.5672254  -0.1732361), wk =   0.0025641
        k(  444) = (   0.3464885   0.7563005  -0.0007475), wk =   0.0025641
        k(  445) = (   0.3958282   0.7563005   0.1717412), wk =   0.0025641
        k(  446) = (   0.4451680   0.7563005   0.3442299), wk =   0.0025641
        k(  447) = (   0.4945077   0.7563005   0.5167186), wk =   0.0025641
        k(  448) = (   0.5438474   0.7563005   0.6892072), wk =   0.0025641
        k(  449) = (   0.5931871   0.7563005   0.8616959), wk =   0.0025641
        k(  450) = (   0.6425269   0.7563005   1.0341846), wk =   0.0025641
        k(  451) = (   0.0504501   0.7563005  -1.0356795), wk =   0.0025641
        k(  452) = (   0.0997899   0.7563005  -0.8631908), wk =   0.0025641
        k(  453) = (   0.1491296   0.7563005  -0.6907022), wk =   0.0025641
        k(  454) = (   0.1984693   0.7563005  -0.5182135), wk =   0.0025641
        k(  455) = (   0.2478090   0.7563005  -0.3457248), wk =   0.0025641
        k(  456) = (   0.2971488   0.7563005  -0.1732361), wk =   0.0025641
        k(  457) = (   0.3464885   0.9453757  -0.0007475), wk =   0.0025641
        k(  458) = (   0.3958282   0.9453757   0.1717412), wk =   0.0025641
        k(  459) = (   0.4451680   0.9453757   0.3442299), wk =   0.0025641
        k(  460) = (   0.4945077   0.9453757   0.5167186), wk =   0.0025641
        k(  461) = (   0.5438474   0.9453757   0.6892072), wk =   0.0025641
        k(  462) = (   0.5931871   0.9453757   0.8616959), wk =   0.0025641
        k(  463) = (   0.6425269   0.9453757   1.0341846), wk =   0.0025641
        k(  464) = (   0.0504501   0.9453757  -1.0356795), wk =   0.0025641
        k(  465) = (   0.0997899   0.9453757  -0.8631908), wk =   0.0025641
        k(  466) = (   0.1491296   0.9453757  -0.6907022), wk =   0.0025641
        k(  467) = (   0.1984693   0.9453757  -0.5182135), wk =   0.0025641
        k(  468) = (   0.2478090   0.9453757  -0.3457248), wk =   0.0025641
        k(  469) = (   0.2971488   0.9453757  -0.1732361), wk =   0.0025641
        k(  470) = (   0.3464885   1.1344508  -0.0007475), wk =   0.0025641
        k(  471) = (   0.3958282   1.1344508   0.1717412), wk =   0.0025641
        k(  472) = (   0.4451680   1.1344508   0.3442299), wk =   0.0025641
        k(  473) = (   0.4945077   1.1344508   0.5167186), wk =   0.0025641
        k(  474) = (   0.5438474   1.1344508   0.6892072), wk =   0.0025641
        k(  475) = (   0.5931871   1.1344508   0.8616959), wk =   0.0025641
        k(  476) = (   0.6425269   1.1344508   1.0341846), wk =   0.0025641
        k(  477) = (   0.0504501   1.1344508  -1.0356795), wk =   0.0025641
        k(  478) = (   0.0997899   1.1344508  -0.8631908), wk =   0.0025641
        k(  479) = (   0.1491296   1.1344508  -0.6907022), wk =   0.0025641
        k(  480) = (   0.1984693   1.1344508  -0.5182135), wk =   0.0025641
        k(  481) = (   0.2478090   1.1344508  -0.3457248), wk =   0.0025641
        k(  482) = (   0.2971488   1.1344508  -0.1732361), wk =   0.0025641
        k(  483) = (   0.3464885   1.3235259  -0.0007475), wk =   0.0025641
        k(  484) = (   0.3958282   1.3235259   0.1717412), wk =   0.0025641
        k(  485) = (   0.4451680   1.3235259   0.3442299), wk =   0.0025641
        k(  486) = (   0.4945077   1.3235259   0.5167186), wk =   0.0025641
        k(  487) = (   0.5438474   1.3235259   0.6892072), wk =   0.0025641
        k(  488) = (   0.5931871   1.3235259   0.8616959), wk =   0.0025641
        k(  489) = (   0.6425269   1.3235259   1.0341846), wk =   0.0025641
        k(  490) = (   0.0504501   1.3235259  -1.0356795), wk =   0.0025641
        k(  491) = (   0.0997899   1.3235259  -0.8631908), wk =   0.0025641
        k(  492) = (   0.1491296   1.3235259  -0.6907022), wk =   0.0025641
        k(  493) = (   0.1984693   1.3235259  -0.5182135), wk =   0.0025641
        k(  494) = (   0.2478090   1.3235259  -0.3457248), wk =   0.0025641
        k(  495) = (   0.2971488   1.3235259  -0.1732361), wk =   0.0025641
        k(  496) = (   0.3464885   1.5126011  -0.0007475), wk =   0.0025641
        k(  497) = (   0.3958282   1.5126011   0.1717412), wk =   0.0025641
        k(  498) = (   0.4451680   1.5126011   0.3442299), wk =   0.0025641
        k(  499) = (   0.4945077   1.5126011   0.5167186), wk =   0.0025641
        k(  500) = (   0.5438474   1.5126011   0.6892072), wk =   0.0025641
        k(  501) = (   0.5931871   1.5126011   0.8616959), wk =   0.0025641
        k(  502) = (   0.6425269   1.5126011   1.0341846), wk =   0.0025641
        k(  503) = (   0.0504501   1.5126011  -1.0356795), wk =   0.0025641
        k(  504) = (   0.0997899   1.5126011  -0.8631908), wk =   0.0025641
        k(  505) = (   0.1491296   1.5126011  -0.6907022), wk =   0.0025641
        k(  506) = (   0.1984693   1.5126011  -0.5182135), wk =   0.0025641
        k(  507) = (   0.2478090   1.5126011  -0.3457248), wk =   0.0025641
        k(  508) = (   0.2971488   1.5126011  -0.1732361), wk =   0.0025641
        k(  509) = (   0.3464885   1.7016762  -0.0007475), wk =   0.0025641
        k(  510) = (   0.3958282   1.7016762   0.1717412), wk =   0.0025641
        k(  511) = (   0.4451680   1.7016762   0.3442299), wk =   0.0025641
        k(  512) = (   0.4945077   1.7016762   0.5167186), wk =   0.0025641
        k(  513) = (   0.5438474   1.7016762   0.6892072), wk =   0.0025641
        k(  514) = (   0.5931871   1.7016762   0.8616959), wk =   0.0025641
        k(  515) = (   0.6425269   1.7016762   1.0341846), wk =   0.0025641
        k(  516) = (   0.0504501   1.7016762  -1.0356795), wk =   0.0025641
        k(  517) = (   0.0997899   1.7016762  -0.8631908), wk =   0.0025641
        k(  518) = (   0.1491296   1.7016762  -0.6907022), wk =   0.0025641
        k(  519) = (   0.1984693   1.7016762  -0.5182135), wk =   0.0025641
        k(  520) = (   0.2478090   1.7016762  -0.3457248), wk =   0.0025641
        k(  521) = (   0.2971488   1.7016762  -0.1732361), wk =   0.0025641
        k(  522) = (   0.3464885  -1.8907513  -0.0007475), wk =   0.0025641
        k(  523) = (   0.3958282  -1.8907513   0.1717412), wk =   0.0025641
        k(  524) = (   0.4451680  -1.8907513   0.3442299), wk =   0.0025641
        k(  525) = (   0.4945077  -1.8907513   0.5167186), wk =   0.0025641
        k(  526) = (   0.5438474  -1.8907513   0.6892072), wk =   0.0025641
        k(  527) = (   0.5931871  -1.8907513   0.8616959), wk =   0.0025641
        k(  528) = (   0.6425269  -1.8907513   1.0341846), wk =   0.0025641
        k(  529) = (   0.0504501  -1.8907513  -1.0356795), wk =   0.0025641
        k(  530) = (   0.0997899  -1.8907513  -0.8631908), wk =   0.0025641
        k(  531) = (   0.1491296  -1.8907513  -0.6907022), wk =   0.0025641
        k(  532) = (   0.1984693  -1.8907513  -0.5182135), wk =   0.0025641
        k(  533) = (   0.2478090  -1.8907513  -0.3457248), wk =   0.0025641
        k(  534) = (   0.2971488  -1.8907513  -0.1732361), wk =   0.0025641
        k(  535) = (   0.3464885  -1.7016762  -0.0007475), wk =   0.0025641
        k(  536) = (   0.3958282  -1.7016762   0.1717412), wk =   0.0025641
        k(  537) = (   0.4451680  -1.7016762   0.3442299), wk =   0.0025641
        k(  538) = (   0.4945077  -1.7016762   0.5167186), wk =   0.0025641
        k(  539) = (   0.5438474  -1.7016762   0.6892072), wk =   0.0025641
        k(  540) = (   0.5931871  -1.7016762   0.8616959), wk =   0.0025641
        k(  541) = (   0.6425269  -1.7016762   1.0341846), wk =   0.0025641
        k(  542) = (   0.0504501  -1.7016762  -1.0356795), wk =   0.0025641
        k(  543) = (   0.0997899  -1.7016762  -0.8631908), wk =   0.0025641
        k(  544) = (   0.1491296  -1.7016762  -0.6907022), wk =   0.0025641
        k(  545) = (   0.1984693  -1.7016762  -0.5182135), wk =   0.0025641
        k(  546) = (   0.2478090  -1.7016762  -0.3457248), wk =   0.0025641
        k(  547) = (   0.2971488  -1.7016762  -0.1732361), wk =   0.0025641
        k(  548) = (   0.3464885  -1.5126011  -0.0007475), wk =   0.0025641
        k(  549) = (   0.3958282  -1.5126011   0.1717412), wk =   0.0025641
        k(  550) = (   0.4451680  -1.5126011   0.3442299), wk =   0.0025641
        k(  551) = (   0.4945077  -1.5126011   0.5167186), wk =   0.0025641
        k(  552) = (   0.5438474  -1.5126011   0.6892072), wk =   0.0025641
        k(  553) = (   0.5931871  -1.5126011   0.8616959), wk =   0.0025641
        k(  554) = (   0.6425269  -1.5126011   1.0341846), wk =   0.0025641
        k(  555) = (   0.0504501  -1.5126011  -1.0356795), wk =   0.0025641
        k(  556) = (   0.0997899  -1.5126011  -0.8631908), wk =   0.0025641
        k(  557) = (   0.1491296  -1.5126011  -0.6907022), wk =   0.0025641
        k(  558) = (   0.1984693  -1.5126011  -0.5182135), wk =   0.0025641
        k(  559) = (   0.2478090  -1.5126011  -0.3457248), wk =   0.0025641
        k(  560) = (   0.2971488  -1.5126011  -0.1732361), wk =   0.0025641
        k(  561) = (   0.3464885  -1.3235259  -0.0007475), wk =   0.0025641
        k(  562) = (   0.3958282  -1.3235259   0.1717412), wk =   0.0025641
        k(  563) = (   0.4451680  -1.3235259   0.3442299), wk =   0.0025641
        k(  564) = (   0.4945077  -1.3235259   0.5167186), wk =   0.0025641
        k(  565) = (   0.5438474  -1.3235259   0.6892072), wk =   0.0025641
        k(  566) = (   0.5931871  -1.3235259   0.8616959), wk =   0.0025641
        k(  567) = (   0.6425269  -1.3235259   1.0341846), wk =   0.0025641
        k(  568) = (   0.0504501  -1.3235259  -1.0356795), wk =   0.0025641
        k(  569) = (   0.0997899  -1.3235259  -0.8631908), wk =   0.0025641
        k(  570) = (   0.1491296  -1.3235259  -0.6907022), wk =   0.0025641
        k(  571) = (   0.1984693  -1.3235259  -0.5182135), wk =   0.0025641
        k(  572) = (   0.2478090  -1.3235259  -0.3457248), wk =   0.0025641
        k(  573) = (   0.2971488  -1.3235259  -0.1732361), wk =   0.0025641
        k(  574) = (   0.3464885  -1.1344508  -0.0007475), wk =   0.0025641
        k(  575) = (   0.3958282  -1.1344508   0.1717412), wk =   0.0025641
        k(  576) = (   0.4451680  -1.1344508   0.3442299), wk =   0.0025641
        k(  577) = (   0.4945077  -1.1344508   0.5167186), wk =   0.0025641
        k(  578) = (   0.5438474  -1.1344508   0.6892072), wk =   0.0025641
        k(  579) = (   0.5931871  -1.1344508   0.8616959), wk =   0.0025641
        k(  580) = (   0.6425269  -1.1344508   1.0341846), wk =   0.0025641
        k(  581) = (   0.0504501  -1.1344508  -1.0356795), wk =   0.0025641
        k(  582) = (   0.0997899  -1.1344508  -0.8631908), wk =   0.0025641
        k(  583) = (   0.1491296  -1.1344508  -0.6907022), wk =   0.0025641
        k(  584) = (   0.1984693  -1.1344508  -0.5182135), wk =   0.0025641
        k(  585) = (   0.2478090  -1.1344508  -0.3457248), wk =   0.0025641
        k(  586) = (   0.2971488  -1.1344508  -0.1732361), wk =   0.0025641
        k(  587) = (   0.3464885  -0.9453757  -0.0007475), wk =   0.0025641
        k(  588) = (   0.3958282  -0.9453757   0.1717412), wk =   0.0025641
        k(  589) = (   0.4451680  -0.9453757   0.3442299), wk =   0.0025641
        k(  590) = (   0.4945077  -0.9453757   0.5167186), wk =   0.0025641
        k(  591) = (   0.5438474  -0.9453757   0.6892072), wk =   0.0025641
        k(  592) = (   0.5931871  -0.9453757   0.8616959), wk =   0.0025641
        k(  593) = (   0.6425269  -0.9453757   1.0341846), wk =   0.0025641
        k(  594) = (   0.0504501  -0.9453757  -1.0356795), wk =   0.0025641
        k(  595) = (   0.0997899  -0.9453757  -0.8631908), wk =   0.0025641
        k(  596) = (   0.1491296  -0.9453757  -0.6907022), wk =   0.0025641
        k(  597) = (   0.1984693  -0.9453757  -0.5182135), wk =   0.0025641
        k(  598) = (   0.2478090  -0.9453757  -0.3457248), wk =   0.0025641
        k(  599) = (   0.2971488  -0.9453757  -0.1732361), wk =   0.0025641
        k(  600) = (   0.3464885  -0.7563005  -0.0007475), wk =   0.0025641
        k(  601) = (   0.3958282  -0.7563005   0.1717412), wk =   0.0025641
        k(  602) = (   0.4451680  -0.7563005   0.3442299), wk =   0.0025641
        k(  603) = (   0.4945077  -0.7563005   0.5167186), wk =   0.0025641
        k(  604) = (   0.5438474  -0.7563005   0.6892072), wk =   0.0025641
        k(  605) = (   0.5931871  -0.7563005   0.8616959), wk =   0.0025641
        k(  606) = (   0.6425269  -0.7563005   1.0341846), wk =   0.0025641
        k(  607) = (   0.0504501  -0.7563005  -1.0356795), wk =   0.0025641
        k(  608) = (   0.0997899  -0.7563005  -0.8631908), wk =   0.0025641
        k(  609) = (   0.1491296  -0.7563005  -0.6907022), wk =   0.0025641
        k(  610) = (   0.1984693  -0.7563005  -0.5182135), wk =   0.0025641
        k(  611) = (   0.2478090  -0.7563005  -0.3457248), wk =   0.0025641
        k(  612) = (   0.2971488  -0.7563005  -0.1732361), wk =   0.0025641
        k(  613) = (   0.3464885  -0.5672254  -0.0007475), wk =   0.0025641
        k(  614) = (   0.3958282  -0.5672254   0.1717412), wk =   0.0025641
        k(  615) = (   0.4451680  -0.5672254   0.3442299), wk =   0.0025641
        k(  616) = (   0.4945077  -0.5672254   0.5167186), wk =   0.0025641
        k(  617) = (   0.5438474  -0.5672254   0.6892072), wk =   0.0025641
        k(  618) = (   0.5931871  -0.5672254   0.8616959), wk =   0.0025641
        k(  619) = (   0.6425269  -0.5672254   1.0341846), wk =   0.0025641
        k(  620) = (   0.0504501  -0.5672254  -1.0356795), wk =   0.0025641
        k(  621) = (   0.0997899  -0.5672254  -0.8631908), wk =   0.0025641
        k(  622) = (   0.1491296  -0.5672254  -0.6907022), wk =   0.0025641
        k(  623) = (   0.1984693  -0.5672254  -0.5182135), wk =   0.0025641
        k(  624) = (   0.2478090  -0.5672254  -0.3457248), wk =   0.0025641
        k(  625) = (   0.2971488  -0.5672254  -0.1732361), wk =   0.0025641
        k(  626) = (   0.3464885  -0.3781503  -0.0007475), wk =   0.0025641
        k(  627) = (   0.3958282  -0.3781503   0.1717412), wk =   0.0025641
        k(  628) = (   0.4451680  -0.3781503   0.3442299), wk =   0.0025641
        k(  629) = (   0.4945077  -0.3781503   0.5167186), wk =   0.0025641
        k(  630) = (   0.5438474  -0.3781503   0.6892072), wk =   0.0025641
        k(  631) = (   0.5931871  -0.3781503   0.8616959), wk =   0.0025641
        k(  632) = (   0.6425269  -0.3781503   1.0341846), wk =   0.0025641
        k(  633) = (   0.0504501  -0.3781503  -1.0356795), wk =   0.0025641
        k(  634) = (   0.0997899  -0.3781503  -0.8631908), wk =   0.0025641
        k(  635) = (   0.1491296  -0.3781503  -0.6907022), wk =   0.0025641
        k(  636) = (   0.1984693  -0.3781503  -0.5182135), wk =   0.0025641
        k(  637) = (   0.2478090  -0.3781503  -0.3457248), wk =   0.0025641
        k(  638) = (   0.2971488  -0.3781503  -0.1732361), wk =   0.0025641
        k(  639) = (   0.3464885  -0.1890751  -0.0007475), wk =   0.0025641
        k(  640) = (   0.3958282  -0.1890751   0.1717412), wk =   0.0025641
        k(  641) = (   0.4451680  -0.1890751   0.3442299), wk =   0.0025641
        k(  642) = (   0.4945077  -0.1890751   0.5167186), wk =   0.0025641
        k(  643) = (   0.5438474  -0.1890751   0.6892072), wk =   0.0025641
        k(  644) = (   0.5931871  -0.1890751   0.8616959), wk =   0.0025641
        k(  645) = (   0.6425269  -0.1890751   1.0341846), wk =   0.0025641
        k(  646) = (   0.0504501  -0.1890751  -1.0356795), wk =   0.0025641
        k(  647) = (   0.0997899  -0.1890751  -0.8631908), wk =   0.0025641
        k(  648) = (   0.1491296  -0.1890751  -0.6907022), wk =   0.0025641
        k(  649) = (   0.1984693  -0.1890751  -0.5182135), wk =   0.0025641
        k(  650) = (   0.2478090  -0.1890751  -0.3457248), wk =   0.0025641
        k(  651) = (   0.2971488  -0.1890751  -0.1732361), wk =   0.0025641
        k(  652) = (  -0.5197328   0.0000000   0.0011212), wk =   0.0012821
        k(  653) = (  -0.4703930   0.0000000   0.1736099), wk =   0.0025641
        k(  654) = (  -0.4210533   0.0000000   0.3460985), wk =   0.0025641
        k(  655) = (  -0.3717136   0.0000000   0.5185872), wk =   0.0025641
        k(  656) = (  -0.3223738   0.0000000   0.6910759), wk =   0.0025641
        k(  657) = (  -0.2730341   0.0000000   0.8635646), wk =   0.0025641
        k(  658) = (  -0.2236944   0.0000000   1.0360532), wk =   0.0025641
        k(  659) = (  -0.5197328   0.1890751   0.0011212), wk =   0.0025641
        k(  660) = (  -0.4703930   0.1890751   0.1736099), wk =   0.0025641
        k(  661) = (  -0.4210533   0.1890751   0.3460985), wk =   0.0025641
        k(  662) = (  -0.3717136   0.1890751   0.5185872), wk =   0.0025641
        k(  663) = (  -0.3223738   0.1890751   0.6910759), wk =   0.0025641
        k(  664) = (  -0.2730341   0.1890751   0.8635646), wk =   0.0025641
        k(  665) = (  -0.2236944   0.1890751   1.0360532), wk =   0.0025641
        k(  666) = (  -0.8157711   0.1890751  -1.0338109), wk =   0.0025641
        k(  667) = (  -0.7664314   0.1890751  -0.8613222), wk =   0.0025641
        k(  668) = (  -0.7170917   0.1890751  -0.6888335), wk =   0.0025641
        k(  669) = (  -0.6677519   0.1890751  -0.5163448), wk =   0.0025641
        k(  670) = (  -0.6184122   0.1890751  -0.3438562), wk =   0.0025641
        k(  671) = (  -0.5690725   0.1890751  -0.1713675), wk =   0.0025641
        k(  672) = (  -0.5197328   0.3781503   0.0011212), wk =   0.0025641
        k(  673) = (  -0.4703930   0.3781503   0.1736099), wk =   0.0025641
        k(  674) = (  -0.4210533   0.3781503   0.3460985), wk =   0.0025641
        k(  675) = (  -0.3717136   0.3781503   0.5185872), wk =   0.0025641
        k(  676) = (  -0.3223738   0.3781503   0.6910759), wk =   0.0025641
        k(  677) = (  -0.2730341   0.3781503   0.8635646), wk =   0.0025641
        k(  678) = (  -0.2236944   0.3781503   1.0360532), wk =   0.0025641
        k(  679) = (  -0.8157711   0.3781503  -1.0338109), wk =   0.0025641
        k(  680) = (  -0.7664314   0.3781503  -0.8613222), wk =   0.0025641
        k(  681) = (  -0.7170917   0.3781503  -0.6888335), wk =   0.0025641
        k(  682) = (  -0.6677519   0.3781503  -0.5163448), wk =   0.0025641
        k(  683) = (  -0.6184122   0.3781503  -0.3438562), wk =   0.0025641
        k(  684) = (  -0.5690725   0.3781503  -0.1713675), wk =   0.0025641
        k(  685) = (  -0.5197328   0.5672254   0.0011212), wk =   0.0025641
        k(  686) = (  -0.4703930   0.5672254   0.1736099), wk =   0.0025641
        k(  687) = (  -0.4210533   0.5672254   0.3460985), wk =   0.0025641
        k(  688) = (  -0.3717136   0.5672254   0.5185872), wk =   0.0025641
        k(  689) = (  -0.3223738   0.5672254   0.6910759), wk =   0.0025641
        k(  690) = (  -0.2730341   0.5672254   0.8635646), wk =   0.0025641
        k(  691) = (  -0.2236944   0.5672254   1.0360532), wk =   0.0025641
        k(  692) = (  -0.8157711   0.5672254  -1.0338109), wk =   0.0025641
        k(  693) = (  -0.7664314   0.5672254  -0.8613222), wk =   0.0025641
        k(  694) = (  -0.7170917   0.5672254  -0.6888335), wk =   0.0025641
        k(  695) = (  -0.6677519   0.5672254  -0.5163448), wk =   0.0025641
        k(  696) = (  -0.6184122   0.5672254  -0.3438562), wk =   0.0025641
        k(  697) = (  -0.5690725   0.5672254  -0.1713675), wk =   0.0025641
        k(  698) = (  -0.5197328   0.7563005   0.0011212), wk =   0.0025641
        k(  699) = (  -0.4703930   0.7563005   0.1736099), wk =   0.0025641
        k(  700) = (  -0.4210533   0.7563005   0.3460985), wk =   0.0025641
        k(  701) = (  -0.3717136   0.7563005   0.5185872), wk =   0.0025641
        k(  702) = (  -0.3223738   0.7563005   0.6910759), wk =   0.0025641
        k(  703) = (  -0.2730341   0.7563005   0.8635646), wk =   0.0025641
        k(  704) = (  -0.2236944   0.7563005   1.0360532), wk =   0.0025641
        k(  705) = (  -0.8157711   0.7563005  -1.0338109), wk =   0.0025641
        k(  706) = (  -0.7664314   0.7563005  -0.8613222), wk =   0.0025641
        k(  707) = (  -0.7170917   0.7563005  -0.6888335), wk =   0.0025641
        k(  708) = (  -0.6677519   0.7563005  -0.5163448), wk =   0.0025641
        k(  709) = (  -0.6184122   0.7563005  -0.3438562), wk =   0.0025641
        k(  710) = (  -0.5690725   0.7563005  -0.1713675), wk =   0.0025641
        k(  711) = (  -0.5197328   0.9453757   0.0011212), wk =   0.0025641
        k(  712) = (  -0.4703930   0.9453757   0.1736099), wk =   0.0025641
        k(  713) = (  -0.4210533   0.9453757   0.3460985), wk =   0.0025641
        k(  714) = (  -0.3717136   0.9453757   0.5185872), wk =   0.0025641
        k(  715) = (  -0.3223738   0.9453757   0.6910759), wk =   0.0025641
        k(  716) = (  -0.2730341   0.9453757   0.8635646), wk =   0.0025641
        k(  717) = (  -0.2236944   0.9453757   1.0360532), wk =   0.0025641
        k(  718) = (  -0.8157711   0.9453757  -1.0338109), wk =   0.0025641
        k(  719) = (  -0.7664314   0.9453757  -0.8613222), wk =   0.0025641
        k(  720) = (  -0.7170917   0.9453757  -0.6888335), wk =   0.0025641
        k(  721) = (  -0.6677519   0.9453757  -0.5163448), wk =   0.0025641
        k(  722) = (  -0.6184122   0.9453757  -0.3438562), wk =   0.0025641
        k(  723) = (  -0.5690725   0.9453757  -0.1713675), wk =   0.0025641
        k(  724) = (  -0.5197328   1.1344508   0.0011212), wk =   0.0025641
        k(  725) = (  -0.4703930   1.1344508   0.1736099), wk =   0.0025641
        k(  726) = (  -0.4210533   1.1344508   0.3460985), wk =   0.0025641
        k(  727) = (  -0.3717136   1.1344508   0.5185872), wk =   0.0025641
        k(  728) = (  -0.3223738   1.1344508   0.6910759), wk =   0.0025641
        k(  729) = (  -0.2730341   1.1344508   0.8635646), wk =   0.0025641
        k(  730) = (  -0.2236944   1.1344508   1.0360532), wk =   0.0025641
        k(  731) = (  -0.8157711   1.1344508  -1.0338109), wk =   0.0025641
        k(  732) = (  -0.7664314   1.1344508  -0.8613222), wk =   0.0025641
        k(  733) = (  -0.7170917   1.1344508  -0.6888335), wk =   0.0025641
        k(  734) = (  -0.6677519   1.1344508  -0.5163448), wk =   0.0025641
        k(  735) = (  -0.6184122   1.1344508  -0.3438562), wk =   0.0025641
        k(  736) = (  -0.5690725   1.1344508  -0.1713675), wk =   0.0025641
        k(  737) = (  -0.5197328   1.3235259   0.0011212), wk =   0.0025641
        k(  738) = (  -0.4703930   1.3235259   0.1736099), wk =   0.0025641
        k(  739) = (  -0.4210533   1.3235259   0.3460985), wk =   0.0025641
        k(  740) = (  -0.3717136   1.3235259   0.5185872), wk =   0.0025641
        k(  741) = (  -0.3223738   1.3235259   0.6910759), wk =   0.0025641
        k(  742) = (  -0.2730341   1.3235259   0.8635646), wk =   0.0025641
        k(  743) = (  -0.2236944   1.3235259   1.0360532), wk =   0.0025641
        k(  744) = (  -0.8157711   1.3235259  -1.0338109), wk =   0.0025641
        k(  745) = (  -0.7664314   1.3235259  -0.8613222), wk =   0.0025641
        k(  746) = (  -0.7170917   1.3235259  -0.6888335), wk =   0.0025641
        k(  747) = (  -0.6677519   1.3235259  -0.5163448), wk =   0.0025641
        k(  748) = (  -0.6184122   1.3235259  -0.3438562), wk =   0.0025641
        k(  749) = (  -0.5690725   1.3235259  -0.1713675), wk =   0.0025641
        k(  750) = (  -0.5197328   1.5126011   0.0011212), wk =   0.0025641
        k(  751) = (  -0.4703930   1.5126011   0.1736099), wk =   0.0025641
        k(  752) = (  -0.4210533   1.5126011   0.3460985), wk =   0.0025641
        k(  753) = (  -0.3717136   1.5126011   0.5185872), wk =   0.0025641
        k(  754) = (  -0.3223738   1.5126011   0.6910759), wk =   0.0025641
        k(  755) = (  -0.2730341   1.5126011   0.8635646), wk =   0.0025641
        k(  756) = (  -0.2236944   1.5126011   1.0360532), wk =   0.0025641
        k(  757) = (  -0.8157711   1.5126011  -1.0338109), wk =   0.0025641
        k(  758) = (  -0.7664314   1.5126011  -0.8613222), wk =   0.0025641
        k(  759) = (  -0.7170917   1.5126011  -0.6888335), wk =   0.0025641
        k(  760) = (  -0.6677519   1.5126011  -0.5163448), wk =   0.0025641
        k(  761) = (  -0.6184122   1.5126011  -0.3438562), wk =   0.0025641
        k(  762) = (  -0.5690725   1.5126011  -0.1713675), wk =   0.0025641
        k(  763) = (  -0.5197328   1.7016762   0.0011212), wk =   0.0025641
        k(  764) = (  -0.4703930   1.7016762   0.1736099), wk =   0.0025641
        k(  765) = (  -0.4210533   1.7016762   0.3460985), wk =   0.0025641
        k(  766) = (  -0.3717136   1.7016762   0.5185872), wk =   0.0025641
        k(  767) = (  -0.3223738   1.7016762   0.6910759), wk =   0.0025641
        k(  768) = (  -0.2730341   1.7016762   0.8635646), wk =   0.0025641
        k(  769) = (  -0.2236944   1.7016762   1.0360532), wk =   0.0025641
        k(  770) = (  -0.8157711   1.7016762  -1.0338109), wk =   0.0025641
        k(  771) = (  -0.7664314   1.7016762  -0.8613222), wk =   0.0025641
        k(  772) = (  -0.7170917   1.7016762  -0.6888335), wk =   0.0025641
        k(  773) = (  -0.6677519   1.7016762  -0.5163448), wk =   0.0025641
        k(  774) = (  -0.6184122   1.7016762  -0.3438562), wk =   0.0025641
        k(  775) = (  -0.5690725   1.7016762  -0.1713675), wk =   0.0025641
        k(  776) = (  -0.5197328  -1.8907513   0.0011212), wk =   0.0012821
        k(  777) = (  -0.4703930  -1.8907513   0.1736099), wk =   0.0025641
        k(  778) = (  -0.4210533  -1.8907513   0.3460985), wk =   0.0025641
        k(  779) = (  -0.3717136  -1.8907513   0.5185872), wk =   0.0025641
        k(  780) = (  -0.3223738  -1.8907513   0.6910759), wk =   0.0025641
        k(  781) = (  -0.2730341  -1.8907513   0.8635646), wk =   0.0025641
        k(  782) = (  -0.2236944  -1.8907513   1.0360532), wk =   0.0025641

                       cryst. coord.
        k(    1) = (   0.0000000   0.0000000   0.0000000), wk =   0.0012821
        k(    2) = (  -0.0000000   0.0000000   0.0769231), wk =   0.0025641
        k(    3) = (  -0.0000000   0.0000000   0.1538462), wk =   0.0025641
        k(    4) = (  -0.0000000   0.0000000   0.2307692), wk =   0.0025641
        k(    5) = (  -0.0000000   0.0000000   0.3076923), wk =   0.0025641
        k(    6) = (   0.0000000   0.0000000   0.3846154), wk =   0.0025641
        k(    7) = (  -0.0000000   0.0000000   0.4615385), wk =   0.0025641
        k(    8) = (   0.0000000   0.0500000   0.0000000), wk =   0.0025641
        k(    9) = (  -0.0000000   0.0500000   0.0769231), wk =   0.0025641
        k(   10) = (  -0.0000000   0.0500000   0.1538462), wk =   0.0025641
        k(   11) = (  -0.0000000   0.0500000   0.2307692), wk =   0.0025641
        k(   12) = (  -0.0000000   0.0500000   0.3076923), wk =   0.0025641
        k(   13) = (   0.0000000   0.0500000   0.3846154), wk =   0.0025641
        k(   14) = (  -0.0000000   0.0500000   0.4615385), wk =   0.0025641
        k(   15) = (   0.0000000   0.0500000  -0.4615385), wk =   0.0025641
        k(   16) = (  -0.0000000   0.0500000  -0.3846154), wk =   0.0025641
        k(   17) = (   0.0000000   0.0500000  -0.3076923), wk =   0.0025641
        k(   18) = (  -0.0000000   0.0500000  -0.2307692), wk =   0.0025641
        k(   19) = (   0.0000000   0.0500000  -0.1538462), wk =   0.0025641
        k(   20) = (  -0.0000000   0.0500000  -0.0769231), wk =   0.0025641
        k(   21) = (   0.0000000   0.1000000   0.0000000), wk =   0.0025641
        k(   22) = (  -0.0000000   0.1000000   0.0769231), wk =   0.0025641
        k(   23) = (  -0.0000000   0.1000000   0.1538462), wk =   0.0025641
        k(   24) = (  -0.0000000   0.1000000   0.2307692), wk =   0.0025641
        k(   25) = (  -0.0000000   0.1000000   0.3076923), wk =   0.0025641
        k(   26) = (   0.0000000   0.1000000   0.3846154), wk =   0.0025641
        k(   27) = (  -0.0000000   0.1000000   0.4615385), wk =   0.0025641
        k(   28) = (   0.0000000   0.1000000  -0.4615385), wk =   0.0025641
        k(   29) = (  -0.0000000   0.1000000  -0.3846154), wk =   0.0025641
        k(   30) = (   0.0000000   0.1000000  -0.3076923), wk =   0.0025641
        k(   31) = (  -0.0000000   0.1000000  -0.2307692), wk =   0.0025641
        k(   32) = (   0.0000000   0.1000000  -0.1538462), wk =   0.0025641
        k(   33) = (  -0.0000000   0.1000000  -0.0769231), wk =   0.0025641
        k(   34) = (   0.0000000   0.1500000   0.0000000), wk =   0.0025641
        k(   35) = (  -0.0000000   0.1500000   0.0769231), wk =   0.0025641
        k(   36) = (  -0.0000000   0.1500000   0.1538462), wk =   0.0025641
        k(   37) = (  -0.0000000   0.1500000   0.2307692), wk =   0.0025641
        k(   38) = (  -0.0000000   0.1500000   0.3076923), wk =   0.0025641
        k(   39) = (   0.0000000   0.1500000   0.3846154), wk =   0.0025641
        k(   40) = (  -0.0000000   0.1500000   0.4615385), wk =   0.0025641
        k(   41) = (   0.0000000   0.1500000  -0.4615385), wk =   0.0025641
        k(   42) = (  -0.0000000   0.1500000  -0.3846154), wk =   0.0025641
        k(   43) = (   0.0000000   0.1500000  -0.3076923), wk =   0.0025641
        k(   44) = (  -0.0000000   0.1500000  -0.2307692), wk =   0.0025641
        k(   45) = (   0.0000000   0.1500000  -0.1538462), wk =   0.0025641
        k(   46) = (  -0.0000000   0.1500000  -0.0769231), wk =   0.0025641
        k(   47) = (   0.0000000   0.2000000   0.0000000), wk =   0.0025641
        k(   48) = (  -0.0000000   0.2000000   0.0769231), wk =   0.0025641
        k(   49) = (  -0.0000000   0.2000000   0.1538462), wk =   0.0025641
        k(   50) = (  -0.0000000   0.2000000   0.2307692), wk =   0.0025641
        k(   51) = (  -0.0000000   0.2000000   0.3076923), wk =   0.0025641
        k(   52) = (   0.0000000   0.2000000   0.3846154), wk =   0.0025641
        k(   53) = (  -0.0000000   0.2000000   0.4615385), wk =   0.0025641
        k(   54) = (   0.0000000   0.2000000  -0.4615385), wk =   0.0025641
        k(   55) = (  -0.0000000   0.2000000  -0.3846154), wk =   0.0025641
        k(   56) = (   0.0000000   0.2000000  -0.3076923), wk =   0.0025641
        k(   57) = (  -0.0000000   0.2000000  -0.2307692), wk =   0.0025641
        k(   58) = (   0.0000000   0.2000000  -0.1538462), wk =   0.0025641
        k(   59) = (  -0.0000000   0.2000000  -0.0769231), wk =   0.0025641
        k(   60) = (   0.0000000   0.2500000   0.0000000), wk =   0.0025641
        k(   61) = (  -0.0000000   0.2500000   0.0769231), wk =   0.0025641
        k(   62) = (  -0.0000000   0.2500000   0.1538462), wk =   0.0025641
        k(   63) = (  -0.0000000   0.2500000   0.2307692), wk =   0.0025641
        k(   64) = (  -0.0000000   0.2500000   0.3076923), wk =   0.0025641
        k(   65) = (   0.0000000   0.2500000   0.3846154), wk =   0.0025641
        k(   66) = (  -0.0000000   0.2500000   0.4615385), wk =   0.0025641
        k(   67) = (   0.0000000   0.2500000  -0.4615385), wk =   0.0025641
        k(   68) = (  -0.0000000   0.2500000  -0.3846154), wk =   0.0025641
        k(   69) = (   0.0000000   0.2500000  -0.3076923), wk =   0.0025641
        k(   70) = (  -0.0000000   0.2500000  -0.2307692), wk =   0.0025641
        k(   71) = (   0.0000000   0.2500000  -0.1538462), wk =   0.0025641
        k(   72) = (  -0.0000000   0.2500000  -0.0769231), wk =   0.0025641
        k(   73) = (   0.0000000   0.3000000   0.0000000), wk =   0.0025641
        k(   74) = (  -0.0000000   0.3000000   0.0769231), wk =   0.0025641
        k(   75) = (  -0.0000000   0.3000000   0.1538462), wk =   0.0025641
        k(   76) = (  -0.0000000   0.3000000   0.2307692), wk =   0.0025641
        k(   77) = (  -0.0000000   0.3000000   0.3076923), wk =   0.0025641
        k(   78) = (   0.0000000   0.3000000   0.3846154), wk =   0.0025641
        k(   79) = (  -0.0000000   0.3000000   0.4615385), wk =   0.0025641
        k(   80) = (   0.0000000   0.3000000  -0.4615385), wk =   0.0025641
        k(   81) = (  -0.0000000   0.3000000  -0.3846154), wk =   0.0025641
        k(   82) = (   0.0000000   0.3000000  -0.3076923), wk =   0.0025641
        k(   83) = (  -0.0000000   0.3000000  -0.2307692), wk =   0.0025641
        k(   84) = (   0.0000000   0.3000000  -0.1538462), wk =   0.0025641
        k(   85) = (  -0.0000000   0.3000000  -0.0769231), wk =   0.0025641
        k(   86) = (   0.0000000   0.3500000   0.0000000), wk =   0.0025641
        k(   87) = (  -0.0000000   0.3500000   0.0769231), wk =   0.0025641
        k(   88) = (  -0.0000000   0.3500000   0.1538462), wk =   0.0025641
        k(   89) = (  -0.0000000   0.3500000   0.2307692), wk =   0.0025641
        k(   90) = (  -0.0000000   0.3500000   0.3076923), wk =   0.0025641
        k(   91) = (   0.0000000   0.3500000   0.3846154), wk =   0.0025641
        k(   92) = (  -0.0000000   0.3500000   0.4615385), wk =   0.0025641
        k(   93) = (   0.0000000   0.3500000  -0.4615385), wk =   0.0025641
        k(   94) = (  -0.0000000   0.3500000  -0.3846154), wk =   0.0025641
        k(   95) = (   0.0000000   0.3500000  -0.3076923), wk =   0.0025641
        k(   96) = (  -0.0000000   0.3500000  -0.2307692), wk =   0.0025641
        k(   97) = (   0.0000000   0.3500000  -0.1538462), wk =   0.0025641
        k(   98) = (  -0.0000000   0.3500000  -0.0769231), wk =   0.0025641
        k(   99) = (   0.0000000   0.4000000   0.0000000), wk =   0.0025641
        k(  100) = (  -0.0000000   0.4000000   0.0769231), wk =   0.0025641
        k(  101) = (  -0.0000000   0.4000000   0.1538462), wk =   0.0025641
        k(  102) = (  -0.0000000   0.4000000   0.2307692), wk =   0.0025641
        k(  103) = (  -0.0000000   0.4000000   0.3076923), wk =   0.0025641
        k(  104) = (   0.0000000   0.4000000   0.3846154), wk =   0.0025641
        k(  105) = (  -0.0000000   0.4000000   0.4615385), wk =   0.0025641
        k(  106) = (   0.0000000   0.4000000  -0.4615385), wk =   0.0025641
        k(  107) = (  -0.0000000   0.4000000  -0.3846154), wk =   0.0025641
        k(  108) = (   0.0000000   0.4000000  -0.3076923), wk =   0.0025641
        k(  109) = (  -0.0000000   0.4000000  -0.2307692), wk =   0.0025641
        k(  110) = (   0.0000000   0.4000000  -0.1538462), wk =   0.0025641
        k(  111) = (  -0.0000000   0.4000000  -0.0769231), wk =   0.0025641
        k(  112) = (   0.0000000   0.4500000   0.0000000), wk =   0.0025641
        k(  113) = (  -0.0000000   0.4500000   0.0769231), wk =   0.0025641
        k(  114) = (  -0.0000000   0.4500000   0.1538462), wk =   0.0025641
        k(  115) = (  -0.0000000   0.4500000   0.2307692), wk =   0.0025641
        k(  116) = (  -0.0000000   0.4500000   0.3076923), wk =   0.0025641
        k(  117) = (   0.0000000   0.4500000   0.3846154), wk =   0.0025641
        k(  118) = (  -0.0000000   0.4500000   0.4615385), wk =   0.0025641
        k(  119) = (   0.0000000   0.4500000  -0.4615385), wk =   0.0025641
        k(  120) = (  -0.0000000   0.4500000  -0.3846154), wk =   0.0025641
        k(  121) = (   0.0000000   0.4500000  -0.3076923), wk =   0.0025641
        k(  122) = (  -0.0000000   0.4500000  -0.2307692), wk =   0.0025641
        k(  123) = (   0.0000000   0.4500000  -0.1538462), wk =   0.0025641
        k(  124) = (  -0.0000000   0.4500000  -0.0769231), wk =   0.0025641
        k(  125) = (   0.0000000  -0.5000000   0.0000000), wk =   0.0012821
        k(  126) = (  -0.0000000  -0.5000000   0.0769231), wk =   0.0025641
        k(  127) = (  -0.0000000  -0.5000000   0.1538462), wk =   0.0025641
        k(  128) = (  -0.0000000  -0.5000000   0.2307692), wk =   0.0025641
        k(  129) = (  -0.0000000  -0.5000000   0.3076923), wk =   0.0025641
        k(  130) = (   0.0000000  -0.5000000   0.3846154), wk =   0.0025641
        k(  131) = (  -0.0000000  -0.5000000   0.4615385), wk =   0.0025641
        k(  132) = (   0.1666667   0.0000000  -0.0000000), wk =   0.0025641
        k(  133) = (   0.1666667   0.0000000   0.0769231), wk =   0.0025641
        k(  134) = (   0.1666667   0.0000000   0.1538462), wk =   0.0025641
        k(  135) = (   0.1666667   0.0000000   0.2307692), wk =   0.0025641
        k(  136) = (   0.1666667   0.0000000   0.3076923), wk =   0.0025641
        k(  137) = (   0.1666667   0.0000000   0.3846154), wk =   0.0025641
        k(  138) = (   0.1666667   0.0000000   0.4615385), wk =   0.0025641
        k(  139) = (   0.1666667   0.0000000  -0.4615385), wk =   0.0025641
        k(  140) = (   0.1666667   0.0000000  -0.3846154), wk =   0.0025641
        k(  141) = (   0.1666667   0.0000000  -0.3076923), wk =   0.0025641
        k(  142) = (   0.1666667   0.0000000  -0.2307692), wk =   0.0025641
        k(  143) = (   0.1666667   0.0000000  -0.1538462), wk =   0.0025641
[...]
     0.8265   0.8265   0.1969   0.1969   0.0939   0.0939

          k =-0.2237-1.8908 1.0361 ( 11796 PWs)   bands (ev):

    -3.1490  -3.1490  -2.1706  -2.1706  -1.9557  -1.9557  -1.1661  -1.1661
     0.0115   0.0115   0.7595   0.7595   0.8661   0.8661   2.0052   2.0052
     2.0919   2.0919   2.7361   2.7361   3.4984   3.4984   3.8120   3.8120
     4.2539   4.2539   4.6402   4.6402   4.8890   4.8890   5.5824   5.5824
     6.1413   6.1413   6.4992   6.4992   6.7928   6.7928

     occupation numbers 
     1.0000   1.0000   1.0000   1.0000   1.0000   1.0000   1.0000   1.0000
     1.0000   1.0000   1.0000   1.0000   1.0000   1.0000   1.0000   1.0000
     1.0000   1.0000   1.0000   1.0000   1.0000   1.0000   1.0000   1.0000
     1.0000   1.0000   1.0002   1.0002   1.0013   1.0013   1.0342   1.0342
     0.8031   0.8031   0.3284   0.3284   0.0411   0.0411

     the Fermi energy is     6.3745 ev

!    total energy              =    -585.64459156 Ry
     Harris-Foulkes estimate   =    -585.64459156 Ry
     estimated scf accuracy    <          3.7E-13 Ry

     The total energy is the sum of the following terms:

     one-electron contribution =      41.79589746 Ry
     hartree contribution      =       8.27992135 Ry
     xc contribution           =     -75.85940453 Ry
     ewald contribution        =    -108.26668320 Ry
     one-center paw contrib.   =    -451.59068211 Ry
      -> PAW hartree energy AE =       0.84510229 Ry
      -> PAW hartree energy PS =      -0.84318200 Ry
      -> PAW xc energy AE      =     -32.63769722 Ry
      -> PAW xc energy PS      =       1.33928541 Ry
      -> total E_H with PAW    =       8.28184164 Ry
      -> total E_XC with PAW   =    -107.15781635 Ry
     smearing contrib. (-TS)   =      -0.00364052 Ry

     convergence has been achieved in  20 iterations

     Forces acting on atoms (cartesian axes, Ry/au):

     atom    1 type  1   force =     0.00000248    0.00000004   -0.00000740
     atom    2 type  1   force =    -0.00081253   -0.00000004    0.00013743
     atom    3 type  1   force =    -0.00125724    0.00000021   -0.00047215
     atom    4 type  1   force =     0.00125716   -0.00000022    0.00047193
     atom    5 type  1   force =     0.00081230    0.00000001   -0.00013697
     atom    6 type  2   force =    -0.00054434   -0.00000045   -0.00056478
     atom    7 type  2   force =     0.00021071   -0.00000135    0.00025182
     atom    8 type  3   force =    -0.00059181   -0.00000027   -0.00044590
     atom    9 type  3   force =     0.00059137    0.00000023    0.00044579
     atom   10 type  2   force =    -0.00021159    0.00000147   -0.00025194
     atom   11 type  2   force =     0.00054392    0.00000043    0.00056506
     atom   12 type  1   force =     0.00000164   -0.00000002    0.00000730
     atom   13 type  1   force =    -0.00082340    0.00000006    0.00014021
     atom   14 type  1   force =    -0.00125375    0.00000030   -0.00046648
     atom   15 type  1   force =     0.00125369   -0.00000029    0.00046625
     atom   16 type  1   force =     0.00082326   -0.00000003   -0.00013982
     atom   17 type  2   force =    -0.00053360   -0.00000049   -0.00056439
     atom   18 type  2   force =     0.00020442   -0.00000165    0.00026373
     atom   19 type  3   force =    -0.00060255   -0.00000056   -0.00043552
     atom   20 type  3   force =     0.00060180    0.00000052    0.00043511
     atom   21 type  2   force =    -0.00020539    0.00000158   -0.00026374
     atom   22 type  2   force =     0.00053345    0.00000049    0.00056447
     The non-local contrib.  to forces
     atom    1 type  1   force =     0.00000130    0.00000006   -0.00001386
     atom    2 type  1   force =     0.01363604   -0.00000080   -0.00071421
     atom    3 type  1   force =     0.00717607   -0.00000141    0.01098566
     atom    4 type  1   force =    -0.00717794    0.00000155   -0.01098656
     atom    5 type  1   force =    -0.01363849    0.00000088    0.00071456
     atom    6 type  2   force =    -0.02265348    0.00000035   -0.05435698
     atom    7 type  2   force =     0.01658233    0.00000057    0.02122213
     atom    8 type  3   force =     0.00585790    0.00000103   -0.01081249
     atom    9 type  3   force =    -0.00586014   -0.00000106    0.01081189
     atom   10 type  2   force =    -0.01659076   -0.00000065   -0.02121875
     atom   11 type  2   force =     0.02266613   -0.00000040    0.05435475
     atom   12 type  1   force =     0.00000699   -0.00000007    0.00001445
     atom   13 type  1   force =     0.01360231   -0.00000063   -0.00069704
     atom   14 type  1   force =     0.00716723   -0.00000097    0.01099729
     atom   15 type  1   force =    -0.00716960    0.00000090   -0.01099886
     atom   16 type  1   force =    -0.01360512    0.00000054    0.00069756
     atom   17 type  2   force =    -0.02263967    0.00000026   -0.05433939
     atom   18 type  2   force =     0.01655888    0.00000073    0.02126086
     atom   19 type  3   force =     0.00584247    0.00000075   -0.01080282
     atom   20 type  3   force =    -0.00584493   -0.00000075    0.01080203
     atom   21 type  2   force =    -0.01656707   -0.00000062   -0.02125751
     atom   22 type  2   force =     0.02265262   -0.00000027    0.05433690
     The ionic contribution  to forces
     atom    1 type  1   force =     0.00001197    0.00000007   -0.00002687
     atom    2 type  1   force =    -0.16101653   -0.00000025   -0.31328483
     atom    3 type  1   force =    -0.15816675   -0.00000021    0.17882583
     atom    4 type  1   force =     0.15816099    0.00000021   -0.17883032
     atom    5 type  1   force =     0.16102276    0.00000025    0.31328466
     atom    6 type  2   force =     0.14418100    0.00000024    0.85205003
     atom    7 type  2   force =    -0.62603415    0.00000037   -0.77626312
     atom    8 type  3   force =    -0.05344337    0.00000035    0.33640672
     atom    9 type  3   force =     0.05340475   -0.00000035   -0.33639738
     atom   10 type  2   force =     0.62599781   -0.00000037    0.77626836
     atom   11 type  2   force =    -0.14412680   -0.00000024   -0.85206443
     atom   12 type  1   force =     0.00002681   -0.00000007    0.00003598
     atom   13 type  1   force =    -0.16113434    0.00000025   -0.31327653
     atom   14 type  1   force =    -0.15824055    0.00000021    0.17891711
     atom   15 type  1   force =     0.15823500   -0.00000021   -0.17892241
     atom   16 type  1   force =     0.16114114   -0.00000025    0.31327677
     atom   17 type  2   force =     0.14414906   -0.00000024    0.85198419
     atom   18 type  2   force =    -0.62598475   -0.00000037   -0.77639232
     atom   19 type  3   force =    -0.05346898   -0.00000035    0.33642349
     atom   20 type  3   force =     0.05343066    0.00000035   -0.33641348
     atom   21 type  2   force =     0.62594897    0.00000037    0.77639758
     atom   22 type  2   force =    -0.14409470    0.00000024   -0.85199903
     The local contribution  to forces
     atom    1 type  1   force =    -0.00001093   -0.00000009    0.00003176
     atom    2 type  1   force =     0.14825239    0.00000094    0.31358684
     atom    3 type  1   force =     0.15039288    0.00000169   -0.18872842
     atom    4 type  1   force =    -0.15038619   -0.00000182    0.18873341
     atom    5 type  1   force =    -0.14825734   -0.00000103   -0.31358658
     atom    6 type  2   force =    -0.12422319   -0.00000100   -0.80362703
     atom    7 type  2   force =     0.61126974   -0.00000223    0.75732862
     atom    8 type  3   force =     0.04761227   -0.00000155   -0.32696182
     atom    9 type  3   force =    -0.04757278    0.00000154    0.32695285
     atom   10 type  2   force =    -0.61123242    0.00000242   -0.75733440
     atom   11 type  2   force =     0.12416917    0.00000103    0.80364259
     atom   12 type  1   force =    -0.00003164    0.00000011   -0.00004152
     atom   13 type  1   force =     0.14838883    0.00000038    0.31356627
     atom   14 type  1   force =     0.15047775    0.00000096   -0.18882395
     atom   15 type  1   force =    -0.15047080   -0.00000089    0.18883035
     atom   16 type  1   force =    -0.14839393   -0.00000026   -0.31356665
     atom   17 type  2   force =    -0.12419286   -0.00000049   -0.80357650
     atom   18 type  2   force =     0.61123501   -0.00000192    0.75743519
     atom   19 type  3   force =     0.04764103   -0.00000087   -0.32697683
     atom   20 type  3   force =    -0.04760199    0.00000083    0.32696709
     atom   21 type  2   force =    -0.61119850    0.00000176   -0.75744086
     atom   22 type  2   force =     0.12413873    0.00000051    0.80359254
     The core correction contribution to forces
     atom    1 type  1   force =    -0.00000017   -0.00000001    0.00000153
     atom    2 type  1   force =    -0.00168481    0.00000008    0.00054956
     atom    3 type  1   force =    -0.00065977    0.00000015   -0.00155523
     atom    4 type  1   force =     0.00065997   -0.00000016    0.00155534
     atom    5 type  1   force =     0.00168509   -0.00000009   -0.00054961
     atom    6 type  2   force =     0.00215103   -0.00000004    0.00536934
     atom    7 type  2   force =    -0.00160762   -0.00000007   -0.00203613
     atom    8 type  3   force =    -0.00061896   -0.00000011    0.00092181
     atom    9 type  3   force =     0.00061925    0.00000011   -0.00092177
     atom   10 type  2   force =     0.00161356    0.00000008    0.00203310
     atom   11 type  2   force =    -0.00216494    0.00000005   -0.00536804
     atom   12 type  1   force =    -0.00000086    0.00000001   -0.00000163
     atom   13 type  1   force =    -0.00168061    0.00000006    0.00054744
     atom   14 type  1   force =    -0.00065852    0.00000010   -0.00155692
     atom   15 type  1   force =     0.00065877   -0.00000009    0.00155711
     atom   16 type  1   force =     0.00168092   -0.00000005   -0.00054750
     atom   17 type  2   force =     0.00214951   -0.00000003    0.00536745
     atom   18 type  2   force =    -0.00160518   -0.00000009   -0.00204032
     atom   19 type  3   force =    -0.00061745   -0.00000008    0.00092078
     atom   20 type  3   force =     0.00061776    0.00000008   -0.00092072
     atom   21 type  2   force =     0.00161101    0.00000007    0.00203731
     atom   22 type  2   force =    -0.00216348    0.00000003   -0.00536614
     The Hubbard contrib.    to forces
     atom    1 type  1   force =     0.00000000    0.00000000    0.00000000
     atom    2 type  1   force =     0.00000000    0.00000000    0.00000000
     atom    3 type  1   force =     0.00000000    0.00000000    0.00000000
     atom    4 type  1   force =     0.00000000    0.00000000    0.00000000
     atom    5 type  1   force =     0.00000000    0.00000000    0.00000000
     atom    6 type  2   force =     0.00000000    0.00000000    0.00000000
     atom    7 type  2   force =     0.00000000    0.00000000    0.00000000
     atom    8 type  3   force =     0.00000000    0.00000000    0.00000000
     atom    9 type  3   force =     0.00000000    0.00000000    0.00000000
     atom   10 type  2   force =     0.00000000    0.00000000    0.00000000
     atom   11 type  2   force =     0.00000000    0.00000000    0.00000000
     atom   12 type  1   force =     0.00000000    0.00000000    0.00000000
     atom   13 type  1   force =     0.00000000    0.00000000    0.00000000
     atom   14 type  1   force =     0.00000000    0.00000000    0.00000000
     atom   15 type  1   force =     0.00000000    0.00000000    0.00000000
     atom   16 type  1   force =     0.00000000    0.00000000    0.00000000
     atom   17 type  2   force =     0.00000000    0.00000000    0.00000000
     atom   18 type  2   force =     0.00000000    0.00000000    0.00000000
     atom   19 type  3   force =     0.00000000    0.00000000    0.00000000
     atom   20 type  3   force =     0.00000000    0.00000000    0.00000000
     atom   21 type  2   force =     0.00000000    0.00000000    0.00000000
     atom   22 type  2   force =     0.00000000    0.00000000    0.00000000
     The SCF correction term to forces
     atom    1 type  1   force =    -0.00000001   -0.00000000    0.00000000
     atom    2 type  1   force =     0.00000005   -0.00000000    0.00000004
     atom    3 type  1   force =    -0.00000000   -0.00000000   -0.00000003
     atom    4 type  1   force =     0.00000000    0.00000000    0.00000003
     atom    5 type  1   force =    -0.00000005    0.00000000   -0.00000004
     atom    6 type  2   force =    -0.00000002    0.00000001   -0.00000017
     atom    7 type  2   force =     0.00000009    0.00000001    0.00000029
     atom    8 type  3   force =     0.00000002    0.00000000   -0.00000016
     atom    9 type  3   force =    -0.00000003   -0.00000000    0.00000016
     atom   10 type  2   force =    -0.00000011   -0.00000000   -0.00000029
     atom   11 type  2   force =     0.00000004   -0.00000001    0.00000016
     atom   12 type  1   force =     0.00000002    0.00000000    0.00000000
     atom   13 type  1   force =     0.00000008   -0.00000000    0.00000004
     atom   14 type  1   force =     0.00000002   -0.00000000   -0.00000003
     atom   15 type  1   force =    -0.00000002    0.00000000    0.00000003
     atom   16 type  1   force =    -0.00000008    0.00000000   -0.00000004
     atom   17 type  2   force =     0.00000003    0.00000001   -0.00000017
     atom   18 type  2   force =     0.00000014   -0.00000000    0.00000029
     atom   19 type  3   force =     0.00000004   -0.00000000   -0.00000016
     atom   20 type  3   force =    -0.00000003    0.00000000    0.00000016
     atom   21 type  2   force =    -0.00000013   -0.00000000   -0.00000029
     atom   22 type  2   force =    -0.00000004   -0.00000001    0.00000017

     Total force =     0.003875     Total SCF correction =     0.000001


     Computing stress (Cartesian axis) and pressure

          total   stress  (Ry/bohr**3)                   (kbar)     P=   -3.30
  -0.00001637   0.00000000  -0.00000952         -2.41      0.00     -1.40
   0.00000000  -0.00001190   0.00000000          0.00     -1.75      0.00
  -0.00000952   0.00000000  -0.00003900         -1.40      0.00     -5.74

     kinetic stress (kbar)   1353.21      0.00    -15.26
                                0.00   1371.59      0.00
                              -15.26      0.00   1354.35

     local   stress (kbar)    -95.33      0.00    -56.00
                                0.00     58.78      0.00
                              -56.00      0.00    152.54

     nonloc. stress (kbar)   1078.68     -0.00     -0.57
                               -0.00   1066.48      0.00
                               -0.57      0.00   1074.20

     hartree stress (kbar)    182.07     -0.00      2.93
                               -0.00    167.11      0.00
                                2.93      0.00     92.56

     exc-cor stress (kbar)   1447.07     -0.00      0.08
                               -0.00   1446.41      0.00
                                0.08      0.00   1446.65

     corecor stress (kbar)  -2144.19      0.00      0.34
                                0.00  -2142.54     -0.00
                                0.34     -0.00  -2143.45

     ewald   stress (kbar)  -1823.91     -0.00     67.09
                               -0.00  -1969.58      0.00
                               67.09      0.00  -1982.59

     hubbard stress (kbar)      0.00      0.00      0.00
                                0.00      0.00      0.00
                                0.00      0.00      0.00

     london  stress (kbar)      0.00      0.00      0.00
                                0.00      0.00      0.00
                                0.00      0.00      0.00

     DFT-D3  stress (kbar)      0.00      0.00      0.00
                                0.00      0.00      0.00
                                0.00      0.00      0.00

     XDM     stress (kbar)      0.00      0.00      0.00
                                0.00      0.00      0.00
                                0.00      0.00      0.00

     dft-nl  stress (kbar)      0.00      0.00      0.00
                                0.00      0.00      0.00
                                0.00      0.00      0.00

     TS-vdW  stress (kbar)      0.00      0.00      0.00
                                0.00      0.00      0.00
                                0.00      0.00      0.00



     Writing output data file aiida.save/
 
     init_run     :     23.78s CPU     24.25s WALL (       1 calls)
     electrons    :    863.08s CPU    876.41s WALL (       1 calls)
     forces       :      9.35s CPU      9.44s WALL (       1 calls)
     stress       :     65.82s CPU     65.91s WALL (       1 calls)

     Called by init_run:
     wfcinit      :     21.14s CPU     21.54s WALL (       1 calls)
     wfcinit:atom :      0.17s CPU      0.19s WALL (     196 calls)
     wfcinit:wfcr :     19.62s CPU     19.93s WALL (     196 calls)
     potinit      :      0.91s CPU      0.92s WALL (       1 calls)
     hinit0       :      1.54s CPU      1.56s WALL (       1 calls)

     Called by electrons:
     c_bands      :    767.83s CPU    777.97s WALL (      20 calls)
     sum_band     :     88.16s CPU     90.31s WALL (      20 calls)
     v_of_rho     :      1.94s CPU      2.03s WALL (      21 calls)
     v_h          :      0.13s CPU      0.14s WALL (      21 calls)
     v_xc         :      1.96s CPU      2.05s WALL (      23 calls)
     newd         :      1.73s CPU      2.64s WALL (      21 calls)
     PAW_pot      :      2.68s CPU      2.69s WALL (      21 calls)
     mix_rho      :      0.69s CPU      0.72s WALL (      20 calls)

     Called by c_bands:
     init_us_2    :     28.04s CPU     28.44s WALL (    8428 calls)
     cegterg      :    598.40s CPU    605.99s WALL (    3920 calls)

     Called by sum_band:
     sum_band:bec :      0.53s CPU      0.53s WALL (    3920 calls)
     addusdens    :      1.64s CPU      2.62s WALL (      20 calls)

     Called by *egterg:
     h_psi        :    415.03s CPU    421.45s WALL (   17544 calls)
     s_psi        :     62.50s CPU     62.61s WALL (   17544 calls)
     g_psi        :      2.88s CPU      2.90s WALL (   13428 calls)
     cdiaghg      :     61.50s CPU     62.47s WALL (   17348 calls)
     cegterg:over :     28.06s CPU     28.20s WALL (   13428 calls)
     cegterg:upda :     24.56s CPU     24.76s WALL (   13428 calls)
     cegterg:last :     10.24s CPU     10.30s WALL (    4412 calls)
     cdiaghg:chol :      3.84s CPU      3.87s WALL (   17348 calls)
     cdiaghg:inve :      0.84s CPU      0.85s WALL (   17348 calls)
     cdiaghg:para :      7.82s CPU      7.87s WALL (   34696 calls)

     Called by h_psi:
     h_psi:pot    :    412.94s CPU    419.34s WALL (   17544 calls)
     h_psi:calbec :     59.93s CPU     60.62s WALL (   17544 calls)
     vloc_psi     :    289.55s CPU    295.15s WALL (   17544 calls)
     add_vuspsi   :     63.29s CPU     63.44s WALL (   17544 calls)

     General routines
     calbec       :     84.35s CPU     85.29s WALL (   22444 calls)
     fft          :      1.63s CPU      1.71s WALL (     297 calls)
     ffts         :      0.24s CPU      0.25s WALL (     328 calls)
     fftw         :    307.96s CPU    313.72s WALL ( 1008040 calls)
     interpolate  :      0.17s CPU      0.17s WALL (      21 calls)
 
     Parallel routines
     fft_scatt_xy :     39.42s CPU     40.16s WALL ( 1008665 calls)
     fft_scatt_yz :    118.18s CPU    120.54s WALL ( 1008665 calls)

     PAW routines
     PAW_pot      :      2.68s CPU      2.69s WALL (      21 calls)
 
     PWSCF        :  16m25.61s CPU  17m 1.97s WALL

 
   This run was terminated on:  14:29:24  22Feb2020            

=------------------------------------------------------------------------------=
   JOB DONE.
=------------------------------------------------------------------------------=
