begin
comment 4 atoms, species Al3Mg
lattice      7.7107468946     0.0000000000     0.0000000000
lattice      0.0000000000     7.7107468946     0.0000000000
lattice      0.0000000000     0.0000000000     7.7107468946
atom      0.1110272509     3.9266228225     3.8570727530   Al  0.0 0.0       0.0003057852     0.0003325931    -0.0001032740
atom      3.9790240933     0.0900345863     3.8563537255   Al  0.0 0.0      -0.0002819281    -0.0005127236    -0.0000683516
atom      3.9698100722     3.9372435385     7.6971764898   Al  0.0 0.0       0.0001663376    -0.0001840018     0.0005673425
atom      0.1223575836     0.0702631581     0.0081900317   Mg  0.0 0.0      -0.0001901947     0.0003641324    -0.0003957169
energy -76.0615292265
charge 0.0000
end
begin
comment 4 atoms, species Mg4
lattice      7.5109068973     0.0000000000     0.0000000000
lattice      0.0000000000     7.5109068973     0.0000000000
lattice      0.0000000000     0.0000000000     7.5109068973
atom      0.0000000000     0.0000000000     0.0000000000   Mg  0.0 0.0      -0.0000000397    -0.0000000397    -0.0000000397
atom      3.7554530000     3.7554530000     0.0000000000   Mg  0.0 0.0       0.0000000397     0.0000000397    -0.0000000397
atom      3.7554530000     0.0000000000     3.7554530000   Mg  0.0 0.0       0.0000000397    -0.0000000397     0.0000000397
atom      0.0000000000     3.7554530000     3.7554530000   Mg  0.0 0.0      -0.0000000397     0.0000000397     0.0000000397
energy -67.1603794256
charge 0.0000
end
