begin
comment uuid: 214987d9-9043-440d-af0a-812ec59364b7 parent_uuid: 00284ee1-6af0-439a-857f-64d2dfa5a7e3 trajectory_step: final_scf
lattice     27.4841493030     0.0000000002    -7.8194519869
lattice     -0.0000000003    23.3986497144    -0.0000000009
lattice     -0.3015483366    -0.0000000008    24.9774527072
atom     -0.1102829428     0.0000000235    12.3347514469   Si  0.0 0.0    2.30577275e-10 -1.92931762e-14  4.29752656e-11
atom      1.9823359934     3.8961224637     3.5988117424   Mg  0.0 0.0    3.28134402e-08  1.48398691e-07 -2.68438119e-07
atom      4.1400660152     3.9814577724    10.0027301273   Mg  0.0 0.0   -1.93431234e-08 -3.82905284e-07 -1.90903061e-08
atom      9.5475968722     0.0000000240    -1.7787747087   Mg  0.0 0.0    2.32757974e-07  1.17458751e-14 -8.14858993e-08
atom     11.6902731521     0.0000000237     4.6971974542   Mg  0.0 0.0    3.04969359e-08 -1.14153015e-14 -4.62076303e-08
atom      1.4792052047     0.0000000235     7.8498637896   Si  0.0 0.0    4.34794116e-09  5.65153279e-15 -6.07458316e-07
atom      5.0106623123     0.0000000239     1.1173208549   Si  0.0 0.0   -1.15657966e-10  2.40563960e-14 -4.12475115e-07
atom      5.7860539902     0.0000000237     5.9171436983   Al  0.0 0.0   -5.24307638e-08 -6.06364092e-15 -7.61593645e-08
atom      7.8156039136     3.8831518025     2.4146154577   Al  0.0 0.0    4.05218446e-07  1.64078651e-08 -4.97085459e-07
atom      8.6546617578     3.9010083158     7.1592829691   Si  0.0 0.0    1.52449197e-07 -1.06249508e-07 -4.78136267e-08
atom     12.1755672475     3.8942426009     0.5614287024   Si  0.0 0.0   -9.17456739e-08  5.60163193e-08  3.83959775e-07
atom     13.6317917707     3.9030997780     8.4250254316   Al  0.0 0.0   -1.78035323e-10 -5.79886690e-08  2.57828469e-10
atom     15.7321019389     0.0000000240    -0.3445873119   Mg  0.0 0.0    2.55081934e-08  1.47888806e-15  7.16709085e-08
atom     17.8995765962     0.0000000237     6.1110611999   Mg  0.0 0.0    1.92058211e-07  1.19823299e-14 -1.96067986e-08
atom     23.3142806962     3.8575653318    -5.6549563368   Mg  0.0 0.0   -1.04157381e-07  2.56358132e-07  8.16746430e-08
atom     25.4820369294     3.9490968645     0.8735800548   Mg  0.0 0.0   -3.20230959e-07 -3.51931354e-07 -8.44066378e-07
atom     15.2491390452     3.8903584086     3.7925667396   Si  0.0 0.0    1.14854573e-07 -5.50277107e-08 -3.03398869e-07
atom     18.7730159763     3.8778486501    -2.7874598089   Si  0.0 0.0   -1.20210526e-07  1.86454447e-07 -1.73915785e-07
atom     19.6398801014     3.8499128868     1.9769694629   Al  0.0 0.0   -2.34743452e-07  1.26249528e-07  2.41466719e-07
atom     21.6279756188     0.0000000240    -1.4271279835   Al  0.0 0.0    8.85071428e-08 -1.38355832e-14 -6.08546362e-07
atom     22.5568577643     0.0000000238     3.3226668774   Si  0.0 0.0   -2.71222649e-08  4.93548613e-15 -2.80525254e-07
atom     25.9741436780     0.0000000242    -3.2696155781   Si  0.0 0.0   -2.93499216e-07  1.01214765e-14  1.38372604e-07
atom     -0.2610570448     0.0000000231    24.8234777894   Al  0.0 0.0   -2.44035851e-10 -6.90460738e-15  1.90584814e-10
atom      1.7815465986     3.9490968516    15.9764708132   Mg  0.0 0.0    3.20404037e-07 -3.51903781e-07  8.44127112e-07
atom      3.9493028565     3.8575653272    22.5050072160   Mg  0.0 0.0    1.04157802e-07  2.56379561e-07 -8.18750153e-08
atom      9.3640069342     0.0000000236    10.7389896783   Mg  0.0 0.0   -1.91930751e-07  1.09613050e-14  1.93583867e-08
atom     11.5314815998     0.0000000233    17.1946381740   Mg  0.0 0.0   -2.53646800e-08  1.69144127e-15 -7.16436456e-08
atom      1.2894398683     0.0000000231    20.1196664750   Si  0.0 0.0    2.94196505e-07  1.19827653e-14 -1.38984304e-07
atom      4.7067257387     0.0000000235    13.5273839772   Si  0.0 0.0    2.72978310e-08  2.95744335e-15  2.80948523e-07
atom      5.6356079244     0.0000000233    18.2771788405   Al  0.0 0.0   -8.92598535e-08 -1.33710310e-14  6.08618393e-07
atom      7.6237034400     3.8499128755    14.8730813960   Al  0.0 0.0    2.34094686e-07  1.26334674e-07 -2.41386820e-07
atom      8.4905675680     3.8778486407    19.6375106643   Si  0.0 0.0    1.20296853e-07  1.86541658e-07  1.74378016e-07
atom     12.0144444905     3.8903584088    13.0574841340   Si  0.0 0.0   -1.14219889e-07 -5.50243914e-08  3.02720884e-07
atom     13.4810176042     3.9060687647    20.9137517801   Al  0.0 0.0   -1.40332945e-10 -1.32072700e-07  3.24828968e-10
atom     15.5733103822     0.0000000236    12.1528534125   Mg  0.0 0.0   -3.03175455e-08 -1.06732784e-14  4.63117316e-08
atom     17.7159866664     0.0000000232    18.6288255801   Mg  0.0 0.0   -2.32684302e-07  1.39378472e-14  8.13517607e-08
atom     23.1235175253     3.9814577613     6.8473207436   Mg  0.0 0.0    1.94676389e-08 -3.82878198e-07  1.89180007e-08
atom     25.2812475481     3.8961224607    13.2512391383   Mg  0.0 0.0   -3.26329291e-08  1.48428806e-07  2.68460602e-07
atom     15.0880162954     3.8942426010    16.2886221640   Si  0.0 0.0    9.22984554e-08  5.60010258e-08 -3.84535598e-07
atom     18.6089217814     3.9010083205     9.6907678941   Si  0.0 0.0   -1.52350795e-07 -1.06236203e-07  4.83430943e-08
atom     19.4479796417     3.8831518073    14.4354354108   Al  0.0 0.0   -4.05986036e-07  1.62911249e-08  4.96997612e-07
atom     21.4775295385     0.0000000236    10.9329071921   Al  0.0 0.0    5.15911807e-08 -6.78698218e-15  7.61121625e-08
atom     22.2529212292     0.0000000234    15.7327300299   Si  0.0 0.0    2.26453719e-10  2.48496520e-14  4.12758515e-07
atom     25.7843783114     0.0000000238     9.0001871437   Si  0.0 0.0   -3.52057337e-09  4.43332925e-15  6.06681314e-07
atom     -0.1102828755     7.9256025732    12.3347514280   Al  0.0 0.0   -1.96938619e-10 -1.93776369e-06  2.01152638e-10
atom      1.9797549797    11.6993248810     3.5633975716   Mg  0.0 0.0    2.14702104e-07 -5.78288633e-15  2.69705357e-07
atom      4.1390325608    11.6993248807    10.0437019914   Mg  0.0 0.0   -2.89522483e-07 -5.73735525e-15 -7.50363310e-08
atom      9.5591096362     7.7834337819    -1.7660393932   Mg  0.0 0.0    1.48961091e-07  1.33784591e-07  7.79787660e-08
atom     11.6841139552     7.8029311798     4.6712089913   Mg  0.0 0.0    1.24547523e-07 -2.63175403e-08 -2.34869229e-08
atom      1.5030502213     7.8500939031     7.6861946796   Si  0.0 0.0    2.57400638e-07 -2.93225752e-07 -4.47600488e-07
atom      5.0138494548     7.7814886383     1.0908052451   Si  0.0 0.0   -6.64162735e-08  1.04217045e-07 -8.60097665e-08
atom      5.8602276618     7.8128122503     5.8408631532   Al  0.0 0.0   -1.84924314e-07 -9.36582142e-08  4.80209993e-07
atom      7.8195355892    11.6993248811     2.3844098576   Al  0.0 0.0    4.61722279e-07  7.28535149e-15 -4.86406215e-07
atom      8.6671545892    11.6993248809     7.1485500476   Si  0.0 0.0    1.15816968e-07 -2.68041230e-14  9.29214847e-08
atom     12.1730754157    11.6993248812     0.5441048834   Si  0.0 0.0   -1.62531005e-08 -4.62411287e-15  5.48472172e-07
atom     13.6317917772    11.6993248808     8.4250254234   Al  0.0 0.0   -2.37641437e-10  7.51434749e-15  2.68751334e-10
atom     15.7367960882     7.7875432223    -0.3240566731   Mg  0.0 0.0    1.48844216e-07  1.10704641e-07  8.88014672e-08
atom     17.8327464173     7.8076368081     6.1253552736   Mg  0.0 0.0    1.34822515e-07 -9.93585246e-08  6.51463639e-11
atom     23.3002002381    11.6993248813    -5.6828737674   Mg  0.0 0.0   -7.24310660e-08 -2.06842552e-14  1.39282600e-07
atom     25.3881807502    11.6993248810     0.7387084048   Mg  0.0 0.0    7.57775595e-07 -1.55179549e-14  1.18698614e-06
atom     15.2218577016    11.6993248808     3.7889724253   Si  0.0 0.0    2.74743296e-07  8.62549129e-15 -3.16794954e-07
atom     18.7534536322    11.6993248812    -2.8230663592   Si  0.0 0.0    5.19636562e-08  2.17297258e-15  3.23905689e-09
atom     19.5702690791    11.6993248810     1.9351303418   Al  0.0 0.0   -1.32543387e-07 -4.05995086e-14  5.74647913e-07
atom     21.5520033941     7.7874020687    -1.5121766403   Al  0.0 0.0    5.88759831e-07  1.60511936e-07 -2.07985054e-07
atom     22.3716265436     7.8194812313     3.2437218427   Si  0.0 0.0    2.00352445e-07 -1.59596386e-07  2.61561060e-07
atom     25.9055074650     7.7936503313    -3.3556217259   Si  0.0 0.0   -2.34886082e-08  1.96700159e-07  4.88555551e-07
atom     -0.2610570413     7.7756290722    24.8234777819   Al  0.0 0.0   -1.96515021e-10  4.34261394e-07  2.01125103e-10
atom      1.8754027937    11.6993248806    16.1113424672   Mg  0.0 0.0   -7.57596477e-07 -1.38942531e-14 -1.18689193e-06
atom      3.9633833106    11.6993248803    22.5329246333   Mg  0.0 0.0    7.24619107e-08 -1.83474487e-14 -1.39414488e-07
atom      9.4308371206     7.8076368045    10.7246955893   Mg  0.0 0.0   -1.34681526e-07 -9.93106120e-08 -1.96611745e-10
atom     11.5267874497     7.7875432200    17.1741075204   Mg  0.0 0.0   -1.48662212e-07  1.10743284e-07 -8.86301440e-08
atom      1.3580760820     7.7936503235    20.2056726027   Si  0.0 0.0    2.39547328e-08  1.96749804e-07 -4.89105384e-07
atom      4.8919570009     7.8194812304    13.6063290244   Si  0.0 0.0   -2.00268116e-07 -1.59580440e-07 -2.61096310e-07
atom      5.7115801602     7.7874020591    18.3622275074   Al  0.0 0.0   -5.89536120e-07  1.60628851e-07  2.07829101e-07
atom      7.6933144741    11.6993248806    14.9149205161   Al  0.0 0.0    1.31792791e-07 -3.96480080e-14 -5.74617738e-07
atom      8.5101299133    11.6993248805    19.6731172108   Si  0.0 0.0   -5.18490694e-08  2.48233350e-15 -2.69291316e-09
atom     12.0417258394    11.6993248808    13.0610784285   Si  0.0 0.0   -2.74256269e-07  5.70056103e-15  3.16280515e-07
atom     13.4810176061    11.6993248804    20.9137517743   Al  0.0 0.0   -1.65441535e-10 -5.87562096e-15  2.76508180e-10
atom     15.5794695848     7.8029311815    12.1788418606   Mg  0.0 0.0   -1.24360068e-07 -2.64011654e-08  2.36434047e-08
atom     17.7044739096     7.7834337867    18.6160902498   Mg  0.0 0.0   -1.48895012e-07  1.33730050e-07 -7.80457834e-08
atom     23.1245509907    11.6993248809     6.8063488813   Mg  0.0 0.0    2.89566917e-07 -5.30997072e-15  7.48212745e-08
atom     25.2838285725    11.6993248806    13.2866532972   Mg  0.0 0.0   -2.14631557e-07 -7.02138163e-15 -2.69647166e-07
atom     15.0905081278    11.6993248804    16.3059459674   Si  0.0 0.0    1.66790440e-08 -4.88869661e-15 -5.48863395e-07
atom     18.5964289629    11.6993248807     9.7015008055   Si  0.0 0.0   -1.15758620e-07 -2.60697875e-14 -9.23955585e-08
atom     19.4440479680    11.6993248806    14.4656409981   Al  0.0 0.0   -4.62412514e-07  7.64777186e-15  4.86411027e-07
atom     21.4033558934     7.8128122490    11.0091877131   Al  0.0 0.0    1.84146132e-07 -9.36429657e-08 -4.80281330e-07
atom     22.2497340978     7.7814886402    15.7592456177   Si  0.0 0.0    6.64584022e-08  1.04195064e-07  8.64717119e-08
atom     25.7605333238     7.8500938979     9.1638561975   Si  0.0 0.0   -2.56885930e-07 -2.93225680e-07  4.46957544e-07
atom     -0.1102828756    15.4730471882    12.3347514277   Al  0.0 0.0   -1.96938775e-10  1.93776367e-06  2.01152427e-10
atom      1.9823359932    19.5025272984     3.5988117419   Mg  0.0 0.0    3.28134460e-08 -1.48398695e-07 -2.68438118e-07
atom      4.1400660150    19.4171919891    10.0027301267   Mg  0.0 0.0   -1.93431243e-08  3.82905236e-07 -1.90902871e-08
atom      9.5591096361    15.6152159805    -1.7660393935   Mg  0.0 0.0    1.48961092e-07 -1.33784574e-07  7.79787571e-08
atom     11.6841139551    15.5957185820     4.6712089910   Mg  0.0 0.0    1.24547532e-07  2.63175581e-08 -2.34869265e-08
atom      1.5030502212    15.5485558583     7.6861946794   Si  0.0 0.0    2.57400661e-07  2.93225751e-07 -4.47600519e-07
atom      5.0138494547    15.6171611238     1.0908052448   Si  0.0 0.0   -6.64162688e-08 -1.04217045e-07 -8.60097332e-08
atom      5.8602276617    15.5858375115     5.8408631530   Al  0.0 0.0   -1.84924323e-07  9.36582529e-08  4.80209961e-07
atom      7.8156039134    19.5154979596     2.4146154571   Al  0.0 0.0    4.05218470e-07 -1.64078749e-08 -4.97085381e-07
atom      8.6546617576    19.4976414460     7.1592829685   Si  0.0 0.0    1.52449183e-07  1.06249505e-07 -4.78137073e-08
atom     12.1755672473    19.5044071616     0.5614287019   Si  0.0 0.0   -9.17456830e-08 -5.60163471e-08  3.83959753e-07
atom     13.6317917705    19.4955499836     8.4250254310   Al  0.0 0.0   -1.78035471e-10  5.79886876e-08  2.57828006e-10
atom     15.7367960881    15.6111065400    -0.3240566734   Mg  0.0 0.0    1.48844209e-07 -1.10704636e-07  8.88014617e-08
atom     17.8327464172    15.5910129535     6.1253552734   Mg  0.0 0.0    1.34822501e-07  9.93585414e-08  6.51330127e-11
atom     23.3142806961    19.5410844308    -5.6549563374   Mg  0.0 0.0   -1.04157384e-07 -2.56358164e-07  8.16746599e-08
atom     25.4820369292    19.4495528975     0.8735800543   Mg  0.0 0.0   -3.20230966e-07  3.51931403e-07 -8.44066372e-07
atom     15.2491390450    19.5082913530     3.7925667390   Si  0.0 0.0    1.14854536e-07  5.50277045e-08 -3.03398827e-07
atom     18.7730159761    19.5208011122    -2.7874598095   Si  0.0 0.0   -1.20210511e-07 -1.86454485e-07 -1.73915773e-07
atom     19.6398801012    19.5487368752     1.9769694623   Al  0.0 0.0   -2.34743425e-07 -1.26249516e-07  2.41466687e-07
atom     21.5520033940    15.6112476936    -1.5121766406   Al  0.0 0.0    5.88759795e-07 -1.60511916e-07 -2.07985140e-07
atom     22.3716265436    15.5791685307     3.2437218425   Si  0.0 0.0    2.00352477e-07  1.59596431e-07  2.61561154e-07
atom     25.9055074649    15.6049994314    -3.3556217261   Si  0.0 0.0   -2.34886009e-08 -1.96700140e-07  4.88555567e-07
atom     -0.2610570415    15.6230206885    24.8234777817   Al  0.0 0.0   -1.96514377e-10 -4.34261395e-07  2.01123589e-10
atom      1.7815465984    19.4495529097    15.9764708127   Mg  0.0 0.0    3.20404042e-07  3.51903830e-07  8.44127104e-07
atom      3.9493028563    19.5410844334    22.5050072154   Mg  0.0 0.0    1.04157804e-07 -2.56379593e-07 -8.18750315e-08
atom      9.4308371205    15.5910129572    10.7246955891   Mg  0.0 0.0   -1.34681511e-07  9.93106276e-08 -1.96598547e-10
atom     11.5267874496    15.6111065410    17.1741075201   Mg  0.0 0.0   -1.48662208e-07 -1.10743278e-07 -8.86301375e-08
atom      1.3580760819    15.6049994371    20.2056726024   Si  0.0 0.0    2.39547255e-08 -1.96749782e-07 -4.89105401e-07
atom      4.8919570008    15.5791685309    13.6063290241   Si  0.0 0.0   -2.00268149e-07  1.59580486e-07 -2.61096404e-07
atom      5.7115801601    15.6112477018    18.3622275071   Al  0.0 0.0   -5.89536083e-07 -1.60628832e-07  2.07829186e-07
atom      7.6237034398    19.5487368858    14.8730813954   Al  0.0 0.0    2.34094660e-07 -1.26334665e-07 -2.41386790e-07
atom      8.4905675678    19.5208011203    19.6375106637   Si  0.0 0.0    1.20296838e-07 -1.86541696e-07  1.74378005e-07
atom     12.0144444904    19.5082913529    13.0574841334   Si  0.0 0.0   -1.14219858e-07  5.50243840e-08  3.02720840e-07
atom     13.4810176041    19.4925809962    20.9137517795   Al  0.0 0.0   -1.40334050e-10  1.32072713e-07  3.24827559e-10
atom     15.5794695847    15.5957185799    12.1788418603   Mg  0.0 0.0   -1.24360076e-07  2.64011828e-08  2.36434074e-08
atom     17.7044739095    15.6152159741    18.6160902495   Mg  0.0 0.0   -1.48895015e-07 -1.33730030e-07 -7.80457733e-08
atom     23.1235175252    19.4171920005     6.8473207430   Mg  0.0 0.0    1.94676387e-08  3.82878147e-07  1.89179832e-08
atom     25.2812475479    19.5025273005    13.2512391378   Mg  0.0 0.0   -3.26329331e-08 -1.48428809e-07  2.68460596e-07
atom     15.0880162952    19.5044071597    16.2886221634   Si  0.0 0.0    9.22984640e-08 -5.60010489e-08 -3.84535572e-07
atom     18.6089217812    19.4976414410     9.6907678935   Si  0.0 0.0   -1.52350782e-07  1.06236199e-07  4.83431726e-08
atom     19.4479796415    19.5154979538    14.4354354102   Al  0.0 0.0   -4.05986057e-07 -1.62911338e-08  4.96997533e-07
atom     21.4033558934    15.5858375125    11.0091877128   Al  0.0 0.0    1.84146140e-07  9.36430043e-08 -4.80281299e-07
atom     22.2497340977    15.6171611210    15.7592456174   Si  0.0 0.0    6.64583977e-08 -1.04195063e-07  8.64716760e-08
atom     25.7605333238    15.5485558640     9.1638561972   Si  0.0 0.0   -2.56885958e-07  2.93225676e-07  4.46957573e-07
energy -1.778058931163145e+03
charge 0.0000
end
begin
comment uuid: 214987d9-9043-440d-af0a-812ec59364b7 parent_uuid: 00284ee1-6af0-439a-857f-64d2dfa5a7e3 trajectory_step: final_scf
lattice     27.4841493030     0.0000000002    -7.8194519869
lattice     -0.0000000003    23.3986497144    -0.0000000009
lattice     -0.3015483366    -0.0000000008    24.9774527072
atom     -0.1102828877     0.0000000235    12.3347513667   Mg  0.0 0.0   -2.68681210e-10 -1.90996745e-13  1.05919836e-09
atom      1.9857005734     3.9014490353     3.5757547841   Mg  0.0 0.0   -4.24946375e-07 -9.14988909e-08  1.19255241e-07
atom      4.1348189967     3.8935787314    10.0081242649   Mg  0.0 0.0   -2.04647485e-08 -4.12686605e-07 -2.16355370e-07
atom      9.5682519055     0.0000000240    -1.7735865122   Mg  0.0 0.0   -1.41438278e-07 -3.48220805e-13  7.01402301e-07
atom     11.6721860723     0.0000000237     4.6937651311   Mg  0.0 0.0    9.47397399e-07 -3.22059569e-13  9.08426148e-08
atom      1.4992057993     0.0000000236     7.5948230619   Si  0.0 0.0   -6.17981931e-07 -4.90601891e-13 -6.05702863e-07
atom      5.0282924943     0.0000000239     1.0760381936   Si  0.0 0.0    1.72503134e-06 -2.99163675e-13  5.81902058e-07
atom      5.8407319246     0.0000000237     5.8415409773   Al  0.0 0.0    8.63555868e-07 -3.94860937e-13  6.47329281e-07
atom      7.8174562339     3.9010258868     2.4119993390   Al  0.0 0.0   -9.29617806e-07  9.95753835e-08 -2.73889662e-07
atom      8.6600943778     3.8974856456     7.1695706730   Si  0.0 0.0   -1.03487172e-06  4.86510894e-08 -1.00251215e-07
atom     12.1676056625     3.9024262278     0.5585084628   Si  0.0 0.0   -5.84847063e-07 -1.43952692e-07  2.07967339e-07
atom     13.6317918199     3.8939763477     8.4250253767   Al  0.0 0.0   -8.29398172e-10  9.39367011e-08  9.54383580e-10
atom     15.7242279709     0.0000000240    -0.3205483759   Mg  0.0 0.0   -1.71151638e-07 -4.05780315e-13 -3.80883259e-07
atom     17.8426831094     0.0000000236     6.1235087280   Mg  0.0 0.0   -3.48907281e-07 -2.15283643e-13  4.57240660e-08
atom     23.2804032371     3.9277218425    -5.6845517573   Mg  0.0 0.0   -3.93597806e-07  3.37455720e-07 -7.36703285e-08
atom     25.3719810468     3.9270691124     0.6614881536   Mg  0.0 0.0    3.90195756e-07 -1.03240339e-06  1.12286457e-07
atom     15.2212917952     3.9025102505     3.8000616598   Si  0.0 0.0    7.53339761e-07  5.03713962e-08 -1.27524508e-07
atom     18.7432016091     3.9164784290    -2.8115218819   Si  0.0 0.0    1.06353582e-06  1.03164711e-07 -1.90305136e-07
atom     19.5698104854     3.9084685726     1.9453454037   Al  0.0 0.0    8.38523191e-07  3.59575176e-07  4.17065627e-07
atom     21.5318571322     0.0000000240    -1.5357506760   Al  0.0 0.0   -1.50892301e-06 -4.25196174e-13 -5.91725717e-07
atom     22.2970774347     0.0000000238     3.2000689774   Si  0.0 0.0    1.47965990e-07 -5.26876632e-13 -2.93795864e-07
atom     25.8832800959     0.0000000242    -3.4041722617   Si  0.0 0.0    6.94175931e-07 -3.85569562e-13  1.54332190e-06
atom     -0.2610570110     0.0000000232    24.8234777058   Al  0.0 0.0   -8.57360848e-10 -2.79185427e-13  1.54924191e-09
atom      1.8916025035     3.9270691139    16.1885625491   Mg  0.0 0.0   -3.89549989e-07 -1.03245285e-06 -1.09547006e-07
atom      3.9831801261     3.9277218499    22.5346027209   Mg  0.0 0.0    3.97046154e-07  3.37381638e-07  7.23054474e-08
atom      9.4209002433     0.0000000236    10.7265422582   Mg  0.0 0.0    3.52497941e-07 -2.16915771e-13 -4.72980993e-08
atom     11.5393555444     0.0000000233    17.1705991167   Mg  0.0 0.0    1.72055300e-07 -4.04727530e-13  3.82969699e-07
atom      1.3803034681     0.0000000231    20.2542230091   Si  0.0 0.0   -6.94727527e-07 -3.82413883e-13 -1.54153072e-06
atom      4.9665061030     0.0000000235    13.6499819941   Si  0.0 0.0   -1.48816013e-07 -5.23170953e-13  2.92183519e-07
atom      5.7317264795     0.0000000233    18.3858016656   Al  0.0 0.0    1.50793862e-06 -4.28789005e-13  5.89622567e-07
atom      7.6937731072     3.9084685564    14.9047055903   Al  0.0 0.0   -8.39508950e-07  3.59503789e-07 -4.18504754e-07
atom      8.5203819946     3.9164784293    19.6615728722   Si  0.0 0.0   -1.06507065e-06  1.03135308e-07  1.88031860e-07
atom     12.0422917337     3.9025102510    13.0499890868   Si  0.0 0.0   -7.53576914e-07  5.03532574e-08  1.29007410e-07
atom     13.4810176388     3.9046185873    20.9137517130   Al  0.0 0.0   -7.91318542e-10 -3.84837469e-07  1.40221715e-09
atom     15.5913974473     0.0000000236    12.1562856293   Mg  0.0 0.0   -9.46306630e-07 -3.20965973e-13 -8.91569156e-08
atom     17.6953314830     0.0000000232    18.6236374825   Mg  0.0 0.0    1.44493101e-07 -3.50660217e-13 -7.02839780e-07
atom     23.1287644465     3.8935787056     6.8419266609   Mg  0.0 0.0    2.26715696e-08 -4.12295179e-07  2.15534187e-07
atom     25.2778829579     3.9014490530    13.2742959232   Mg  0.0 0.0    4.25635039e-07 -9.17230246e-08 -1.16623996e-07
atom     15.0959778797     3.9024262215    16.2915422700   Si  0.0 0.0    5.84541679e-07 -1.43845797e-07 -2.06318890e-07
atom     18.6034892736     3.8974856550     9.6804803117   Si  0.0 0.0    1.03244276e-06  4.84373186e-08  9.77984206e-08
atom     19.4461273764     3.9010258847    14.4380516478   Al  0.0 0.0    9.28739956e-07  9.97303057e-08  2.72669022e-07
atom     21.4228516846     0.0000000236    11.0085100151   Al  0.0 0.0   -8.64421084e-07 -3.90254617e-13 -6.48790153e-07
atom     22.2352911248     0.0000000234    15.7740127948   Si  0.0 0.0   -1.72681761e-06 -2.97558417e-13 -5.84419699e-07
atom     25.7643777583     0.0000000237     9.2552277227   Si  0.0 0.0    6.17144118e-07 -4.94509782e-13  6.06330245e-07
atom     -0.1102828324     7.6424515350    12.3347513552   Al  0.0 0.0   -8.85875791e-10 -6.23767669e-07  1.22872165e-09
atom      1.9830290340    11.6993248810     3.5824034209   Mg  0.0 0.0   -5.88711465e-07  4.42777610e-13 -3.95176498e-07
atom      4.0979847867    11.6993248807    10.0518408477   Mg  0.0 0.0    2.86529870e-07  2.93637207e-13 -1.08719980e-06
atom      9.5513324719     7.8075795487    -1.7543567168   Mg  0.0 0.0   -1.61494780e-07  1.74661844e-07  4.41421745e-07
atom     11.6800132534     7.7997430213     4.6931168695   Mg  0.0 0.0    6.93348415e-07  1.89521494e-07  1.95339463e-09
atom      1.4945808076     7.8017004951     7.7084243608   Si  0.0 0.0    6.35145099e-07 -2.27297848e-08 -1.87633966e-07
atom      5.0178893369     7.8097732218     1.1146786009   Si  0.0 0.0    1.17585316e-06  1.89991820e-07  3.43350702e-07
atom      5.8524668834     7.8051009022     5.8679117050   Al  0.0 0.0    1.04783609e-06 -3.70381093e-08  6.34157576e-07
atom      7.8262012507    11.6993248811     2.4230614607   Al  0.0 0.0   -8.78791098e-07  3.05431288e-13 -5.97657023e-07
atom      8.6485482769    11.6993248809     7.1813487370   Si  0.0 0.0   -7.71632438e-07  4.53299679e-13 -5.66087751e-07
atom     12.1723732067    11.6993248812     0.5642944955   Si  0.0 0.0   -3.20215027e-07  3.29523351e-13  5.41508913e-07
atom     13.6317917887    11.6993248808     8.4250253650   Al  0.0 0.0   -5.52300372e-10  1.61499450e-13  1.11510015e-09
atom     15.7210574630     7.8025515179    -0.3252456171   Mg  0.0 0.0   -5.25696724e-07  2.49966293e-07 -5.93294675e-07
atom     17.8498302860     7.7995641042     6.1179718429   Mg  0.0 0.0    1.05231055e-08  1.60105572e-07 -2.39342491e-07
atom     23.2899176422    11.6993248813    -5.6768932734   Mg  0.0 0.0   -6.66611595e-07  2.88661310e-13  2.54561109e-07
atom     25.4595245677    11.6993248810     0.8573054239   Mg  0.0 0.0    3.54718715e-07  3.70212558e-13  7.62510409e-07
atom     15.2280283689    11.6993248808     3.7995828516   Si  0.0 0.0    3.79460017e-07  2.67652590e-13 -5.24266575e-07
atom     18.7457439293    11.6993248811    -2.8019936896   Si  0.0 0.0    9.61336400e-07  4.03330916e-13  1.54727842e-07
atom     19.5879810198    11.6993248810     1.9620655118   Al  0.0 0.0    9.18359930e-07  2.01681067e-13  4.99740873e-07
atom     21.5582277840     7.8221210978    -1.5015295356   Al  0.0 0.0   -9.26933593e-07  3.64696681e-07 -2.81142641e-07
atom     22.3923988202     7.7873420850     3.2623929801   Si  0.0 0.0   -1.35816156e-06 -1.71504401e-07  1.77192619e-07
atom     25.9163541481     7.8111170339    -3.3531747536   Si  0.0 0.0   -1.04280773e-06 -2.87719773e-07  1.39756430e-07
atom     -0.2610570155     7.7935489151    24.8234777089   Al  0.0 0.0   -7.36997174e-10 -7.07117555e-08  1.32592394e-09
atom      1.8040589398    11.6993248807    15.9927453247   Mg  0.0 0.0   -3.53593364e-07  3.71970944e-13 -7.60582574e-07
atom      3.9736657505    11.6993248803    22.5269442567   Mg  0.0 0.0    6.69608836e-07  2.90555556e-13 -2.56268661e-07
atom      9.4137530884     7.7995641120    10.7320791191   Mg  0.0 0.0   -7.19399314e-09  1.60063074e-07  2.37869715e-07
atom     11.5425260535     7.8025515172    17.1752963383   Mg  0.0 0.0    5.26653807e-07  2.49957061e-07  5.95601772e-07
atom      1.3472294094     7.8111170501    20.2032254896   Si  0.0 0.0    1.04208680e-06 -2.87932424e-07 -1.38321590e-07
atom      4.8711848014     7.7873420902    13.5876580092   Si  0.0 0.0    1.35612375e-06 -1.71550793e-07 -1.79569949e-07
atom      5.7053558366     7.8221211031    18.3515805247   Al  0.0 0.0    9.25847873e-07  3.64664838e-07  2.79978955e-07
atom      7.6756025822    11.6993248807    14.8879854891   Al  0.0 0.0   -9.19209681e-07  2.03816556e-13 -5.01059538e-07
atom      8.5178397122    11.6993248805    19.6520446845   Si  0.0 0.0   -9.63592823e-07  4.04721643e-13 -1.57019671e-07
atom     12.0355551623    11.6993248808    13.0504678922   Si  0.0 0.0   -3.79619946e-07  2.65075642e-13  5.25659155e-07
atom     13.4810176588    11.6993248804    20.9137517081   Al  0.0 0.0   -1.13761555e-09  2.36221468e-13  1.41499754e-09
atom     15.5835702649     7.7997430208    12.1569338540   Mg  0.0 0.0   -6.92360597e-07  1.89576969e-07  3.99501017e-10
atom     17.7122508845     7.8075795498    18.6044076988   Mg  0.0 0.0    1.65029449e-07  1.74705384e-07 -4.43214759e-07
atom     23.1655985868    11.6993248809     6.7982101235   Mg  0.0 0.0   -2.83222684e-07  2.91678753e-13  1.08559584e-06
atom     25.2805544917    11.6993248806    13.2676473317   Mg  0.0 0.0    5.89537573e-07  4.40654964e-13  3.97221552e-07
atom     15.0912103458    11.6993248804    16.2857562216   Si  0.0 0.0    3.19740975e-07  3.32560903e-13 -5.39680495e-07
atom     18.6150353143    11.6993248807     9.6687022223   Si  0.0 0.0    7.70026329e-07  4.58440354e-13  5.64323815e-07
atom     19.4373823622    11.6993248806    14.4269895054   Al  0.0 0.0    8.77714322e-07  3.01638468e-13  5.96782494e-07
atom     21.4111167375     7.8051009253    10.9821392776   Al  0.0 0.0   -1.04905526e-06 -3.75651195e-08 -6.35449240e-07
atom     22.2456942599     7.8097732211    15.7353723897   Si  0.0 0.0   -1.17737147e-06  1.90220118e-07 -3.45693476e-07
atom     25.7690027469     7.8017004888     9.1416263757   Si  0.0 0.0   -6.35638651e-07 -2.27843944e-08  1.89010421e-07
atom     -0.1102828326    15.7561982264    12.3347513549   Al  0.0 0.0   -8.85877766e-10  6.23767450e-07  1.22872486e-09
atom      1.9857005732    19.4972007267     3.5757547835   Mg  0.0 0.0   -4.24946418e-07  9.14997000e-08  1.19255336e-07
atom      4.1348189965    19.5050710301    10.0081242643   Mg  0.0 0.0   -2.04647782e-08  4.12687343e-07 -2.16355340e-07
atom      9.5513324718    15.5910702137    -1.7543567171   Mg  0.0 0.0   -1.61494782e-07 -1.74662511e-07  4.41421749e-07
atom     11.6800132533    15.5989067405     4.6931168692   Mg  0.0 0.0    6.93348406e-07 -1.89522149e-07  1.95341161e-09
atom      1.4945808075    15.5969492663     7.7084243605   Si  0.0 0.0    6.35145033e-07  2.27291342e-08 -1.87634042e-07
atom      5.0178893368    15.5888765403     1.1146786006   Si  0.0 0.0    1.17585324e-06 -1.89992418e-07  3.43350738e-07
atom      5.8524668833    15.5935488596     5.8679117047   Al  0.0 0.0    1.04783615e-06  3.70372651e-08  6.34157467e-07
atom      7.8174562337    19.4976238753     2.4119993384   Al  0.0 0.0   -9.29617803e-07 -9.95748590e-08 -2.73889719e-07
atom      8.6600943776    19.5011641161     7.1695706724   Si  0.0 0.0   -1.03487172e-06 -4.86504229e-08 -1.00251287e-07
atom     12.1676056623    19.4962235347     0.5585084622   Si  0.0 0.0   -5.84847090e-07  1.43953339e-07  2.07967281e-07
atom     13.6317918197    19.5046734139     8.4250253761   Al  0.0 0.0   -8.29398094e-10 -9.39363055e-08  9.54382393e-10
atom     15.7210574629    15.5960982444    -0.3252456174   Mg  0.0 0.0   -5.25696708e-07 -2.49967036e-07 -5.93294665e-07
atom     17.8498302859    15.5990856574     6.1179718426   Mg  0.0 0.0    1.05231002e-08 -1.60106048e-07 -2.39342460e-07
atom     23.2804032369    19.4709279201    -5.6845517579   Mg  0.0 0.0   -3.93597776e-07 -3.37455077e-07 -7.36703150e-08
atom     25.3719810466    19.4715806497     0.6614881530   Mg  0.0 0.0    3.90195818e-07  1.03240436e-06  1.12286511e-07
atom     15.2212917950    19.4961395111     3.8000616592   Si  0.0 0.0    7.53339838e-07 -5.03708535e-08 -1.27524559e-07
atom     18.7432016089    19.4821713333    -2.8115218825   Si  0.0 0.0    1.06353581e-06 -1.03163822e-07 -1.90305091e-07
atom     19.5698104852    19.4901811894     1.9453454031   Al  0.0 0.0    8.38523241e-07 -3.59574432e-07  4.17065646e-07
atom     21.5582277839    15.5765286645    -1.5015295359   Al  0.0 0.0   -9.26933656e-07 -3.64697468e-07 -2.81142855e-07
atom     22.3923988201    15.6113076770     3.2623929798   Si  0.0 0.0   -1.35816157e-06  1.71503727e-07  1.77192814e-07
atom     25.9163541480    15.5875327288    -3.3531747539   Si  0.0 0.0   -1.04280762e-06  2.87719159e-07  1.39756343e-07