begin
comment uuid: d7dac1cb-ee87-4461-ab4a-7b9936f14816 parent_uuid: 4c3843d7-8355-4b7b-b4e8-830f92b1b176 trajectory_step: final_scf
lattice     27.9034359104    -0.0000000015    -7.8194272980
lattice     -0.0000000012    23.0334364860     0.0000000000
lattice     -0.1123719256    -0.0000000004    25.6518779922
atom     -0.0161858366    -0.0000000398    12.6681043861   Al  0.0 0.0   -2.74884446e-10 -4.97630649e-13  1.21011365e-10
atom      2.1268776455     3.8364793089     3.8543698497   Mg  0.0 0.0    2.03432814e-07 -1.15303858e-07 -1.38935623e-07
atom      4.3003883675     3.8440975175    10.3517792456   Mg  0.0 0.0   -2.27715266e-07  3.32630814e-07  1.78247312e-07
atom      9.6395244711    -0.0000000402    -1.7178294708   Mg  0.0 0.0    4.78960441e-07  4.41825413e-14  3.22820737e-08
atom     11.8644921737    -0.0000000405     4.7556588062   Mg  0.0 0.0    4.61877026e-07  8.72604546e-14  2.96191965e-07
atom      1.5787858067    -0.0000000399     7.9544152015   Si  0.0 0.0    1.33209409e-06  2.37208096e-13  7.69434716e-07
atom      5.1817938260    -0.0000000400     1.2288577998   Si  0.0 0.0    1.31929556e-07  1.21616390e-13  2.14433420e-07
atom      5.9712543295    -0.0000000402     6.0539083503   Al  0.0 0.0   -5.30974283e-07  5.23797343e-14  1.83214483e-07
atom      8.0210794643     3.8398047192     2.5480956497   Al  0.0 0.0   -5.72030929e-07  8.02836186e-08  4.41530266e-07
atom      8.7773744815     3.8418737365     7.3824533715   Si  0.0 0.0   -3.84564376e-08 -4.02222420e-08  2.28159262e-07
atom     12.4086781746     3.8388441352     0.7501875709   Si  0.0 0.0    2.78310787e-07  1.81570317e-07 -9.11516963e-07
atom     13.9355321175     3.8466236678     8.7583907398   Mg  0.0 0.0   -2.00679519e-10  5.00436754e-08 -2.81009953e-10
atom     16.0831915499    -0.0000000405    -0.0711562757   Mg  0.0 0.0    4.39962095e-08  5.66182897e-14 -9.66153042e-07
atom     18.3031533880    -0.0000000407     6.4190401948   Mg  0.0 0.0    1.78825416e-07 -1.82324259e-14 -7.10894573e-07
atom     23.6146944437     3.8137124348    -5.6248129216   Mg  0.0 0.0    2.62288456e-07 -1.34776330e-07  1.71497342e-07
atom     25.8541004614     3.8070577015     0.9573843693   Mg  0.0 0.0    4.80982833e-07  4.12128954e-07  1.79110574e-06
atom     15.5395845868     3.8342223481     3.9505697513   Si  0.0 0.0   -2.79771500e-07  6.53397800e-08  9.69510312e-07
atom     19.1606016780     3.8275675322    -2.6955593767   Si  0.0 0.0    5.42342111e-07 -2.93714681e-07  2.20969151e-07
atom     19.9240926929     3.8342121616     2.1397279712   Al  0.0 0.0    9.24721208e-07 -2.04810138e-07 -8.05546831e-07
atom     21.9967565598    -0.0000000408    -1.3278752416   Al  0.0 0.0   -8.23043760e-07 -6.24722165e-15  8.38168594e-07
atom     22.8141916803    -0.0000000410     3.5269135634   Si  0.0 0.0   -1.12285472e-07  6.11104565e-14  8.33790639e-08
atom     26.3851799324    -0.0000000412    -3.1112244842   Si  0.0 0.0    1.46972741e-06  1.38224031e-13 -7.53096670e-07
atom     -0.0723718011    -0.0000000400    25.4940433845   Mg  0.0 0.0   -1.77448259e-10 -3.67303448e-13 -2.15580298e-10
atom      2.0169637387     3.8070577014    16.5593971107   Mg  0.0 0.0   -4.80680047e-07  4.12092893e-07 -1.79109073e-06
atom      4.2563697688     3.8137124424    23.1415944022   Mg  0.0 0.0   -2.62383953e-07 -1.34910711e-07 -1.71358845e-07
atom      9.5679108223    -0.0000000404    11.0977412871   Mg  0.0 0.0   -1.78869110e-07 -2.22602062e-14  7.10993792e-07
atom     11.7878726559    -0.0000000406    17.5879377559   Mg  0.0 0.0   -4.38042671e-08  5.76175476e-14  9.66176676e-07
atom      1.4858842780    -0.0000000400    20.6280059522   Si  0.0 0.0   -1.47022291e-06  1.37329981e-13  7.54011054e-07
atom      5.0568725370    -0.0000000402    13.9898679260   Si  0.0 0.0    1.12138386e-07  5.96581483e-14 -8.36034336e-08
atom      5.8743076435    -0.0000000404    18.8446567386   Al  0.0 0.0    8.23835251e-07 -9.44041222e-15 -8.38619311e-07
atom      7.9469715094     3.8342121621    15.3770535267   Al  0.0 0.0   -9.23986095e-07 -2.04845467e-07  8.05176897e-07
atom      8.7104625406     3.8275675331    20.2123408702   Si  0.0 0.0   -5.42560785e-07 -2.93705261e-07 -2.21408115e-07
atom     12.3314796199     3.8342223467    13.5662117128   Si  0.0 0.0    2.79260845e-07  6.53635572e-08 -9.68593359e-07
atom     13.8793461536     3.8391246034    21.5843297344   Mg  0.0 0.0   -1.78660914e-10  8.07497488e-07 -2.38784749e-10
atom     16.0065720316    -0.0000000407    12.7611226748   Mg  0.0 0.0   -4.61617082e-07  9.09271909e-14 -2.96194690e-07
atom     18.2315397427    -0.0000000409    19.2346109502   Mg  0.0 0.0   -4.79066902e-07  4.69370434e-14 -3.21375531e-08
atom     23.5706758476     3.8440975124     7.1650022318   Mg  0.0 0.0    2.27585690e-07  3.32693288e-07 -1.78056389e-07
atom     25.7441865586     3.8364793074    13.6624116304   Mg  0.0 0.0   -2.03175643e-07 -1.15234576e-07  1.38991147e-07
atom     15.4623860338     3.8388441348    16.7665938920   Si  0.0 0.0   -2.78857648e-07  1.81571769e-07  9.12468963e-07
atom     19.0936897399     3.8418737371    10.1343281206   Si  0.0 0.0    3.82235888e-08 -4.03326288e-08 -2.28525566e-07
atom     19.8499847397     3.8398047192    14.9686858474   Al  0.0 0.0    5.72806843e-07  8.02133048e-08 -4.41934374e-07
atom     21.8998098762    -0.0000000410    11.4628731493   Al  0.0 0.0    5.31260499e-07  5.93753967e-14 -1.83486519e-07
atom     22.6892703953    -0.0000000412    16.2879236950   Si  0.0 0.0   -1.32239596e-07  1.24575171e-13 -2.14894337e-07
atom     26.2922783967    -0.0000000413     9.5623662739   Si  0.0 0.0   -1.33204872e-06  2.36347115e-13 -7.69282337e-07
atom     -0.0161858381     7.7617126917    12.6681043872   Mg  0.0 0.0   -2.00883204e-10  1.58483351e-06 -2.38514572e-10
atom      2.1233846600    11.5167182032     3.8387068901   Mg  0.0 0.0    7.34000067e-07 -9.02535192e-14  6.99868182e-07
atom      4.3581137148    11.5167182030    10.3023112376   Mg  0.0 0.0    5.37700955e-07  1.47087700e-14 -1.48218384e-07
atom      9.6459807900     7.6745192236    -1.7358151443   Mg  0.0 0.0    7.66470922e-08  1.21726476e-07  7.34929289e-08
atom     11.8578726727     7.6787305492     4.7512292719   Mg  0.0 0.0   -1.99874838e-07 -3.92218405e-08  2.66074052e-07
atom      1.5811605100     7.6792584080     7.8460117534   Si  0.0 0.0   -6.20315268e-07  1.47093533e-07  1.48449436e-06
atom      5.1958077891     7.6706340374     1.1995398422   Si  0.0 0.0    4.96119523e-07 -7.60179070e-08  4.00857851e-07
atom      5.9595976541     7.6741640411     6.0345217577   Al  0.0 0.0    1.50750134e-06 -2.01013254e-07 -5.30487764e-07
atom      8.0137850869    11.5167182029     2.5413190918   Al  0.0 0.0   -9.68199633e-07 -8.38175122e-14  7.70684568e-07
atom      8.7926465096    11.5167182028     7.3699214743   Si  0.0 0.0   -2.13528674e-07 -1.16125158e-13 -4.25305890e-07
atom     12.4050325576    11.5167182026     0.7436177657   Si  0.0 0.0    5.66850526e-07 -1.62685518e-13 -1.09865402e-06
atom     13.9355321150    11.5167182024     8.7583907390   Mg  0.0 0.0   -1.52980485e-10  2.61731872e-13 -2.73140613e-10
atom     16.0841574338     7.6757968331    -0.0679922427   Mg  0.0 0.0    5.11854707e-07  9.50724205e-08 -2.03203169e-07
atom     18.2910947475     7.6752134200     6.4231294095   Mg  0.0 0.0    2.01107777e-08 -1.57206758e-07 -1.16594174e-07
atom     23.6097534499    11.5167182020    -5.6319517231   Mg  0.0 0.0   -3.87347120e-08 -2.47071857e-14  6.14346352e-07
atom     25.7842130284    11.5167182018     0.8005997895   Mg  0.0 0.0   -4.16237061e-07 -6.47880064e-15  5.64326419e-08
atom     15.5373781957    11.5167182024     3.9422715882   Si  0.0 0.0   -4.17976664e-07 -1.22387017e-13  1.39784963e-06
atom     19.1691522112    11.5167182022    -2.6949562197   Si  0.0 0.0    4.38774271e-07 -1.00254767e-13  4.72944968e-07
atom     19.9136663924    11.5167182021     2.1270654411   Al  0.0 0.0    1.04808351e-06 -9.87936633e-14 -4.24972422e-07
atom     21.9813047085     7.6583992117    -1.3498338428   Al  0.0 0.0   -5.33353705e-07 -4.10442155e-07  6.39933970e-07
atom     22.7346002438     7.6864592582     3.4748367275   Si  0.0 0.0   -3.22134667e-07  1.20845681e-07 -4.26928375e-07
atom     26.3566143463     7.6651049335    -3.1620278668   Si  0.0 0.0    3.46000183e-07 -1.70579933e-07 -8.91766518e-07
atom     -0.0723718037     7.6790271056    25.4940433837   Mg  0.0 0.0   -1.33267988e-10  1.09845401e-06 -2.63489063e-10
atom      2.0868511752    11.5167182030    16.7161816934   Mg  0.0 0.0    4.16438093e-07 -9.73857013e-15 -5.65066670e-08
atom      4.2613107634    11.5167182028    23.1487332044   Mg  0.0 0.0    3.86035296e-08 -2.47488555e-14 -6.14211133e-07
atom      9.5799694650     7.6752134195    11.0936520710   Mg  0.0 0.0   -2.02111363e-08 -1.57199032e-07  1.16719672e-07
atom     11.7869067714     7.6757968327    17.5847737238   Mg  0.0 0.0   -5.11659826e-07  9.50893051e-08  2.03213600e-07
atom      1.5144498576     7.6651049379    20.6788093291   Si  0.0 0.0   -3.46502997e-07 -1.70649277e-07  8.92750871e-07
atom      5.1364639755     7.6864592586    14.0419447679   Si  0.0 0.0    3.21916028e-07  1.20860080e-07  4.26456241e-07
atom      5.8897594931     7.6583992143    18.8666153421   Al  0.0 0.0    5.34178831e-07 -4.10496534e-07 -6.40352965e-07
atom      7.9573978114    11.5167182027    15.3897160579   Al  0.0 0.0   -1.04731741e-06 -1.00484296e-13  4.24553020e-07
atom      8.7019120107    11.5167182025    20.2117377151   Si  0.0 0.0   -4.39037791e-07 -1.06113058e-13 -4.73392969e-07
atom     12.3336860116    11.5167182024    13.5745098747   Si  0.0 0.0    4.17404500e-07 -1.23120555e-13 -1.39684107e-06
atom     13.8793461557    11.5167182022    21.5843297352   Mg  0.0 0.0   -2.23655876e-10  2.87663912e-13 -2.70388402e-10
atom     16.0131915317     7.6787305480    12.7655522103   Mg  0.0 0.0    2.00083723e-07 -3.92040961e-08 -2.66093488e-07
atom     18.2250834232     7.6745192238    19.2525966261   Mg  0.0 0.0   -7.67540420e-08  1.21708368e-07 -7.33789103e-08
atom     23.5129504941    11.5167182018     7.2144702435   Mg  0.0 0.0   -5.37739946e-07  1.66097296e-14  1.48313267e-07
atom     25.7476795372    11.5167182016    13.6780745922   Mg  0.0 0.0   -7.33657298e-07 -8.81150514e-14 -6.99887291e-07
atom     15.4660316503    11.5167182022    16.7731636972   Si  0.0 0.0   -5.67432710e-07 -1.63104550e-13  1.09960520e-06
atom     19.0784177063    11.5167182020    10.1468600200   Si  0.0 0.0    2.13372276e-07 -1.12444994e-13  4.24868931e-07
atom     19.8572791162    11.5167182019    14.9754624052   Al  0.0 0.0    9.68946605e-07 -8.48253532e-14 -7.71047030e-07
atom     21.9114665485     7.6741640411    11.4822597392   Al  0.0 0.0   -1.50671941e-06 -2.01029923e-07  5.30114593e-07
atom     22.6752564283     7.6706340354    16.3172416525   Si  0.0 0.0   -4.96291099e-07 -7.59979213e-08 -4.01303773e-07
atom     26.2899036955     7.6792584084     9.6707697078   Si  0.0 0.0    6.19803579e-07  1.47022120e-07 -1.48352437e-06
atom     -0.0161858385    15.2717237146    12.6681043872   Mg  0.0 0.0   -2.00882447e-10 -1.58483386e-06 -2.38515327e-10
atom      2.1268776447    19.1969570975     3.8543698497   Mg  0.0 0.0    2.03432856e-07  1.15303690e-07 -1.38935560e-07
atom      4.3003883668    19.1893388885    10.3517792456   Mg  0.0 0.0   -2.27715431e-07 -3.32630829e-07  1.78247412e-07
atom      9.6459807896    15.3589171818    -1.7358151443   Mg  0.0 0.0    7.66470787e-08 -1.21726466e-07  7.34928827e-08
atom     11.8578726723    15.3547058559     4.7512292719   Mg  0.0 0.0   -1.99874882e-07  3.92220354e-08  2.66074027e-07
atom      1.5811605096    15.3541779983     7.8460117534   Si  0.0 0.0   -6.20315283e-07 -1.47093153e-07  1.48449440e-06
atom      5.1958077887    15.3628023685     1.1995398422   Si  0.0 0.0    4.96119555e-07  7.60181149e-08  4.00857815e-07
atom      5.9595976537    15.3592723645     6.0345217577   Al  0.0 0.0    1.50750138e-06  2.01013371e-07 -5.30487848e-07
atom      8.0210794635    19.1936316866     2.5480956497   Al  0.0 0.0   -5.72030931e-07 -8.02837772e-08  4.41530293e-07
atom      8.7773744807    19.1915626690     7.3824533715   Si  0.0 0.0   -3.84565463e-08  4.02219642e-08  2.28159252e-07
atom     12.4086781738    19.1945922699     0.7501875709   Si  0.0 0.0    2.78310744e-07 -1.81570672e-07 -9.11517021e-07
atom     13.9355321167    19.1868127369     8.7583907398   Mg  0.0 0.0   -2.00680242e-10 -5.00430918e-08 -2.81008827e-10
atom     16.0841574334    15.3576395717    -0.0679922427   Mg  0.0 0.0    5.11854758e-07 -9.50722796e-08 -2.03203156e-07
atom     18.2910947471    15.3582229845     6.4231294095   Mg  0.0 0.0    2.01107705e-08  1.57206783e-07 -1.16594133e-07
atom     23.6146944429    19.2197239691    -5.6248129216   Mg  0.0 0.0    2.62288506e-07  1.34776400e-07  1.71497369e-07
atom     25.8541004605    19.2263787020     0.9573843693   Mg  0.0 0.0    4.80982993e-07 -4.12128958e-07  1.79110608e-06
atom     15.5395845860    19.1992140567     3.9505697513   Si  0.0 0.0   -2.79771573e-07 -6.53400897e-08  9.69510336e-07
atom     19.1606016772    19.2058688721    -2.6955593767   Si  0.0 0.0    5.42342099e-07  2.93714498e-07  2.20969195e-07
atom     19.9240926921    19.1992242426     2.1397279712   Al  0.0 0.0    9.24721340e-07  2.04809883e-07 -8.05546895e-07
atom     21.9813047081    15.3750371926    -1.3498338428   Al  0.0 0.0   -5.33353821e-07  4.10442353e-07  6.39934006e-07
atom     22.7346002434    15.3469771458     3.4748367275   Si  0.0 0.0   -3.22134699e-07 -1.20845584e-07 -4.26928430e-07
atom     26.3566143459    15.3683314701    -3.1620278668   Si  0.0 0.0    3.46000276e-07  1.70580378e-07 -8.91766667e-07
atom     -0.0723718041    15.3544093002    25.4940433837   Mg  0.0 0.0   -1.33267356e-10 -1.09845474e-06 -2.63487798e-10
atom      2.0169637379    19.2263787046    16.5593971107   Mg  0.0 0.0   -4.80680211e-07 -4.12092898e-07 -1.79109107e-06
atom      4.2563697680    19.2197239631    23.1415944022   Mg  0.0 0.0   -2.62384001e-07  1.34910780e-07 -1.71358873e-07
atom      9.5799694646    15.3582229855    11.0936520710   Mg  0.0 0.0   -2.02111272e-08  1.57199057e-07  1.16719634e-07
atom     11.7869067710    15.3576395720    17.5847737238   Mg  0.0 0.0   -5.11659879e-07 -9.50891635e-08  2.03213589e-07
atom      1.5144498572    15.3683314680    20.6788093291   Si  0.0 0.0   -3.46503088e-07  1.70649724e-07  8.92751020e-07
atom      5.1364639751    15.3469771469    14.0419447679   Si  0.0 0.0    3.21916063e-07 -1.20859979e-07  4.26456300e-07
atom      5.8897594927    15.3750371909    18.8666153421   Al  0.0 0.0    5.34178950e-07  4.10496726e-07 -6.40353003e-07
atom      7.9469715086    19.1992242433    15.3770535267   Al  0.0 0.0   -9.23986225e-07  2.04845209e-07  8.05176961e-07
atom      8.7104625398    19.2058688720    20.2123408702   Si  0.0 0.0   -5.42560776e-07  2.93705072e-07 -2.21408161e-07
atom     12.3314796191    19.1992140580    13.5662117128   Si  0.0 0.0    2.79260910e-07 -6.53638655e-08 -9.68593385e-07
atom     13.8793461528    19.1943118009    21.5843297344   Mg  0.0 0.0   -1.78659633e-10 -8.07496974e-07 -2.38782829e-10
atom     16.0131915313    15.3547058565    12.7655522103   Mg  0.0 0.0    2.00083766e-07  3.92042881e-08 -2.66093463e-07
atom     18.2250834228    15.3589171803    19.2525966261   Mg  0.0 0.0   -7.67540276e-08 -1.21708357e-07 -7.33788639e-08
atom     23.5706758468    19.1893388912     7.1650022318   Mg  0.0 0.0    2.27585855e-07 -3.32693303e-07 -1.78056485e-07
atom     25.7441865578    19.1969570957    13.6624116304   Mg  0.0 0.0   -2.03175684e-07  1.15234409e-07  1.38991087e-07
atom     15.4623860330    19.1945922696    16.7665938920   Si  0.0 0.0   -2.78857603e-07 -1.81572123e-07  9.12469027e-07
atom     19.0936897391    19.1915626668    10.1343281206   Si  0.0 0.0    3.82236936e-08  4.03323634e-08 -2.28525564e-07
atom     19.8499847389    19.1936316845    14.9686858473   Al  0.0 0.0    5.72806844e-07 -8.02134571e-08 -4.41934398e-07
atom     21.9114665481    15.3592723627    11.4822597391   Al  0.0 0.0   -1.50671945e-06  2.01030044e-07  5.30114670e-07
atom     22.6752564279    15.3628023682    16.3172416525   Si  0.0 0.0   -4.96291129e-07  7.59981232e-08 -4.01303735e-07
atom     26.2899036951    15.3541779948     9.6707697078   Si  0.0 0.0    6.19803590e-07 -1.47021740e-07 -1.48352442e-06
energy -1.759881169870783e+03
charge 0.0000
end
begin
comment uuid: d7dac1cb-ee87-4461-ab4a-7b9936f14816 parent_uuid: 4c3843d7-8355-4b7b-b4e8-830f92b1b176 trajectory_step: final_scf
lattice     27.9034359104    -0.0000000015    -7.8194272980
lattice     -0.0000000012    23.0334364860     0.0000000000
lattice     -0.1123719256    -0.0000000004    25.6518779922
atom     -0.0161856785    -0.0000000399    12.6681043261   Si  0.0 0.0   -6.88597750e-10  2.07794693e-13  3.63686299e-10
atom      2.1200643489     3.8339986249     3.8711804417   Mg  0.0 0.0    4.74849896e-07  6.96485134e-08 -9.85690447e-07
atom      4.3036027306     3.9531709656    10.3318529312   Mg  0.0 0.0    4.29963952e-07 -1.03635756e-06 -4.73591680e-07
atom      9.6287883120    -0.0000000402    -1.7430757188   Mg  0.0 0.0   -4.50104852e-08 -1.91689296e-14  3.57804554e-08
atom     11.8529998473    -0.0000000404     4.7639008703   Mg  0.0 0.0    1.14373337e-06 -9.94226165e-14  2.48250537e-07
atom      1.5454106662    -0.0000000399     8.1618037730   Si  0.0 0.0    1.44081910e-06 -1.89702811e-13 -1.32943537e-07
atom      5.1690315970    -0.0000000400     1.2469667462   Si  0.0 0.0    3.65938881e-07 -3.69569969e-13 -1.74733902e-07
atom      5.8842994292    -0.0000000401     6.1379454919   Al  0.0 0.0    1.01170301e-06 -1.54329422e-13 -1.15752638e-06
atom      8.0092388186     3.8176078018     2.5594366929   Al  0.0 0.0    1.37955166e-07  8.08129032e-08 -5.77926121e-07
atom      8.7651873229     3.8455394731     7.3802409883   Si  0.0 0.0    6.83415154e-07  4.94159383e-08 -2.59878290e-07
atom     12.4021761449     3.8316994922     0.7490548377   Si  0.0 0.0    5.11198264e-07 -3.35292766e-08 -5.32161337e-07
atom     13.9355320999     3.8369745297     8.7583907520   Mg  0.0 0.0    1.99438597e-10  8.28260243e-07 -3.11616288e-10
atom     16.0884073055    -0.0000000405    -0.0725287505   Mg  0.0 0.0    4.05984987e-07 -1.61627444e-13 -5.91519758e-07
atom     18.3566949033    -0.0000000407     6.4145028786   Mg  0.0 0.0   -4.98590889e-07 -8.97203790e-14  6.87799370e-07
atom     23.6202447724     3.7771458503    -5.6057204342   Mg  0.0 0.0    2.95814710e-07  3.87279979e-07 -2.25116379e-07
atom     25.8910923282     3.8763492646     1.0280748467   Mg  0.0 0.0    1.70925282e-07 -1.01384657e-06 -7.75371930e-07
atom     15.5465171134     3.8134471300     3.9442776816   Si  0.0 0.0    3.21323834e-07  1.55271029e-07  8.24467823e-08
atom     19.1705038903     3.8007284733    -2.6716981961   Si  0.0 0.0    4.93986091e-07  1.91097196e-08 -5.96046120e-08
atom     19.9803855569     3.7693695372     2.1777984173   Al  0.0 0.0    2.83292423e-07  6.38078748e-07 -5.08048174e-07
atom     22.0629377862    -0.0000000408    -1.2319885133   Al  0.0 0.0   -1.41580271e-06 -3.28867039e-13  2.82575414e-07
atom     23.0453029577    -0.0000000410     3.6251370929   Si  0.0 0.0    1.27484046e-08  1.16481485e-13 -5.00772276e-08
atom     26.4398749609    -0.0000000412    -3.0040665887   Si  0.0 0.0    1.07109288e-06 -3.08499126e-13 -1.12459189e-06
atom     -0.0723718176    -0.0000000401    25.4940433536   Mg  0.0 0.0    9.54594456e-11  8.63594393e-14  2.34833452e-11
atom      1.9799719080     3.8763493020    16.4887066338   Mg  0.0 0.0   -1.71095862e-07 -1.01411083e-06  7.75321247e-07
atom      4.2508194124     3.7771458438    23.1225018919   Mg  0.0 0.0   -2.95702937e-07  3.87382756e-07  2.25168361e-07
atom      9.5143693295    -0.0000000404    11.1022785955   Mg  0.0 0.0    4.98528033e-07 -9.21055298e-14 -6.87777523e-07
atom     11.7826569223    -0.0000000406    17.5893102552   Mg  0.0 0.0   -4.06180200e-07 -1.65625192e-13  5.91401167e-07
atom      1.4311892151    -0.0000000400    20.5208479784   Si  0.0 0.0   -1.07134232e-06 -3.04106865e-13  1.12542540e-06
atom      4.8257613575    -0.0000000402    13.8916444112   Si  0.0 0.0   -1.34025276e-08  1.12767038e-13  5.00996239e-08
atom      5.8081264236    -0.0000000404    18.7487700091   Al  0.0 0.0    1.41645161e-06 -3.32140920e-13 -2.82758174e-07
atom      7.8906786667     3.7693695564    15.3389830734   Al  0.0 0.0   -2.83115049e-07  6.37992916e-07  5.08308642e-07
atom      8.7005603179     3.8007284801    20.1884796896   Si  0.0 0.0   -4.94060286e-07  1.91488885e-08  5.94386849e-08
atom     12.3245471084     3.8134471303    13.5725038166   Si  0.0 0.0   -3.21644195e-07  1.55260750e-07 -8.23320148e-08
atom     13.8793461407     3.8510798780    21.5843297506   Mg  0.0 0.0    1.33055148e-10  6.95969260e-07 -2.63217684e-10
atom     16.0180643748    -0.0000000407    12.7528806228   Mg  0.0 0.0   -1.14383598e-06 -1.00308197e-13 -2.48296971e-07
atom     18.2422759074    -0.0000000410    19.2598571958   Mg  0.0 0.0    4.50002302e-08 -1.56154869e-14 -3.57794614e-08
atom     23.5674614446     3.9531710135     7.1849285573   Mg  0.0 0.0   -4.29686247e-07 -1.03659563e-06  4.73509588e-07
atom     25.7509998619     3.8339986312    13.6456010048   Mg  0.0 0.0   -4.74970520e-07  6.96363130e-08  9.85860484e-07
atom     15.4688880728     3.8316994965    16.7677266635   Si  0.0 0.0   -5.11507176e-07 -3.35361154e-08  5.32313465e-07
atom     19.1058768872     3.8455394659    10.1365404992   Si  0.0 0.0   -6.83481357e-07  4.93835850e-08  2.59633659e-07
atom     19.8618253846     3.8176078047    14.9573447800   Al  0.0 0.0   -1.37630587e-07  8.07771976e-08  5.78217490e-07
atom     21.9867648309    -0.0000000410    11.3788359266   Al  0.0 0.0   -1.01177261e-06 -1.48373914e-13  1.15799962e-06
atom     22.7020326130    -0.0000000412    16.2698146788   Si  0.0 0.0   -3.65935674e-07 -3.62025604e-13  1.74986592e-07
atom     26.3256535879    -0.0000000413     9.3549775175   Si  0.0 0.0   -1.44122739e-06 -1.92041343e-13  1.33550717e-07
atom     -0.0161858650     7.9207682366    12.6681043930   Mg  0.0 0.0    1.99029638e-10 -1.91889658e-06 -1.28214773e-10
atom      2.1218320798    11.5167182032     3.8099736041   Mg  0.0 0.0    1.02389254e-06  2.23514804e-13 -6.04606470e-07
atom      4.4212343533    11.5167182030    10.3001855350   Mg  0.0 0.0   -5.03293002e-08  5.63382368e-14 -1.53833700e-07
atom      9.6459466757     7.6598746817    -1.7333759815   Mg  0.0 0.0   -5.84314915e-08 -5.23058259e-09 -2.36873051e-07
atom     11.8626897368     7.6783544899     4.7307394208   Mg  0.0 0.0    2.69744562e-07  2.26356715e-07 -6.29110463e-07
atom      1.5884506444     7.7349199173     7.8261496009   Si  0.0 0.0    2.86723799e-08 -5.95968139e-07  4.71342186e-07
atom      5.1947678720     7.6526257294     1.1897179449   Si  0.0 0.0    4.69793257e-07 -4.27717107e-08  8.72989763e-08
atom      5.9727630742     7.6948098694     6.0084769175   Al  0.0 0.0    9.02826970e-07 -4.30809034e-08 -1.10432767e-06
atom      8.0199697208    11.5167182029     2.5100396624   Al  0.0 0.0   -5.85560689e-07  1.81667146e-13  3.33694802e-08
atom      8.8154059026    11.5167182028     7.3462759960   Si  0.0 0.0   -5.95092764e-08  4.72242362e-13 -8.27027079e-07
atom     12.4122114562    11.5167182026     0.7265031530   Si  0.0 0.0    4.75677621e-07  8.15082138e-14 -1.00847463e-06
atom     13.9355320886    11.5167182024     8.7583907574   Mg  0.0 0.0    2.54079732e-10 -4.79744872e-14 -3.22710647e-10
atom     16.1029463992     7.6530850936    -0.0558090571   Mg  0.0 0.0    3.09370230e-07  2.48095350e-07  1.87341438e-07
atom     18.2584185873     7.6756584718     6.4180152631   Mg  0.0 0.0    2.66453289e-07  1.44788549e-07  2.61754814e-07
atom     23.6098490400    11.5167182020    -5.6593785731   Mg  0.0 0.0    8.58150139e-08  2.25333021e-13 -4.76378797e-07
atom     25.7253409388    11.5167182018     0.7375137975   Mg  0.0 0.0    7.42515350e-07  8.82124013e-14 -1.41864856e-08
atom     15.5316270562    11.5167182024     3.9300724052   Si  0.0 0.0    6.01237988e-09  1.63075948e-13  7.74783710e-07
atom     19.1688981103    11.5167182022    -2.7141002721   Si  0.0 0.0    3.71772914e-07  2.14470285e-13  3.18893492e-07
atom     19.8998286237    11.5167182020     2.1052256737   Al  0.0 0.0    1.66282069e-06  7.53152148e-13 -5.70457107e-07
atom     21.9622807041     7.6454496949    -1.3713957788   Al  0.0 0.0    2.16830165e-08  2.38795679e-07  1.19473497e-07
atom     22.7154120302     7.7042064648     3.4569619488   Si  0.0 0.0    7.38596031e-07 -1.50888853e-07 -2.55809352e-07
atom     26.3445540977     7.6651429929    -3.1721114356   Si  0.0 0.0    6.12570232e-07  3.36223666e-07 -8.62047292e-07
atom     -0.0723718235     7.6523249958    25.4940433892   Mg  0.0 0.0    1.75141522e-10  6.02032310e-07 -2.28894016e-10
atom      2.1457232703    11.5167182030    16.7792676766   Mg  0.0 0.0   -7.42636246e-07  8.47450649e-14  1.42077913e-08
atom      4.2612151683    11.5167182028    23.1761600791   Mg  0.0 0.0   -8.58006545e-08  2.16149372e-13  4.76198040e-07
atom      9.6126456168     7.6756584694    11.0987662362   Mg  0.0 0.0   -2.66444426e-07  1.44868228e-07 -2.61842009e-07
atom     11.7681178126     7.6530850957    17.5725905717   Mg  0.0 0.0   -3.09444714e-07  2.48121055e-07 -1.87507119e-07
atom      1.5265101175     7.6651430088    20.6888929250   Si  0.0 0.0   -6.12991593e-07  3.36144032e-07  8.62184689e-07
atom      5.1556521692     7.7042064582    14.0598195283   Si  0.0 0.0   -7.38582993e-07 -1.50783146e-07  2.55672472e-07
atom      5.9087835038     7.6454497072    18.8881772633   Al  0.0 0.0   -2.12865110e-08  2.38724693e-07 -1.19258758e-07
atom      7.9712355668    11.5167182027    15.4115558209   Al  0.0 0.0   -1.66236137e-06  7.45338961e-13  5.70571601e-07
atom      8.7021660935    11.5167182025    20.2308817760   Si  0.0 0.0   -3.71746615e-07  2.10903400e-13 -3.19099284e-07
atom     12.3394371428    11.5167182024    13.5867091100   Si  0.0 0.0   -6.30327676e-09  1.61649109e-13 -7.74668531e-07
atom     13.8793461344    11.5167182022    21.5843297578   Mg  0.0 0.0    1.96000847e-10 -1.46543427e-13 -3.47369706e-10
atom     16.0083744611     7.6783544963    12.7860420813   Mg  0.0 0.0   -2.69735740e-07  2.26297896e-07  6.29054242e-07
atom     18.2251175299     7.6598746835    19.2501574886   Mg  0.0 0.0    5.84401629e-08 -5.24756302e-09  2.36688815e-07
atom     23.4498298414    11.5167182018     7.2165959597   Mg  0.0 0.0    5.03465773e-08  6.23475648e-14  1.53731570e-07
atom     25.7492321242    11.5167182016    13.7068078885   Mg  0.0 0.0   -1.02400078e-06  2.20500421e-13  6.04513288e-07
atom     15.4588527479    11.5167182022    16.7902783600   Si  0.0 0.0   -4.76009994e-07  8.34916773e-14  1.00854794e-06
atom     19.0556582848    11.5167182020    10.1705055028   Si  0.0 0.0    5.95483595e-08  4.75488793e-13  8.26840460e-07
atom     19.8510944715    11.5167182019    15.0067418346   Al  0.0 0.0    5.85897713e-07  1.85658388e-13 -3.32521354e-08
atom     21.8983011223     7.6948098773    11.5083045679   Al  0.0 0.0   -9.02422483e-07 -4.31340210e-08  1.10447822e-06
atom     22.6762963259     7.6526257325    16.3270635404   Si  0.0 0.0   -4.69745508e-07 -4.28223418e-08 -8.74184527e-08
atom     26.2826135658     7.7349199273     9.6906318948   Si  0.0 0.0   -2.90006734e-08 -5.96028429e-07 -4.71287833e-07
atom     -0.0161858653    15.1126681696    12.6681043931   Mg  0.0 0.0    1.99025298e-10  1.91889669e-06 -1.28213938e-10
atom      2.1200643481    19.1994377814     3.8711804417   Mg  0.0 0.0    4.74849778e-07 -6.96479076e-08 -9.85690472e-07
atom      4.3036027299    19.0802654403    10.3318529312   Mg  0.0 0.0    4.29963815e-07  1.03635768e-06 -4.73591949e-07
atom      9.6459466753    15.3735617237    -1.7333759814   Mg  0.0 0.0   -5.84314914e-08  5.23039270e-09 -2.36873031e-07
atom     11.8626897364    15.3550819151     4.7307394208   Mg  0.0 0.0    2.69744580e-07 -2.26356987e-07 -6.29110334e-07
atom      1.5884506440    15.2985164890     7.8261496009   Si  0.0 0.0    2.86722718e-08  5.95968022e-07  4.71342456e-07
atom      5.1947678716    15.3808106765     1.1897179449   Si  0.0 0.0    4.69793097e-07  4.27712386e-08  8.72987676e-08
atom      5.9727630739    15.3386265362     6.0084769175   Al  0.0 0.0    9.02827229e-07  4.30800933e-08 -1.10432752e-06
atom      8.0092388178    19.2158286040     2.5594366929   Al  0.0 0.0    1.37955079e-07 -8.08122995e-08 -5.77926470e-07
atom      8.7651873221    19.1878969324     7.3802409883   Si  0.0 0.0    6.83415351e-07 -4.94155034e-08 -2.59878041e-07
atom     12.4021761441    19.2017369130     0.7490548377   Si  0.0 0.0    5.11198188e-07  3.35296533e-08 -5.32161283e-07
atom     13.9355320991    19.1964618750     8.7583907520   Mg  0.0 0.0    1.99437931e-10 -8.28260558e-07 -3.11615218e-10
atom     16.1029463988    15.3803513113    -0.0558090571   Mg  0.0 0.0    3.09370424e-07 -2.48095629e-07  1.87341447e-07
atom     18.2584185869    15.3577779326     6.4180152631   Mg  0.0 0.0    2.66453335e-07 -1.44788850e-07  2.61754848e-07
atom     23.6202447716    19.2562905536    -5.6057204342   Mg  0.0 0.0    2.95814723e-07 -3.87279668e-07 -2.25116521e-07
atom     25.8910923274    19.1570871389     1.0280748468   Mg  0.0 0.0    1.70925412e-07  1.01384666e-06 -7.75372104e-07
atom     15.5465171126    19.2199892748     3.9442776816   Si  0.0 0.0    3.21323771e-07 -1.55270733e-07  8.24468697e-08
atom     19.1705038896    19.2327079311    -2.6716981961   Si  0.0 0.0    4.93986233e-07 -1.91094380e-08 -5.96040737e-08
atom     19.9803855562    19.2640668669     2.1777984174   Al  0.0 0.0    2.83292322e-07 -6.38078202e-07 -5.08048745e-07
atom     21.9622807037    15.3879867094    -1.3713957788   Al  0.0 0.0    2.16827290e-08 -2.38796116e-07  1.19474078e-07
atom     22.7154120299    15.3292299392     3.4569619488   Si  0.0 0.0    7.38595712e-07  1.50887820e-07 -2.55809814e-07
atom     26.3445540973    15.3682934107    -3.1721114356   Si  0.0 0.0    6.12570412e-07 -3.36224223e-07 -8.62047664e-07