begin
comment uuid: d0dc4e30-e6d6-4620-8877-255d426671bb parent_uuid: a92eb12b-a1c1-421e-9fbe-b522f1045a85 trajectory_step: final_scf
lattice     27.0372728256    -0.0000000004    -9.2050815968
lattice      0.0000000000    23.1024381087     0.0000000000
lattice     -0.6373419832     0.0000000000    26.1665111992
atom     -0.2768881424    -0.0000001754    12.9205215056   Al  0.0 0.0    2.25939728e-10 -5.81783572e-13 -9.04429619e-11
atom      2.0343311986     3.8370119576     4.0924059132   Mg  0.0 0.0    4.72619057e-07 -2.96185021e-07 -6.47714340e-07
atom      3.9150220685     3.8118674220    10.7197987562   Mg  0.0 0.0   -1.33871566e-07 -2.75560531e-07  6.61232729e-07
atom      9.3084454320    -0.0000001756    -2.4743292687   Mg  0.0 0.0   -1.02158938e-06 -8.99246476e-13 -5.18909130e-07
atom     11.2166021155    -0.0000001757     4.1212427383   Mg  0.0 0.0   -2.95008755e-07  5.53743470e-14  1.19545538e-06
atom      1.3991497445    -0.0000001756     8.2407286772   Si  0.0 0.0    1.91485502e-08  1.90148128e-12  4.43984726e-07
atom      5.1465796728    -0.0000001756     1.5004287900   Si  0.0 0.0   -1.90344500e-07 -9.49671669e-13 -5.78879308e-07
atom      5.4544518906    -0.0000001756     6.2295017503   Si  0.0 0.0   -3.39084574e-07 -8.15504772e-13 -9.93738437e-07
atom      7.7799254058     3.8472320731     1.9849291720   Si  0.0 0.0   -2.31773910e-07  3.40955946e-07 -3.17871708e-07
atom      8.0922985620     3.8375203097     6.7021954287   Si  0.0 0.0    6.81808920e-07 -2.85549719e-07  2.91349748e-07
atom     11.8843048979     3.8636091271     0.1038879065   Si  0.0 0.0   -2.90009423e-08  2.25997903e-07 -6.80715037e-08
atom     13.2417483385     3.8078407273     8.3179806932   Mg  0.0 0.0   -8.77961731e-10  1.35213810e-06  2.77373256e-10
atom     15.5508449980    -0.0000001757    -0.6270642892   Mg  0.0 0.0    9.61960359e-07 -7.81907167e-13 -8.79007715e-08
atom     17.5944545591    -0.0000001758     5.9775882495   Mg  0.0 0.0    4.29414720e-07 -7.35868532e-13 -1.01841657e-07
atom     22.7870978267     3.7742047092    -7.0014919486   Mg  0.0 0.0   -5.68331547e-08  8.36323037e-08 -4.02554802e-07
atom     24.8739180521     3.7149209960    -0.1863275280   Mg  0.0 0.0   -2.83983186e-08 -3.02737340e-07  1.28646637e-07
atom     14.9339934715     3.8223513395     3.4589412021   Si  0.0 0.0    6.11304929e-07 -4.07481802e-07 -7.81107779e-07
atom     18.6961604944     3.8040327379    -3.1442129890   Si  0.0 0.0    3.45015873e-07 -2.54162959e-07  6.34612159e-07
atom     19.0428868717     3.7631827188     1.5653697415   Si  0.0 0.0    7.77193300e-07  8.41531662e-07  8.19082209e-08
atom     21.3878007791    -0.0000001758    -2.5380924219   Si  0.0 0.0   -4.34516833e-07 -1.63394558e-12 -6.16323160e-07
atom     21.8045643852    -0.0000001758     2.1488572598   Si  0.0 0.0   -1.46564235e-06 -3.26999301e-12  5.97293502e-07
atom     25.4802677373    -0.0000001759    -4.4103289098   Si  0.0 0.0   -1.82054629e-07 -1.66213876e-13  8.60917965e-07
atom     -0.5955590745    -0.0000001755    26.0037770900   Mg  0.0 0.0   -9.95423766e-10  2.45750589e-13  1.17537109e-10
atom      1.6095785328     3.7149209919    16.8222889520   Mg  0.0 0.0    2.82024638e-08 -3.02686344e-07 -1.29150739e-07
atom      3.6963988302     3.7742047184    23.6374532764   Mg  0.0 0.0    5.59361185e-08  8.36512726e-08  4.02865419e-07
atom      8.8890421531    -0.0000001757    10.6583730324   Mg  0.0 0.0   -4.31046773e-07 -7.37156351e-13  1.02794679e-07
atom     10.9326515694    -0.0000001757    17.2630257551   Mg  0.0 0.0   -9.61734672e-07 -7.78743175e-13  8.70344992e-08
atom      1.0032288105    -0.0000001755    21.0462903221   Si  0.0 0.0    1.82850660e-07 -1.65013108e-13 -8.61440945e-07
atom      4.6789321667    -0.0000001756    14.4871041162   Si  0.0 0.0    1.46646079e-06 -3.27562487e-12 -5.96796744e-07
atom      5.0956957693    -0.0000001756    19.1740538343   Si  0.0 0.0    4.35481129e-07 -1.63904287e-12  6.15806816e-07
atom      7.4406096895     3.7631826952    15.0705916581   Si  0.0 0.0   -7.76616832e-07  8.41779087e-07 -8.24073711e-08
atom      7.7873360860     3.8040327466    19.7801743621   Si  0.0 0.0   -3.44819495e-07 -2.54293585e-07 -6.34055244e-07
atom     11.5495030829     3.8223513487    13.1770201947   Si  0.0 0.0   -6.10956162e-07 -4.07612576e-07  7.80743353e-07
atom     12.9230773498     3.8957951943    21.4012363027   Mg  0.0 0.0   -9.78775410e-10 -1.47267362e-06 -7.57300086e-11
atom     15.2668944216    -0.0000001758    12.5147186988   Mg  0.0 0.0    2.95404220e-07  5.39177197e-14 -1.19612456e-06
atom     17.1750512594    -0.0000001757    19.1102905716   Mg  0.0 0.0    1.02034797e-06 -8.96408285e-13  5.19584405e-07
atom     22.5684746088     3.8118674225     5.9161625683   Mg  0.0 0.0    1.32658019e-07 -2.75567418e-07 -6.60817607e-07
atom     24.4491653602     3.8370119712    12.5435554946   Mg  0.0 0.0   -4.72503832e-07 -2.96359969e-07  6.47543488e-07
atom     14.5991916548     3.8636091204    16.5320734954   Si  0.0 0.0    2.95029319e-08  2.26003399e-07  6.74600272e-08
atom     18.3911980082     3.8375203188     9.9337659390   Si  0.0 0.0   -6.81364353e-07 -2.85618611e-07 -2.90927645e-07
atom     18.7035711436     3.8472320668    14.6510322052   Si  0.0 0.0    2.32652107e-07  3.40968736e-07  3.17939566e-07
atom     21.0290446472    -0.0000001758    10.4064596128   Si  0.0 0.0    3.39983262e-07 -8.17378580e-13  9.93964717e-07
atom     21.3369169149    -0.0000001758    15.1355325583   Si  0.0 0.0    1.90613153e-07 -9.47862754e-13  5.79657880e-07
atom     25.0843468109    -0.0000001760     8.3952327374   Si  0.0 0.0   -1.85585492e-08  1.89992326e-12 -4.44465041e-07
atom     -0.2768880779     7.9314981986    12.9205214984   Mg  0.0 0.0   -8.65403667e-10  1.11550507e-06  1.00190636e-11
atom      2.0094266870    11.5512188787     3.9510881176   Mg  0.0 0.0    4.81950028e-07  1.80006272e-12 -1.02472680e-06
atom      4.0615262246    11.5512188788    10.5580376578   Mg  0.0 0.0    9.53075744e-09 -2.22870059e-13 -7.89393605e-07
atom      9.2740607895     7.7195880218    -2.4649877314   Mg  0.0 0.0    1.95699277e-07  4.39356138e-07 -9.24072537e-07
atom     11.2543422820     7.6950979106     4.1632447478   Mg  0.0 0.0   -3.70424771e-07  3.92774390e-07 -5.88375749e-07
atom      1.3780729970     7.6831812126     8.0623220273   Si  0.0 0.0   -9.58950802e-08 -1.41243299e-06 -4.75669405e-07
atom      5.1753433120     7.6879193144     1.4557386642   Si  0.0 0.0   -1.17136109e-07  3.25771057e-07 -5.30530153e-07
atom      5.4814325723     7.7051107222     6.1814417111   Si  0.0 0.0    5.06227051e-07 -1.91807747e-07  1.58660603e-07
atom      7.7981087303    11.5512188787     1.9987950026   Si  0.0 0.0   -4.64949909e-07  5.78768811e-13  4.49534194e-07
atom      8.1271425352    11.5512188787     6.6868117259   Si  0.0 0.0    2.05716646e-07  1.04190022e-12  1.92202763e-06
atom     11.9004002628    11.5512188786     0.1044654398   Si  0.0 0.0   -1.09471781e-06  2.17116371e-12 -8.14881451e-07
atom     13.2417483328    11.5512188787     8.3179806958   Mg  0.0 0.0   -8.17586239e-10  1.92978240e-13  2.26512588e-11
atom     15.5857240597     7.6907699567    -0.5882605888   Mg  0.0 0.0   -6.93031205e-07  7.12412228e-07 -1.28579284e-06
atom     17.5236423947     7.6613600835     6.0157208661   Mg  0.0 0.0    1.23244335e-06 -1.81419436e-07 -1.07921698e-06
atom     22.8334230110    11.5512188784    -7.0906071232   Mg  0.0 0.0   -1.00508657e-06  1.85453356e-12 -8.75309882e-07
atom     24.7184052716    11.5512188784    -0.5610491414   Mg  0.0 0.0    1.42898907e-07  1.12966791e-12  2.68345692e-07
atom     14.9351983525    11.5512188786     3.4622901802   Si  0.0 0.0   -1.13090961e-06  2.56937507e-12 -5.44500032e-07
atom     18.7535476647    11.5512188785    -3.1495242222   Si  0.0 0.0   -7.36570066e-07 -3.34915527e-12 -4.64054003e-07
atom     19.0200525435    11.5512188785     1.5536407227   Si  0.0 0.0   -4.45498180e-07  6.28638893e-13 -3.28093562e-07
atom     21.3186282673     7.6270898233    -2.5776141559   Si  0.0 0.0    1.07085819e-07 -2.63897934e-07  7.92181753e-07
atom     21.6063933448     7.6821105912     2.0930134945   Si  0.0 0.0    9.98872841e-07 -6.56133820e-07  3.03276332e-07
atom     25.3947587077     7.6600806521    -4.5000735541   Si  0.0 0.0   -2.07793349e-07  1.03893002e-07 -2.85596264e-07
atom     -0.5955590718     7.6081098220    26.0037770990   Mg  0.0 0.0   -8.21771352e-10  1.15560194e-06 -1.60155282e-11
atom      1.7650912706    11.5512188788    17.1970105670   Mg  0.0 0.0   -1.42565491e-07  1.13146208e-12 -2.68814396e-07
atom      3.6500736546    11.5512188787    23.7265684615   Mg  0.0 0.0    1.00418820e-06  1.85679639e-12  8.75530627e-07
atom      8.9598542842     7.6613600907    10.6202404201   Mg  0.0 0.0   -1.23342447e-06 -1.81530519e-07  1.08016687e-06
atom     10.8977725060     7.6907699533    17.2242220262   Mg  0.0 0.0    6.93074421e-07  7.12511097e-07  1.28529745e-06
atom      1.0887378450     7.6600806635    21.1360349478   Si  0.0 0.0    2.08444315e-07  1.03656612e-07  2.85182244e-07
atom      4.8771032580     7.6821105910    14.5429478575   Si  0.0 0.0   -9.98692272e-07 -6.56443792e-07 -3.02667860e-07
atom      5.1648682752     7.6270898289    19.2135755164   Si  0.0 0.0   -1.06045476e-07 -2.63952364e-07 -7.91888034e-07
atom      7.4634440216    11.5512188787    15.0823206507   Si  0.0 0.0    4.46101474e-07  6.24293627e-13  3.28122705e-07
atom      7.7299489187    11.5512188787    19.7854855741   Si  0.0 0.0    7.36836412e-07 -3.35306340e-12  4.64879775e-07
atom     11.5482982063    11.5512188786    13.1736712113   Si  0.0 0.0    1.13144446e-06  2.56985741e-12  5.44095653e-07
atom     12.9230773535    11.5512188786    21.4012363017   Mg  0.0 0.0   -1.10653007e-09  3.23418386e-13 -1.22205584e-10
atom     15.2291542816     7.6950979174    12.4727167074   Mg  0.0 0.0    3.70515489e-07  3.92606350e-07  5.87460145e-07
atom     17.2094358800     7.7195880184    19.1009490303   Mg  0.0 0.0   -1.96646895e-07  4.39342760e-07  9.24845413e-07
atom     22.4219704188    11.5512188785     6.0779236772   Mg  0.0 0.0   -1.01404652e-08 -2.25144236e-13  7.89802012e-07
atom     24.4740698794    11.5512188784    12.6848733561   Mg  0.0 0.0   -4.81896278e-07  1.79961623e-12  1.02362697e-06
atom     14.5830962868    11.5512188786    16.5314959613   Si  0.0 0.0    1.09529199e-06  2.16945033e-12  8.14403819e-07
atom     18.3563540253    11.5512188785     9.9491496543   Si  0.0 0.0   -2.05089734e-07  1.04689017e-12 -1.92172959e-06
atom     18.6853878271    11.5512188785    14.6371663987   Si  0.0 0.0    4.65655303e-07  5.78980353e-13 -4.49668024e-07
atom     21.0020639680     7.7051107373    10.4545196803   Si  0.0 0.0   -5.05306413e-07 -1.92006470e-07 -1.58834130e-07
atom     21.3081532704     7.6879193063    15.1802227155   Si  0.0 0.0    1.17466841e-07  3.25913297e-07  5.30827918e-07
atom     25.1054235479     7.6831812092     8.5736393711   Si  0.0 0.0    9.65652598e-08 -1.41232691e-06  4.75326920e-07
atom     -0.2768880779    15.1709395590    12.9205214984   Mg  0.0 0.0   -8.65403213e-10 -1.11550633e-06  1.00198237e-11
atom      2.0343311986    19.2654257999     4.0924059132   Mg  0.0 0.0    4.72618967e-07  2.96184973e-07 -6.47714631e-07
atom      3.9150220686    19.2905703355    10.7197987561   Mg  0.0 0.0   -1.33870862e-07  2.75562402e-07  6.61235309e-07
atom      9.2740607894    15.3828497355    -2.4649877314   Mg  0.0 0.0    1.95700876e-07 -4.39357109e-07 -9.24070996e-07
atom     11.2543422819    15.4073398468     4.1632447477   Mg  0.0 0.0   -3.70423316e-07 -3.92778770e-07 -5.88375583e-07
atom      1.3780729970    15.4192565450     8.0623220272   Si  0.0 0.0   -9.58957509e-08  1.41243000e-06 -4.75668835e-07
atom      5.1753433120    15.4145184430     1.4557386642   Si  0.0 0.0   -1.17137970e-07 -3.25773034e-07 -5.30530100e-07
atom      5.4814325723    15.3973270353     6.1814417111   Si  0.0 0.0    5.06226347e-07  1.91805818e-07  1.58660968e-07
atom      7.7799254057    19.2552056844     1.9849291720   Si  0.0 0.0   -2.31773662e-07 -3.40953947e-07 -3.17872818e-07
atom      8.0922985620    19.2649174477     6.7021954287   Si  0.0 0.0    6.81809351e-07  2.85552819e-07  2.91350525e-07
atom     11.8843048979    19.2388286302     0.1038879065   Si  0.0 0.0   -2.90001267e-08 -2.25997588e-07 -6.80717369e-08
atom     13.2417483385    19.2945970299     8.3179806932   Mg  0.0 0.0   -8.77960472e-10 -1.35213765e-06  2.77373803e-10
atom     15.5857240597    15.4116678005    -0.5882605889   Mg  0.0 0.0   -6.93033854e-07 -7.12413850e-07 -1.28579171e-06
atom     17.5236423946    15.4410776737     6.0157208661   Mg  0.0 0.0    1.23244320e-06  1.81417322e-07 -1.07921762e-06
atom     22.7870978267    19.3282330477    -7.0014919486   Mg  0.0 0.0   -5.68325702e-08 -8.36322533e-08 -4.02554574e-07
atom     24.8739180522    19.3875167608    -0.1863275279   Mg  0.0 0.0   -2.84018096e-08  3.02738129e-07  1.28645164e-07
atom     14.9339934714    19.2800864178     3.4589412021   Si  0.0 0.0    6.11307219e-07  4.07482253e-07 -7.81109454e-07
atom     18.6961604944    19.2984050191    -3.1442129891   Si  0.0 0.0    3.45016812e-07  2.54165222e-07  6.34614880e-07
atom     19.0428868717    19.3392550381     1.5653697414   Si  0.0 0.0    7.77194586e-07 -8.41529453e-07  8.19100854e-08
atom     21.3186282672    15.4753479337    -2.5776141560   Si  0.0 0.0    1.07088572e-07  2.63900447e-07  7.92185896e-07
atom     21.6063933448    15.4203271657     2.0930134945   Si  0.0 0.0    9.98872053e-07  6.56135724e-07  3.03275379e-07
atom     25.3947587076    15.4423571047    -4.5000735541   Si  0.0 0.0   -2.07792101e-07 -1.03894404e-07 -2.85598375e-07
atom     -0.5955590718    15.4943279357    26.0037770990   Mg  0.0 0.0   -8.21768408e-10 -1.15560325e-06 -1.60171761e-11
atom      1.6095785327    19.3875167656    16.8222889519   Mg  0.0 0.0    2.82059587e-08  3.02687128e-07 -1.29149264e-07
atom      3.6963988302    19.3282330392    23.6374532764   Mg  0.0 0.0    5.59355346e-08 -8.36512191e-08  4.02865189e-07
atom      8.9598542842    15.4410776667    10.6202404201   Mg  0.0 0.0   -1.23342431e-06  1.81528403e-07  1.08016752e-06
atom     10.8977725060    15.4116678040    17.2242220262   Mg  0.0 0.0    6.93077071e-07 -7.12512719e-07  1.28529632e-06
atom      1.0887378450    15.4423570941    21.1360349478   Si  0.0 0.0    2.08443068e-07 -1.03658009e-07  2.85184353e-07
atom      4.8771032580    15.4203271664    14.5429478576   Si  0.0 0.0   -9.98691486e-07  6.56445694e-07 -3.02666910e-07
atom      5.1648682753    15.4753479285    19.2135755165   Si  0.0 0.0   -1.06048230e-07  2.63954874e-07 -7.91892176e-07
atom      7.4406096895    19.3392550621    15.0705916582   Si  0.0 0.0   -7.76618118e-07 -8.41776880e-07 -8.24092350e-08
atom      7.7873360860    19.2984050108    19.7801743622   Si  0.0 0.0   -3.44820440e-07  2.54295846e-07 -6.34057967e-07
atom     11.5495030829    19.2800864086    13.1770201947   Si  0.0 0.0   -6.10958456e-07  4.07613027e-07  7.80745030e-07
atom     12.9230773498    19.2066425630    21.4012363027   Mg  0.0 0.0   -9.78775180e-10  1.47267371e-06 -7.57287616e-11
atom     15.2291542817    15.4073398399    12.4727167075   Mg  0.0 0.0    3.70514034e-07 -3.92610733e-07  5.87459978e-07
atom     17.2094358800    15.3828497387    19.1009490303   Mg  0.0 0.0   -1.96648493e-07 -4.39343729e-07  9.24843873e-07
atom     22.5684746087    19.2905703344     5.9161625683   Mg  0.0 0.0    1.32657310e-07  2.75569282e-07 -6.60820185e-07
atom     24.4491653602    19.2654257857    12.5435554946   Mg  0.0 0.0   -4.72503739e-07  2.96359919e-07  6.47543776e-07
atom     14.5991916549    19.2388286369    16.5320734954   Si  0.0 0.0    2.95021155e-08 -2.26003084e-07  6.74602577e-08
atom     18.3911980082    19.2649174382     9.9337659391   Si  0.0 0.0   -6.81364777e-07  2.85621714e-07 -2.90928416e-07
atom     18.7035711437    19.2552056903    14.6510322052   Si  0.0 0.0    2.32651860e-07 -3.40966731e-07  3.17940667e-07
atom     21.0020639680    15.3973270197    10.4545196803   Si  0.0 0.0   -5.05305712e-07  1.92004551e-07 -1.58834495e-07
atom     21.3081532703    15.4145184507    15.1802227155   Si  0.0 0.0    1.17468706e-07 -3.25915271e-07  5.30827865e-07
atom     25.1054235479    15.4192565477     8.5736393711   Si  0.0 0.0    9.65659279e-08  1.41232391e-06  4.75326353e-07
energy -1.422431666595121e+03
charge 0.0000
end
begin
comment uuid: d0dc4e30-e6d6-4620-8877-255d426671bb parent_uuid: a92eb12b-a1c1-421e-9fbe-b522f1045a85 trajectory_step: final_scf
lattice     27.0372728256    -0.0000000004    -9.2050815968
lattice      0.0000000000    23.1024381087     0.0000000000
lattice     -0.6373419832     0.0000000000    26.1665111992
atom     -0.2768880426    -0.0000001188    12.9205215384   Si  0.0 0.0   -1.11172814e-09 -4.96189549e-11 -6.55897381e-10
atom      2.0346817331     3.8347095115     4.0581049888   Mg  0.0 0.0    5.61807232e-08 -2.20957946e-07  4.76768652e-07
atom      4.0992933621     4.0485341949    10.5674007975   Mg  0.0 0.0   -4.12216103e-08  2.83051565e-07 -1.43938663e-07
atom      9.2822757569    -0.0000001740    -2.5089053499   Mg  0.0 0.0    1.76343227e-07 -1.80660791e-12 -1.00496175e-06
atom     11.2292428167    -0.0000001746     4.1778134377   Mg  0.0 0.0   -2.90322808e-07 -1.03250417e-12 -2.37791082e-07
atom      1.4361964056    -0.0000001758     8.4095207632   Si  0.0 0.0    3.12583291e-07 -4.16483598e-13 -6.17392019e-07
atom      5.1500058847    -0.0000001758     1.4820899861   Si  0.0 0.0   -4.11863008e-08  3.53189266e-12  5.96764800e-07
atom      5.4770561224    -0.0000001755     6.2267130648   Si  0.0 0.0   -6.94473236e-07  3.88350152e-12  1.01137285e-06
atom      7.7692849131     3.8384184848     1.9888739724   Si  0.0 0.0   -4.64123771e-07  4.93460291e-07  2.91207272e-08
atom      8.1088679370     3.8662251649     6.6882741341   Si  0.0 0.0    3.21875959e-07  4.81959845e-07  8.75428574e-08
atom     11.8528356681     3.8676649040     0.0829791320   Si  0.0 0.0   -4.72488558e-07 -3.04070959e-07 -6.40397171e-08
atom     13.2417482942     3.9431144565     8.3179806985   Mg  0.0 0.0   -6.04432539e-11 -3.29480270e-07 -9.89095529e-11
atom     15.4852221410    -0.0000001758    -0.5991789872   Mg  0.0 0.0   -1.02234372e-07 -1.09195130e-12 -1.33341728e-06
atom     17.4496988337    -0.0000001770     6.0636900303   Mg  0.0 0.0   -9.49235649e-07  5.13866829e-13 -1.76003800e-07
atom     22.8173329345     3.7393273921    -6.9861021448   Mg  0.0 0.0    1.08477535e-07 -1.65578876e-07 -1.16459385e-07
atom     24.8384972094     3.8953578663    -0.2626793169   Mg  0.0 0.0   -9.62513166e-08  9.50503109e-08  3.77668691e-07
atom     14.8694092144     3.8589758484     3.4644967984   Si  0.0 0.0   -6.31686782e-07 -1.75338254e-07 -9.93689262e-08
atom     18.7054943196     3.7699547466    -3.0853433950   Si  0.0 0.0   -2.12371147e-07  1.00684089e-07  1.25550595e-07
atom     18.9951629879     3.8114604348     1.6327242421   Si  0.0 0.0   -4.87623367e-07  1.73787686e-07 -4.37898829e-08
atom     21.4430201920    -0.0000001796    -2.4021875393   Si  0.0 0.0    3.66696659e-07  5.36336561e-12  3.05353322e-07
atom     21.7768975908    -0.0000001812     2.2956034451   Si  0.0 0.0    5.10829235e-07  5.94532039e-12  3.94739481e-07
atom     25.5342479607    -0.0000001740    -4.2731229033   Si  0.0 0.0    5.15406840e-07 -2.84381106e-12  1.24110753e-06
atom     -0.5955591093    -0.0000001750    26.0037770874   Mg  0.0 0.0   -3.69341092e-11 -5.40549681e-13  1.18968346e-10
atom      1.6449993632     3.8953578965    16.8986407403   Mg  0.0 0.0    9.66186736e-08  9.47095708e-08 -3.78074767e-07
atom      3.6661636720     3.7393273599    23.6220635017   Mg  0.0 0.0   -1.08655918e-07 -1.64993000e-07  1.16751521e-07
atom      9.0337977648    -0.0000001769    10.5722713324   Mg  0.0 0.0    9.49284295e-07  5.15081596e-13  1.76135504e-07
atom     10.9982744569    -0.0000001758    17.2351403872   Mg  0.0 0.0    1.02266308e-07 -1.09059295e-12  1.33330799e-06
atom      0.9492486011    -0.0000001736    20.9090843013   Si  0.0 0.0   -5.15304739e-07 -2.84567833e-12 -1.24144503e-06
atom      4.7065989688    -0.0000001810    14.3403579082   Si  0.0 0.0   -5.10244827e-07  5.94566502e-12 -3.94605323e-07
atom      5.0404763468    -0.0000001793    19.0381488799   Si  0.0 0.0   -3.66070917e-07  5.36005676e-12 -3.04461998e-07
atom      7.4883335776     3.8114604294    15.0032371296   Si  0.0 0.0    4.87885009e-07  1.73933671e-07  4.40892100e-08
atom      7.7780022604     3.7699547178    19.7213047759   Si  0.0 0.0    2.12644607e-07  1.01099448e-07 -1.25864974e-07
atom     11.6140873641     3.8589758414    13.1714646007   Si  0.0 0.0    6.31647856e-07 -1.75164615e-07  9.91426969e-08
atom     12.9230773189     3.9193697745    21.4012362962   Mg  0.0 0.0   -3.02715919e-10  1.47643320e-06 -2.45568714e-10
atom     15.2542537441    -0.0000001747    12.4581479480   Mg  0.0 0.0    2.90944629e-07 -1.02970175e-12  2.37815139e-07
atom     17.2012208731    -0.0000001740    19.1448667019   Mg  0.0 0.0   -1.76753779e-07 -1.80666392e-12  1.00533074e-06
atom     22.3842032735     4.0485341723     6.0685605252   Mg  0.0 0.0    4.07057024e-08  2.83256776e-07  1.44765032e-07
atom     24.4488148392     3.8347095404    12.5778564014   Mg  0.0 0.0   -5.57074570e-08 -2.21345321e-07 -4.76877529e-07
atom     14.6306609335     3.8676649044    16.5529822562   Si  0.0 0.0    4.72182973e-07 -3.04142138e-07  6.38345290e-08
atom     18.3746286584     3.8662251544     9.9476872238   Si  0.0 0.0   -3.21942412e-07  4.82087707e-07 -8.71551249e-08
atom     18.7142116815     3.8384184850    14.6470873878   Si  0.0 0.0    4.63941827e-07  4.93434550e-07 -2.88123610e-08
atom     21.0064404577    -0.0000001757    10.4092483549   Si  0.0 0.0    6.94544373e-07  3.88310828e-12 -1.01197400e-06
atom     21.3334907114    -0.0000001760    15.1538714105   Si  0.0 0.0    4.10138365e-08  3.53686709e-12 -5.96871979e-07
atom     25.0473001674    -0.0000001762     8.2264406527   Si  0.0 0.0   -3.12469645e-07 -4.16959843e-13  6.16696529e-07
atom     -0.2768881166     8.0697125985    12.9205214895   Mg  0.0 0.0   -1.00998993e-10  1.51928193e-06 -4.41850577e-11
atom      2.0314660373    11.5512188776     3.9236124069   Mg  0.0 0.0   -4.28593164e-07  1.20260509e-12 -8.23669258e-07
atom      4.1099789295    11.5512188760    10.5979072686   Mg  0.0 0.0    2.82606622e-07  2.99964456e-12 -3.49768104e-07
atom      9.2493581414     7.7156996107    -2.4574430740   Mg  0.0 0.0    4.58456625e-07  2.08588670e-07  2.74274232e-07
atom     11.2189727199     7.7447299811     4.1344855540   Mg  0.0 0.0   -3.12698914e-07  4.77595014e-08  2.35652996e-07
atom      1.3693063516     7.7879590671     8.0375820016   Si  0.0 0.0   -2.13948320e-07  2.99369619e-07 -1.16724935e-07
atom      5.1596771157     7.6708956383     1.4282894845   Si  0.0 0.0   -4.07468114e-07  3.24841894e-08  6.12174285e-09
atom      5.4690846301     7.7118969436     6.1497427340   Si  0.0 0.0   -1.87293199e-07  1.64590927e-07 -1.48534681e-07
atom      7.7764561413    11.5512188788     1.9451654051   Si  0.0 0.0   -8.15831493e-08 -2.95122971e-12 -1.84125156e-07
atom      8.0985080918    11.5512188786     6.6710832543   Si  0.0 0.0   -1.13484196e-07 -5.20466719e-12 -1.22228348e-07
atom     11.8900101188    11.5512188761     0.0740223834   Si  0.0 0.0    4.71514840e-08  3.86541645e-12  2.41890884e-08
atom     13.2417483073    11.5512188766     8.3179807055   Mg  0.0 0.0   -2.92721852e-10  2.12272519e-12 -1.18145920e-10
atom     15.5880450702     7.6994193362    -0.5908222455   Mg  0.0 0.0    9.41999881e-08  4.81909861e-08  8.40460667e-07
atom     17.4763857323     7.7175560198     6.0220992669   Mg  0.0 0.0   -6.14689952e-07 -3.73763100e-07  2.07500702e-07
atom     22.8518419379    11.5512188794    -7.1216393242   Mg  0.0 0.0   -3.10911386e-07 -1.17218576e-12  1.31111653e-07
atom     24.6300273891    11.5512188764    -0.5742819926   Mg  0.0 0.0   -7.02918449e-07  3.70215315e-12 -4.63564202e-07
atom     14.9188374621    11.5512188777     3.4344961179   Si  0.0 0.0   -2.20732507e-08  2.83179189e-12  5.79908887e-08
atom     18.7465843637    11.5512188815    -3.1559626864   Si  0.0 0.0   -7.62730473e-07 -3.63485608e-12  4.77261813e-07
atom     19.0064093542    11.5512188802     1.5434093045   Si  0.0 0.0   -5.57944318e-08 -2.88599082e-12  9.93048360e-08
atom     21.2910577615     7.6112320095    -2.6197585220   Si  0.0 0.0   -2.79603855e-07  2.25006365e-08 -1.04301129e-07
atom     21.6053027578     7.7057335663     2.0910073524   Si  0.0 0.0   -3.70277014e-07  4.16589380e-08  2.35720482e-07
atom     25.3793249880     7.6671021261    -4.5128591705   Si  0.0 0.0   -1.68515436e-07 -2.69153608e-07 -1.41816345e-09
atom     -0.5955590914     7.6245158199    26.0037770839   Mg  0.0 0.0   -2.34829096e-10 -6.52385301e-07  5.49290110e-11
atom      1.8534692150    11.5512188767    17.2102433824   Mg  0.0 0.0    7.02663506e-07  3.70005037e-12  4.63544810e-07
atom      3.6316547051    11.5512188797    23.7576006847   Mg  0.0 0.0    3.10412823e-07 -1.17042086e-12 -1.30927220e-07
atom      9.0071108585     7.7175560309    10.6138621161   Mg  0.0 0.0    6.14800409e-07 -3.73996750e-07 -2.07424707e-07
atom     10.8954514980     7.6994193153    17.2267836365   Mg  0.0 0.0   -9.38740837e-08  4.84321652e-08 -8.40390524e-07
atom      1.1041716086     7.6671021415    21.1488205481   Si  0.0 0.0    1.68288897e-07 -2.69534625e-07  1.40514516e-09
atom      4.8781938203     7.7057335648    14.5449540345   Si  0.0 0.0    3.70589085e-07  4.17264290e-08 -2.35972336e-07
atom      5.1924388443     7.6112320040    19.2557199152   Si  0.0 0.0    2.79350649e-07  2.25598193e-08  1.04244409e-07
atom      7.4770872213    11.5512188804    15.0925520725   Si  0.0 0.0    5.59421551e-08 -2.89163013e-12 -9.91599668e-08
atom      7.7369122402    11.5512188817    19.7919240628   Si  0.0 0.0    7.62727770e-07 -3.63795096e-12 -4.77336979e-07
atom     11.5646591251    11.5512188778    13.2014652869   Si  0.0 0.0    2.19564765e-08  2.83113237e-12 -5.82396948e-08
atom     12.9230773064    11.5512188723    21.4012362947   Mg  0.0 0.0   -1.58271468e-11  5.57099891e-12 -9.88879397e-11
atom     15.2645238583     7.7447299685    12.5014758620   Mg  0.0 0.0    3.13106405e-07  4.79214251e-08 -2.36012983e-07
atom     17.2341384768     7.7156996201    19.0934044347   Mg  0.0 0.0   -4.58636420e-07  2.08510372e-07 -2.73825549e-07
atom     22.3735176285    11.5512188757     6.0380540967   Mg  0.0 0.0   -2.81974925e-07  2.99770707e-12  3.50121087e-07
atom     24.4520305294    11.5512188773    12.7123489683   Mg  0.0 0.0    4.29084367e-07  1.20628528e-12  8.23675313e-07
atom     14.5934864620    11.5512188760    16.5619390209   Si  0.0 0.0   -4.72463254e-08  3.86601227e-12 -2.44953884e-08
atom     18.3849884847    11.5512188785     9.9648781619   Si  0.0 0.0    1.13695556e-07 -5.20294324e-12  1.21584007e-07
atom     18.7070404460    11.5512188786    14.6907960016   Si  0.0 0.0    8.14817686e-08 -2.95041916e-12  1.83892864e-07
atom     21.0144119488     7.7118969362    10.4862186206   Si  0.0 0.0    1.87339814e-07  1.64752173e-07  1.48900443e-07
atom     21.3238194849     7.6708956413    15.2076718802   Si  0.0 0.0    4.07336761e-07  3.23896504e-08 -5.99255629e-09
atom     25.1141902318     7.7879590781     8.5983793749   Si  0.0 0.0    2.13861147e-07  2.99508170e-07  1.16743450e-07
atom     -0.2768881166    15.0327251517    12.9205214895   Mg  0.0 0.0   -1.00997952e-10 -1.51927790e-06 -4.41840664e-11
atom      2.0346817305    19.2677282468     4.0581049893   Mg  0.0 0.0    5.61831390e-08  2.20958578e-07  4.76767742e-07
atom      4.0992933691    19.0539035621    10.5674007910   Mg  0.0 0.0   -4.12277030e-08 -2.83048837e-07 -1.43932308e-07
atom      9.2493581423    15.3867381440    -2.4574430749   Mg  0.0 0.0    4.58456293e-07 -2.08587409e-07  2.74274706e-07
atom     11.2189727203    15.3577077740     4.1344855544   Mg  0.0 0.0   -3.12698456e-07 -4.77604984e-08  2.35652766e-07
atom      1.3693063523    15.3144786868     8.0375820026   Si  0.0 0.0   -2.13948559e-07 -2.99371089e-07 -1.16725928e-07
atom      5.1596771149    15.4315421190     1.4282894846   Si  0.0 0.0   -4.07466074e-07 -3.24752679e-08  6.12237943e-09
atom      5.4690846299    15.3905408128     6.1497427337   Si  0.0 0.0   -1.87293212e-07 -1.64580574e-07 -1.48534018e-07
atom      7.7692849112    19.2640192723     1.9888739722   Si  0.0 0.0   -4.64123041e-07 -4.93466809e-07  2.91189636e-08
atom      8.1088679381    19.2362125920     6.6882741324   Si  0.0 0.0    3.21873506e-07 -4.81969421e-07  8.75461971e-08
atom     11.8528356646    19.2347728540     0.0829791303   Si  0.0 0.0   -4.72485948e-07  3.04073935e-07 -6.40375138e-08
atom     13.2417482942    19.1593233010     8.3179806985   Mg  0.0 0.0   -6.04453363e-11  3.29480915e-07 -9.89103129e-11
atom     15.5880450617    15.4030184182    -0.5908222491   Mg  0.0 0.0    9.42068123e-08 -4.81923911e-08  8.40463730e-07
atom     17.4763857296    15.3848817364     6.0220992679   Mg  0.0 0.0   -6.14687525e-07  3.73763236e-07  2.07499685e-07
atom     22.8173329347    19.3631103659    -6.9861021415   Mg  0.0 0.0    1.08477332e-07  1.65577523e-07 -1.16462544e-07
atom     24.8384972218    19.2070798964    -0.2626793000   Mg  0.0 0.0   -9.62619814e-08 -9.50527111e-08  3.77654900e-07
atom     14.8694092088    19.2434619077     3.4644967981   Si  0.0 0.0   -6.31682218e-07  1.75341934e-07 -9.93691299e-08
atom     18.7054943167    19.3324830075    -3.0853433958   Si  0.0 0.0   -2.12369793e-07 -1.00687115e-07  1.25550383e-07
atom     18.9951629799    19.2909773142     1.6327242403   Si  0.0 0.0   -4.87615883e-07 -1.73784426e-07 -4.37866181e-08
atom     21.2910577654    15.4912057517    -2.6197585165   Si  0.0 0.0   -2.79607035e-07 -2.25005423e-08 -1.04304517e-07
atom     21.6053027592    15.3967041909     2.0910073550   Si  0.0 0.0   -3.70278671e-07 -4.16546218e-08  2.35717105e-07
atom     25.3793249890    15.4353356319    -4.5128591685   Si  0.0 0.0   -1.68516995e-07  2.69150973e-07 -1.41934895e-09