begin
comment uuid: 8ddfd55d-a93c-4cf0-b631-200580e0b9ea 
lattice 7.6743490000 0.0000000000 0.0000000000
lattice 0.0000000000 7.6666820000 0.0000000000
lattice 0.0000000000 0.0000000000 7.6666820000
atom   -0.001921    0.000000   0.000000 Al  0.0   0.0  -0.0000012200  -0.0000015800  -0.0000015800
atom   3.835229    3.833309   0.000000 Al  0.0   0.0  0.0000012600  0.0000015700  -0.0000015750
atom   3.835229    0.000000   3.833309 Al  0.0   0.0  0.0000012500  -0.0000015700  0.0000015700
atom   -0.001919    3.833309   3.833309 Al  0.0   0.0  -0.0000012900  0.0000015800  0.0000015850
energy -79.005434200000010
charge 0.000000000000000
end
begin
comment uuid: 17d8a77f-e284-4518-8066-28543e1f7529 
lattice 7.6820150000 0.0000000000 0.0000000000
lattice 0.0000000000 7.6666820000 0.0000000000
lattice 0.0000000000 0.0000000000 7.6666820000
atom   -0.003817    0.000000   0.000000 Al  0.0   0.0  -0.0000031600  -0.0000015750  -0.0000015750
atom   3.837126    3.833309   0.000000 Al  0.0   0.0  0.0000031850  0.0000015650  -0.0000015700
atom   3.837126    0.000000   3.833309 Al  0.0   0.0  0.0000031700  -0.0000015650  0.0000015650
atom   -0.003816    3.833309   3.833309 Al  0.0   0.0  -0.0000031950  0.0000015750  0.0000015800
energy -79.005416555000025
charge 0.000000000000000
end
