
     Program PWSCF v.6.3 starts on 26Feb2020 at 23:53:13 

     This program is part of the open-source Quantum ESPRESSO suite
     for quantum simulation of materials; please cite
         "P. Giannozzi et al., J. Phys.:Condens. Matter 21 395502 (2009);
         "P. Giannozzi et al., J. Phys.:Condens. Matter 29 465901 (2017);
          URL http://www.quantum-espresso.org", 
     in publications or presentations arising from this work. More details at
     http://www.quantum-espresso.org/quote

 *** WARNING: using old-style file format, will disappear from next version ***

     Parallel version (MPI & OpenMP), running on     288 processor cores
     Number of MPI processes:               288
     Threads/MPI process:                     1

     MPI processes distributed on     8 nodes
     K-points division:     npool     =      36
     R & G space division:  proc/nbgrp/npool/nimage =       8
     Reading input from aiida.in
Warning: card &IONS ignored
Warning: card   !PRESS_CONV_THR = 0.05                 ! JUST FOR VOLUME RELAXATIONS ignored
Warning: card / ignored

     Current dimensions of program PWSCF are:
     Max number of different atomic species (ntypx) = 10
     Max number of k-points (npk) =  40000
     Max angular momentum in pseudopotentials (lmaxx) =  3
               file Al.pbe-n-kjpaw_psl.1.0.0.UPF: wavefunction(s)  3S 3P renormalized

     Subspace diagonalization in iterative solution of the eigenvalue problem:
     one sub-group per band group will be used
     scalapack distributed-memory algorithm (size of sub-group:  2*  2 procs)

 
     Parallelization info
     --------------------
     sticks:   dense  smooth     PW     G-vecs:    dense   smooth      PW
     Min        3740    1497    390               486920   123201   16474
     Max        3741    1498    391               486925   123204   16481
     Sum       29921   11977   3125              3895379   985619  131827
 


     bravais-lattice index     =            0
     lattice parameter (alat)  =      30.6665  a.u.
     unit-cell volume          =   28839.7575 (a.u.)^3
     number of atoms/cell      =          255
     number of atomic types    =            1
     number of electrons       =       765.00
     number of Kohn-Sham states=          460
     kinetic-energy cutoff     =      40.0000  Ry
     charge density cutoff     =     400.0000  Ry
     convergence threshold     =      1.0E-12
     mixing beta               =       0.4000
     number of iterations used =            8  local-TF  mixing
     Exchange-correlation      = SLA PW PBX PBC ( 1  4  3  4 0 0)

     celldm(1)=  30.666476  celldm(2)=   0.000000  celldm(3)=   0.000000
     celldm(4)=   0.000000  celldm(5)=   0.000000  celldm(6)=   0.000000

     crystal axes: (cart. coord. in units of alat)
               a(1) = (   1.000000   0.000000   0.000000 )  
               a(2) = (   0.000000   1.000000   0.000000 )  
               a(3) = (   0.000000   0.000000   1.000000 )  

     reciprocal axes: (cart. coord. in units 2 pi/alat)
               b(1) = (  1.000000  0.000000  0.000000 )  
               b(2) = (  0.000000  1.000000  0.000000 )  
               b(3) = (  0.000000  0.000000  1.000000 )  


     PseudoPot. # 1 for Al read from file:
     /users/aglensk/Dropbox/Albert/scripts/dotfiles/scripts/potentials/quantum_espresso/pseudo_SSSPefV1.1_alalloy/Al.pbe-n-kjpaw_psl.1.0.0.UPF
     MD5 check sum: cfc449ca30b5f3223ec38ddd88ac046d
     Pseudo is Projector augmented-wave + core cor, Zval =  3.0
     Generated using "atomic" code by A. Dal Corso v.5.1
     Shape of augmentation charge: PSQ
     Using radial grid of 1135 points,  6 beta functions with: 
                l(1) =   0
                l(2) =   0
                l(3) =   1
                l(4) =   1
                l(5) =   2
                l(6) =   2
     Q(r) pseudized with 0 coefficients 


     atomic species   valence    mass     pseudopotential
        Al             3.00    26.98154     Al( 1.00)

     No symmetry found


                                    s                        frac. trans.

      isym =  1     identity                                     

 cryst.   s( 1) = (     1          0          0      )
                  (     0          1          0      )
                  (     0          0          1      )

 cart.    s( 1) = (  1.0000000  0.0000000  0.0000000 )
                  (  0.0000000  1.0000000  0.0000000 )
                  (  0.0000000  0.0000000  1.0000000 )


   Cartesian axes

     site n.     atom                  positions (alat units)
         1           Al  tau(   1) = (   0.1250000   0.1250000   0.0000000  )
         2           Al  tau(   2) = (   0.1250000   0.0000000   0.1250000  )
         3           Al  tau(   3) = (   0.0000000   0.1250000   0.1250000  )
         4           Al  tau(   4) = (   0.0000000   0.0000000   0.2500000  )
         5           Al  tau(   5) = (   0.1250000   0.1250000   0.2500000  )
         6           Al  tau(   6) = (   0.1250000   0.0000000   0.3750000  )
         7           Al  tau(   7) = (   0.0000000   0.1250000   0.3750000  )
         8           Al  tau(   8) = (   0.0000000   0.0000000   0.5000000  )
         9           Al  tau(   9) = (   0.1250000   0.1250000   0.5000000  )
        10           Al  tau(  10) = (   0.1250000   0.0000000   0.6250000  )
        11           Al  tau(  11) = (   0.0000000   0.1250000   0.6250000  )
        12           Al  tau(  12) = (   0.0000000   0.0000000   0.7500000  )
        13           Al  tau(  13) = (   0.1250000   0.1250000   0.7500000  )
        14           Al  tau(  14) = (   0.1250000   0.0000000   0.8750000  )
        15           Al  tau(  15) = (   0.0000000   0.1250000   0.8750000  )
        16           Al  tau(  16) = (   0.0000000   0.2500000   0.0000000  )
        17           Al  tau(  17) = (   0.1250000   0.3750000   0.0000000  )
        18           Al  tau(  18) = (   0.1250000   0.2500000   0.1250000  )
        19           Al  tau(  19) = (   0.0000000   0.3750000   0.1250000  )
        20           Al  tau(  20) = (   0.0000000   0.2500000   0.2500000  )
        21           Al  tau(  21) = (   0.1250000   0.3750000   0.2500000  )
        22           Al  tau(  22) = (   0.1250000   0.2500000   0.3750000  )
        23           Al  tau(  23) = (   0.0000000   0.3750000   0.3750000  )
        24           Al  tau(  24) = (   0.0000000   0.2500000   0.5000000  )
        25           Al  tau(  25) = (   0.1250000   0.3750000   0.5000000  )
        26           Al  tau(  26) = (   0.1250000   0.2500000   0.6250000  )
        27           Al  tau(  27) = (   0.0000000   0.3750000   0.6250000  )
        28           Al  tau(  28) = (   0.0000000   0.2500000   0.7500000  )
        29           Al  tau(  29) = (   0.1250000   0.3750000   0.7500000  )
        30           Al  tau(  30) = (   0.1250000   0.2500000   0.8750000  )
        31           Al  tau(  31) = (   0.0000000   0.3750000   0.8750000  )
        32           Al  tau(  32) = (   0.0000000   0.5000000   0.0000000  )
        33           Al  tau(  33) = (   0.1250000   0.6250000   0.0000000  )
        34           Al  tau(  34) = (   0.1250000   0.5000000   0.1250000  )
        35           Al  tau(  35) = (   0.0000000   0.6250000   0.1250000  )
        36           Al  tau(  36) = (   0.0000000   0.5000000   0.2500000  )
        37           Al  tau(  37) = (   0.1250000   0.6250000   0.2500000  )
        38           Al  tau(  38) = (   0.1250000   0.5000000   0.3750000  )
        39           Al  tau(  39) = (   0.0000000   0.6250000   0.3750000  )
        40           Al  tau(  40) = (   0.0000000   0.5000000   0.5000000  )
        41           Al  tau(  41) = (   0.1250000   0.6250000   0.5000000  )
        42           Al  tau(  42) = (   0.1250000   0.5000000   0.6250000  )
        43           Al  tau(  43) = (   0.0000000   0.6250000   0.6250000  )
        44           Al  tau(  44) = (   0.0000000   0.5000000   0.7500000  )
        45           Al  tau(  45) = (   0.1250000   0.6250000   0.7500000  )
        46           Al  tau(  46) = (   0.1250000   0.5000000   0.8750000  )
        47           Al  tau(  47) = (   0.0000000   0.6250000   0.8750000  )
        48           Al  tau(  48) = (   0.0000000   0.7500000   0.0000000  )
        49           Al  tau(  49) = (   0.1250000   0.8750000   0.0000000  )
        50           Al  tau(  50) = (   0.1250000   0.7500000   0.1250000  )
        51           Al  tau(  51) = (   0.0000000   0.8750000   0.1250000  )
        52           Al  tau(  52) = (   0.0000000   0.7500000   0.2500000  )
        53           Al  tau(  53) = (   0.1250000   0.8750000   0.2500000  )
        54           Al  tau(  54) = (   0.1250000   0.7500000   0.3750000  )
        55           Al  tau(  55) = (   0.0000000   0.8750000   0.3750000  )
        56           Al  tau(  56) = (   0.0000000   0.7500000   0.5000000  )
        57           Al  tau(  57) = (   0.1250000   0.8750000   0.5000000  )
        58           Al  tau(  58) = (   0.1250000   0.7500000   0.6250000  )
        59           Al  tau(  59) = (   0.0000000   0.8750000   0.6250000  )
        60           Al  tau(  60) = (   0.0000000   0.7500000   0.7500000  )
        61           Al  tau(  61) = (   0.1250000   0.8750000   0.7500000  )
        62           Al  tau(  62) = (   0.1250000   0.7500000   0.8750000  )
        63           Al  tau(  63) = (   0.0000000   0.8750000   0.8750000  )
        64           Al  tau(  64) = (   0.2500000   0.0000000   0.0000000  )
        65           Al  tau(  65) = (   0.3750000   0.1250000   0.0000000  )
        66           Al  tau(  66) = (   0.3750000   0.0000000   0.1250000  )
        67           Al  tau(  67) = (   0.2500000   0.1250000   0.1250000  )
        68           Al  tau(  68) = (   0.2500000   0.0000000   0.2500000  )
        69           Al  tau(  69) = (   0.3750000   0.1250000   0.2500000  )
        70           Al  tau(  70) = (   0.3750000   0.0000000   0.3750000  )
        71           Al  tau(  71) = (   0.2500000   0.1250000   0.3750000  )
        72           Al  tau(  72) = (   0.2500000   0.0000000   0.5000000  )
        73           Al  tau(  73) = (   0.3750000   0.1250000   0.5000000  )
        74           Al  tau(  74) = (   0.3750000   0.0000000   0.6250000  )
        75           Al  tau(  75) = (   0.2500000   0.1250000   0.6250000  )
        76           Al  tau(  76) = (   0.2500000   0.0000000   0.7500000  )
        77           Al  tau(  77) = (   0.3750000   0.1250000   0.7500000  )
        78           Al  tau(  78) = (   0.3750000   0.0000000   0.8750000  )
        79           Al  tau(  79) = (   0.2500000   0.1250000   0.8750000  )
        80           Al  tau(  80) = (   0.2500000   0.2500000   0.0000000  )
        81           Al  tau(  81) = (   0.3750000   0.3750000   0.0000000  )
        82           Al  tau(  82) = (   0.3750000   0.2500000   0.1250000  )
        83           Al  tau(  83) = (   0.2500000   0.3750000   0.1250000  )
        84           Al  tau(  84) = (   0.2500000   0.2500000   0.2500000  )
        85           Al  tau(  85) = (   0.3750000   0.3750000   0.2500000  )
        86           Al  tau(  86) = (   0.3750000   0.2500000   0.3750000  )
        87           Al  tau(  87) = (   0.2500000   0.3750000   0.3750000  )
        88           Al  tau(  88) = (   0.2500000   0.2500000   0.5000000  )
        89           Al  tau(  89) = (   0.3750000   0.3750000   0.5000000  )
        90           Al  tau(  90) = (   0.3750000   0.2500000   0.6250000  )
        91           Al  tau(  91) = (   0.2500000   0.3750000   0.6250000  )
        92           Al  tau(  92) = (   0.2500000   0.2500000   0.7500000  )
        93           Al  tau(  93) = (   0.3750000   0.3750000   0.7500000  )
        94           Al  tau(  94) = (   0.3750000   0.2500000   0.8750000  )
        95           Al  tau(  95) = (   0.2500000   0.3750000   0.8750000  )
        96           Al  tau(  96) = (   0.2500000   0.5000000   0.0000000  )
        97           Al  tau(  97) = (   0.3750000   0.6250000   0.0000000  )
        98           Al  tau(  98) = (   0.3750000   0.5000000   0.1250000  )
        99           Al  tau(  99) = (   0.2500000   0.6250000   0.1250000  )
       100           Al  tau( 100) = (   0.2500000   0.5000000   0.2500000  )
       101           Al  tau( 101) = (   0.3750000   0.6250000   0.2500000  )
       102           Al  tau( 102) = (   0.3750000   0.5000000   0.3750000  )
       103           Al  tau( 103) = (   0.2500000   0.6250000   0.3750000  )
       104           Al  tau( 104) = (   0.2500000   0.5000000   0.5000000  )
       105           Al  tau( 105) = (   0.3750000   0.6250000   0.5000000  )
       106           Al  tau( 106) = (   0.3750000   0.5000000   0.6250000  )
       107           Al  tau( 107) = (   0.2500000   0.6250000   0.6250000  )
       108           Al  tau( 108) = (   0.2500000   0.5000000   0.7500000  )
       109           Al  tau( 109) = (   0.3750000   0.6250000   0.7500000  )
       110           Al  tau( 110) = (   0.3750000   0.5000000   0.8750000  )
       111           Al  tau( 111) = (   0.2500000   0.6250000   0.8750000  )
       112           Al  tau( 112) = (   0.2500000   0.7500000   0.0000000  )
       113           Al  tau( 113) = (   0.3750000   0.8750000   0.0000000  )
       114           Al  tau( 114) = (   0.3750000   0.7500000   0.1250000  )
       115           Al  tau( 115) = (   0.2500000   0.8750000   0.1250000  )
       116           Al  tau( 116) = (   0.2500000   0.7500000   0.2500000  )
       117           Al  tau( 117) = (   0.3750000   0.8750000   0.2500000  )
       118           Al  tau( 118) = (   0.3750000   0.7500000   0.3750000  )
       119           Al  tau( 119) = (   0.2500000   0.8750000   0.3750000  )
       120           Al  tau( 120) = (   0.2500000   0.7500000   0.5000000  )
       121           Al  tau( 121) = (   0.3750000   0.8750000   0.5000000  )
       122           Al  tau( 122) = (   0.3750000   0.7500000   0.6250000  )
       123           Al  tau( 123) = (   0.2500000   0.8750000   0.6250000  )
       124           Al  tau( 124) = (   0.2500000   0.7500000   0.7500000  )
       125           Al  tau( 125) = (   0.3750000   0.8750000   0.7500000  )
       126           Al  tau( 126) = (   0.3750000   0.7500000   0.8750000  )
       127           Al  tau( 127) = (   0.2500000   0.8750000   0.8750000  )
       128           Al  tau( 128) = (   0.5000000   0.0000000   0.0000000  )
       129           Al  tau( 129) = (   0.6250000   0.1250000   0.0000000  )
       130           Al  tau( 130) = (   0.6250000   0.0000000   0.1250000  )
       131           Al  tau( 131) = (   0.5000000   0.1250000   0.1250000  )
       132           Al  tau( 132) = (   0.5000000   0.0000000   0.2500000  )
       133           Al  tau( 133) = (   0.6250000   0.1250000   0.2500000  )
       134           Al  tau( 134) = (   0.6250000   0.0000000   0.3750000  )
       135           Al  tau( 135) = (   0.5000000   0.1250000   0.3750000  )
       136           Al  tau( 136) = (   0.5000000   0.0000000   0.5000000  )
       137           Al  tau( 137) = (   0.6250000   0.1250000   0.5000000  )
       138           Al  tau( 138) = (   0.6250000   0.0000000   0.6250000  )
       139           Al  tau( 139) = (   0.5000000   0.1250000   0.6250000  )
       140           Al  tau( 140) = (   0.5000000   0.0000000   0.7500000  )
       141           Al  tau( 141) = (   0.6250000   0.1250000   0.7500000  )
       142           Al  tau( 142) = (   0.6250000   0.0000000   0.8750000  )
       143           Al  tau( 143) = (   0.5000000   0.1250000   0.8750000  )
       144           Al  tau( 144) = (   0.5000000   0.2500000   0.0000000  )
       145           Al  tau( 145) = (   0.6250000   0.3750000   0.0000000  )
       146           Al  tau( 146) = (   0.6250000   0.2500000   0.1250000  )
       147           Al  tau( 147) = (   0.5000000   0.3750000   0.1250000  )
       148           Al  tau( 148) = (   0.5000000   0.2500000   0.2500000  )
       149           Al  tau( 149) = (   0.6250000   0.3750000   0.2500000  )
       150           Al  tau( 150) = (   0.6250000   0.2500000   0.3750000  )
       151           Al  tau( 151) = (   0.5000000   0.3750000   0.3750000  )
       152           Al  tau( 152) = (   0.5000000   0.2500000   0.5000000  )
       153           Al  tau( 153) = (   0.6250000   0.3750000   0.5000000  )
       154           Al  tau( 154) = (   0.6250000   0.2500000   0.6250000  )
       155           Al  tau( 155) = (   0.5000000   0.3750000   0.6250000  )
       156           Al  tau( 156) = (   0.5000000   0.2500000   0.7500000  )
       157           Al  tau( 157) = (   0.6250000   0.3750000   0.7500000  )
       158           Al  tau( 158) = (   0.6250000   0.2500000   0.8750000  )
       159           Al  tau( 159) = (   0.5000000   0.3750000   0.8750000  )
       160           Al  tau( 160) = (   0.5000000   0.5000000   0.0000000  )
       161           Al  tau( 161) = (   0.6250000   0.6250000   0.0000000  )
       162           Al  tau( 162) = (   0.6250000   0.5000000   0.1250000  )
       163           Al  tau( 163) = (   0.5000000   0.6250000   0.1250000  )
       164           Al  tau( 164) = (   0.5000000   0.5000000   0.2500000  )
       165           Al  tau( 165) = (   0.6250000   0.6250000   0.2500000  )
       166           Al  tau( 166) = (   0.6250000   0.5000000   0.3750000  )
       167           Al  tau( 167) = (   0.5000000   0.6250000   0.3750000  )
       168           Al  tau( 168) = (   0.5000000   0.5000000   0.5000000  )
       169           Al  tau( 169) = (   0.6250000   0.6250000   0.5000000  )
       170           Al  tau( 170) = (   0.6250000   0.5000000   0.6250000  )
       171           Al  tau( 171) = (   0.5000000   0.6250000   0.6250000  )
       172           Al  tau( 172) = (   0.5000000   0.5000000   0.7500000  )
       173           Al  tau( 173) = (   0.6250000   0.6250000   0.7500000  )
       174           Al  tau( 174) = (   0.6250000   0.5000000   0.8750000  )
       175           Al  tau( 175) = (   0.5000000   0.6250000   0.8750000  )
       176           Al  tau( 176) = (   0.5000000   0.7500000   0.0000000  )
       177           Al  tau( 177) = (   0.6250000   0.8750000   0.0000000  )
       178           Al  tau( 178) = (   0.6250000   0.7500000   0.1250000  )
       179           Al  tau( 179) = (   0.5000000   0.8750000   0.1250000  )
       180           Al  tau( 180) = (   0.5000000   0.7500000   0.2500000  )
       181           Al  tau( 181) = (   0.6250000   0.8750000   0.2500000  )
       182           Al  tau( 182) = (   0.6250000   0.7500000   0.3750000  )
       183           Al  tau( 183) = (   0.5000000   0.8750000   0.3750000  )
       184           Al  tau( 184) = (   0.5000000   0.7500000   0.5000000  )
       185           Al  tau( 185) = (   0.6250000   0.8750000   0.5000000  )
       186           Al  tau( 186) = (   0.6250000   0.7500000   0.6250000  )
       187           Al  tau( 187) = (   0.5000000   0.8750000   0.6250000  )
       188           Al  tau( 188) = (   0.5000000   0.7500000   0.7500000  )
       189           Al  tau( 189) = (   0.6250000   0.8750000   0.7500000  )
       190           Al  tau( 190) = (   0.6250000   0.7500000   0.8750000  )
       191           Al  tau( 191) = (   0.5000000   0.8750000   0.8750000  )
       192           Al  tau( 192) = (   0.7500000   0.0000000   0.0000000  )
       193           Al  tau( 193) = (   0.8750000   0.1250000   0.0000000  )
       194           Al  tau( 194) = (   0.8750000   0.0000000   0.1250000  )
       195           Al  tau( 195) = (   0.7500000   0.1250000   0.1250000  )
       196           Al  tau( 196) = (   0.7500000   0.0000000   0.2500000  )
       197           Al  tau( 197) = (   0.8750000   0.1250000   0.2500000  )
       198           Al  tau( 198) = (   0.8750000   0.0000000   0.3750000  )
       199           Al  tau( 199) = (   0.7500000   0.1250000   0.3750000  )
       200           Al  tau( 200) = (   0.7500000   0.0000000   0.5000000  )
       201           Al  tau( 201) = (   0.8750000   0.1250000   0.5000000  )
       202           Al  tau( 202) = (   0.8750000   0.0000000   0.6250000  )
       203           Al  tau( 203) = (   0.7500000   0.1250000   0.6250000  )
       204           Al  tau( 204) = (   0.7500000   0.0000000   0.7500000  )
       205           Al  tau( 205) = (   0.8750000   0.1250000   0.7500000  )
       206           Al  tau( 206) = (   0.8750000   0.0000000   0.8750000  )
       207           Al  tau( 207) = (   0.7500000   0.1250000   0.8750000  )
       208           Al  tau( 208) = (   0.7500000   0.2500000   0.0000000  )
       209           Al  tau( 209) = (   0.8750000   0.3750000   0.0000000  )
       210           Al  tau( 210) = (   0.8750000   0.2500000   0.1250000  )
       211           Al  tau( 211) = (   0.7500000   0.3750000   0.1250000  )
       212           Al  tau( 212) = (   0.7500000   0.2500000   0.2500000  )
       213           Al  tau( 213) = (   0.8750000   0.3750000   0.2500000  )
       214           Al  tau( 214) = (   0.8750000   0.2500000   0.3750000  )
       215           Al  tau( 215) = (   0.7500000   0.3750000   0.3750000  )
       216           Al  tau( 216) = (   0.7500000   0.2500000   0.5000000  )
       217           Al  tau( 217) = (   0.8750000   0.3750000   0.5000000  )
       218           Al  tau( 218) = (   0.8750000   0.2500000   0.6250000  )
       219           Al  tau( 219) = (   0.7500000   0.3750000   0.6250000  )
       220           Al  tau( 220) = (   0.7500000   0.2500000   0.7500000  )
       221           Al  tau( 221) = (   0.8750000   0.3750000   0.7500000  )
       222           Al  tau( 222) = (   0.8750000   0.2500000   0.8750000  )
       223           Al  tau( 223) = (   0.7500000   0.3750000   0.8750000  )
       224           Al  tau( 224) = (   0.7500000   0.5000000   0.0000000  )
       225           Al  tau( 225) = (   0.8750000   0.6250000   0.0000000  )
       226           Al  tau( 226) = (   0.8750000   0.5000000   0.1250000  )
       227           Al  tau( 227) = (   0.7500000   0.6250000   0.1250000  )
       228           Al  tau( 228) = (   0.7500000   0.5000000   0.2500000  )
       229           Al  tau( 229) = (   0.8750000   0.6250000   0.2500000  )
       230           Al  tau( 230) = (   0.8750000   0.5000000   0.3750000  )
       231           Al  tau( 231) = (   0.7500000   0.6250000   0.3750000  )
       232           Al  tau( 232) = (   0.7500000   0.5000000   0.5000000  )
       233           Al  tau( 233) = (   0.8750000   0.6250000   0.5000000  )
       234           Al  tau( 234) = (   0.8750000   0.5000000   0.6250000  )
       235           Al  tau( 235) = (   0.7500000   0.6250000   0.6250000  )
       236           Al  tau( 236) = (   0.7500000   0.5000000   0.7500000  )
       237           Al  tau( 237) = (   0.8750000   0.6250000   0.7500000  )
       238           Al  tau( 238) = (   0.8750000   0.5000000   0.8750000  )
       239           Al  tau( 239) = (   0.7500000   0.6250000   0.8750000  )
       240           Al  tau( 240) = (   0.7500000   0.7500000   0.0000000  )
       241           Al  tau( 241) = (   0.8750000   0.8750000   0.0000000  )
       242           Al  tau( 242) = (   0.8750000   0.7500000   0.1250000  )
       243           Al  tau( 243) = (   0.7500000   0.8750000   0.1250000  )
       244           Al  tau( 244) = (   0.7500000   0.7500000   0.2500000  )
       245           Al  tau( 245) = (   0.8750000   0.8750000   0.2500000  )
       246           Al  tau( 246) = (   0.8750000   0.7500000   0.3750000  )
       247           Al  tau( 247) = (   0.7500000   0.8750000   0.3750000  )
       248           Al  tau( 248) = (   0.7500000   0.7500000   0.5000000  )
       249           Al  tau( 249) = (   0.8750000   0.8750000   0.5000000  )
       250           Al  tau( 250) = (   0.8750000   0.7500000   0.6250000  )
       251           Al  tau( 251) = (   0.7500000   0.8750000   0.6250000  )
       252           Al  tau( 252) = (   0.7500000   0.7500000   0.7500000  )
       253           Al  tau( 253) = (   0.8750000   0.8750000   0.7500000  )
       254           Al  tau( 254) = (   0.8750000   0.7500000   0.8750000  )
       255           Al  tau( 255) = (   0.7500000   0.8750000   0.8750000  )

   Crystallographic axes

     site n.     atom                  positions (cryst. coord.)
         1           Al  tau(   1) = (  0.1250000  0.1250000  0.0000000  )
         2           Al  tau(   2) = (  0.1250000  0.0000000  0.1250000  )
         3           Al  tau(   3) = (  0.0000000  0.1250000  0.1250000  )
         4           Al  tau(   4) = (  0.0000000  0.0000000  0.2500000  )
         5           Al  tau(   5) = (  0.1250000  0.1250000  0.2500000  )
         6           Al  tau(   6) = (  0.1250000  0.0000000  0.3750000  )
         7           Al  tau(   7) = (  0.0000000  0.1250000  0.3750000  )
         8           Al  tau(   8) = (  0.0000000  0.0000000  0.5000000  )
         9           Al  tau(   9) = (  0.1250000  0.1250000  0.5000000  )
        10           Al  tau(  10) = (  0.1250000  0.0000000  0.6250000  )
        11           Al  tau(  11) = (  0.0000000  0.1250000  0.6250000  )
        12           Al  tau(  12) = (  0.0000000  0.0000000  0.7500000  )
        13           Al  tau(  13) = (  0.1250000  0.1250000  0.7500000  )
        14           Al  tau(  14) = (  0.1250000  0.0000000  0.8750000  )
        15           Al  tau(  15) = (  0.0000000  0.1250000  0.8750000  )
        16           Al  tau(  16) = (  0.0000000  0.2500000  0.0000000  )
        17           Al  tau(  17) = (  0.1250000  0.3750000  0.0000000  )
        18           Al  tau(  18) = (  0.1250000  0.2500000  0.1250000  )
        19           Al  tau(  19) = (  0.0000000  0.3750000  0.1250000  )
        20           Al  tau(  20) = (  0.0000000  0.2500000  0.2500000  )
        21           Al  tau(  21) = (  0.1250000  0.3750000  0.2500000  )
        22           Al  tau(  22) = (  0.1250000  0.2500000  0.3750000  )
        23           Al  tau(  23) = (  0.0000000  0.3750000  0.3750000  )
        24           Al  tau(  24) = (  0.0000000  0.2500000  0.5000000  )
        25           Al  tau(  25) = (  0.1250000  0.3750000  0.5000000  )
        26           Al  tau(  26) = (  0.1250000  0.2500000  0.6250000  )
        27           Al  tau(  27) = (  0.0000000  0.3750000  0.6250000  )
        28           Al  tau(  28) = (  0.0000000  0.2500000  0.7500000  )
        29           Al  tau(  29) = (  0.1250000  0.3750000  0.7500000  )
        30           Al  tau(  30) = (  0.1250000  0.2500000  0.8750000  )
        31           Al  tau(  31) = (  0.0000000  0.3750000  0.8750000  )
        32           Al  tau(  32) = (  0.0000000  0.5000000  0.0000000  )
        33           Al  tau(  33) = (  0.1250000  0.6250000  0.0000000  )
        34           Al  tau(  34) = (  0.1250000  0.5000000  0.1250000  )
        35           Al  tau(  35) = (  0.0000000  0.6250000  0.1250000  )
        36           Al  tau(  36) = (  0.0000000  0.5000000  0.2500000  )
        37           Al  tau(  37) = (  0.1250000  0.6250000  0.2500000  )
        38           Al  tau(  38) = (  0.1250000  0.5000000  0.3750000  )
        39           Al  tau(  39) = (  0.0000000  0.6250000  0.3750000  )
        40           Al  tau(  40) = (  0.0000000  0.5000000  0.5000000  )
        41           Al  tau(  41) = (  0.1250000  0.6250000  0.5000000  )
        42           Al  tau(  42) = (  0.1250000  0.5000000  0.6250000  )
        43           Al  tau(  43) = (  0.0000000  0.6250000  0.6250000  )
        44           Al  tau(  44) = (  0.0000000  0.5000000  0.7500000  )
        45           Al  tau(  45) = (  0.1250000  0.6250000  0.7500000  )
        46           Al  tau(  46) = (  0.1250000  0.5000000  0.8750000  )
        47           Al  tau(  47) = (  0.0000000  0.6250000  0.8750000  )
        48           Al  tau(  48) = (  0.0000000  0.7500000  0.0000000  )
        49           Al  tau(  49) = (  0.1250000  0.8750000  0.0000000  )
        50           Al  tau(  50) = (  0.1250000  0.7500000  0.1250000  )
        51           Al  tau(  51) = (  0.0000000  0.8750000  0.1250000  )
        52           Al  tau(  52) = (  0.0000000  0.7500000  0.2500000  )
        53           Al  tau(  53) = (  0.1250000  0.8750000  0.2500000  )
        54           Al  tau(  54) = (  0.1250000  0.7500000  0.3750000  )
        55           Al  tau(  55) = (  0.0000000  0.8750000  0.3750000  )
        56           Al  tau(  56) = (  0.0000000  0.7500000  0.5000000  )
        57           Al  tau(  57) = (  0.1250000  0.8750000  0.5000000  )
        58           Al  tau(  58) = (  0.1250000  0.7500000  0.6250000  )
        59           Al  tau(  59) = (  0.0000000  0.8750000  0.6250000  )
        60           Al  tau(  60) = (  0.0000000  0.7500000  0.7500000  )
        61           Al  tau(  61) = (  0.1250000  0.8750000  0.7500000  )
        62           Al  tau(  62) = (  0.1250000  0.7500000  0.8750000  )
        63           Al  tau(  63) = (  0.0000000  0.8750000  0.8750000  )
        64           Al  tau(  64) = (  0.2500000  0.0000000  0.0000000  )
        65           Al  tau(  65) = (  0.3750000  0.1250000  0.0000000  )
        66           Al  tau(  66) = (  0.3750000  0.0000000  0.1250000  )
        67           Al  tau(  67) = (  0.2500000  0.1250000  0.1250000  )
        68           Al  tau(  68) = (  0.2500000  0.0000000  0.2500000  )
        69           Al  tau(  69) = (  0.3750000  0.1250000  0.2500000  )
        70           Al  tau(  70) = (  0.3750000  0.0000000  0.3750000  )
        71           Al  tau(  71) = (  0.2500000  0.1250000  0.3750000  )
        72           Al  tau(  72) = (  0.2500000  0.0000000  0.5000000  )
        73           Al  tau(  73) = (  0.3750000  0.1250000  0.5000000  )
        74           Al  tau(  74) = (  0.3750000  0.0000000  0.6250000  )
        75           Al  tau(  75) = (  0.2500000  0.1250000  0.6250000  )
        76           Al  tau(  76) = (  0.2500000  0.0000000  0.7500000  )
        77           Al  tau(  77) = (  0.3750000  0.1250000  0.7500000  )
        78           Al  tau(  78) = (  0.3750000  0.0000000  0.8750000  )
        79           Al  tau(  79) = (  0.2500000  0.1250000  0.8750000  )
        80           Al  tau(  80) = (  0.2500000  0.2500000  0.0000000  )
        81           Al  tau(  81) = (  0.3750000  0.3750000  0.0000000  )
        82           Al  tau(  82) = (  0.3750000  0.2500000  0.1250000  )
        83           Al  tau(  83) = (  0.2500000  0.3750000  0.1250000  )
        84           Al  tau(  84) = (  0.2500000  0.2500000  0.2500000  )
        85           Al  tau(  85) = (  0.3750000  0.3750000  0.2500000  )
        86           Al  tau(  86) = (  0.3750000  0.2500000  0.3750000  )
        87           Al  tau(  87) = (  0.2500000  0.3750000  0.3750000  )
        88           Al  tau(  88) = (  0.2500000  0.2500000  0.5000000  )
        89           Al  tau(  89) = (  0.3750000  0.3750000  0.5000000  )
        90           Al  tau(  90) = (  0.3750000  0.2500000  0.6250000  )
        91           Al  tau(  91) = (  0.2500000  0.3750000  0.6250000  )
        92           Al  tau(  92) = (  0.2500000  0.2500000  0.7500000  )
        93           Al  tau(  93) = (  0.3750000  0.3750000  0.7500000  )
        94           Al  tau(  94) = (  0.3750000  0.2500000  0.8750000  )
        95           Al  tau(  95) = (  0.2500000  0.3750000  0.8750000  )
        96           Al  tau(  96) = (  0.2500000  0.5000000  0.0000000  )
        97           Al  tau(  97) = (  0.3750000  0.6250000  0.0000000  )
        98           Al  tau(  98) = (  0.3750000  0.5000000  0.1250000  )
        99           Al  tau(  99) = (  0.2500000  0.6250000  0.1250000  )
       100           Al  tau( 100) = (  0.2500000  0.5000000  0.2500000  )
       101           Al  tau( 101) = (  0.3750000  0.6250000  0.2500000  )
       102           Al  tau( 102) = (  0.3750000  0.5000000  0.3750000  )
       103           Al  tau( 103) = (  0.2500000  0.6250000  0.3750000  )
       104           Al  tau( 104) = (  0.2500000  0.5000000  0.5000000  )
       105           Al  tau( 105) = (  0.3750000  0.6250000  0.5000000  )
       106           Al  tau( 106) = (  0.3750000  0.5000000  0.6250000  )
       107           Al  tau( 107) = (  0.2500000  0.6250000  0.6250000  )
       108           Al  tau( 108) = (  0.2500000  0.5000000  0.7500000  )
       109           Al  tau( 109) = (  0.3750000  0.6250000  0.7500000  )
       110           Al  tau( 110) = (  0.3750000  0.5000000  0.8750000  )
       111           Al  tau( 111) = (  0.2500000  0.6250000  0.8750000  )
       112           Al  tau( 112) = (  0.2500000  0.7500000  0.0000000  )
       113           Al  tau( 113) = (  0.3750000  0.8750000  0.0000000  )
       114           Al  tau( 114) = (  0.3750000  0.7500000  0.1250000  )
       115           Al  tau( 115) = (  0.2500000  0.8750000  0.1250000  )
       116           Al  tau( 116) = (  0.2500000  0.7500000  0.2500000  )
       117           Al  tau( 117) = (  0.3750000  0.8750000  0.2500000  )
       118           Al  tau( 118) = (  0.3750000  0.7500000  0.3750000  )
       119           Al  tau( 119) = (  0.2500000  0.8750000  0.3750000  )
       120           Al  tau( 120) = (  0.2500000  0.7500000  0.5000000  )
       121           Al  tau( 121) = (  0.3750000  0.8750000  0.5000000  )
       122           Al  tau( 122) = (  0.3750000  0.7500000  0.6250000  )
       123           Al  tau( 123) = (  0.2500000  0.8750000  0.6250000  )
       124           Al  tau( 124) = (  0.2500000  0.7500000  0.7500000  )
       125           Al  tau( 125) = (  0.3750000  0.8750000  0.7500000  )
       126           Al  tau( 126) = (  0.3750000  0.7500000  0.8750000  )
       127           Al  tau( 127) = (  0.2500000  0.8750000  0.8750000  )
       128           Al  tau( 128) = (  0.5000000  0.0000000  0.0000000  )
       129           Al  tau( 129) = (  0.6250000  0.1250000  0.0000000  )
       130           Al  tau( 130) = (  0.6250000  0.0000000  0.1250000  )
       131           Al  tau( 131) = (  0.5000000  0.1250000  0.1250000  )
       132           Al  tau( 132) = (  0.5000000  0.0000000  0.2500000  )
       133           Al  tau( 133) = (  0.6250000  0.1250000  0.2500000  )
       134           Al  tau( 134) = (  0.6250000  0.0000000  0.3750000  )
       135           Al  tau( 135) = (  0.5000000  0.1250000  0.3750000  )
       136           Al  tau( 136) = (  0.5000000  0.0000000  0.5000000  )
       137           Al  tau( 137) = (  0.6250000  0.1250000  0.5000000  )
       138           Al  tau( 138) = (  0.6250000  0.0000000  0.6250000  )
       139           Al  tau( 139) = (  0.5000000  0.1250000  0.6250000  )
       140           Al  tau( 140) = (  0.5000000  0.0000000  0.7500000  )
       141           Al  tau( 141) = (  0.6250000  0.1250000  0.7500000  )
       142           Al  tau( 142) = (  0.6250000  0.0000000  0.8750000  )
       143           Al  tau( 143) = (  0.5000000  0.1250000  0.8750000  )
       144           Al  tau( 144) = (  0.5000000  0.2500000  0.0000000  )
       145           Al  tau( 145) = (  0.6250000  0.3750000  0.0000000  )
       146           Al  tau( 146) = (  0.6250000  0.2500000  0.1250000  )
       147           Al  tau( 147) = (  0.5000000  0.3750000  0.1250000  )
       148           Al  tau( 148) = (  0.5000000  0.2500000  0.2500000  )
       149           Al  tau( 149) = (  0.6250000  0.3750000  0.2500000  )
       150           Al  tau( 150) = (  0.6250000  0.2500000  0.3750000  )
       151           Al  tau( 151) = (  0.5000000  0.3750000  0.3750000  )
       152           Al  tau( 152) = (  0.5000000  0.2500000  0.5000000  )
       153           Al  tau( 153) = (  0.6250000  0.3750000  0.5000000  )
       154           Al  tau( 154) = (  0.6250000  0.2500000  0.6250000  )
       155           Al  tau( 155) = (  0.5000000  0.3750000  0.6250000  )
       156           Al  tau( 156) = (  0.5000000  0.2500000  0.7500000  )
       157           Al  tau( 157) = (  0.6250000  0.3750000  0.7500000  )
       158           Al  tau( 158) = (  0.6250000  0.2500000  0.8750000  )
       159           Al  tau( 159) = (  0.5000000  0.3750000  0.8750000  )
       160           Al  tau( 160) = (  0.5000000  0.5000000  0.0000000  )
       161           Al  tau( 161) = (  0.6250000  0.6250000  0.0000000  )
       162           Al  tau( 162) = (  0.6250000  0.5000000  0.1250000  )
       163           Al  tau( 163) = (  0.5000000  0.6250000  0.1250000  )
       164           Al  tau( 164) = (  0.5000000  0.5000000  0.2500000  )
       165           Al  tau( 165) = (  0.6250000  0.6250000  0.2500000  )
       166           Al  tau( 166) = (  0.6250000  0.5000000  0.3750000  )
       167           Al  tau( 167) = (  0.5000000  0.6250000  0.3750000  )
       168           Al  tau( 168) = (  0.5000000  0.5000000  0.5000000  )
       169           Al  tau( 169) = (  0.6250000  0.6250000  0.5000000  )
       170           Al  tau( 170) = (  0.6250000  0.5000000  0.6250000  )
       171           Al  tau( 171) = (  0.5000000  0.6250000  0.6250000  )
       172           Al  tau( 172) = (  0.5000000  0.5000000  0.7500000  )
       173           Al  tau( 173) = (  0.6250000  0.6250000  0.7500000  )
       174           Al  tau( 174) = (  0.6250000  0.5000000  0.8750000  )
       175           Al  tau( 175) = (  0.5000000  0.6250000  0.8750000  )
       176           Al  tau( 176) = (  0.5000000  0.7500000  0.0000000  )
       177           Al  tau( 177) = (  0.6250000  0.8750000  0.0000000  )
       178           Al  tau( 178) = (  0.6250000  0.7500000  0.1250000  )
       179           Al  tau( 179) = (  0.5000000  0.8750000  0.1250000  )
       180           Al  tau( 180) = (  0.5000000  0.7500000  0.2500000  )
       181           Al  tau( 181) = (  0.6250000  0.8750000  0.2500000  )
       182           Al  tau( 182) = (  0.6250000  0.7500000  0.3750000  )
       183           Al  tau( 183) = (  0.5000000  0.8750000  0.3750000  )
       184           Al  tau( 184) = (  0.5000000  0.7500000  0.5000000  )
       185           Al  tau( 185) = (  0.6250000  0.8750000  0.5000000  )
       186           Al  tau( 186) = (  0.6250000  0.7500000  0.6250000  )
       187           Al  tau( 187) = (  0.5000000  0.8750000  0.6250000  )
       188           Al  tau( 188) = (  0.5000000  0.7500000  0.7500000  )
       189           Al  tau( 189) = (  0.6250000  0.8750000  0.7500000  )
       190           Al  tau( 190) = (  0.6250000  0.7500000  0.8750000  )
       191           Al  tau( 191) = (  0.5000000  0.8750000  0.8750000  )
       192           Al  tau( 192) = (  0.7500000  0.0000000  0.0000000  )
       193           Al  tau( 193) = (  0.8750000  0.1250000  0.0000000  )
       194           Al  tau( 194) = (  0.8750000  0.0000000  0.1250000  )
       195           Al  tau( 195) = (  0.7500000  0.1250000  0.1250000  )
       196           Al  tau( 196) = (  0.7500000  0.0000000  0.2500000  )
       197           Al  tau( 197) = (  0.8750000  0.1250000  0.2500000  )
       198           Al  tau( 198) = (  0.8750000  0.0000000  0.3750000  )
       199           Al  tau( 199) = (  0.7500000  0.1250000  0.3750000  )
       200           Al  tau( 200) = (  0.7500000  0.0000000  0.5000000  )
       201           Al  tau( 201) = (  0.8750000  0.1250000  0.5000000  )
       202           Al  tau( 202) = (  0.8750000  0.0000000  0.6250000  )
       203           Al  tau( 203) = (  0.7500000  0.1250000  0.6250000  )
       204           Al  tau( 204) = (  0.7500000  0.0000000  0.7500000  )
       205           Al  tau( 205) = (  0.8750000  0.1250000  0.7500000  )
       206           Al  tau( 206) = (  0.8750000  0.0000000  0.8750000  )
       207           Al  tau( 207) = (  0.7500000  0.1250000  0.8750000  )
       208           Al  tau( 208) = (  0.7500000  0.2500000  0.0000000  )
       209           Al  tau( 209) = (  0.8750000  0.3750000  0.0000000  )
       210           Al  tau( 210) = (  0.8750000  0.2500000  0.1250000  )
       211           Al  tau( 211) = (  0.7500000  0.3750000  0.1250000  )
       212           Al  tau( 212) = (  0.7500000  0.2500000  0.2500000  )
       213           Al  tau( 213) = (  0.8750000  0.3750000  0.2500000  )
       214           Al  tau( 214) = (  0.8750000  0.2500000  0.3750000  )
       215           Al  tau( 215) = (  0.7500000  0.3750000  0.3750000  )
       216           Al  tau( 216) = (  0.7500000  0.2500000  0.5000000  )
       217           Al  tau( 217) = (  0.8750000  0.3750000  0.5000000  )
       218           Al  tau( 218) = (  0.8750000  0.2500000  0.6250000  )
       219           Al  tau( 219) = (  0.7500000  0.3750000  0.6250000  )
       220           Al  tau( 220) = (  0.7500000  0.2500000  0.7500000  )
       221           Al  tau( 221) = (  0.8750000  0.3750000  0.7500000  )
       222           Al  tau( 222) = (  0.8750000  0.2500000  0.8750000  )
       223           Al  tau( 223) = (  0.7500000  0.3750000  0.8750000  )
       224           Al  tau( 224) = (  0.7500000  0.5000000  0.0000000  )
       225           Al  tau( 225) = (  0.8750000  0.6250000  0.0000000  )
       226           Al  tau( 226) = (  0.8750000  0.5000000  0.1250000  )
       227           Al  tau( 227) = (  0.7500000  0.6250000  0.1250000  )
       228           Al  tau( 228) = (  0.7500000  0.5000000  0.2500000  )
       229           Al  tau( 229) = (  0.8750000  0.6250000  0.2500000  )
       230           Al  tau( 230) = (  0.8750000  0.5000000  0.3750000  )
       231           Al  tau( 231) = (  0.7500000  0.6250000  0.3750000  )
       232           Al  tau( 232) = (  0.7500000  0.5000000  0.5000000  )
       233           Al  tau( 233) = (  0.8750000  0.6250000  0.5000000  )
       234           Al  tau( 234) = (  0.8750000  0.5000000  0.6250000  )
       235           Al  tau( 235) = (  0.7500000  0.6250000  0.6250000  )
       236           Al  tau( 236) = (  0.7500000  0.5000000  0.7500000  )
       237           Al  tau( 237) = (  0.8750000  0.6250000  0.7500000  )
       238           Al  tau( 238) = (  0.8750000  0.5000000  0.8750000  )
       239           Al  tau( 239) = (  0.7500000  0.6250000  0.8750000  )
       240           Al  tau( 240) = (  0.7500000  0.7500000  0.0000000  )
       241           Al  tau( 241) = (  0.8750000  0.8750000  0.0000000  )
       242           Al  tau( 242) = (  0.8750000  0.7500000  0.1250000  )
       243           Al  tau( 243) = (  0.7500000  0.8750000  0.1250000  )
       244           Al  tau( 244) = (  0.7500000  0.7500000  0.2500000  )
       245           Al  tau( 245) = (  0.8750000  0.8750000  0.2500000  )
       246           Al  tau( 246) = (  0.8750000  0.7500000  0.3750000  )
       247           Al  tau( 247) = (  0.7500000  0.8750000  0.3750000  )
       248           Al  tau( 248) = (  0.7500000  0.7500000  0.5000000  )
       249           Al  tau( 249) = (  0.8750000  0.8750000  0.5000000  )
       250           Al  tau( 250) = (  0.8750000  0.7500000  0.6250000  )
       251           Al  tau( 251) = (  0.7500000  0.8750000  0.6250000  )
       252           Al  tau( 252) = (  0.7500000  0.7500000  0.7500000  )
       253           Al  tau( 253) = (  0.8750000  0.8750000  0.7500000  )
       254           Al  tau( 254) = (  0.8750000  0.7500000  0.8750000  )
       255           Al  tau( 255) = (  0.7500000  0.8750000  0.8750000  )

     number of k points=    63  Methfessel-Paxton smearing, width (Ry)=  0.0441
                       cart. coord. in units 2pi/alat
        k(    1) = (   0.0000000   0.0000000   0.0000000), wk =   0.0160000
        k(    2) = (   0.0000000   0.0000000   0.2000000), wk =   0.0320000
        k(    3) = (   0.0000000   0.0000000   0.4000000), wk =   0.0320000
        k(    4) = (   0.0000000   0.2000000   0.0000000), wk =   0.0320000
        k(    5) = (   0.0000000   0.2000000   0.2000000), wk =   0.0320000
        k(    6) = (   0.0000000   0.2000000   0.4000000), wk =   0.0320000
        k(    7) = (   0.0000000   0.2000000  -0.4000000), wk =   0.0320000
        k(    8) = (   0.0000000   0.2000000  -0.2000000), wk =   0.0320000
        k(    9) = (   0.0000000   0.4000000   0.0000000), wk =   0.0320000
        k(   10) = (   0.0000000   0.4000000   0.2000000), wk =   0.0320000
        k(   11) = (   0.0000000   0.4000000   0.4000000), wk =   0.0320000
        k(   12) = (   0.0000000   0.4000000  -0.4000000), wk =   0.0320000
        k(   13) = (   0.0000000   0.4000000  -0.2000000), wk =   0.0320000
        k(   14) = (   0.2000000   0.0000000   0.0000000), wk =   0.0320000
        k(   15) = (   0.2000000   0.0000000   0.2000000), wk =   0.0320000
        k(   16) = (   0.2000000   0.0000000   0.4000000), wk =   0.0320000
        k(   17) = (   0.2000000   0.0000000  -0.4000000), wk =   0.0320000
        k(   18) = (   0.2000000   0.0000000  -0.2000000), wk =   0.0320000
        k(   19) = (   0.2000000   0.2000000   0.0000000), wk =   0.0320000
        k(   20) = (   0.2000000   0.2000000   0.2000000), wk =   0.0320000
        k(   21) = (   0.2000000   0.2000000   0.4000000), wk =   0.0320000
        k(   22) = (   0.2000000   0.2000000  -0.4000000), wk =   0.0320000
        k(   23) = (   0.2000000   0.2000000  -0.2000000), wk =   0.0320000
        k(   24) = (   0.2000000   0.4000000   0.0000000), wk =   0.0320000
        k(   25) = (   0.2000000   0.4000000   0.2000000), wk =   0.0320000
        k(   26) = (   0.2000000   0.4000000   0.4000000), wk =   0.0320000
        k(   27) = (   0.2000000   0.4000000  -0.4000000), wk =   0.0320000
        k(   28) = (   0.2000000   0.4000000  -0.2000000), wk =   0.0320000
        k(   29) = (   0.2000000  -0.4000000   0.0000000), wk =   0.0320000
        k(   30) = (   0.2000000  -0.4000000   0.2000000), wk =   0.0320000
        k(   31) = (   0.2000000  -0.4000000   0.4000000), wk =   0.0320000
        k(   32) = (   0.2000000  -0.4000000  -0.4000000), wk =   0.0320000
        k(   33) = (   0.2000000  -0.4000000  -0.2000000), wk =   0.0320000
        k(   34) = (   0.2000000  -0.2000000   0.0000000), wk =   0.0320000
        k(   35) = (   0.2000000  -0.2000000   0.2000000), wk =   0.0320000
        k(   36) = (   0.2000000  -0.2000000   0.4000000), wk =   0.0320000
        k(   37) = (   0.2000000  -0.2000000  -0.4000000), wk =   0.0320000
        k(   38) = (   0.2000000  -0.2000000  -0.2000000), wk =   0.0320000
        k(   39) = (   0.4000000   0.0000000   0.0000000), wk =   0.0320000
        k(   40) = (   0.4000000   0.0000000   0.2000000), wk =   0.0320000
        k(   41) = (   0.4000000   0.0000000   0.4000000), wk =   0.0320000
        k(   42) = (   0.4000000   0.0000000  -0.4000000), wk =   0.0320000
        k(   43) = (   0.4000000   0.0000000  -0.2000000), wk =   0.0320000
        k(   44) = (   0.4000000   0.2000000   0.0000000), wk =   0.0320000
        k(   45) = (   0.4000000   0.2000000   0.2000000), wk =   0.0320000
        k(   46) = (   0.4000000   0.2000000   0.4000000), wk =   0.0320000
        k(   47) = (   0.4000000   0.2000000  -0.4000000), wk =   0.0320000
        k(   48) = (   0.4000000   0.2000000  -0.2000000), wk =   0.0320000
        k(   49) = (   0.4000000   0.4000000   0.0000000), wk =   0.0320000
        k(   50) = (   0.4000000   0.4000000   0.2000000), wk =   0.0320000
        k(   51) = (   0.4000000   0.4000000   0.4000000), wk =   0.0320000
        k(   52) = (   0.4000000   0.4000000  -0.4000000), wk =   0.0320000
        k(   53) = (   0.4000000   0.4000000  -0.2000000), wk =   0.0320000
        k(   54) = (   0.4000000  -0.4000000   0.0000000), wk =   0.0320000
        k(   55) = (   0.4000000  -0.4000000   0.2000000), wk =   0.0320000
        k(   56) = (   0.4000000  -0.4000000   0.4000000), wk =   0.0320000
        k(   57) = (   0.4000000  -0.4000000  -0.4000000), wk =   0.0320000
        k(   58) = (   0.4000000  -0.4000000  -0.2000000), wk =   0.0320000
        k(   59) = (   0.4000000  -0.2000000   0.0000000), wk =   0.0320000
        k(   60) = (   0.4000000  -0.2000000   0.2000000), wk =   0.0320000
        k(   61) = (   0.4000000  -0.2000000   0.4000000), wk =   0.0320000
        k(   62) = (   0.4000000  -0.2000000  -0.4000000), wk =   0.0320000
        k(   63) = (   0.4000000  -0.2000000  -0.2000000), wk =   0.0320000

                       cryst. coord.
        k(    1) = (   0.0000000   0.0000000   0.0000000), wk =   0.0160000
        k(    2) = (   0.0000000   0.0000000   0.2000000), wk =   0.0320000
        k(    3) = (   0.0000000   0.0000000   0.4000000), wk =   0.0320000
        k(    4) = (   0.0000000   0.2000000   0.0000000), wk =   0.0320000
        k(    5) = (   0.0000000   0.2000000   0.2000000), wk =   0.0320000
        k(    6) = (   0.0000000   0.2000000   0.4000000), wk =   0.0320000
        k(    7) = (   0.0000000   0.2000000  -0.4000000), wk =   0.0320000
        k(    8) = (   0.0000000   0.2000000  -0.2000000), wk =   0.0320000
        k(    9) = (   0.0000000   0.4000000   0.0000000), wk =   0.0320000
        k(   10) = (   0.0000000   0.4000000   0.2000000), wk =   0.0320000
        k(   11) = (   0.0000000   0.4000000   0.4000000), wk =   0.0320000
        k(   12) = (   0.0000000   0.4000000  -0.4000000), wk =   0.0320000
        k(   13) = (   0.0000000   0.4000000  -0.2000000), wk =   0.0320000
        k(   14) = (   0.2000000   0.0000000   0.0000000), wk =   0.0320000
        k(   15) = (   0.2000000   0.0000000   0.2000000), wk =   0.0320000
        k(   16) = (   0.2000000   0.0000000   0.4000000), wk =   0.0320000
        k(   17) = (   0.2000000   0.0000000  -0.4000000), wk =   0.0320000
        k(   18) = (   0.2000000   0.0000000  -0.2000000), wk =   0.0320000
        k(   19) = (   0.2000000   0.2000000   0.0000000), wk =   0.0320000
        k(   20) = (   0.2000000   0.2000000   0.2000000), wk =   0.0320000
        k(   21) = (   0.2000000   0.2000000   0.4000000), wk =   0.0320000
        k(   22) = (   0.2000000   0.2000000  -0.4000000), wk =   0.0320000
        k(   23) = (   0.2000000   0.2000000  -0.2000000), wk =   0.0320000
        k(   24) = (   0.2000000   0.4000000   0.0000000), wk =   0.0320000
        k(   25) = (   0.2000000   0.4000000   0.2000000), wk =   0.0320000
        k(   26) = (   0.2000000   0.4000000   0.4000000), wk =   0.0320000
        k(   27) = (   0.2000000   0.4000000  -0.4000000), wk =   0.0320000
        k(   28) = (   0.2000000   0.4000000  -0.2000000), wk =   0.0320000
        k(   29) = (   0.2000000  -0.4000000   0.0000000), wk =   0.0320000
        k(   30) = (   0.2000000  -0.4000000   0.2000000), wk =   0.0320000
        k(   31) = (   0.2000000  -0.4000000   0.4000000), wk =   0.0320000
        k(   32) = (   0.2000000  -0.4000000  -0.4000000), wk =   0.0320000
        k(   33) = (   0.2000000  -0.4000000  -0.2000000), wk =   0.0320000
        k(   34) = (   0.2000000  -0.2000000   0.0000000), wk =   0.0320000
        k(   35) = (   0.2000000  -0.2000000   0.2000000), wk =   0.0320000
        k(   36) = (   0.2000000  -0.2000000   0.4000000), wk =   0.0320000
        k(   37) = (   0.2000000  -0.2000000  -0.4000000), wk =   0.0320000
        k(   38) = (   0.2000000  -0.2000000  -0.2000000), wk =   0.0320000
        k(   39) = (   0.4000000   0.0000000   0.0000000), wk =   0.0320000
        k(   40) = (   0.4000000   0.0000000   0.2000000), wk =   0.0320000
        k(   41) = (   0.4000000   0.0000000   0.4000000), wk =   0.0320000
        k(   42) = (   0.4000000   0.0000000  -0.4000000), wk =   0.0320000
        k(   43) = (   0.4000000   0.0000000  -0.2000000), wk =   0.0320000
        k(   44) = (   0.4000000   0.2000000   0.0000000), wk =   0.0320000
        k(   45) = (   0.4000000   0.2000000   0.2000000), wk =   0.0320000
        k(   46) = (   0.4000000   0.2000000   0.4000000), wk =   0.0320000
        k(   47) = (   0.4000000   0.2000000  -0.4000000), wk =   0.0320000
        k(   48) = (   0.4000000   0.2000000  -0.2000000), wk =   0.0320000
        k(   49) = (   0.4000000   0.4000000   0.0000000), wk =   0.0320000
        k(   50) = (   0.4000000   0.4000000   0.2000000), wk =   0.0320000
        k(   51) = (   0.4000000   0.4000000   0.4000000), wk =   0.0320000
        k(   52) = (   0.4000000   0.4000000  -0.4000000), wk =   0.0320000
        k(   53) = (   0.4000000   0.4000000  -0.2000000), wk =   0.0320000
        k(   54) = (   0.4000000  -0.4000000   0.0000000), wk =   0.0320000
        k(   55) = (   0.4000000  -0.4000000   0.2000000), wk =   0.0320000
        k(   56) = (   0.4000000  -0.4000000   0.4000000), wk =   0.0320000
        k(   57) = (   0.4000000  -0.4000000  -0.4000000), wk =   0.0320000
        k(   58) = (   0.4000000  -0.4000000  -0.2000000), wk =   0.0320000
        k(   59) = (   0.4000000  -0.2000000   0.0000000), wk =   0.0320000
        k(   60) = (   0.4000000  -0.2000000   0.2000000), wk =   0.0320000
        k(   61) = (   0.4000000  -0.2000000   0.4000000), wk =   0.0320000
        k(   62) = (   0.4000000  -0.2000000  -0.4000000), wk =   0.0320000
        k(   63) = (   0.4000000  -0.2000000  -0.2000000), wk =   0.0320000

     Dense  grid:  3895379 G-vectors     FFT dimensions: ( 200, 200, 200)

     Smooth grid:   985619 G-vectors     FFT dimensions: ( 125, 125, 125)

     Dynamical RAM for                 wfc:     108.09 MB

     Dynamical RAM for     wfc (w. buffer):     324.28 MB

     Dynamical RAM for           str. fact:       7.43 MB

     Dynamical RAM for           local pot:       0.00 MB

     Dynamical RAM for          nlocal pot:    1078.58 MB

     Dynamical RAM for                qrad:       7.82 MB

     Dynamical RAM for          rho,v,vnew:      45.18 MB

     Dynamical RAM for               rhoin:      15.06 MB

     Dynamical RAM for            rho*nmix:     118.88 MB

     Dynamical RAM for           G-vectors:      28.80 MB

     Dynamical RAM for          h,s,v(r/c):      38.75 MB

     Dynamical RAM for          <psi|beta>:      32.22 MB

     Dynamical RAM for                 psi:     432.37 MB

     Dynamical RAM for                hpsi:     432.37 MB

     Dynamical RAM for                spsi:     432.37 MB

     Dynamical RAM for      wfcinit/wfcrot:     503.19 MB

     Dynamical RAM for           addusdens:      98.23 MB

     Dynamical RAM for          addusforce:     200.56 MB

     Dynamical RAM for         addusstress:      45.09 MB

     Estimated static dynamical RAM per process >       1.64 GB

     Estimated max dynamical RAM per process >       2.98 GB

     Estimated total dynamical RAM >     857.00 GB

     Initial potential from superposition of free atoms

     starting charge  764.41599, renormalised to  765.00000
     Starting wfcs are 1020 randomized atomic wfcs
     Checking if some PAW data can be deallocated... 

     total cpu time spent up to now is      203.5 secs

     Self-consistent Calculation

     iteration #  1     ecut=    40.00 Ry     beta= 0.40
     Davidson diagonalization with overlap
     ethr =  1.00E-02,  avg # of iterations =  3.0

     Threshold (ethr) on eigenvalues was too large:
     Diagonalizing with lowered threshold

     Davidson diagonalization with overlap
     ethr =  1.95E-04,  avg # of iterations =  8.6

     total cpu time spent up to now is      976.6 secs

     total energy              =  -10073.33327360 Ry
     Harris-Foulkes estimate   =  -10073.50657963 Ry
     estimated scf accuracy    <       1.54070373 Ry

     iteration #  2     ecut=    40.00 Ry     beta= 0.40
     Davidson diagonalization with overlap
     ethr =  2.01E-04,  avg # of iterations =  1.1

     total cpu time spent up to now is     1203.6 secs

     total energy              =  -10073.11571852 Ry
     Harris-Foulkes estimate   =  -10073.34103914 Ry
     estimated scf accuracy    <       0.80392397 Ry

     iteration #  3     ecut=    40.00 Ry     beta= 0.40
     Davidson diagonalization with overlap
     ethr =  1.05E-04,  avg # of iterations =  1.1

     total cpu time spent up to now is     1430.2 secs

     total energy              =  -10073.13757034 Ry
     Harris-Foulkes estimate   =  -10073.13954391 Ry
     estimated scf accuracy    <       0.00500607 Ry

     iteration #  4     ecut=    40.00 Ry     beta= 0.40
     Davidson diagonalization with overlap
     c_bands:  2 eigenvalues not converged
     ethr =  6.54E-07,  avg # of iterations = 12.7

     total cpu time spent up to now is     2062.7 secs

     total energy              =  -10073.14193166 Ry
     Harris-Foulkes estimate   =  -10073.14178923 Ry
     estimated scf accuracy    <       0.00994130 Ry

     iteration #  5     ecut=    40.00 Ry     beta= 0.40
     Davidson diagonalization with overlap
     c_bands:  3 eigenvalues not converged
     ethr =  6.54E-07,  avg # of iterations =  2.1

     total cpu time spent up to now is     2335.4 secs

     total energy              =  -10073.13759415 Ry
     Harris-Foulkes estimate   =  -10073.14194364 Ry
     estimated scf accuracy    <       0.01209506 Ry

     iteration #  6     ecut=    40.00 Ry     beta= 0.40
     Davidson diagonalization with overlap
     ethr =  6.54E-07,  avg # of iterations =  8.9

     total cpu time spent up to now is     2773.2 secs

     total energy              =  -10073.14009419 Ry
     Harris-Foulkes estimate   =  -10073.14154368 Ry
     estimated scf accuracy    <       0.01989886 Ry

     iteration #  7     ecut=    40.00 Ry     beta= 0.40
     Davidson diagonalization with overlap
     ethr =  6.54E-07,  avg # of iterations =  2.8

     total cpu time spent up to now is     3044.4 secs

     total energy              =  -10073.14031777 Ry
     Harris-Foulkes estimate   =  -10073.14041718 Ry
     estimated scf accuracy    <       0.00554184 Ry

     iteration #  8     ecut=    40.00 Ry     beta= 0.40
     Davidson diagonalization with overlap
     ethr =  6.54E-07,  avg # of iterations =  1.3

     total cpu time spent up to now is     3290.9 secs

     total energy              =  -10073.13992186 Ry
     Harris-Foulkes estimate   =  -10073.14033516 Ry
     estimated scf accuracy    <       0.00451060 Ry

     iteration #  9     ecut=    40.00 Ry     beta= 0.40
     Davidson diagonalization with overlap
     ethr =  5.90E-07,  avg # of iterations =  1.8

     total cpu time spent up to now is     3538.6 secs

     total energy              =  -10073.13995113 Ry
     Harris-Foulkes estimate   =  -10073.14006137 Ry
     estimated scf accuracy    <       0.00064370 Ry

     iteration # 10     ecut=    40.00 Ry     beta= 0.40
     Davidson diagonalization with overlap
     ethr =  8.41E-08,  avg # of iterations =  4.0

     total cpu time spent up to now is     3842.0 secs

     total energy              =  -10073.14006082 Ry
     Harris-Foulkes estimate   =  -10073.14009692 Ry
     estimated scf accuracy    <       0.00027632 Ry

     iteration # 11     ecut=    40.00 Ry     beta= 0.40
     Davidson diagonalization with overlap
     ethr =  3.61E-08,  avg # of iterations =  2.0

     total cpu time spent up to now is     4079.8 secs

     total energy              =  -10073.14008414 Ry
     Harris-Foulkes estimate   =  -10073.14007931 Ry
     estimated scf accuracy    <       0.00000420 Ry

     iteration # 12     ecut=    40.00 Ry     beta= 0.40
     Davidson diagonalization with overlap
     ethr =  5.49E-10,  avg # of iterations =  5.3

     total cpu time spent up to now is     4574.2 secs

     total energy              =  -10073.14003008 Ry
     Harris-Foulkes estimate   =  -10073.14012010 Ry
     estimated scf accuracy    <       0.00061972 Ry

     iteration # 13     ecut=    40.00 Ry     beta= 0.40
     Davidson diagonalization with overlap
     ethr =  5.49E-10,  avg # of iterations =  5.5

     total cpu time spent up to now is     5085.8 secs

     total energy              =  -10073.14008088 Ry
     Harris-Foulkes estimate   =  -10073.14007984 Ry
     estimated scf accuracy    <       0.00001932 Ry

     iteration # 14     ecut=    40.00 Ry     beta= 0.40
     Davidson diagonalization with overlap
     ethr =  5.49E-10,  avg # of iterations =  2.0

     total cpu time spent up to now is     5321.8 secs

     total energy              =  -10073.14008006 Ry
     Harris-Foulkes estimate   =  -10073.14008113 Ry
     estimated scf accuracy    <       0.00003940 Ry

     iteration # 15     ecut=    40.00 Ry     beta= 0.40
     Davidson diagonalization with overlap
     ethr =  5.49E-10,  avg # of iterations =  1.0

     total cpu time spent up to now is     5548.9 secs

     total energy              =  -10073.14007687 Ry
     Harris-Foulkes estimate   =  -10073.14008014 Ry
     estimated scf accuracy    <       0.00002762 Ry

     iteration # 16     ecut=    40.00 Ry     beta= 0.40
     Davidson diagonalization with overlap
     ethr =  5.49E-10,  avg # of iterations =  3.8

     total cpu time spent up to now is     5842.3 secs

     total energy              =  -10073.14007847 Ry
     Harris-Foulkes estimate   =  -10073.14007847 Ry
     estimated scf accuracy    <       0.00000007 Ry

     iteration # 17     ecut=    40.00 Ry     beta= 0.40
     Davidson diagonalization with overlap
     ethr =  9.03E-12,  avg # of iterations =  5.5

     total cpu time spent up to now is     6196.5 secs

     total energy              =  -10073.14007848 Ry
     Harris-Foulkes estimate   =  -10073.14007848 Ry
     estimated scf accuracy    <       0.00000002 Ry

     iteration # 18     ecut=    40.00 Ry     beta= 0.40
     Davidson diagonalization with overlap
     ethr =  3.08E-12,  avg # of iterations =  2.0

     total cpu time spent up to now is     6429.4 secs

     total energy              =  -10073.14007847 Ry
     Harris-Foulkes estimate   =  -10073.14007847 Ry
     estimated scf accuracy    <       0.00000002 Ry

     iteration # 19     ecut=    40.00 Ry     beta= 0.40
     Davidson diagonalization with overlap
     ethr =  2.00E-12,  avg # of iterations =  1.4

     total cpu time spent up to now is     6659.7 secs

     total energy              =  -10073.14007847 Ry
     Harris-Foulkes estimate   =  -10073.14007847 Ry
     estimated scf accuracy    <          8.5E-09 Ry

     iteration # 20     ecut=    40.00 Ry     beta= 0.40
     Davidson diagonalization with overlap
     ethr =  1.11E-12,  avg # of iterations =  1.1

     total cpu time spent up to now is     6887.3 secs

     total energy              =  -10073.14007847 Ry
     Harris-Foulkes estimate   =  -10073.14007847 Ry
     estimated scf accuracy    <          2.6E-09 Ry

     iteration # 21     ecut=    40.00 Ry     beta= 0.40
     Davidson diagonalization with overlap
     ethr =  3.43E-13,  avg # of iterations =  4.0

     total cpu time spent up to now is     7157.0 secs

     total energy              =  -10073.14007846 Ry
     Harris-Foulkes estimate   =  -10073.14007846 Ry
     estimated scf accuracy    <          1.6E-09 Ry

     iteration # 22     ecut=    40.00 Ry     beta= 0.40
     Davidson diagonalization with overlap
     ethr =  2.06E-13,  avg # of iterations =  3.2

     total cpu time spent up to now is     7450.2 secs

     total energy              =  -10073.14007846 Ry
     Harris-Foulkes estimate   =  -10073.14007846 Ry
     estimated scf accuracy    <          2.2E-09 Ry

     iteration # 23     ecut=    40.00 Ry     beta= 0.40
     Davidson diagonalization with overlap
     ethr =  2.06E-13,  avg # of iterations =  1.0

     total cpu time spent up to now is     7678.6 secs

     total energy              =  -10073.14007846 Ry
     Harris-Foulkes estimate   =  -10073.14007846 Ry
     estimated scf accuracy    <          1.3E-09 Ry

     iteration # 24     ecut=    40.00 Ry     beta= 0.40
     Davidson diagonalization with overlap
     ethr =  1.73E-13,  avg # of iterations =  1.0

     total cpu time spent up to now is     7905.9 secs

     total energy              =  -10073.14007846 Ry
     Harris-Foulkes estimate   =  -10073.14007846 Ry
     estimated scf accuracy    <          3.4E-09 Ry

     iteration # 25     ecut=    40.00 Ry     beta= 0.40
     Davidson diagonalization with overlap
     ethr =  1.73E-13,  avg # of iterations =  1.1

     total cpu time spent up to now is     8133.3 secs

     total energy              =  -10073.14007846 Ry
     Harris-Foulkes estimate   =  -10073.14007846 Ry
     estimated scf accuracy    <          4.0E-09 Ry

     iteration # 26     ecut=    40.00 Ry     beta= 0.40
     Davidson diagonalization with overlap
     ethr =  1.73E-13,  avg # of iterations =  1.5

     total cpu time spent up to now is     8363.3 secs

     total energy              =  -10073.14007846 Ry
     Harris-Foulkes estimate   =  -10073.14007846 Ry
     estimated scf accuracy    <          4.8E-09 Ry

     iteration # 27     ecut=    40.00 Ry     beta= 0.40
     Davidson diagonalization with overlap
     ethr =  1.73E-13,  avg # of iterations =  3.1

     total cpu time spent up to now is     8680.5 secs

     total energy              =  -10073.14007846 Ry
     Harris-Foulkes estimate   =  -10073.14007846 Ry
     estimated scf accuracy    <          2.9E-10 Ry

     iteration # 28     ecut=    40.00 Ry     beta= 0.40
     Davidson diagonalization with overlap
     ethr =  1.00E-13,  avg # of iterations =  1.0

     total cpu time spent up to now is     8907.2 secs

     total energy              =  -10073.14007846 Ry
     Harris-Foulkes estimate   =  -10073.14007846 Ry
     estimated scf accuracy    <          8.3E-12 Ry

     iteration # 29     ecut=    40.00 Ry     beta= 0.40
     Davidson diagonalization with overlap
     ethr =  1.00E-13,  avg # of iterations =  1.0

     total cpu time spent up to now is     9134.2 secs

     total energy              =  -10073.14007846 Ry
     Harris-Foulkes estimate   =  -10073.14007846 Ry
     estimated scf accuracy    <          2.9E-12 Ry

     iteration # 30     ecut=    40.00 Ry     beta= 0.40
     Davidson diagonalization with overlap
     ethr =  1.00E-13,  avg # of iterations =  1.0

     total cpu time spent up to now is     9361.2 secs

     total energy              =  -10073.14007845 Ry
     Harris-Foulkes estimate   =  -10073.14007845 Ry
     estimated scf accuracy    <          1.1E-12 Ry

     iteration # 31     ecut=    40.00 Ry     beta= 0.40
     Davidson diagonalization with overlap
     ethr =  1.00E-13,  avg # of iterations =  1.0

     total cpu time spent up to now is     9587.6 secs

     End of self-consistent calculation

          k = 0.0000 0.0000 0.0000 (123065 PWs)   bands (ev):

    -3.3039  -2.7559  -2.7559  -2.7522  -2.7522  -2.7522  -2.6875  -2.1970
    -2.1970  -2.1970  -2.1966  -2.1966  -2.1966  -2.1964  -2.1964  -2.1823
    -2.1823  -2.1822  -2.0537  -1.6405  -1.6388  -1.6388  -1.6388  -1.6265
    -1.6265  -1.6265  -1.5352  -1.0832  -1.0832  -1.0733  -1.0733  -1.0733
    -1.0263  -0.5330  -0.5329  -0.5329  -0.5327  -0.5327  -0.5327  -0.5327
    -0.5327  -0.5327  -0.5327  -0.5327  -0.5327  -0.5322  -0.5322  -0.5322
    -0.5279  -0.5279  -0.5279  -0.5257  -0.5257  -0.4785  -0.4785  -0.4785
    -0.3317   0.0176   0.0176   0.0176   0.0177   0.0177   0.0178   0.0178
     0.0178   0.0182   0.0182   0.0182   0.0185   0.0185   0.0185   0.0187
     0.0223   0.0223   0.0282   0.0282   0.0282   0.0869   0.0869   0.0869
     0.3859   1.1137   1.1137   1.1137   1.1155   1.1155   1.1206   1.1206
     1.1206   1.1443   1.1443   1.1443   1.2119   1.6518   1.6532   1.6532
     1.6532   1.6537   1.6537   1.6570   1.6570   1.6570   1.6570   1.6570
     1.6570   1.6572   1.6572   1.6573   1.6573   1.6573   1.6583   1.6583
     1.6583   1.6616   1.6637   1.6637   1.6781   1.6781   1.6781   1.7432
     1.7432   1.7432   1.8814   2.1921   2.1921   2.1921   2.1922   2.1922
     2.1922   2.1922   2.1922   2.1924   2.1932   2.1932   2.1932   2.1937
     2.1937   2.1937   2.2000   2.2000   2.2000   2.2166   2.2166   2.2780
     2.2780   2.2780   2.4226   2.7313   2.7313   2.7316   2.7316   2.7316
     2.7323   2.7323   2.7323   2.7335   2.7335   2.7335   2.7339   2.7344
     2.7344   2.7344   2.7463   2.7463   2.7463   2.7530   2.7530   2.8276
     2.8276   2.8276   3.0338   3.1964   3.2218   3.2218   3.2218   3.3869
     3.3869   3.3869   3.4610   3.8046   3.8046   3.8046   3.8047   3.8049
     3.8049   3.8053   3.8053   3.8053   3.8064   3.8064   3.8064   3.8099
     3.8099   3.8099   3.8214   3.8214   3.8291   3.8291   3.8291   3.8776
     3.8776   3.8776   3.9903   4.2307   4.2307   4.2307   4.2309   4.2309
     4.2309   4.2310   4.2310   4.2310   4.2319   4.2319   4.2319   4.2319
     4.2319   4.2319   4.2415   4.2415   4.2415   4.2435   4.2548   4.2548
     4.3662   4.3662   4.3662   4.4619   4.4619   4.4619   4.4619   4.4620
     4.4620   4.4620   4.4622   4.4622   4.4624   4.4624   4.4624   4.4624
     4.4624   4.4700   4.4700   4.4700   4.5195   4.5195   4.5195   4.5321
     4.5321   4.5321   4.8723   4.8723   4.8723   5.0258   5.3593   5.3593
     5.3593   5.3599   5.3599   5.3599   5.3658   5.3658   5.3658   5.4405
     5.4405   5.4405   5.8748   5.8748   5.8757   5.8768   5.8768   5.8768
     5.8827   5.8827   5.8827   5.9113   5.9113   5.9113   5.9480   5.9480
     5.9480   5.9481   5.9481   5.9484   5.9484   5.9484   5.9493   5.9493
     5.9493   5.9493   5.9493   5.9493   5.9508   5.9508   5.9674   5.9998
     5.9998   5.9998   6.0628   6.0804   6.0804   6.0804   6.1560   6.1560
     6.2206   6.4026   6.4026   6.4026   6.4148   6.4148   6.4178   6.4178
     6.4178   6.4216   6.4625   6.4625   6.4625   6.6810   6.6812   6.6812
     6.6826   6.6826   6.6826   6.6898   6.6898   6.6898   6.7447   6.7447
     6.8007   6.9100   6.9100   6.9100   6.9106   6.9106   6.9106   6.9228
     6.9228   6.9228   6.9399   6.9399   6.9399   6.9902   6.9902   6.9902
     6.9903   6.9903   6.9913   6.9913   6.9913   6.9919   6.9919   6.9919
     6.9991   6.9996   6.9996   6.9996   7.0026   7.0026   7.0468   7.0468
     7.0468   7.1088   7.1173   7.1173   7.1173   7.3263   7.3263   7.3263
     7.3269   7.3269   7.3269   7.3301   7.3301   7.3301   7.3686   7.3686
     7.4255   7.4255   7.4255   7.4255   7.4255   7.4256   7.4257   7.4257
     7.4257   7.4267   7.4267   7.4276   7.4276   7.4276   7.4310   7.4310
     7.4310   7.4355   7.4953   7.4953   7.4953   7.6367   7.6367   7.6367
     7.7103   7.9300   7.9659   7.9659   7.9659   7.9682   7.9682   8.5689
     8.5689   8.5689   8.5690   8.5690   8.5694   8.5694   8.5694   8.5698
     8.5698   8.5698   8.5709   8.5709   8.5709   8.5712   8.5712   8.5980
     8.6177   8.6294   8.6294   8.6294   8.6529   8.6529   8.6529   8.7885
     8.7885   8.7931   8.7931   8.7931   8.8161   8.8714   8.8714   8.8714
     8.8714   8.8717   8.8717   8.8717   8.8724   8.8724   8.8724   8.8728
     8.8728   8.8794   8.8794   8.8794   8.8901   8.8901   8.8901   8.9161
     8.9161   8.9161   8.9532   8.9532

     occupation numbers 
     1.0000   1.0000   1.0000   1.0000   1.0000   1.0000   1.0000   1.0000
     1.0000   1.0000   1.0000   1.0000   1.0000   1.0000   1.0000   1.0000
     1.0000   1.0000   1.0000   1.0000   1.0000   1.0000   1.0000   1.0000
     1.0000   1.0000   1.0000   1.0000   1.0000   1.0000   1.0000   1.0000
     1.0000   1.0000   1.0000   1.0000   1.0000   1.0000   1.0000   1.0000
     1.0000   1.0000   1.0000   1.0000   1.0000   1.0000   1.0000   1.0000
     1.0000   1.0000   1.0000   1.0000   1.0000   1.0000   1.0000   1.0000
     1.0000   1.0000   1.0000   1.0000   1.0000   1.0000   1.0000   1.0000
     1.0000   1.0000   1.0000   1.0000   1.0000   1.0000   1.0000   1.0000
     1.0000   1.0000   1.0000   1.0000   1.0000   1.0000   1.0000   1.0000
     1.0000   1.0000   1.0000   1.0000   1.0000   1.0000   1.0000   1.0000
     1.0000   1.0000   1.0000   1.0000   1.0000   1.0000   1.0000   1.0000
     1.0000   1.0000   1.0000   1.0000   1.0000   1.0000   1.0000   1.0000
     1.0000   1.0000   1.0000   1.0000   1.0000   1.0000   1.0000   1.0000
     1.0000   1.0000   1.0000   1.0000   1.0000   1.0000   1.0000   1.0000
     1.0000   1.0000   1.0000   1.0000   1.0000   1.0000   1.0000   1.0000
     1.0000   1.0000   1.0000   1.0000   1.0000   1.0000   1.0000   1.0000
     1.0000   1.0000   1.0000   1.0000   1.0000   1.0000   1.0000   1.0000
     1.0000   1.0000   1.0000   1.0000   1.0000   1.0000   1.0000   1.0000
     1.0000   1.0000   1.0000   1.0000   1.0000   1.0000   1.0000   1.0000
     1.0000   1.0000   1.0000   1.0000   1.0000   1.0000   1.0000   1.0000
     1.0000   1.0000   1.0000   1.0000   1.0000   1.0000   1.0000   1.0000
     1.0000   1.0000   1.0000   1.0000   1.0000   1.0000   1.0000   1.0000
     1.0000   1.0000   1.0000   1.0000   1.0000   1.0000   1.0000   1.0000
     1.0000   1.0000   1.0000   1.0000   1.0000   1.0000   1.0000   1.0000
     1.0000   1.0000   1.0000   1.0000   1.0000   1.0000   1.0000   1.0000
     1.0000   1.0000   1.0000   1.0000   1.0000   1.0000   1.0000   1.0000
     1.0000   1.0000   1.0000   1.0000   1.0000   1.0000   1.0000   1.0000
     1.0000   1.0000   1.0000   1.0000   1.0000   1.0000   1.0000   1.0000
     1.0000   1.0000   1.0000   1.0000   1.0000   1.0000   1.0000   1.0000
     1.0000   1.0000   1.0000   1.0000   1.0000   1.0000   1.0000   1.0000
     1.0000   1.0000   1.0000   1.0000   1.0000   1.0000   1.0000   1.0000
     1.0000   1.0000   1.0000   1.0000   1.0000   1.0000   1.0000   1.0000
     1.0000   1.0000   1.0000   1.0000   1.0000   1.0000   1.0000   1.0000
     1.0001   1.0001   1.0001   1.0001   1.0001   1.0001   1.0001   1.0001
     1.0001   1.0001   1.0001   1.0001   1.0001   1.0001   1.0001   1.0001
     1.0001   1.0001   1.0001   1.0001   1.0001   1.0001   1.0001   1.0002
     1.0002   1.0002   1.0003   1.0003   1.0003   1.0003   1.0006   1.0006
     1.0010   1.0035   1.0035   1.0035   1.0037   1.0037   1.0038   1.0038
     1.0038   1.0039   1.0050   1.0050   1.0050   1.0155   1.0155   1.0155
     1.0156   1.0156   1.0156   1.0161   1.0161   1.0161   1.0200   1.0200
     1.0243   1.0321   1.0321   1.0321   1.0321   1.0321   1.0321   1.0328
     1.0328   1.0328   1.0337   1.0337   1.0337   1.0353   1.0353   1.0353
     1.0353   1.0353   1.0353   1.0353   1.0353   1.0353   1.0353   1.0353
     1.0354   1.0354   1.0354   1.0354   1.0354   1.0354   1.0348   1.0348
     1.0348   1.0303   1.0293   1.0293   1.0293   0.9590   0.9590   0.9590
     0.9587   0.9587   0.9587   0.9568   0.9568   0.9568   0.9318   0.9318
     0.8874   0.8874   0.8874   0.8873   0.8873   0.8872   0.8872   0.8872
     0.8872   0.8863   0.8863   0.8855   0.8855   0.8855   0.8826   0.8826
     0.8826   0.8785   0.8206   0.8206   0.8206   0.6499   0.6499   0.6499
     0.5488   0.2522   0.2104   0.2104   0.2104   0.2079   0.2079  -0.0327
    -0.0327  -0.0327  -0.0327  -0.0327  -0.0327  -0.0327  -0.0327  -0.0327
    -0.0327  -0.0327  -0.0326  -0.0326  -0.0326  -0.0326  -0.0326  -0.0309
    -0.0296  -0.0288  -0.0288  -0.0288  -0.0271  -0.0271  -0.0271  -0.0169
    -0.0169  -0.0166  -0.0166  -0.0166  -0.0150  -0.0116  -0.0116  -0.0116
    -0.0116  -0.0116  -0.0116  -0.0116  -0.0116  -0.0116  -0.0116  -0.0116
    -0.0116  -0.0112  -0.0112  -0.0112  -0.0106  -0.0106  -0.0106  -0.0093
    -0.0093  -0.0093  -0.0076  -0.0076

          k = 0.0000 0.0000 0.2000 (123202 PWs)   bands (ev):

    -3.2816  -2.9458  -2.7335  -2.7299  -2.7299  -2.6900  -2.4968  -2.3978
    -2.3942  -2.3942  -2.3490  -2.1743  -2.1674  -2.1673  -2.1287  -1.9514
    -1.9478  -1.9478  -1.9014  -1.8399  -1.8326  -1.8326  -1.7662  -1.4897
    -1.3952  -1.3885  -1.3885  -1.3383  -1.0611  -1.0514  -1.0514  -1.0294
    -0.9521  -0.9486  -0.9486  -0.8952  -0.7293  -0.7200  -0.7200  -0.6933
    -0.6078  -0.5106  -0.5106  -0.5106  -0.5085  -0.5059  -0.4850  -0.4850
    -0.4559  -0.3998  -0.3923  -0.3923  -0.3420  -0.2881  -0.2780  -0.2780
    -0.2548  -0.1801  -0.1801  -0.1800  -0.1779  -0.1752  -0.1468  -0.1468
    -0.0732  -0.0700  -0.0656  -0.0656   0.0409   0.2595   0.2595   0.2596
     0.2617   0.2644   0.2905   0.2905   0.3656   0.4789   0.4874   0.4874
     0.6028   0.6997   0.7106   0.7106   0.7635   1.0376   1.1422   1.1490
     1.1490   1.1628   1.2437   1.2437   1.2437   1.2458   1.2485   1.2726
     1.2726   1.3303   1.4697   1.4787   1.4787   1.4925   1.5667   1.5708
     1.5708   1.5716   1.5813   1.5813   1.6108   1.6471   1.6792   1.6924
     1.6924   1.7385   1.9039   1.9111   1.9111   1.9243   2.0042   2.0152
     2.0152   2.0251   2.1092   2.1123   2.1123   2.1123   2.1143   2.1163
     2.1163   2.1169   2.1377   2.1377   2.1767   2.1838   2.2138   2.2148
     2.2148   2.2218   2.2247   2.2606   2.2606   2.3092   2.3561   2.4370
     2.4512   2.4512   2.4797   2.5378   2.5388   2.5388   2.5455   2.5497
     2.5906   2.5906   2.6704   2.8551   2.8583   2.8583   2.8715   2.8833
     2.8833   2.9066   2.9156   2.9685   2.9695   2.9695   2.9762   2.9798
     3.0225   3.0225   3.1126   3.1893   3.2009   3.2009   3.2538   3.3915
     3.3988   3.3988   3.4056   3.4206   3.4206   3.4391   3.4960   3.7152
     3.7152   3.7152   3.7174   3.7188   3.7415   3.7415   3.7522   3.7586
     3.7586   3.7843   3.8001   3.8265   3.8270   3.8270   3.8289   3.8501
     3.8616   3.8616   3.8953   3.9245   3.9258   3.9258   3.9319   3.9368
     3.9813   3.9813   4.0402   4.1377   4.1383   4.1383   4.1407   4.1630
     4.1993   4.1993   4.2452   4.2598   4.2822   4.2822   4.3179   4.4603
     4.4644   4.4707   4.4707   4.5129   4.5970   4.5978   4.5978   4.5992
     4.6237   4.6388   4.6388   4.6826   4.8099   4.8114   4.8114   4.8193
     4.8198   4.8422   4.8422   4.9017   4.9017   4.9048   4.9599   4.9634
     4.9634   5.0155   5.0159   5.0159   5.0173   5.0229   5.0417   5.0540
     5.0540   5.1933   5.1933   5.2948   5.3442   5.3508   5.3508   5.3805
     5.3856   5.3865   5.4179   5.4179   5.4771   5.4834   5.4834   5.5453
     5.5459   5.5459   5.5475   5.5512   5.5715   5.5801   5.5801   5.6146
     5.6146   5.6709   5.6900   5.6976   5.7482   5.7482   5.8318   5.8628
     5.8628   5.8923   6.1030   6.1082   6.1467   6.1467   6.1779   6.1900
     6.3850   6.3860   6.3860   6.3916   6.3923   6.3929   6.3929   6.3933
     6.3947   6.4123   6.4186   6.4186   6.4251   6.4251   6.4274   6.4372
     6.4719   6.4820   6.4900   6.4900   6.5031   6.5223   6.5243   6.5243
     6.5255   6.5683   6.5683   6.5899   6.6031   6.6202   6.6202   6.6272
     6.6588   6.7064   6.7064   6.7258   6.7583   6.8176   6.8196   6.8196
     6.8307   6.8587   6.8587   6.8632   6.8920   6.9313   6.9426   6.9537
     6.9637   6.9637   6.9758   7.0333   7.0393   7.0563   7.0563   7.0565
     7.0585   7.0614   7.0614   7.0623   7.1129   7.1129   7.1185   7.1268
     7.1268   7.1952   7.2328   7.2351   7.2351   7.2394   7.2416   7.2642
     7.2823   7.3071   7.3071   7.3364   7.3364   7.3384   7.3902   7.3902
     7.4035   7.5333   7.5333   7.5545   7.6007   7.6307   7.6319   7.6319
     7.6356   7.6431   7.6509   7.6509   7.6556   7.6820   7.6994   7.7144
     7.7144   7.7267   7.7373   7.7373   7.7960   7.7988   7.8614   7.8692
     7.9408   7.9408   7.9665   7.9669   7.9679   7.9679   7.9695   7.9922
     8.0202   8.0202   8.0574   8.1652   8.1672   8.1672   8.1746   8.1963
     8.2291   8.2291   8.2332   8.4780   8.4780   8.5024   8.5361   8.5877
     8.6072   8.6125   8.6125   8.6332   8.6460   8.6460   8.6733   8.6899
     8.7036   8.7036   8.7726   8.9264   8.9264   8.9920   8.9944   9.0144
     9.0165   9.0223   9.0223   9.0260   9.0292   9.0292   9.0729   9.1250
     9.1257   9.1257   9.1543   9.1585   9.1698   9.1698   9.2062   9.2069
     9.2069   9.2084   9.2235   9.2278

     occupation numbers 
     1.0000   1.0000   1.0000   1.0000   1.0000   1.0000   1.0000   1.0000
[...]
     atom   74 type  1   force =     0.00000003    0.00000001   -0.00000002
     atom   75 type  1   force =     0.00000001    0.00000002   -0.00000002
     atom   76 type  1   force =     0.00000006    0.00000002   -0.00000007
     atom   77 type  1   force =    -0.00000001   -0.00000001   -0.00000004
     atom   78 type  1   force =     0.00000005   -0.00000002   -0.00000002
     atom   79 type  1   force =     0.00000006    0.00000005   -0.00000006
     atom   80 type  1   force =     0.00000003    0.00000006   -0.00000001
     atom   81 type  1   force =     0.00000000    0.00000001    0.00000001
     atom   82 type  1   force =     0.00000002    0.00000002    0.00000004
     atom   83 type  1   force =     0.00000000    0.00000002    0.00000002
     atom   84 type  1   force =     0.00000004    0.00000002    0.00000005
     atom   85 type  1   force =    -0.00000000   -0.00000001    0.00000004
     atom   86 type  1   force =    -0.00000001    0.00000001    0.00000002
     atom   87 type  1   force =     0.00000005   -0.00000000    0.00000001
     atom   88 type  1   force =     0.00000004    0.00000000   -0.00000000
     atom   89 type  1   force =    -0.00000003   -0.00000002   -0.00000004
     atom   90 type  1   force =    -0.00000004   -0.00000002   -0.00000005
     atom   91 type  1   force =    -0.00000000   -0.00000003   -0.00000001
     atom   92 type  1   force =    -0.00000002    0.00000002   -0.00000004
     atom   93 type  1   force =    -0.00000004   -0.00000001   -0.00000001
     atom   94 type  1   force =    -0.00000001    0.00000001   -0.00000001
     atom   95 type  1   force =    -0.00000004    0.00000002   -0.00000002
     atom   96 type  1   force =    -0.00000003    0.00000002   -0.00000001
     atom   97 type  1   force =    -0.00000003    0.00000001   -0.00000000
     atom   98 type  1   force =    -0.00000001   -0.00000000    0.00000002
     atom   99 type  1   force =    -0.00000002   -0.00000000    0.00000001
     atom  100 type  1   force =     0.00000001    0.00000001    0.00000003
     atom  101 type  1   force =    -0.00000003   -0.00000001    0.00000002
     atom  102 type  1   force =    -0.00000003   -0.00000002   -0.00000000
     atom  103 type  1   force =     0.00000001   -0.00000002   -0.00000002
     atom  104 type  1   force =     0.00000002   -0.00000002   -0.00000003
     atom  105 type  1   force =     0.00000000   -0.00000001   -0.00000003
     atom  106 type  1   force =    -0.00000001   -0.00000001   -0.00000003
     atom  107 type  1   force =     0.00000000   -0.00000001   -0.00000000
     atom  108 type  1   force =    -0.00000004   -0.00000001    0.00000002
     atom  109 type  1   force =     0.00000000    0.00000002    0.00000001
     atom  110 type  1   force =    -0.00000003    0.00000001    0.00000001
     atom  111 type  1   force =    -0.00000002   -0.00000002    0.00000001
     atom  112 type  1   force =     0.00000003   -0.00000006    0.00000000
     atom  113 type  1   force =     0.00000004   -0.00000002   -0.00000001
     atom  114 type  1   force =    -0.00000001   -0.00000001    0.00000000
     atom  115 type  1   force =     0.00000008   -0.00000007    0.00000004
     atom  116 type  1   force =    -0.00000001   -0.00000004    0.00000001
     atom  117 type  1   force =     0.00000002   -0.00000001    0.00000001
     atom  118 type  1   force =     0.00000001   -0.00000001   -0.00000000
     atom  119 type  1   force =     0.00000001   -0.00000001    0.00000000
     atom  120 type  1   force =     0.00000001   -0.00000001   -0.00000002
     atom  121 type  1   force =     0.00000005    0.00000002    0.00000002
     atom  122 type  1   force =     0.00000005    0.00000002    0.00000000
     atom  123 type  1   force =     0.00000003    0.00000002   -0.00000001
     atom  124 type  1   force =     0.00000002   -0.00000002    0.00000001
     atom  125 type  1   force =     0.00000005    0.00000000   -0.00000002
     atom  126 type  1   force =     0.00000001    0.00000001   -0.00000000
     atom  127 type  1   force =     0.00000009   -0.00000005   -0.00000003
     atom  128 type  1   force =    -0.00000000   -0.00000002   -0.00000000
     atom  129 type  1   force =    -0.00000003    0.00000002    0.00000002
     atom  130 type  1   force =    -0.00000003   -0.00000001    0.00000003
     atom  131 type  1   force =     0.00000001    0.00000000    0.00000002
     atom  132 type  1   force =     0.00000001   -0.00000001    0.00000002
     atom  133 type  1   force =    -0.00000000   -0.00000001    0.00000001
     atom  134 type  1   force =     0.00000000   -0.00000004    0.00000001
     atom  135 type  1   force =    -0.00000003   -0.00000000    0.00000001
     atom  136 type  1   force =     0.00000000   -0.00000002    0.00000001
     atom  137 type  1   force =    -0.00000003   -0.00000004   -0.00000001
     atom  138 type  1   force =    -0.00000003   -0.00000005   -0.00000002
     atom  139 type  1   force =    -0.00000003   -0.00000004   -0.00000003
     atom  140 type  1   force =    -0.00000000   -0.00000004   -0.00000003
     atom  141 type  1   force =    -0.00000001   -0.00000003   -0.00000001
     atom  142 type  1   force =    -0.00000005   -0.00000002   -0.00000002
     atom  143 type  1   force =    -0.00000000   -0.00000002    0.00000000
     atom  144 type  1   force =     0.00000002    0.00000001    0.00000002
     atom  145 type  1   force =     0.00000003   -0.00000001    0.00000003
     atom  146 type  1   force =     0.00000001    0.00000003    0.00000001
     atom  147 type  1   force =     0.00000001   -0.00000001    0.00000002
     atom  148 type  1   force =    -0.00000002    0.00000001    0.00000002
     atom  149 type  1   force =    -0.00000000   -0.00000001   -0.00000003
     atom  150 type  1   force =    -0.00000003   -0.00000001   -0.00000002
     atom  151 type  1   force =    -0.00000005   -0.00000001   -0.00000001
     atom  152 type  1   force =    -0.00000006   -0.00000002   -0.00000003
     atom  153 type  1   force =    -0.00000003    0.00000001   -0.00000001
     atom  154 type  1   force =    -0.00000001   -0.00000001   -0.00000001
     atom  155 type  1   force =    -0.00000003   -0.00000000   -0.00000003
     atom  156 type  1   force =    -0.00000002   -0.00000002   -0.00000001
     atom  157 type  1   force =     0.00000003    0.00000002    0.00000001
     atom  158 type  1   force =     0.00000002    0.00000002    0.00000003
     atom  159 type  1   force =     0.00000000    0.00000001    0.00000003
     atom  160 type  1   force =    -0.00000000   -0.00000002    0.00000001
     atom  161 type  1   force =     0.00000001   -0.00000002   -0.00000001
     atom  162 type  1   force =     0.00000002   -0.00000005    0.00000000
     atom  163 type  1   force =    -0.00000002   -0.00000001    0.00000002
     atom  164 type  1   force =    -0.00000002   -0.00000002    0.00000001
     atom  165 type  1   force =     0.00000000    0.00000001    0.00000001
     atom  166 type  1   force =    -0.00000002    0.00000000   -0.00000001
     atom  167 type  1   force =    -0.00000002    0.00000001    0.00000001
     atom  168 type  1   force =    -0.00000002    0.00000000   -0.00000002
     atom  169 type  1   force =    -0.00000001    0.00000005    0.00000003
     atom  170 type  1   force =     0.00000001    0.00000005    0.00000001
     atom  171 type  1   force =     0.00000004    0.00000004   -0.00000001
     atom  172 type  1   force =     0.00000001    0.00000003   -0.00000000
     atom  173 type  1   force =     0.00000002    0.00000003   -0.00000004
     atom  174 type  1   force =     0.00000003   -0.00000000   -0.00000000
     atom  175 type  1   force =    -0.00000001    0.00000002   -0.00000002
     atom  176 type  1   force =    -0.00000002    0.00000003   -0.00000001
     atom  177 type  1   force =    -0.00000005    0.00000000    0.00000000
     atom  178 type  1   force =    -0.00000000    0.00000002    0.00000003
     atom  179 type  1   force =     0.00000000    0.00000001    0.00000001
     atom  180 type  1   force =     0.00000000    0.00000002    0.00000002
     atom  181 type  1   force =     0.00000001    0.00000001    0.00000003
     atom  182 type  1   force =     0.00000000    0.00000004    0.00000003
     atom  183 type  1   force =     0.00000004    0.00000001    0.00000003
     atom  184 type  1   force =     0.00000004    0.00000003    0.00000002
     atom  185 type  1   force =    -0.00000001   -0.00000001    0.00000001
     atom  186 type  1   force =    -0.00000001    0.00000002   -0.00000001
     atom  187 type  1   force =     0.00000003   -0.00000000   -0.00000001
     atom  188 type  1   force =     0.00000003    0.00000003   -0.00000003
     atom  189 type  1   force =    -0.00000003   -0.00000002   -0.00000005
     atom  190 type  1   force =    -0.00000001    0.00000001   -0.00000005
     atom  191 type  1   force =    -0.00000000   -0.00000000   -0.00000003
     atom  192 type  1   force =    -0.00000011    0.00000001    0.00000002
     atom  193 type  1   force =    -0.00000005    0.00000010    0.00000001
     atom  194 type  1   force =    -0.00000006   -0.00000000    0.00000009
     atom  195 type  1   force =    -0.00000006    0.00000005    0.00000005
     atom  196 type  1   force =    -0.00000003   -0.00000002    0.00000006
     atom  197 type  1   force =    -0.00000004    0.00000002    0.00000007
     atom  198 type  1   force =    -0.00000002   -0.00000002    0.00000002
     atom  199 type  1   force =     0.00000000   -0.00000004   -0.00000002
     atom  200 type  1   force =    -0.00000001   -0.00000004   -0.00000002
     atom  201 type  1   force =     0.00000002   -0.00000005   -0.00000000
     atom  202 type  1   force =    -0.00000000    0.00000000   -0.00000005
     atom  203 type  1   force =     0.00000001   -0.00000003   -0.00000001
     atom  204 type  1   force =    -0.00000006   -0.00000002   -0.00000007
     atom  205 type  1   force =    -0.00000000    0.00000005   -0.00000007
     atom  206 type  1   force =    -0.00000004    0.00000002   -0.00000006
     atom  207 type  1   force =    -0.00000006    0.00000006   -0.00000003
     atom  208 type  1   force =    -0.00000002    0.00000009    0.00000002
     atom  209 type  1   force =     0.00000001    0.00000006   -0.00000000
     atom  210 type  1   force =    -0.00000004    0.00000010    0.00000002
     atom  211 type  1   force =     0.00000002    0.00000000   -0.00000002
     atom  212 type  1   force =    -0.00000000    0.00000002   -0.00000003
     atom  213 type  1   force =    -0.00000001    0.00000001   -0.00000007
     atom  214 type  1   force =    -0.00000000   -0.00000003   -0.00000003
     atom  215 type  1   force =    -0.00000002   -0.00000000   -0.00000005
     atom  216 type  1   force =    -0.00000000   -0.00000002   -0.00000001
     atom  217 type  1   force =    -0.00000000   -0.00000001    0.00000002
     atom  218 type  1   force =     0.00000002   -0.00000001    0.00000004
     atom  219 type  1   force =     0.00000001    0.00000002    0.00000004
     atom  220 type  1   force =     0.00000003    0.00000003    0.00000002
     atom  221 type  1   force =     0.00000002    0.00000002    0.00000005
     atom  222 type  1   force =    -0.00000001    0.00000011   -0.00000002
     atom  223 type  1   force =     0.00000005    0.00000002    0.00000003
     atom  224 type  1   force =     0.00000006   -0.00000004    0.00000001
     atom  225 type  1   force =     0.00000004   -0.00000008    0.00000000
     atom  226 type  1   force =     0.00000003   -0.00000001   -0.00000004
     atom  227 type  1   force =     0.00000005   -0.00000003    0.00000001
     atom  228 type  1   force =     0.00000002   -0.00000002   -0.00000004
     atom  229 type  1   force =     0.00000002   -0.00000000   -0.00000005
     atom  230 type  1   force =    -0.00000001    0.00000001   -0.00000005
     atom  231 type  1   force =    -0.00000002    0.00000003   -0.00000000
     atom  232 type  1   force =    -0.00000003    0.00000003    0.00000002
     atom  233 type  1   force =    -0.00000003    0.00000003    0.00000002
     atom  234 type  1   force =    -0.00000001    0.00000001    0.00000006
     atom  235 type  1   force =    -0.00000003    0.00000003    0.00000003
     atom  236 type  1   force =     0.00000003    0.00000002    0.00000001
     atom  237 type  1   force =    -0.00000000   -0.00000003    0.00000002
     atom  238 type  1   force =     0.00000004   -0.00000002    0.00000002
     atom  239 type  1   force =     0.00000003   -0.00000003   -0.00000003
     atom  240 type  1   force =    -0.00000002   -0.00000005    0.00000000
     atom  241 type  1   force =    -0.00000004   -0.00000007    0.00000003
     atom  242 type  1   force =    -0.00000001   -0.00000009    0.00000005
     atom  243 type  1   force =    -0.00000006   -0.00000003    0.00000008
     atom  244 type  1   force =     0.00000000    0.00000002    0.00000003
     atom  245 type  1   force =    -0.00000004   -0.00000002    0.00000008
     atom  246 type  1   force =    -0.00000002    0.00000004   -0.00000002
     atom  247 type  1   force =    -0.00000002    0.00000001    0.00000001
     atom  248 type  1   force =    -0.00000005    0.00000003    0.00000002
     atom  249 type  1   force =    -0.00000003    0.00000003   -0.00000002
     atom  250 type  1   force =    -0.00000004   -0.00000000    0.00000001
     atom  251 type  1   force =    -0.00000005   -0.00000002   -0.00000002
     atom  252 type  1   force =    -0.00000004   -0.00000003   -0.00000005
     atom  253 type  1   force =    -0.00000005   -0.00000004   -0.00000009
     atom  254 type  1   force =    -0.00000002   -0.00000012   -0.00000004
     atom  255 type  1   force =    -0.00000009   -0.00000005   -0.00000006

     Total force =     0.028252     Total SCF correction =     0.000001


     Computing stress (Cartesian axis) and pressure

          total   stress  (Ry/bohr**3)                   (kbar)     P=  -10.66
  -0.00007249   0.00000000  -0.00000000        -10.66      0.00     -0.00
   0.00000000  -0.00007248  -0.00000000          0.00    -10.66     -0.00
  -0.00000000  -0.00000000  -0.00007248         -0.00     -0.00    -10.66

     kinetic stress (kbar)   1427.76      0.00     -0.00
                                0.00   1427.76      0.00
                               -0.00      0.00   1427.77

     local   stress (kbar)    613.96      0.00     -0.00
                                0.00    613.96     -0.00
                               -0.00     -0.00    613.96

     nonloc. stress (kbar)   1033.96     -0.00      0.00
                               -0.00   1033.96      0.00
                                0.00      0.00   1033.96

     hartree stress (kbar)      6.33     -0.00     -0.00
                               -0.00      6.33      0.00
                               -0.00      0.00      6.33

     exc-cor stress (kbar)    499.52     -0.00      0.00
                               -0.00    499.52      0.00
                                0.00      0.00    499.52

     corecor stress (kbar)  -1266.37      0.00     -0.00
                                0.00  -1266.37     -0.00
                               -0.00     -0.00  -1266.37

     ewald   stress (kbar)  -2325.83      0.00     -0.00
                                0.00  -2325.83     -0.00
                               -0.00     -0.00  -2325.83

     hubbard stress (kbar)      0.00      0.00      0.00
                                0.00      0.00      0.00
                                0.00      0.00      0.00

     london  stress (kbar)      0.00      0.00      0.00
                                0.00      0.00      0.00
                                0.00      0.00      0.00

     DFT-D3  stress (kbar)      0.00      0.00      0.00
                                0.00      0.00      0.00
                                0.00      0.00      0.00

     XDM     stress (kbar)      0.00      0.00      0.00
                                0.00      0.00      0.00
                                0.00      0.00      0.00

     dft-nl  stress (kbar)      0.00      0.00      0.00
                                0.00      0.00      0.00
                                0.00      0.00      0.00

     TS-vdW  stress (kbar)      0.00      0.00      0.00
                                0.00      0.00      0.00
                                0.00      0.00      0.00



     Writing output data file aiida.save/
 
     init_run     :    199.99s CPU    202.25s WALL (       1 calls)
     electrons    :   9318.30s CPU   9384.51s WALL (       1 calls)
     forces       :     96.45s CPU     97.28s WALL (       1 calls)
     stress       :   1166.72s CPU   1168.29s WALL (       1 calls)

     Called by init_run:
     wfcinit      :    188.54s CPU    190.45s WALL (       1 calls)
     wfcinit:atom :      0.31s CPU      0.54s WALL (       2 calls)
     wfcinit:wfcr :    186.14s CPU    187.02s WALL (       2 calls)
     potinit      :      2.17s CPU      2.34s WALL (       1 calls)
     hinit0       :      2.45s CPU      2.51s WALL (       1 calls)

     Called by electrons:
     c_bands      :   8103.00s CPU   8158.16s WALL (      32 calls)
     sum_band     :   1114.27s CPU   1118.51s WALL (      32 calls)
     v_of_rho     :     47.17s CPU     48.99s WALL (      32 calls)
     v_h          :      5.11s CPU      5.11s WALL (      32 calls)
     v_xc         :     44.26s CPU     46.13s WALL (      34 calls)
     newd         :      9.27s CPU     11.35s WALL (      32 calls)
     PAW_pot      :      6.12s CPU      6.90s WALL (      32 calls)
     mix_rho      :     30.67s CPU     32.51s WALL (      32 calls)

     Called by c_bands:
     init_us_2    :    101.12s CPU    101.71s WALL (     134 calls)
     cegterg      :   7150.55s CPU   7203.66s WALL (      64 calls)

     Called by sum_band:
     sum_band:bec :      1.76s CPU      1.76s WALL (      64 calls)
     addusdens    :      7.13s CPU      9.48s WALL (      32 calls)

     Called by *egterg:
     h_psi        :   4503.52s CPU   4520.32s WALL (     276 calls)
     s_psi        :   1347.82s CPU   1348.69s WALL (     276 calls)
     g_psi        :      5.42s CPU      5.42s WALL (     210 calls)
     cdiaghg      :    436.35s CPU    443.00s WALL (     272 calls)
     cegterg:over :    466.50s CPU    469.48s WALL (     210 calls)
     cegterg:upda :    236.35s CPU    246.03s WALL (     210 calls)
     cegterg:last :    141.00s CPU    141.08s WALL (      66 calls)
     cdiaghg:chol :     17.11s CPU     17.28s WALL (     272 calls)
     cdiaghg:inve :      7.80s CPU      7.80s WALL (     272 calls)
     cdiaghg:para :     87.32s CPU     88.86s WALL (     544 calls)

     Called by h_psi:
     h_psi:pot    :   4498.04s CPU   4506.58s WALL (     276 calls)
     h_psi:calbec :   1397.25s CPU   1397.90s WALL (     276 calls)
     vloc_psi     :   1757.02s CPU   1763.85s WALL (     276 calls)
     add_vuspsi   :   1343.76s CPU   1344.82s WALL (     276 calls)

     General routines
     calbec       :   2058.79s CPU   2059.77s WALL (     350 calls)
     fft          :     50.65s CPU     52.33s WALL (     441 calls)
     ffts         :     14.56s CPU     14.59s WALL (     510 calls)
     fftw         :   1820.07s CPU   1826.49s WALL (  174662 calls)
     interpolate  :      4.74s CPU      5.06s WALL (      32 calls)
 
     Parallel routines
     fft_scatt_xy :    612.79s CPU    614.67s WALL (  175613 calls)
     fft_scatt_yz :    388.29s CPU    391.17s WALL (  175613 calls)

     PAW routines
     PAW_pot      :      6.12s CPU      6.90s WALL (      32 calls)
 
     PWSCF        :      3h 2m CPU      3h 5m WALL

 
   This run was terminated on:   2:58:18  27Feb2020            

=------------------------------------------------------------------------------=
   JOB DONE.
=------------------------------------------------------------------------------=
