begin
comment 255 atoms, species Al255
lattice     30.6664758719     0.0000000000     0.0000000000
lattice      0.0000000000    30.6664758719     0.0000000000
lattice      0.0000000000     0.0000000000    30.6664758719
atom      3.8333094840     3.8333094840     0.0000000000   Al  0.0 0.0   -2.78176479e-03 -2.78185979e-03  2.49999981e-08
atom      3.8333094840     0.0000000000     3.8333094840   Al  0.0 0.0   -2.78174979e-03  4.49999966e-08 -2.78184979e-03
atom      0.0000000000     3.8333094840     3.8333094840   Al  0.0 0.0    2.99999977e-08 -2.78182479e-03 -2.78181479e-03
atom      0.0000000000     0.0000000000     7.6666189680   Al  0.0 0.0    1.49999989e-08 -2.49999981e-08 -3.64114973e-04
atom      3.8333094840     3.8333094840     7.6666189680   Al  0.0 0.0    1.53924988e-04  1.53899988e-04  5.97874955e-04
atom      3.8333094840     0.0000000000    11.4999284520   Al  0.0 0.0   -1.36349990e-05  0.00000000e+00  8.52649936e-05
atom      0.0000000000     3.8333094840    11.4999284520   Al  0.0 0.0    2.49999981e-08 -1.37399990e-05  8.52899936e-05
atom      0.0000000000     0.0000000000    15.3332379360   Al  0.0 0.0   -4.99999962e-09  9.99999925e-09 -4.99999962e-09
atom      3.8333094840     3.8333094840    15.3332379360   Al  0.0 0.0    5.44999959e-07  5.19999961e-07  0.00000000e+00
atom      3.8333094840     0.0000000000    19.1665474199   Al  0.0 0.0   -1.36549990e-05  0.00000000e+00 -8.52499936e-05
atom      0.0000000000     3.8333094840    19.1665474199   Al  0.0 0.0    9.99999925e-09 -1.37099990e-05 -8.53499936e-05
atom      0.0000000000     0.0000000000    22.9998569039   Al  0.0 0.0    4.99999962e-09  5.99999955e-08  3.64124973e-04
atom      3.8333094840     3.8333094840    22.9998569039   Al  0.0 0.0    1.53964988e-04  1.53864988e-04 -5.97904955e-04
atom      3.8333094840     0.0000000000    26.8331663879   Al  0.0 0.0   -2.78175479e-03 -2.49999981e-08  2.78184479e-03
atom      0.0000000000     3.8333094840    26.8331663879   Al  0.0 0.0    4.99999962e-09 -2.78179479e-03  2.78175979e-03
atom      0.0000000000     7.6666189680     0.0000000000   Al  0.0 0.0   -2.99999977e-08 -3.64094973e-04 -3.99999970e-08
atom      3.8333094840    11.4999284520     0.0000000000   Al  0.0 0.0   -1.36749990e-05  8.52649936e-05 -2.99999977e-08
atom      3.8333094840     7.6666189680     3.8333094840   Al  0.0 0.0    1.53984988e-04  5.97859955e-04  1.53924988e-04
atom      0.0000000000    11.4999284520     3.8333094840   Al  0.0 0.0   -4.99999962e-09  8.53449936e-05 -1.37199990e-05
atom      0.0000000000     7.6666189680     7.6666189680   Al  0.0 0.0   -0.00000000e+00 -2.85079979e-04 -2.85069979e-04
atom      3.8333094840    11.4999284520     7.6666189680   Al  0.0 0.0   -4.30749968e-05 -8.14449939e-05 -2.32549983e-05
atom      3.8333094840     7.6666189680    11.4999284520   Al  0.0 0.0   -4.30299968e-05 -2.32499983e-05 -8.14599939e-05
atom      0.0000000000    11.4999284520    11.4999284520   Al  0.0 0.0    0.00000000e+00  5.42249959e-05  5.41999959e-05
atom      0.0000000000     7.6666189680    15.3332379360   Al  0.0 0.0   -4.99999962e-09  4.33499967e-05 -2.49999981e-08
atom      3.8333094840    11.4999284520    15.3332379360   Al  0.0 0.0    1.05849992e-05  3.88099971e-05  1.49999989e-08
atom      3.8333094840     7.6666189680    19.1665474199   Al  0.0 0.0   -4.30299968e-05 -2.32699983e-05  8.15249939e-05
atom      0.0000000000    11.4999284520    19.1665474199   Al  0.0 0.0    1.99999985e-08  5.42449959e-05 -5.42449959e-05
atom      0.0000000000     7.6666189680    22.9998569039   Al  0.0 0.0   -2.49999981e-08 -2.85024979e-04  2.85019979e-04
atom      3.8333094840    11.4999284520    22.9998569039   Al  0.0 0.0   -4.30599968e-05 -8.15249939e-05  2.32899982e-05
atom      3.8333094840     7.6666189680    26.8331663879   Al  0.0 0.0    1.53964988e-04  5.97894955e-04 -1.53899988e-04
atom      0.0000000000    11.4999284520    26.8331663879   Al  0.0 0.0    9.99999925e-09  8.53499936e-05  1.37099990e-05
atom      0.0000000000    15.3332379360     0.0000000000   Al  0.0 0.0   -9.99999925e-09 -4.99999962e-09 -4.99999962e-09
atom      3.8333094840    19.1665474199     0.0000000000   Al  0.0 0.0   -1.36649990e-05 -8.52899936e-05 -2.49999981e-08
atom      3.8333094840    15.3332379360     3.8333094840   Al  0.0 0.0    5.49999959e-07  0.00000000e+00  5.59999958e-07
atom      0.0000000000    19.1665474199     3.8333094840   Al  0.0 0.0   -9.99999925e-09 -8.53199936e-05 -1.37299990e-05
atom      0.0000000000    15.3332379360     7.6666189680   Al  0.0 0.0   -4.99999962e-09 -5.49999959e-08  4.33449967e-05
atom      3.8333094840    19.1665474199     7.6666189680   Al  0.0 0.0   -4.30799968e-05  8.14999939e-05 -2.32449983e-05
atom      3.8333094840    15.3332379360    11.4999284520   Al  0.0 0.0    1.06149992e-05  2.99999977e-08  3.87999971e-05
atom      0.0000000000    19.1665474199    11.4999284520   Al  0.0 0.0   -1.99999985e-08 -5.42549959e-05  5.42049959e-05
atom      0.0000000000    15.3332379360    15.3332379360   Al  0.0 0.0   -9.99999925e-09 -1.99999985e-08 -4.99999962e-09
atom      3.8333094840    19.1665474199    15.3332379360   Al  0.0 0.0    1.05899992e-05 -3.88149971e-05 -1.99999985e-08
atom      3.8333094840    15.3332379360    19.1665474199   Al  0.0 0.0    1.06299992e-05 -9.99999925e-09 -3.88249971e-05
atom      0.0000000000    19.1665474199    19.1665474199   Al  0.0 0.0   -9.99999925e-09 -5.42399959e-05 -5.42349959e-05
atom      0.0000000000    15.3332379360    22.9998569039   Al  0.0 0.0   -2.99999977e-08  3.99999970e-08 -4.33599967e-05
atom      3.8333094840    19.1665474199    22.9998569039   Al  0.0 0.0   -4.30399968e-05  8.14499939e-05  2.32799983e-05
atom      3.8333094840    15.3332379360    26.8331663879   Al  0.0 0.0    5.69999957e-07 -2.99999977e-08 -5.49999959e-07
atom      0.0000000000    19.1665474199    26.8331663879   Al  0.0 0.0    4.99999962e-09 -8.52899936e-05  1.37199990e-05
atom      0.0000000000    22.9998569039     0.0000000000   Al  0.0 0.0    4.99999962e-09  3.64084973e-04  2.49999981e-08
atom      3.8333094840    26.8331663879     0.0000000000   Al  0.0 0.0   -2.78173979e-03  2.78183979e-03 -9.99999925e-09
atom      3.8333094840    22.9998569039     3.8333094840   Al  0.0 0.0    1.53964988e-04 -5.97849955e-04  1.53944988e-04
atom      0.0000000000    26.8331663879     3.8333094840   Al  0.0 0.0    1.49999989e-08  2.78178479e-03 -2.78177479e-03
atom      0.0000000000    22.9998569039     7.6666189680   Al  0.0 0.0    1.99999985e-08  2.85019979e-04 -2.85044979e-04
atom      3.8333094840    26.8331663879     7.6666189680   Al  0.0 0.0    1.53929988e-04 -1.53929988e-04  5.97924955e-04
atom      3.8333094840    22.9998569039    11.4999284520   Al  0.0 0.0   -4.30249968e-05  2.32649983e-05 -8.15199939e-05
atom      0.0000000000    26.8331663879    11.4999284520   Al  0.0 0.0   -0.00000000e+00  1.37199990e-05  8.52999936e-05
atom      0.0000000000    22.9998569039    15.3332379360   Al  0.0 0.0    9.99999925e-09 -4.33749967e-05  4.49999966e-08
atom      3.8333094840    26.8331663879    15.3332379360   Al  0.0 0.0    5.64999958e-07 -5.29999960e-07 -9.99999925e-09
atom      3.8333094840    22.9998569039    19.1665474199   Al  0.0 0.0   -4.30699968e-05  2.32299983e-05  8.14299939e-05
atom      0.0000000000    26.8331663879    19.1665474199   Al  0.0 0.0   -1.99999985e-08  1.37549990e-05 -8.53199936e-05
atom      0.0000000000    22.9998569039    22.9998569039   Al  0.0 0.0   -4.99999962e-09  2.85069979e-04  2.85129979e-04
atom      3.8333094840    26.8331663879    22.9998569039   Al  0.0 0.0    1.53994988e-04 -1.53879988e-04 -5.97864955e-04
atom      3.8333094840    22.9998569039    26.8331663879   Al  0.0 0.0    1.53944988e-04 -5.97899955e-04 -1.53919988e-04
atom      0.0000000000    26.8331663879    26.8331663879   Al  0.0 0.0   -4.99999962e-09  2.78181479e-03  2.78181479e-03
atom      7.6666189680     0.0000000000     0.0000000000   Al  0.0 0.0   -3.64179973e-04 -1.99999985e-08  4.99999962e-09
atom     11.4999284520     3.8333094840     0.0000000000   Al  0.0 0.0    8.52149936e-05 -1.37249990e-05  4.49999966e-08
atom     11.4999284520     0.0000000000     3.8333094840   Al  0.0 0.0    8.52599936e-05  9.99999925e-09 -1.37449990e-05
atom      7.6666189680     3.8333094840     3.8333094840   Al  0.0 0.0    5.97894955e-04  1.53959988e-04  1.53889988e-04
atom      7.6666189680     0.0000000000     7.6666189680   Al  0.0 0.0   -2.85104979e-04  9.99999925e-09 -2.85029979e-04
atom     11.4999284520     3.8333094840     7.6666189680   Al  0.0 0.0   -8.15099939e-05 -4.30999968e-05 -2.33399982e-05
atom     11.4999284520     0.0000000000    11.4999284520   Al  0.0 0.0    5.42149959e-05  4.99999962e-09  5.42799959e-05
atom      7.6666189680     3.8333094840    11.4999284520   Al  0.0 0.0   -2.33149982e-05 -4.31149968e-05 -8.14299939e-05
atom      7.6666189680     0.0000000000    15.3332379360   Al  0.0 0.0    4.34199967e-05  4.99999962e-09 -0.00000000e+00
atom     11.4999284520     3.8333094840    15.3332379360   Al  0.0 0.0    3.87299971e-05  1.05449992e-05  1.99999985e-08
atom     11.4999284520     0.0000000000    19.1665474199   Al  0.0 0.0    5.42049959e-05 -0.00000000e+00 -5.42049959e-05
atom      7.6666189680     3.8333094840    19.1665474199   Al  0.0 0.0   -2.32899982e-05 -4.30949968e-05  8.14749939e-05
atom      7.6666189680     0.0000000000    22.9998569039   Al  0.0 0.0   -2.85064979e-04 -2.49999981e-08  2.85034979e-04
atom     11.4999284520     3.8333094840    22.9998569039   Al  0.0 0.0   -8.15449939e-05 -4.30899968e-05  2.32999982e-05
atom     11.4999284520     0.0000000000    26.8331663879   Al  0.0 0.0    8.52399936e-05  0.00000000e+00  1.37099990e-05
atom      7.6666189680     3.8333094840    26.8331663879   Al  0.0 0.0    5.97924955e-04  1.53914988e-04 -1.53939988e-04
atom      7.6666189680     7.6666189680     0.0000000000   Al  0.0 0.0   -2.85084979e-04 -2.85074979e-04  4.49999966e-08
atom     11.4999284520    11.4999284520     0.0000000000   Al  0.0 0.0    5.41899959e-05  5.42649959e-05 -1.49999989e-08
atom     11.4999284520     7.6666189680     3.8333094840   Al  0.0 0.0   -8.15199939e-05 -2.33149982e-05 -4.30899968e-05
atom      7.6666189680    11.4999284520     3.8333094840   Al  0.0 0.0   -2.32399983e-05 -8.14299939e-05 -4.31149968e-05
atom      7.6666189680     7.6666189680     7.6666189680   Al  0.0 0.0    1.41934989e-04  1.41949989e-04  1.41944989e-04
atom     11.4999284520    11.4999284520     7.6666189680   Al  0.0 0.0   -1.99199985e-05 -1.98249985e-05 -3.17299976e-05
atom     11.4999284520     7.6666189680    11.4999284520   Al  0.0 0.0   -1.98899985e-05 -3.16699976e-05 -1.98099985e-05
atom      7.6666189680    11.4999284520    11.4999284520   Al  0.0 0.0   -3.17149976e-05 -1.98649985e-05 -1.98649985e-05
atom      7.6666189680     7.6666189680    15.3332379360   Al  0.0 0.0    4.37649967e-05  4.37499967e-05  1.49999989e-08
atom     11.4999284520    11.4999284520    15.3332379360   Al  0.0 0.0   -1.78049987e-05 -1.77499987e-05  1.49999989e-08
atom     11.4999284520     7.6666189680    19.1665474199   Al  0.0 0.0   -1.98699985e-05 -3.16699976e-05  1.98599985e-05
atom      7.6666189680    11.4999284520    19.1665474199   Al  0.0 0.0   -3.17049976e-05 -1.98899985e-05  1.98599985e-05
atom      7.6666189680     7.6666189680    22.9998569039   Al  0.0 0.0    1.41939989e-04  1.41964989e-04 -1.41959989e-04
atom     11.4999284520    11.4999284520    22.9998569039   Al  0.0 0.0   -1.98949985e-05 -1.98799985e-05  3.17099976e-05
atom     11.4999284520     7.6666189680    26.8331663879   Al  0.0 0.0   -8.15049939e-05 -2.32949982e-05  4.30599968e-05
atom      7.6666189680    11.4999284520    26.8331663879   Al  0.0 0.0   -2.32649983e-05 -8.14399939e-05  4.30949968e-05
atom      7.6666189680    15.3332379360     0.0000000000   Al  0.0 0.0    4.34199967e-05  0.00000000e+00  9.99999925e-09
atom     11.4999284520    19.1665474199     0.0000000000   Al  0.0 0.0    5.42049959e-05 -5.42299959e-05 -2.99999977e-08
atom     11.4999284520    15.3332379360     3.8333094840   Al  0.0 0.0    3.86849971e-05 -2.99999977e-08  1.05699992e-05
atom      7.6666189680    19.1665474199     3.8333094840   Al  0.0 0.0   -2.32549983e-05  8.14699939e-05 -4.31299968e-05
atom      7.6666189680    15.3332379360     7.6666189680   Al  0.0 0.0    4.37799967e-05  0.00000000e+00  4.37599967e-05
atom     11.4999284520    19.1665474199     7.6666189680   Al  0.0 0.0   -1.99149985e-05  1.98749985e-05 -3.16799976e-05
atom     11.4999284520    15.3332379360    11.4999284520   Al  0.0 0.0   -1.77799987e-05  9.99999925e-09 -1.77449987e-05
atom      7.6666189680    19.1665474199    11.4999284520   Al  0.0 0.0   -3.16999976e-05  1.98699985e-05 -1.98949985e-05
atom      7.6666189680    15.3332379360    15.3332379360   Al  0.0 0.0    7.47649944e-05  4.99999962e-09  6.49999951e-08
atom     11.4999284520    19.1665474199    15.3332379360   Al  0.0 0.0   -1.78099987e-05  1.77649987e-05 -0.00000000e+00
atom     11.4999284520    15.3332379360    19.1665474199   Al  0.0 0.0   -1.77799987e-05  2.99999977e-08  1.77199987e-05
atom      7.6666189680    19.1665474199    19.1665474199   Al  0.0 0.0   -3.16799976e-05  1.98199985e-05  1.98699985e-05
atom      7.6666189680    15.3332379360    22.9998569039   Al  0.0 0.0    4.37599967e-05  2.49999981e-08 -4.37049967e-05
atom     11.4999284520    19.1665474199    22.9998569039   Al  0.0 0.0   -1.98899985e-05  1.98649985e-05  3.16499976e-05
atom     11.4999284520    15.3332379360    26.8331663879   Al  0.0 0.0    3.87349971e-05 -2.49999981e-08 -1.05399992e-05
atom      7.6666189680    19.1665474199    26.8331663879   Al  0.0 0.0   -2.32849982e-05  8.14499939e-05  4.31299968e-05
atom      7.6666189680    22.9998569039     0.0000000000   Al  0.0 0.0   -2.85044979e-04  2.85059979e-04 -4.99999962e-09
atom     11.4999284520    26.8331663879     0.0000000000   Al  0.0 0.0    8.52149936e-05  1.36999990e-05  1.99999985e-08
atom     11.4999284520    22.9998569039     3.8333094840   Al  0.0 0.0   -8.15249939e-05  2.33299982e-05 -4.30749968e-05
atom      7.6666189680    26.8331663879     3.8333094840   Al  0.0 0.0    5.97939955e-04 -1.53929988e-04  1.53869988e-04
atom      7.6666189680    22.9998569039     7.6666189680   Al  0.0 0.0    1.41944989e-04 -1.41934989e-04  1.41934989e-04
atom     11.4999284520    26.8331663879     7.6666189680   Al  0.0 0.0   -8.15249939e-05  4.29949968e-05 -2.33299982e-05
atom     11.4999284520    22.9998569039    11.4999284520   Al  0.0 0.0   -1.98649985e-05  3.16499976e-05 -1.98399985e-05
atom      7.6666189680    26.8331663879    11.4999284520   Al  0.0 0.0   -2.33149982e-05  4.31299968e-05 -8.14649939e-05
atom      7.6666189680    22.9998569039    15.3332379360   Al  0.0 0.0    4.38099967e-05 -4.37399967e-05 -1.49999989e-08
atom     11.4999284520    26.8331663879    15.3332379360   Al  0.0 0.0    3.87249971e-05 -1.06049992e-05 -9.99999925e-09
atom     11.4999284520    22.9998569039    19.1665474199   Al  0.0 0.0   -1.99049985e-05  3.16549976e-05  1.98299985e-05
atom      7.6666189680    26.8331663879    19.1665474199   Al  0.0 0.0   -2.32699983e-05  4.31599968e-05  8.14649939e-05
atom      7.6666189680    22.9998569039    22.9998569039   Al  0.0 0.0    1.41989989e-04 -1.41934989e-04 -1.41909989e-04
atom     11.4999284520    26.8331663879    22.9998569039   Al  0.0 0.0   -8.15199939e-05  4.30799968e-05  2.32799983e-05
atom     11.4999284520    22.9998569039    26.8331663879   Al  0.0 0.0   -8.15049939e-05  2.32799983e-05  4.30899968e-05
atom      7.6666189680    26.8331663879    26.8331663879   Al  0.0 0.0    5.97879955e-04 -1.53904988e-04 -1.53934988e-04
atom     15.3332379360     0.0000000000     0.0000000000   Al  0.0 0.0   -4.99999962e-09 -2.49999981e-08  0.00000000e+00
atom     19.1665474199     3.8333094840     0.0000000000   Al  0.0 0.0   -8.52449936e-05 -1.37099990e-05 -1.99999985e-08
atom     19.1665474199     0.0000000000     3.8333094840   Al  0.0 0.0   -8.51949936e-05  1.99999985e-08 -1.37099990e-05
atom     15.3332379360     3.8333094840     3.8333094840   Al  0.0 0.0   -1.49999989e-08  5.54999958e-07  5.04999962e-07
atom     15.3332379360     0.0000000000     7.6666189680   Al  0.0 0.0    3.49999974e-08 -4.99999962e-09  4.34449967e-05
atom     19.1665474199     3.8333094840     7.6666189680   Al  0.0 0.0    8.15299939e-05 -4.30999968e-05 -2.33049982e-05
atom     19.1665474199     0.0000000000    11.4999284520   Al  0.0 0.0   -5.41999959e-05 -4.99999962e-09  5.42399959e-05
atom     15.3332379360     3.8333094840    11.4999284520   Al  0.0 0.0    9.99999925e-09  1.05249992e-05  3.87849971e-05
atom     15.3332379360     0.0000000000    15.3332379360   Al  0.0 0.0   -9.99999925e-09 -9.99999925e-09  0.00000000e+00
atom     19.1665474199     3.8333094840    15.3332379360   Al  0.0 0.0   -3.87249971e-05  1.05449992e-05  9.99999925e-09
atom     19.1665474199     0.0000000000    19.1665474199   Al  0.0 0.0   -5.41949959e-05 -1.49999989e-08 -5.42399959e-05
atom     15.3332379360     3.8333094840    19.1665474199   Al  0.0 0.0   -1.99999985e-08  1.05949992e-05 -3.88349971e-05
atom     15.3332379360     0.0000000000    22.9998569039   Al  0.0 0.0   -4.49999966e-08 -3.99999970e-08 -4.34199967e-05
atom     19.1665474199     3.8333094840    22.9998569039   Al  0.0 0.0    8.14999939e-05 -4.30749968e-05  2.33199982e-05
atom     19.1665474199     0.0000000000    26.8331663879   Al  0.0 0.0   -8.52399936e-05  9.99999925e-09  1.37399990e-05
atom     15.3332379360     3.8333094840    26.8331663879   Al  0.0 0.0    4.99999962e-09  5.89999956e-07 -5.89999956e-07
atom     15.3332379360     7.6666189680     0.0000000000   Al  0.0 0.0    1.49999989e-08  4.34299967e-05  4.99999962e-09
atom     19.1665474199    11.4999284520     0.0000000000   Al  0.0 0.0   -5.41949959e-05  5.42499959e-05  9.99999925e-09
atom     19.1665474199     7.6666189680     3.8333094840   Al  0.0 0.0    8.15249939e-05 -2.32849982e-05 -4.30999968e-05
atom     15.3332379360    11.4999284520     3.8333094840   Al  0.0 0.0    4.99999962e-09  3.87649971e-05  1.04749992e-05
atom     15.3332379360     7.6666189680     7.6666189680   Al  0.0 0.0    2.99999977e-08  4.37449967e-05  4.37649967e-05
atom     19.1665474199    11.4999284520     7.6666189680   Al  0.0 0.0    1.99199985e-05 -1.98299985e-05 -3.16849976e-05
atom     19.1665474199     7.6666189680    11.4999284520   Al  0.0 0.0    1.98699985e-05 -3.16649976e-05 -1.98449985e-05
atom     15.3332379360    11.4999284520    11.4999284520   Al  0.0 0.0    1.49999989e-08 -1.77899987e-05 -1.77999987e-05
atom     15.3332379360     7.6666189680    15.3332379360   Al  0.0 0.0   -9.99999925e-09  7.47249944e-05  4.99999962e-09
atom     19.1665474199    11.4999284520    15.3332379360   Al  0.0 0.0    1.78249987e-05 -1.77449987e-05  1.99999985e-08
atom     19.1665474199     7.6666189680    19.1665474199   Al  0.0 0.0    1.98649985e-05 -3.16399976e-05  1.98749985e-05
atom     15.3332379360    11.4999284520    19.1665474199   Al  0.0 0.0    9.99999925e-09 -1.77999987e-05  1.77549987e-05
atom     15.3332379360     7.6666189680    22.9998569039   Al  0.0 0.0    1.99999985e-08  4.37799967e-05 -4.37899967e-05
atom     19.1665474199    11.4999284520    22.9998569039   Al  0.0 0.0    1.98749985e-05 -1.99099985e-05  3.16899976e-05
atom     19.1665474199     7.6666189680    26.8331663879   Al  0.0 0.0    8.15199939e-05 -2.33199982e-05  4.30699968e-05
atom     15.3332379360    11.4999284520    26.8331663879   Al  0.0 0.0   -1.99999985e-08  3.87749971e-05 -1.05599992e-05
atom     15.3332379360    15.3332379360     0.0000000000   Al  0.0 0.0    4.99999962e-09  1.49999989e-08 -9.99999925e-09
atom     19.1665474199    19.1665474199     0.0000000000   Al  0.0 0.0   -5.42249959e-05 -5.42749959e-05  1.49999989e-08
atom     19.1665474199    15.3332379360     3.8333094840   Al  0.0 0.0   -3.87199971e-05 -9.99999925e-09  1.05599992e-05
atom     15.3332379360    19.1665474199     3.8333094840   Al  0.0 0.0    2.49999981e-08 -3.87849971e-05  1.05099992e-05
atom     15.3332379360    15.3332379360     7.6666189680   Al  0.0 0.0    4.99999962e-08  4.99999962e-09  7.47699944e-05
atom     19.1665474199    19.1665474199     7.6666189680   Al  0.0 0.0    1.98849985e-05  1.98349985e-05 -3.16499976e-05
atom     19.1665474199    15.3332379360    11.4999284520   Al  0.0 0.0    1.77799987e-05  2.49999981e-08 -1.77549987e-05
atom     15.3332379360    19.1665474199    11.4999284520   Al  0.0 0.0    3.99999970e-08  1.77749987e-05 -1.77649987e-05
atom     15.3332379360    15.3332379360    15.3332379360   Al  0.0 0.0    4.99999962e-09  1.49999989e-08  4.99999962e-09
atom     19.1665474199    19.1665474199    15.3332379360   Al  0.0 0.0    1.77899987e-05  1.77549987e-05  0.00000000e+00
atom     19.1665474199    15.3332379360    19.1665474199   Al  0.0 0.0    1.77699987e-05  2.99999977e-08  1.77349987e-05
atom     15.3332379360    19.1665474199    19.1665474199   Al  0.0 0.0    2.49999981e-08  1.77749987e-05  1.78299987e-05
atom     15.3332379360    15.3332379360    22.9998569039   Al  0.0 0.0   -2.99999977e-08  2.99999977e-08 -7.47599944e-05
atom     19.1665474199    19.1665474199    22.9998569039   Al  0.0 0.0    1.98649985e-05  1.98299985e-05  3.16749976e-05
atom     19.1665474199    15.3332379360    26.8331663879   Al  0.0 0.0   -3.86849971e-05  0.00000000e+00 -1.05199992e-05
atom     15.3332379360    19.1665474199    26.8331663879   Al  0.0 0.0   -1.49999989e-08 -3.87449971e-05 -1.04649992e-05
atom     15.3332379360    22.9998569039     0.0000000000   Al  0.0 0.0   -2.49999981e-08 -4.34399967e-05 -4.99999962e-09
atom     19.1665474199    26.8331663879     0.0000000000   Al  0.0 0.0   -8.52599936e-05  1.37049990e-05 -2.49999981e-08
atom     19.1665474199    22.9998569039     3.8333094840   Al  0.0 0.0    8.15449939e-05  2.32999982e-05 -4.30899968e-05
atom     15.3332379360    26.8331663879     3.8333094840   Al  0.0 0.0   -4.99999962e-09 -5.89999956e-07  5.49999959e-07
atom     15.3332379360    22.9998569039     7.6666189680   Al  0.0 0.0   -2.49999981e-08 -4.37249967e-05  4.38049967e-05
atom     19.1665474199    26.8331663879     7.6666189680   Al  0.0 0.0    8.14999939e-05  4.30449968e-05 -2.32799983e-05
atom     19.1665474199    22.9998569039    11.4999284520   Al  0.0 0.0    1.98849985e-05  3.16599976e-05 -1.98649985e-05
atom     15.3332379360    26.8331663879    11.4999284520   Al  0.0 0.0    3.99999970e-08 -1.05499992e-05  3.87949971e-05
atom     15.3332379360    22.9998569039    15.3332379360   Al  0.0 0.0   -1.99999985e-08 -7.47149944e-05 -1.99999985e-08
atom     19.1665474199    26.8331663879    15.3332379360   Al  0.0 0.0   -3.87599971e-05 -1.05699992e-05 -1.99999985e-08
atom     19.1665474199    22.9998569039    19.1665474199   Al  0.0 0.0    1.98949985e-05  3.16299976e-05  1.98199985e-05
atom     15.3332379360    26.8331663879    19.1665474199   Al  0.0 0.0    0.00000000e+00 -1.04599992e-05 -3.87649971e-05
atom     15.3332379360    22.9998569039    22.9998569039   Al  0.0 0.0   -3.49999974e-08 -4.37699967e-05 -4.37549967e-05
atom     19.1665474199    26.8331663879    22.9998569039   Al  0.0 0.0    8.14799939e-05  4.30849968e-05  2.33049982e-05
atom     19.1665474199    22.9998569039    26.8331663879   Al  0.0 0.0    8.15549939e-05  2.33099982e-05  4.30799968e-05
atom     15.3332379360    26.8331663879    26.8331663879   Al  0.0 0.0    4.99999962e-09 -5.34999960e-07 -5.24999961e-07
atom     22.9998569039     0.0000000000     0.0000000000   Al  0.0 0.0    3.64174973e-04  0.00000000e+00  2.49999981e-08
atom     26.8331663879     3.8333094840     0.0000000000   Al  0.0 0.0    2.78174479e-03 -2.78183979e-03  9.99999925e-09
atom     26.8331663879     0.0000000000     3.8333094840   Al  0.0 0.0    2.78174979e-03  3.49999974e-08 -2.78184479e-03
atom     22.9998569039     3.8333094840     3.8333094840   Al  0.0 0.0   -5.97879955e-04  1.53894988e-04  1.53944988e-04
atom     22.9998569039     0.0000000000     7.6666189680   Al  0.0 0.0    2.85059979e-04  2.49999981e-08 -2.85069979e-04
atom     26.8331663879     3.8333094840     7.6666189680   Al  0.0 0.0   -1.53974988e-04  1.53889988e-04  5.97869955e-04
atom     26.8331663879     0.0000000000    11.4999284520   Al  0.0 0.0    1.36599990e-05 -2.49999981e-08  8.52749936e-05
atom     22.9998569039     3.8333094840    11.4999284520   Al  0.0 0.0    2.32849982e-05 -4.31399968e-05 -8.14549939e-05
atom     22.9998569039     0.0000000000    15.3332379360   Al  0.0 0.0   -4.34299967e-05  1.49999989e-08 -9.99999925e-09
atom     26.8331663879     3.8333094840    15.3332379360   Al  0.0 0.0   -5.74999957e-07  5.24999961e-07  0.00000000e+00
atom     26.8331663879     0.0000000000    19.1665474199   Al  0.0 0.0    1.36549990e-05 -2.49999981e-08 -8.52349936e-05
atom     22.9998569039     3.8333094840    19.1665474199   Al  0.0 0.0    2.32899982e-05 -4.31049968e-05  8.14349939e-05
atom     22.9998569039     0.0000000000    22.9998569039   Al  0.0 0.0    2.85089979e-04 -4.99999962e-09  2.85054979e-04
atom     26.8331663879     3.8333094840    22.9998569039   Al  0.0 0.0   -1.53949988e-04  1.53909988e-04 -5.97884955e-04
atom     26.8331663879     0.0000000000    26.8331663879   Al  0.0 0.0    2.78176479e-03 -1.49999989e-08  2.78184479e-03
atom     22.9998569039     3.8333094840    26.8331663879   Al  0.0 0.0   -5.97914955e-04  1.53919988e-04 -1.53909988e-04
atom     22.9998569039     7.6666189680     0.0000000000   Al  0.0 0.0    2.85074979e-04 -2.85039979e-04  1.49999989e-08
atom     26.8331663879    11.4999284520     0.0000000000   Al  0.0 0.0    1.36499990e-05  8.52399936e-05  4.99999962e-09
atom     26.8331663879     7.6666189680     3.8333094840   Al  0.0 0.0   -1.53959988e-04  5.97899955e-04  1.53914988e-04
atom     22.9998569039    11.4999284520     3.8333094840   Al  0.0 0.0    2.32899982e-05 -8.14249939e-05 -4.31149968e-05
atom     22.9998569039     7.6666189680     7.6666189680   Al  0.0 0.0   -1.41959989e-04  1.41964989e-04  1.41934989e-04
atom     26.8331663879    11.4999284520     7.6666189680   Al  0.0 0.0    4.30399968e-05 -8.14599939e-05 -2.32749983e-05
atom     26.8331663879     7.6666189680    11.4999284520   Al  0.0 0.0    4.30599968e-05 -2.32299983e-05 -8.14499939e-05
atom     22.9998569039    11.4999284520    11.4999284520   Al  0.0 0.0    3.16949976e-05 -1.98549985e-05 -1.98549985e-05
atom     22.9998569039     7.6666189680    15.3332379360   Al  0.0 0.0   -4.37699967e-05  4.37749967e-05  2.49999981e-08
atom     26.8331663879    11.4999284520    15.3332379360   Al  0.0 0.0   -1.06299992e-05  3.88099971e-05  4.99999962e-09
atom     26.8331663879     7.6666189680    19.1665474199   Al  0.0 0.0    4.30399968e-05 -2.32649983e-05  8.15449939e-05
atom     22.9998569039    11.4999284520    19.1665474199   Al  0.0 0.0    3.16949976e-05 -1.98999985e-05  1.98299985e-05
atom     22.9998569039     7.6666189680    22.9998569039   Al  0.0 0.0   -1.41894989e-04  1.41979989e-04 -1.41924989e-04
atom     26.8331663879    11.4999284520    22.9998569039   Al  0.0 0.0    4.30449968e-05 -8.15399939e-05  2.32899982e-05
atom     26.8331663879     7.6666189680    26.8331663879   Al  0.0 0.0   -1.53959988e-04  5.97884955e-04 -1.53904988e-04
atom     22.9998569039    11.4999284520    26.8331663879   Al  0.0 0.0    2.32749983e-05 -8.14499939e-05  4.31199968e-05
atom     22.9998569039    15.3332379360     0.0000000000   Al  0.0 0.0   -4.34449967e-05  0.00000000e+00 -2.49999981e-08
atom     26.8331663879    19.1665474199     0.0000000000   Al  0.0 0.0    1.36549990e-05 -8.52999936e-05  4.99999962e-09
atom     26.8331663879    15.3332379360     3.8333094840   Al  0.0 0.0   -5.49999959e-07  9.99999925e-09  5.74999957e-07
atom     22.9998569039    19.1665474199     3.8333094840   Al  0.0 0.0    2.32849982e-05  8.14899939e-05 -4.31099968e-05
atom     22.9998569039    15.3332379360     7.6666189680   Al  0.0 0.0   -4.37799967e-05 -1.99999985e-08  4.37249967e-05
atom     26.8331663879    19.1665474199     7.6666189680   Al  0.0 0.0    4.30499968e-05  8.14849939e-05 -2.32699983e-05
atom     26.8331663879    15.3332379360    11.4999284520   Al  0.0 0.0   -1.05749992e-05  3.49999974e-08  3.88199971e-05
atom     22.9998569039    19.1665474199    11.4999284520   Al  0.0 0.0    3.16949976e-05  1.98849985e-05 -1.98949985e-05
atom     22.9998569039    15.3332379360    15.3332379360   Al  0.0 0.0   -7.47649944e-05 -2.49999981e-08 -3.99999970e-08
atom     26.8331663879    19.1665474199    15.3332379360   Al  0.0 0.0   -1.05999992e-05 -3.88249971e-05 -3.99999970e-08
atom     26.8331663879    15.3332379360    19.1665474199   Al  0.0 0.0   -1.05549992e-05  9.99999925e-09 -3.87799971e-05
atom     22.9998569039    19.1665474199    19.1665474199   Al  0.0 0.0    3.16949976e-05  1.98699985e-05  1.98549985e-05
atom     22.9998569039    15.3332379360    22.9998569039   Al  0.0 0.0   -4.37649967e-05  4.99999962e-09 -4.37299967e-05
atom     26.8331663879    19.1665474199    22.9998569039   Al  0.0 0.0    4.30649968e-05  8.14149939e-05  2.32449983e-05
atom     26.8331663879    15.3332379360    26.8331663879   Al  0.0 0.0   -5.39999959e-07 -1.49999989e-08 -5.29999960e-07
atom     22.9998569039    19.1665474199    26.8331663879   Al  0.0 0.0    2.32549983e-05  8.14699939e-05  4.31349968e-05
atom     22.9998569039    22.9998569039     0.0000000000   Al  0.0 0.0    2.85034979e-04  2.85049979e-04 -3.99999970e-08
atom     26.8331663879    26.8331663879     0.0000000000   Al  0.0 0.0    2.78174479e-03  2.78186979e-03 -2.99999977e-08
atom     26.8331663879    22.9998569039     3.8333094840   Al  0.0 0.0   -1.53934988e-04 -5.97879955e-04  1.53929988e-04
atom     22.9998569039    26.8331663879     3.8333094840   Al  0.0 0.0   -5.97894955e-04 -1.53889988e-04  1.53929988e-04
atom     22.9998569039    22.9998569039     7.6666189680   Al  0.0 0.0   -1.41959989e-04 -1.41954989e-04  1.41949989e-04
atom     26.8331663879    26.8331663879     7.6666189680   Al  0.0 0.0   -1.53984988e-04 -1.53894988e-04  5.97909955e-04
atom     26.8331663879    22.9998569039    11.4999284520   Al  0.0 0.0    4.30599968e-05  2.32699983e-05 -8.14999939e-05