begin
comment 22 atoms, species Al4Mg10Si8
lattice     26.6683778107     0.0000000000    -7.2731813837
lattice      0.0000000000     7.6666707325     0.0000000000
lattice      0.0000000000     0.0000000000    13.1523572976
atom      0.0375107163     0.0000000000     8.9107770775   Mg  0.0 0.0    7.06999947e-06 -0.00000000e+00 -4.89499963e-06
atom      1.9848061619     3.8333408947    -0.0917284900   Mg  0.0 0.0   -3.13264976e-04 -2.49999981e-08  1.11249992e-04
atom      4.1433999975     3.8333408947     6.6597802776   Mg  0.0 0.0   -3.86749971e-04 -1.49999989e-08 -3.00419977e-04
atom      9.2661005855     0.0000000000     7.5243152146   Mg  0.0 0.0    3.85654971e-04  1.49999989e-08  3.00514977e-04
atom     11.4245976728     0.0000000000     1.1235330263   Mg  0.0 0.0    3.14639976e-04  1.99999985e-08 -1.11429992e-04
atom      1.5787809915     0.0000000000     3.9807107413   Si  0.0 0.0   -9.87199926e-05  4.99999962e-09 -6.09404954e-04
atom      4.9605310086     0.0000000000    10.4710376711   Si  0.0 0.0   -1.17029991e-04  3.99999970e-08 -9.47149929e-05
atom      5.8864430969     0.0000000000     2.2289630548   Al  0.0 0.0   -6.08499954e-05  2.49999981e-08 -3.21034976e-04
atom      7.5229469165     3.8333408947    -1.1971751039   Al  0.0 0.0    6.07499954e-05 -9.99999925e-09  3.21114976e-04
atom      8.4489198181     3.8333408947     3.7130550569   Si  0.0 0.0    1.16899991e-04 -8.99999932e-08  9.48849929e-05
atom     11.8305426802     3.8333408947    -2.9489918963   Si  0.0 0.0    9.86249926e-05  9.99999925e-09  6.09604954e-04
atom     13.3719760455     3.8333408947     5.2733432929   Mg  0.0 0.0   -6.95499948e-06 -0.00000000e+00  4.67499965e-06
atom     15.3189646606     0.0000000000    -3.7294331699   Mg  0.0 0.0   -3.17239976e-04 -2.99999977e-08  1.21224991e-04
atom     17.4773815850     0.0000000000     3.0227196653   Mg  0.0 0.0   -3.83004971e-04 -9.99999925e-09 -2.96579978e-04
atom     22.6004885160     3.8333408947     3.8881944433   Mg  0.0 0.0    3.81949971e-04  9.99999925e-09  2.96634978e-04
atom     24.7588086921     3.8333408947    -2.5119492059   Mg  0.0 0.0    3.18629976e-04  3.49999974e-08 -1.21474991e-04
atom     14.9128150995     3.8333408947     0.3434649249   Si  0.0 0.0   -9.25399930e-05 -9.99999925e-09 -6.12149954e-04
atom     18.2947890199     3.8333408947     6.8342977104   Si  0.0 0.0   -1.12639992e-04  6.99999947e-08 -1.01864992e-04
atom     19.2205546036     3.8333408947    -1.4078791827   Al  0.0 0.0   -5.97049955e-05  1.99999985e-08 -3.15614976e-04
atom     20.8572132206     0.0000000000    -4.8335114858   Al  0.0 0.0    5.96149955e-05 -2.99999977e-08  3.15444976e-04
atom     21.7830313248     0.0000000000     0.0766191624   Si  0.0 0.0    1.12559992e-04 -2.49999981e-08  1.01934992e-04
atom     25.1648808545     0.0000000000    -6.5849385206   Si  0.0 0.0    9.23049931e-05  4.99999962e-09  6.12294954e-04
energy -2.928127678248345e+02
charge 0.0000
end
