
     Program PWSCF v.6.3 starts on 26Feb2020 at 22:57:47 

     This program is part of the open-source Quantum ESPRESSO suite
     for quantum simulation of materials; please cite
         "P. Giannozzi et al., J. Phys.:Condens. Matter 21 395502 (2009);
         "P. Giannozzi et al., J. Phys.:Condens. Matter 29 465901 (2017);
          URL http://www.quantum-espresso.org", 
     in publications or presentations arising from this work. More details at
     http://www.quantum-espresso.org/quote

 *** WARNING: using old-style file format, will disappear from next version ***

     Parallel version (MPI & OpenMP), running on     288 processor cores
     Number of MPI processes:               288
     Threads/MPI process:                     1

     MPI processes distributed on     8 nodes
     K-points division:     npool     =      36
     R & G space division:  proc/nbgrp/npool/nimage =       8
     Reading input from aiida.in
Warning: card &IONS ignored
Warning: card   !PRESS_CONV_THR = 0.05                 ! JUST FOR VOLUME RELAXATIONS ignored
Warning: card / ignored

     Current dimensions of program PWSCF are:
     Max number of different atomic species (ntypx) = 10
     Max number of k-points (npk) =  40000
     Max angular momentum in pseudopotentials (lmaxx) =  3
               file Al.pbe-n-kjpaw_psl.1.0.0.UPF: wavefunction(s)  3S 3P renormalized
               file Mg.pbe-n-kjpaw_psl.0.3.0.UPF: wavefunction(s)  3S renormalized

     Subspace diagonalization in iterative solution of the eigenvalue problem:
     one sub-group per band group will be used
     scalapack distributed-memory algorithm (size of sub-group:  2*  2 procs)

 
     Parallelization info
     --------------------
     sticks:   dense  smooth     PW     G-vecs:    dense   smooth      PW
     Min        3740    1497    390               486920   123201   16474
     Max        3741    1498    391               486925   123204   16481
     Sum       29921   11977   3125              3895379   985619  131827
 


     bravais-lattice index     =            0
     lattice parameter (alat)  =      30.6665  a.u.
     unit-cell volume          =   28839.7502 (a.u.)^3
     number of atoms/cell      =          255
     number of atomic types    =            2
     number of electrons       =       764.00
     number of Kohn-Sham states=          458
     kinetic-energy cutoff     =      40.0000  Ry
     charge density cutoff     =     400.0000  Ry
     convergence threshold     =      1.0E-12
     mixing beta               =       0.4000
     number of iterations used =            8  local-TF  mixing
     Exchange-correlation      = SLA PW PBX PBC ( 1  4  3  4 0 0)

     celldm(1)=  30.666473  celldm(2)=   0.000000  celldm(3)=   0.000000
     celldm(4)=   0.000000  celldm(5)=   0.000000  celldm(6)=   0.000000

     crystal axes: (cart. coord. in units of alat)
               a(1) = (   1.000000   0.000000   0.000000 )  
               a(2) = (   0.000000   1.000000   0.000000 )  
               a(3) = (   0.000000   0.000000   1.000000 )  

     reciprocal axes: (cart. coord. in units 2 pi/alat)
               b(1) = (  1.000000  0.000000  0.000000 )  
               b(2) = (  0.000000  1.000000  0.000000 )  
               b(3) = (  0.000000  0.000000  1.000000 )  


     PseudoPot. # 1 for Al read from file:
     /users/aglensk/Dropbox/Albert/scripts/dotfiles/scripts/potentials/quantum_espresso/pseudo_SSSPefV1.1_alalloy/Al.pbe-n-kjpaw_psl.1.0.0.UPF
     MD5 check sum: cfc449ca30b5f3223ec38ddd88ac046d
     Pseudo is Projector augmented-wave + core cor, Zval =  3.0
     Generated using "atomic" code by A. Dal Corso v.5.1
     Shape of augmentation charge: PSQ
     Using radial grid of 1135 points,  6 beta functions with: 
                l(1) =   0
                l(2) =   0
                l(3) =   1
                l(4) =   1
                l(5) =   2
                l(6) =   2
     Q(r) pseudized with 0 coefficients 


     PseudoPot. # 2 for Mg read from file:
     /users/aglensk/Dropbox/Albert/scripts/dotfiles/scripts/potentials/quantum_espresso/pseudo_SSSPefV1.1_alalloy/Mg.pbe-n-kjpaw_psl.0.3.0.UPF
     MD5 check sum: 24ecedc7f3e3cbe212e682f4413594e4
     Pseudo is Projector augmented-wave + core cor, Zval =  2.0
     Generated using "atomic" code by A. Dal Corso v.5.0.99 svn rev. 10869
     Shape of augmentation charge: PSQ
     Using radial grid of 1129 points,  4 beta functions with: 
                l(1) =   0
                l(2) =   0
                l(3) =   1
                l(4) =   1
     Q(r) pseudized with 0 coefficients 


     atomic species   valence    mass     pseudopotential
        Al             3.00    26.98154     Al( 1.00)
        Mg             2.00    24.30500     Mg( 1.00)

     No symmetry found


                                    s                        frac. trans.

      isym =  1     identity                                     

 cryst.   s( 1) = (     1          0          0      )
                  (     0          1          0      )
                  (     0          0          1      )

 cart.    s( 1) = (  1.0000000  0.0000000  0.0000000 )
                  (  0.0000000  1.0000000  0.0000000 )
                  (  0.0000000  0.0000000  1.0000000 )


   Cartesian axes

     site n.     atom                  positions (alat units)
         1           Al  tau(   1) = (   0.1236954   0.9979026   0.1270012  )
         2           Mg  tau(   2) = (   0.1203111   0.1203111   0.0000000  )
         3           Al  tau(   3) = (   0.9979026   0.1236954   0.1270012  )
         4           Al  tau(   4) = (   0.9994942   0.9994942   0.2510406  )
         5           Al  tau(   5) = (   0.1250396   0.1250396   0.2504858  )
         6           Al  tau(   6) = (   0.1249943   0.9999697   0.3753590  )
         7           Al  tau(   7) = (   0.9999697   0.1249943   0.3753590  )
         8           Al  tau(   8) = (   0.9999480   0.9999480   0.5000000  )
         9           Al  tau(   9) = (   0.1250465   0.1250465   0.5000000  )
        10           Al  tau(  10) = (   0.1249943   0.9999697   0.6246410  )
        11           Al  tau(  11) = (   0.9999697   0.1249943   0.6246410  )
        12           Al  tau(  12) = (   0.9994942   0.9994942   0.7489594  )
        13           Al  tau(  13) = (   0.1250396   0.1250396   0.7495143  )
        14           Al  tau(  14) = (   0.1236954   0.9979026   0.8729988  )
        15           Al  tau(  15) = (   0.9979026   0.1236954   0.8729988  )
        16           Al  tau(  16) = (   0.9985116   0.2510215   0.0000000  )
        17           Al  tau(  17) = (   0.1249504   0.3751093   0.0000000  )
        18           Al  tau(  18) = (   0.1249015   0.2508087   0.1259178  )
        19           Al  tau(  19) = (   0.9997779   0.3755279   0.1252021  )
        20           Al  tau(  20) = (   0.9997953   0.2496579   0.2499793  )
        21           Al  tau(  21) = (   0.1249252   0.3752956   0.2503730  )
        22           Al  tau(  22) = (   0.1249216   0.2500463   0.3751397  )
        23           Al  tau(  23) = (   0.9999739   0.3750044   0.3750114  )
        24           Al  tau(  24) = (   0.9999557   0.2500890   0.5000000  )
        25           Al  tau(  25) = (   0.1250171   0.3751127   0.5000000  )
        26           Al  tau(  26) = (   0.1249216   0.2500463   0.6248603  )
        27           Al  tau(  27) = (   0.9999739   0.3750044   0.6249887  )
        28           Al  tau(  28) = (   0.9997953   0.2496579   0.7500207  )
        29           Al  tau(  29) = (   0.1249252   0.3752956   0.7496270  )
        30           Al  tau(  30) = (   0.1249015   0.2508087   0.8740822  )
        31           Al  tau(  31) = (   0.9997779   0.3755279   0.8747979  )
        32           Al  tau(  32) = (   0.9999958   0.5001758   0.0000000  )
        33           Al  tau(  33) = (   0.1249521   0.6250549   0.0000000  )
        34           Al  tau(  34) = (   0.1250304   0.5001897   0.1250366  )
        35           Al  tau(  35) = (   0.9999725   0.6250028   0.1249832  )
        36           Al  tau(  36) = (   0.9999861   0.5001145   0.2501054  )
        37           Al  tau(  37) = (   0.1248890   0.6251462   0.2500146  )
        38           Al  tau(  38) = (   0.1250065   0.5001066   0.3751250  )
        39           Al  tau(  39) = (   0.9999735   0.6251672   0.3748580  )
        40           Al  tau(  40) = (   0.9999844   0.5000391   0.5000000  )
        41           Al  tau(  41) = (   0.1249996   0.6249749   0.5000000  )
        42           Al  tau(  42) = (   0.1250065   0.5001066   0.6248750  )
        43           Al  tau(  43) = (   0.9999735   0.6251672   0.6251420  )
        44           Al  tau(  44) = (   0.9999861   0.5001145   0.7498946  )
        45           Al  tau(  45) = (   0.1248890   0.6251462   0.7499855  )
        46           Al  tau(  46) = (   0.1250304   0.5001897   0.8749634  )
        47           Al  tau(  47) = (   0.9999725   0.6250028   0.8750168  )
        48           Al  tau(  48) = (   0.0000663   0.7502362   0.0000000  )
        49           Al  tau(  49) = (   0.1225978   0.8782051   0.0000000  )
        50           Al  tau(  50) = (   0.1248403   0.7501379   0.1248006  )
        51           Al  tau(  51) = (   0.9996502   0.8768762   0.1229031  )
        52           Al  tau(  52) = (   0.9999636   0.7508745   0.2490599  )
        53           Al  tau(  53) = (   0.1248324   0.8743536   0.2505677  )
        54           Al  tau(  54) = (   0.1249005   0.7498221   0.3750463  )
        55           Al  tau(  55) = (   0.9999768   0.8748689   0.3752071  )
        56           Al  tau(  56) = (   0.9999545   0.7499086   0.5000000  )
        57           Al  tau(  57) = (   0.1250510   0.8748685   0.5000000  )
        58           Al  tau(  58) = (   0.1249005   0.7498221   0.6249537  )
        59           Al  tau(  59) = (   0.9999768   0.8748689   0.6247929  )
        60           Al  tau(  60) = (   0.9999636   0.7508745   0.7509401  )
        61           Al  tau(  61) = (   0.1248324   0.8743536   0.7494323  )
        62           Al  tau(  62) = (   0.1248403   0.7501379   0.8751994  )
        63           Al  tau(  63) = (   0.9996502   0.8768762   0.8770970  )
        64           Al  tau(  64) = (   0.2510215   0.9985116   0.0000000  )
        65           Al  tau(  65) = (   0.3751093   0.1249504   0.0000000  )
        66           Al  tau(  66) = (   0.3755279   0.9997779   0.1252021  )
        67           Al  tau(  67) = (   0.2508087   0.1249015   0.1259178  )
        68           Al  tau(  68) = (   0.2496579   0.9997953   0.2499793  )
        69           Al  tau(  69) = (   0.3752956   0.1249252   0.2503730  )
        70           Al  tau(  70) = (   0.3750044   0.9999739   0.3750114  )
        71           Al  tau(  71) = (   0.2500463   0.1249216   0.3751397  )
        72           Al  tau(  72) = (   0.2500890   0.9999557   0.5000000  )
        73           Al  tau(  73) = (   0.3751127   0.1250171   0.5000000  )
        74           Al  tau(  74) = (   0.3750044   0.9999739   0.6249887  )
        75           Al  tau(  75) = (   0.2500463   0.1249216   0.6248603  )
        76           Al  tau(  76) = (   0.2496579   0.9997953   0.7500207  )
        77           Al  tau(  77) = (   0.3752956   0.1249252   0.7496270  )
        78           Al  tau(  78) = (   0.3755279   0.9997779   0.8747979  )
        79           Al  tau(  79) = (   0.2508087   0.1249015   0.8740822  )
        80           Al  tau(  80) = (   0.2501410   0.2501410   0.0000000  )
        81           Al  tau(  81) = (   0.3752305   0.3752305   0.0000000  )
        82           Al  tau(  82) = (   0.3754368   0.2502042   0.1251451  )
        83           Al  tau(  83) = (   0.2502042   0.3754368   0.1251451  )
        84           Al  tau(  84) = (   0.2504014   0.2504014   0.2506628  )
        85           Al  tau(  85) = (   0.3751146   0.3751146   0.2500555  )
        86           Al  tau(  86) = (   0.3751226   0.2500068   0.3751390  )
        87           Al  tau(  87) = (   0.2500068   0.3751226   0.3751390  )
        88           Al  tau(  88) = (   0.2500055   0.2500055   0.5000000  )
        89           Al  tau(  89) = (   0.3749996   0.3749996   0.5000000  )
        90           Al  tau(  90) = (   0.3751226   0.2500068   0.6248610  )
        91           Al  tau(  91) = (   0.2500068   0.3751226   0.6248610  )
        92           Al  tau(  92) = (   0.2504014   0.2504014   0.7493372  )
        93           Al  tau(  93) = (   0.3751146   0.3751146   0.7499445  )
        94           Al  tau(  94) = (   0.3754368   0.2502042   0.8748549  )
        95           Al  tau(  95) = (   0.2502042   0.3754368   0.8748549  )
        96           Al  tau(  96) = (   0.2500055   0.5001859   0.0000000  )
        97           Al  tau(  97) = (   0.3748795   0.6251596   0.0000000  )
        98           Al  tau(  98) = (   0.3751057   0.5001051   0.1250114  )
        99           Al  tau(  99) = (   0.2500049   0.6251130   0.1249486  )
       100           Al  tau( 100) = (   0.2499832   0.5001235   0.2500682  )
       101           Al  tau( 101) = (   0.3750573   0.6249713   0.2500276  )
       102           Al  tau( 102) = (   0.3749758   0.5000023   0.3749773  )
       103           Al  tau( 103) = (   0.2500089   0.6249769   0.3750609  )
       104           Al  tau( 104) = (   0.2500838   0.5000448   0.5000000  )
       105           Al  tau( 105) = (   0.3750274   0.6250205   0.5000000  )
       106           Al  tau( 106) = (   0.3749758   0.5000023   0.6250227  )
       107           Al  tau( 107) = (   0.2500089   0.6249769   0.6249391  )
       108           Al  tau( 108) = (   0.2499832   0.5001235   0.7499318  )
       109           Al  tau( 109) = (   0.3750573   0.6249713   0.7499724  )
       110           Al  tau( 110) = (   0.3751057   0.5001051   0.8749886  )
       111           Al  tau( 111) = (   0.2500049   0.6251130   0.8750515  )
       112           Al  tau( 112) = (   0.2490230   0.7507203   0.0000000  )
       113           Al  tau( 113) = (   0.3755791   0.8745328   0.0000000  )
       114           Al  tau( 114) = (   0.3750247   0.7498371   0.1249317  )
       115           Al  tau( 115) = (   0.2502385   0.8743151   0.1250756  )
       116           Al  tau( 116) = (   0.2501334   0.7497570   0.2502048  )
       117           Al  tau( 117) = (   0.3749324   0.8750417   0.2500247  )
       118           Al  tau( 118) = (   0.3749982   0.7500497   0.3749900  )
       119           Al  tau( 119) = (   0.2499767   0.8750213   0.3749514  )
       120           Al  tau( 120) = (   0.2500184   0.7500011   0.5000000  )
       121           Al  tau( 121) = (   0.3750432   0.8749511   0.5000000  )
       122           Al  tau( 122) = (   0.3749982   0.7500497   0.6250100  )
       123           Al  tau( 123) = (   0.2499767   0.8750213   0.6250486  )
       124           Al  tau( 124) = (   0.2501334   0.7497570   0.7497952  )
       125           Al  tau( 125) = (   0.3749324   0.8750417   0.7499753  )
       126           Al  tau( 126) = (   0.3750247   0.7498371   0.8750683  )
       127           Al  tau( 127) = (   0.2502385   0.8743151   0.8749244  )
       128           Al  tau( 128) = (   0.5001758   0.9999958   0.0000000  )
       129           Al  tau( 129) = (   0.6250549   0.1249521   0.0000000  )
       130           Al  tau( 130) = (   0.6250028   0.9999725   0.1249832  )
       131           Al  tau( 131) = (   0.5001897   0.1250304   0.1250366  )
       132           Al  tau( 132) = (   0.5001145   0.9999861   0.2501054  )
       133           Al  tau( 133) = (   0.6251462   0.1248890   0.2500146  )
       134           Al  tau( 134) = (   0.6251672   0.9999735   0.3748580  )
       135           Al  tau( 135) = (   0.5001066   0.1250065   0.3751250  )
       136           Al  tau( 136) = (   0.5000391   0.9999844   0.5000000  )
       137           Al  tau( 137) = (   0.6249749   0.1249996   0.5000000  )
       138           Al  tau( 138) = (   0.6251672   0.9999735   0.6251420  )
       139           Al  tau( 139) = (   0.5001066   0.1250065   0.6248750  )
       140           Al  tau( 140) = (   0.5001145   0.9999861   0.7498946  )
       141           Al  tau( 141) = (   0.6251462   0.1248890   0.7499855  )
       142           Al  tau( 142) = (   0.6250028   0.9999725   0.8750168  )
       143           Al  tau( 143) = (   0.5001897   0.1250304   0.8749634  )
       144           Al  tau( 144) = (   0.5001859   0.2500055   0.0000000  )
       145           Al  tau( 145) = (   0.6251596   0.3748795   0.0000000  )
       146           Al  tau( 146) = (   0.6251130   0.2500049   0.1249486  )
       147           Al  tau( 147) = (   0.5001051   0.3751057   0.1250114  )
       148           Al  tau( 148) = (   0.5001235   0.2499832   0.2500682  )
       149           Al  tau( 149) = (   0.6249713   0.3750573   0.2500276  )
       150           Al  tau( 150) = (   0.6249769   0.2500089   0.3750609  )
       151           Al  tau( 151) = (   0.5000023   0.3749758   0.3749773  )
       152           Al  tau( 152) = (   0.5000448   0.2500838   0.5000000  )
       153           Al  tau( 153) = (   0.6250205   0.3750274   0.5000000  )
       154           Al  tau( 154) = (   0.6249769   0.2500089   0.6249391  )
       155           Al  tau( 155) = (   0.5000023   0.3749758   0.6250227  )
       156           Al  tau( 156) = (   0.5001235   0.2499832   0.7499318  )
       157           Al  tau( 157) = (   0.6249713   0.3750573   0.7499724  )
       158           Al  tau( 158) = (   0.6251130   0.2500049   0.8750515  )
       159           Al  tau( 159) = (   0.5001051   0.3751057   0.8749886  )
       160           Al  tau( 160) = (   0.5001058   0.5001058   0.0000000  )
       161           Al  tau( 161) = (   0.6251823   0.6251823   0.0000000  )
       162           Al  tau( 162) = (   0.6249852   0.5000247   0.1250198  )
       163           Al  tau( 163) = (   0.5000247   0.6249852   0.1250198  )
       164           Al  tau( 164) = (   0.4999942   0.4999942   0.2500478  )
       165           Al  tau( 165) = (   0.6249774   0.6249774   0.2499963  )
       166           Al  tau( 166) = (   0.6250135   0.5000233   0.3749906  )
       167           Al  tau( 167) = (   0.5000233   0.6250135   0.3749906  )
       168           Al  tau( 168) = (   0.4999973   0.4999973   0.5000000  )
       169           Al  tau( 169) = (   0.6250340   0.6250340   0.5000000  )
       170           Al  tau( 170) = (   0.6250135   0.5000233   0.6250094  )
       171           Al  tau( 171) = (   0.5000233   0.6250135   0.6250094  )
       172           Al  tau( 172) = (   0.4999942   0.4999942   0.7499522  )
       173           Al  tau( 173) = (   0.6249774   0.6249774   0.7500037  )
       174           Al  tau( 174) = (   0.6249852   0.5000247   0.8749802  )
       175           Al  tau( 175) = (   0.5000247   0.6249852   0.8749802  )
       176           Al  tau( 176) = (   0.5001330   0.7498646   0.0000000  )
       177           Al  tau( 177) = (   0.6250226   0.8750141   0.0000000  )
       178           Al  tau( 178) = (   0.6251426   0.7499979   0.1249095  )
       179           Al  tau( 179) = (   0.5001323   0.8748702   0.1250758  )
       180           Al  tau( 180) = (   0.5000064   0.7500307   0.2499889  )
       181           Al  tau( 181) = (   0.6251433   0.8750853   0.2500010  )
       182           Al  tau( 182) = (   0.6249815   0.7500192   0.3750295  )
       183           Al  tau( 183) = (   0.4999956   0.8749944   0.3750236  )
       184           Al  tau( 184) = (   0.5000045   0.7499013   0.5000000  )
       185           Al  tau( 185) = (   0.6249569   0.8749592   0.5000000  )
       186           Al  tau( 186) = (   0.6249815   0.7500192   0.6249705  )
       187           Al  tau( 187) = (   0.4999956   0.8749944   0.6249765  )
       188           Al  tau( 188) = (   0.5000064   0.7500307   0.7500112  )
       189           Al  tau( 189) = (   0.6251433   0.8750853   0.7499990  )
       190           Al  tau( 190) = (   0.6251426   0.7499979   0.8750905  )
       191           Al  tau( 191) = (   0.5001323   0.8748702   0.8749242  )
       192           Al  tau( 192) = (   0.7502362   0.0000663   0.0000000  )
       193           Al  tau( 193) = (   0.8782051   0.1225978   0.0000000  )
       194           Al  tau( 194) = (   0.8768762   0.9996502   0.1229031  )
       195           Al  tau( 195) = (   0.7501379   0.1248403   0.1248006  )
       196           Al  tau( 196) = (   0.7508745   0.9999636   0.2490599  )
       197           Al  tau( 197) = (   0.8743536   0.1248324   0.2505677  )
       198           Al  tau( 198) = (   0.8748689   0.9999768   0.3752071  )
       199           Al  tau( 199) = (   0.7498221   0.1249005   0.3750463  )
       200           Al  tau( 200) = (   0.7499086   0.9999545   0.5000000  )
       201           Al  tau( 201) = (   0.8748685   0.1250510   0.5000000  )
       202           Al  tau( 202) = (   0.8748689   0.9999768   0.6247929  )
       203           Al  tau( 203) = (   0.7498221   0.1249005   0.6249537  )
       204           Al  tau( 204) = (   0.7508745   0.9999636   0.7509401  )
       205           Al  tau( 205) = (   0.8743536   0.1248324   0.7494323  )
       206           Al  tau( 206) = (   0.8768762   0.9996502   0.8770970  )
       207           Al  tau( 207) = (   0.7501379   0.1248403   0.8751994  )
       208           Al  tau( 208) = (   0.7507203   0.2490230   0.0000000  )
       209           Al  tau( 209) = (   0.8745328   0.3755791   0.0000000  )
       210           Al  tau( 210) = (   0.8743151   0.2502385   0.1250756  )
       211           Al  tau( 211) = (   0.7498371   0.3750247   0.1249317  )
       212           Al  tau( 212) = (   0.7497570   0.2501334   0.2502048  )
       213           Al  tau( 213) = (   0.8750417   0.3749324   0.2500247  )
       214           Al  tau( 214) = (   0.8750213   0.2499767   0.3749514  )
       215           Al  tau( 215) = (   0.7500497   0.3749982   0.3749900  )
       216           Al  tau( 216) = (   0.7500011   0.2500184   0.5000000  )
       217           Al  tau( 217) = (   0.8749511   0.3750432   0.5000000  )
       218           Al  tau( 218) = (   0.8750213   0.2499767   0.6250486  )
       219           Al  tau( 219) = (   0.7500497   0.3749982   0.6250100  )
       220           Al  tau( 220) = (   0.7497570   0.2501334   0.7497952  )
       221           Al  tau( 221) = (   0.8750417   0.3749324   0.7499753  )
       222           Al  tau( 222) = (   0.8743151   0.2502385   0.8749244  )
       223           Al  tau( 223) = (   0.7498371   0.3750247   0.8750683  )
       224           Al  tau( 224) = (   0.7498646   0.5001330   0.0000000  )
       225           Al  tau( 225) = (   0.8750141   0.6250226   0.0000000  )
       226           Al  tau( 226) = (   0.8748702   0.5001323   0.1250758  )
       227           Al  tau( 227) = (   0.7499979   0.6251426   0.1249095  )
       228           Al  tau( 228) = (   0.7500307   0.5000064   0.2499889  )
       229           Al  tau( 229) = (   0.8750853   0.6251433   0.2500010  )
       230           Al  tau( 230) = (   0.8749944   0.4999956   0.3750236  )
       231           Al  tau( 231) = (   0.7500192   0.6249815   0.3750295  )
       232           Al  tau( 232) = (   0.7499013   0.5000045   0.5000000  )
       233           Al  tau( 233) = (   0.8749592   0.6249569   0.5000000  )
       234           Al  tau( 234) = (   0.8749944   0.4999956   0.6249765  )
       235           Al  tau( 235) = (   0.7500192   0.6249815   0.6249705  )
       236           Al  tau( 236) = (   0.7500307   0.5000064   0.7500112  )
       237           Al  tau( 237) = (   0.8750853   0.6251433   0.7499990  )
       238           Al  tau( 238) = (   0.8748702   0.5001323   0.8749242  )
       239           Al  tau( 239) = (   0.7499979   0.6251426   0.8750905  )
       240           Al  tau( 240) = (   0.7509361   0.7509361   0.0000000  )
       241           Al  tau( 241) = (   0.8771699   0.8771699   0.0000000  )
       242           Al  tau( 242) = (   0.8750514   0.7501129   0.1248500  )
       243           Al  tau( 243) = (   0.7501129   0.8750514   0.1248500  )
       244           Al  tau( 244) = (   0.7498398   0.7498398   0.2501335  )
       245           Al  tau( 245) = (   0.8749685   0.8749685   0.2498898  )
       246           Al  tau( 246) = (   0.8751163   0.7500248   0.3748558  )
       247           Al  tau( 247) = (   0.7500248   0.8751163   0.3748558  )
       248           Al  tau( 248) = (   0.7500301   0.7500301   0.5000000  )
       249           Al  tau( 249) = (   0.8749279   0.8749279   0.5000000  )
       250           Al  tau( 250) = (   0.8751163   0.7500248   0.6251442  )
       251           Al  tau( 251) = (   0.7500248   0.8751163   0.6251442  )
       252           Al  tau( 252) = (   0.7498398   0.7498398   0.7498665  )
       253           Al  tau( 253) = (   0.8749685   0.8749685   0.7501102  )
       254           Al  tau( 254) = (   0.8750514   0.7501129   0.8751500  )
       255           Al  tau( 255) = (   0.7501129   0.8750514   0.8751500  )

   Crystallographic axes

     site n.     atom                  positions (cryst. coord.)
         1           Al  tau(   1) = (  0.1236954  0.9979026  0.1270012  )
         2           Mg  tau(   2) = (  0.1203111  0.1203111  0.0000000  )
         3           Al  tau(   3) = (  0.9979026  0.1236954  0.1270012  )
         4           Al  tau(   4) = (  0.9994942  0.9994942  0.2510406  )
         5           Al  tau(   5) = (  0.1250396  0.1250396  0.2504858  )
         6           Al  tau(   6) = (  0.1249943  0.9999697  0.3753590  )
         7           Al  tau(   7) = (  0.9999697  0.1249943  0.3753590  )
         8           Al  tau(   8) = (  0.9999480  0.9999480  0.5000000  )
         9           Al  tau(   9) = (  0.1250465  0.1250465  0.5000000  )
        10           Al  tau(  10) = (  0.1249943  0.9999697  0.6246410  )
        11           Al  tau(  11) = (  0.9999697  0.1249943  0.6246410  )
        12           Al  tau(  12) = (  0.9994942  0.9994942  0.7489594  )
        13           Al  tau(  13) = (  0.1250396  0.1250396  0.7495143  )
        14           Al  tau(  14) = (  0.1236954  0.9979026  0.8729988  )
        15           Al  tau(  15) = (  0.9979026  0.1236954  0.8729988  )
        16           Al  tau(  16) = (  0.9985116  0.2510215  0.0000000  )
        17           Al  tau(  17) = (  0.1249504  0.3751093  0.0000000  )
        18           Al  tau(  18) = (  0.1249015  0.2508087  0.1259178  )
        19           Al  tau(  19) = (  0.9997779  0.3755279  0.1252021  )
        20           Al  tau(  20) = (  0.9997953  0.2496579  0.2499793  )
        21           Al  tau(  21) = (  0.1249252  0.3752956  0.2503730  )
        22           Al  tau(  22) = (  0.1249216  0.2500463  0.3751397  )
        23           Al  tau(  23) = (  0.9999739  0.3750044  0.3750114  )
        24           Al  tau(  24) = (  0.9999557  0.2500890  0.5000000  )
        25           Al  tau(  25) = (  0.1250171  0.3751127  0.5000000  )
        26           Al  tau(  26) = (  0.1249216  0.2500463  0.6248603  )
        27           Al  tau(  27) = (  0.9999739  0.3750044  0.6249887  )
        28           Al  tau(  28) = (  0.9997953  0.2496579  0.7500207  )
        29           Al  tau(  29) = (  0.1249252  0.3752956  0.7496270  )
        30           Al  tau(  30) = (  0.1249015  0.2508087  0.8740822  )
        31           Al  tau(  31) = (  0.9997779  0.3755279  0.8747979  )
        32           Al  tau(  32) = (  0.9999958  0.5001758  0.0000000  )
        33           Al  tau(  33) = (  0.1249521  0.6250549  0.0000000  )
        34           Al  tau(  34) = (  0.1250304  0.5001897  0.1250366  )
        35           Al  tau(  35) = (  0.9999725  0.6250028  0.1249832  )
        36           Al  tau(  36) = (  0.9999861  0.5001145  0.2501054  )
        37           Al  tau(  37) = (  0.1248890  0.6251462  0.2500146  )
        38           Al  tau(  38) = (  0.1250065  0.5001066  0.3751250  )
        39           Al  tau(  39) = (  0.9999735  0.6251672  0.3748580  )
        40           Al  tau(  40) = (  0.9999844  0.5000391  0.5000000  )
        41           Al  tau(  41) = (  0.1249996  0.6249749  0.5000000  )
        42           Al  tau(  42) = (  0.1250065  0.5001066  0.6248750  )
        43           Al  tau(  43) = (  0.9999735  0.6251672  0.6251420  )
        44           Al  tau(  44) = (  0.9999861  0.5001145  0.7498946  )
        45           Al  tau(  45) = (  0.1248890  0.6251462  0.7499855  )
        46           Al  tau(  46) = (  0.1250304  0.5001897  0.8749634  )
        47           Al  tau(  47) = (  0.9999725  0.6250028  0.8750168  )
        48           Al  tau(  48) = (  0.0000663  0.7502362  0.0000000  )
        49           Al  tau(  49) = (  0.1225978  0.8782051  0.0000000  )
        50           Al  tau(  50) = (  0.1248403  0.7501379  0.1248006  )
        51           Al  tau(  51) = (  0.9996502  0.8768762  0.1229031  )
        52           Al  tau(  52) = (  0.9999636  0.7508745  0.2490599  )
        53           Al  tau(  53) = (  0.1248324  0.8743536  0.2505677  )
        54           Al  tau(  54) = (  0.1249005  0.7498221  0.3750463  )
        55           Al  tau(  55) = (  0.9999768  0.8748689  0.3752071  )
        56           Al  tau(  56) = (  0.9999545  0.7499086  0.5000000  )
        57           Al  tau(  57) = (  0.1250510  0.8748685  0.5000000  )
        58           Al  tau(  58) = (  0.1249005  0.7498221  0.6249537  )
        59           Al  tau(  59) = (  0.9999768  0.8748689  0.6247929  )
        60           Al  tau(  60) = (  0.9999636  0.7508745  0.7509401  )
        61           Al  tau(  61) = (  0.1248324  0.8743536  0.7494323  )
        62           Al  tau(  62) = (  0.1248403  0.7501379  0.8751994  )
        63           Al  tau(  63) = (  0.9996502  0.8768762  0.8770970  )
        64           Al  tau(  64) = (  0.2510215  0.9985116  0.0000000  )
        65           Al  tau(  65) = (  0.3751093  0.1249504  0.0000000  )
        66           Al  tau(  66) = (  0.3755279  0.9997779  0.1252021  )
        67           Al  tau(  67) = (  0.2508087  0.1249015  0.1259178  )
        68           Al  tau(  68) = (  0.2496579  0.9997953  0.2499793  )
        69           Al  tau(  69) = (  0.3752956  0.1249252  0.2503730  )
        70           Al  tau(  70) = (  0.3750044  0.9999739  0.3750114  )
        71           Al  tau(  71) = (  0.2500463  0.1249216  0.3751397  )
        72           Al  tau(  72) = (  0.2500890  0.9999557  0.5000000  )
        73           Al  tau(  73) = (  0.3751127  0.1250171  0.5000000  )
        74           Al  tau(  74) = (  0.3750044  0.9999739  0.6249887  )
        75           Al  tau(  75) = (  0.2500463  0.1249216  0.6248603  )
        76           Al  tau(  76) = (  0.2496579  0.9997953  0.7500207  )
        77           Al  tau(  77) = (  0.3752956  0.1249252  0.7496270  )
        78           Al  tau(  78) = (  0.3755279  0.9997779  0.8747979  )
        79           Al  tau(  79) = (  0.2508087  0.1249015  0.8740822  )
        80           Al  tau(  80) = (  0.2501410  0.2501410  0.0000000  )
        81           Al  tau(  81) = (  0.3752305  0.3752305  0.0000000  )
        82           Al  tau(  82) = (  0.3754368  0.2502042  0.1251451  )
        83           Al  tau(  83) = (  0.2502042  0.3754368  0.1251451  )
        84           Al  tau(  84) = (  0.2504014  0.2504014  0.2506628  )
        85           Al  tau(  85) = (  0.3751146  0.3751146  0.2500555  )
        86           Al  tau(  86) = (  0.3751226  0.2500068  0.3751390  )
        87           Al  tau(  87) = (  0.2500068  0.3751226  0.3751390  )
        88           Al  tau(  88) = (  0.2500055  0.2500055  0.5000000  )
        89           Al  tau(  89) = (  0.3749996  0.3749996  0.5000000  )
        90           Al  tau(  90) = (  0.3751226  0.2500068  0.6248610  )
        91           Al  tau(  91) = (  0.2500068  0.3751226  0.6248610  )
        92           Al  tau(  92) = (  0.2504014  0.2504014  0.7493372  )
        93           Al  tau(  93) = (  0.3751146  0.3751146  0.7499445  )
        94           Al  tau(  94) = (  0.3754368  0.2502042  0.8748549  )
        95           Al  tau(  95) = (  0.2502042  0.3754368  0.8748549  )
        96           Al  tau(  96) = (  0.2500055  0.5001859  0.0000000  )
        97           Al  tau(  97) = (  0.3748795  0.6251596  0.0000000  )
        98           Al  tau(  98) = (  0.3751057  0.5001051  0.1250114  )
        99           Al  tau(  99) = (  0.2500049  0.6251130  0.1249486  )
       100           Al  tau( 100) = (  0.2499832  0.5001235  0.2500682  )
       101           Al  tau( 101) = (  0.3750573  0.6249713  0.2500276  )
       102           Al  tau( 102) = (  0.3749758  0.5000023  0.3749773  )
       103           Al  tau( 103) = (  0.2500089  0.6249769  0.3750609  )
       104           Al  tau( 104) = (  0.2500838  0.5000448  0.5000000  )
       105           Al  tau( 105) = (  0.3750274  0.6250205  0.5000000  )
       106           Al  tau( 106) = (  0.3749758  0.5000023  0.6250227  )
       107           Al  tau( 107) = (  0.2500089  0.6249769  0.6249391  )
       108           Al  tau( 108) = (  0.2499832  0.5001235  0.7499318  )
       109           Al  tau( 109) = (  0.3750573  0.6249713  0.7499724  )
       110           Al  tau( 110) = (  0.3751057  0.5001051  0.8749886  )
       111           Al  tau( 111) = (  0.2500049  0.6251130  0.8750515  )
       112           Al  tau( 112) = (  0.2490230  0.7507203  0.0000000  )
       113           Al  tau( 113) = (  0.3755791  0.8745328  0.0000000  )
       114           Al  tau( 114) = (  0.3750247  0.7498371  0.1249317  )
       115           Al  tau( 115) = (  0.2502385  0.8743151  0.1250756  )
       116           Al  tau( 116) = (  0.2501334  0.7497570  0.2502048  )
       117           Al  tau( 117) = (  0.3749324  0.8750417  0.2500247  )
       118           Al  tau( 118) = (  0.3749982  0.7500497  0.3749900  )
       119           Al  tau( 119) = (  0.2499767  0.8750213  0.3749514  )
       120           Al  tau( 120) = (  0.2500184  0.7500011  0.5000000  )
       121           Al  tau( 121) = (  0.3750432  0.8749511  0.5000000  )
       122           Al  tau( 122) = (  0.3749982  0.7500497  0.6250100  )
       123           Al  tau( 123) = (  0.2499767  0.8750213  0.6250486  )
       124           Al  tau( 124) = (  0.2501334  0.7497570  0.7497952  )
       125           Al  tau( 125) = (  0.3749324  0.8750417  0.7499753  )
       126           Al  tau( 126) = (  0.3750247  0.7498371  0.8750683  )
       127           Al  tau( 127) = (  0.2502385  0.8743151  0.8749244  )
       128           Al  tau( 128) = (  0.5001758  0.9999958  0.0000000  )
       129           Al  tau( 129) = (  0.6250549  0.1249521  0.0000000  )
       130           Al  tau( 130) = (  0.6250028  0.9999725  0.1249832  )
       131           Al  tau( 131) = (  0.5001897  0.1250304  0.1250366  )
       132           Al  tau( 132) = (  0.5001145  0.9999861  0.2501054  )
       133           Al  tau( 133) = (  0.6251462  0.1248890  0.2500146  )
       134           Al  tau( 134) = (  0.6251672  0.9999735  0.3748580  )
       135           Al  tau( 135) = (  0.5001066  0.1250065  0.3751250  )
       136           Al  tau( 136) = (  0.5000391  0.9999844  0.5000000  )
       137           Al  tau( 137) = (  0.6249749  0.1249996  0.5000000  )
       138           Al  tau( 138) = (  0.6251672  0.9999735  0.6251420  )
       139           Al  tau( 139) = (  0.5001066  0.1250065  0.6248750  )
       140           Al  tau( 140) = (  0.5001145  0.9999861  0.7498946  )
       141           Al  tau( 141) = (  0.6251462  0.1248890  0.7499855  )
       142           Al  tau( 142) = (  0.6250028  0.9999725  0.8750168  )
       143           Al  tau( 143) = (  0.5001897  0.1250304  0.8749634  )
       144           Al  tau( 144) = (  0.5001859  0.2500055  0.0000000  )
       145           Al  tau( 145) = (  0.6251596  0.3748795  0.0000000  )
       146           Al  tau( 146) = (  0.6251130  0.2500049  0.1249486  )
       147           Al  tau( 147) = (  0.5001051  0.3751057  0.1250114  )
       148           Al  tau( 148) = (  0.5001235  0.2499832  0.2500682  )
       149           Al  tau( 149) = (  0.6249713  0.3750573  0.2500276  )
       150           Al  tau( 150) = (  0.6249769  0.2500089  0.3750609  )
       151           Al  tau( 151) = (  0.5000023  0.3749758  0.3749773  )
       152           Al  tau( 152) = (  0.5000448  0.2500838  0.5000000  )
       153           Al  tau( 153) = (  0.6250205  0.3750274  0.5000000  )
       154           Al  tau( 154) = (  0.6249769  0.2500089  0.6249391  )
       155           Al  tau( 155) = (  0.5000023  0.3749758  0.6250227  )
       156           Al  tau( 156) = (  0.5001235  0.2499832  0.7499318  )
       157           Al  tau( 157) = (  0.6249713  0.3750573  0.7499724  )
       158           Al  tau( 158) = (  0.6251130  0.2500049  0.8750515  )
       159           Al  tau( 159) = (  0.5001051  0.3751057  0.8749886  )
       160           Al  tau( 160) = (  0.5001058  0.5001058  0.0000000  )
       161           Al  tau( 161) = (  0.6251823  0.6251823  0.0000000  )
       162           Al  tau( 162) = (  0.6249852  0.5000247  0.1250198  )
       163           Al  tau( 163) = (  0.5000247  0.6249852  0.1250198  )
       164           Al  tau( 164) = (  0.4999942  0.4999942  0.2500478  )
       165           Al  tau( 165) = (  0.6249774  0.6249774  0.2499963  )
       166           Al  tau( 166) = (  0.6250135  0.5000233  0.3749906  )
       167           Al  tau( 167) = (  0.5000233  0.6250135  0.3749906  )
       168           Al  tau( 168) = (  0.4999973  0.4999973  0.5000000  )
       169           Al  tau( 169) = (  0.6250340  0.6250340  0.5000000  )
       170           Al  tau( 170) = (  0.6250135  0.5000233  0.6250094  )
       171           Al  tau( 171) = (  0.5000233  0.6250135  0.6250094  )
       172           Al  tau( 172) = (  0.4999942  0.4999942  0.7499522  )
       173           Al  tau( 173) = (  0.6249774  0.6249774  0.7500037  )
       174           Al  tau( 174) = (  0.6249852  0.5000247  0.8749802  )
       175           Al  tau( 175) = (  0.5000247  0.6249852  0.8749802  )
       176           Al  tau( 176) = (  0.5001330  0.7498646  0.0000000  )
       177           Al  tau( 177) = (  0.6250226  0.8750141  0.0000000  )
       178           Al  tau( 178) = (  0.6251426  0.7499979  0.1249095  )
       179           Al  tau( 179) = (  0.5001323  0.8748702  0.1250758  )
       180           Al  tau( 180) = (  0.5000064  0.7500307  0.2499889  )
       181           Al  tau( 181) = (  0.6251433  0.8750853  0.2500010  )
       182           Al  tau( 182) = (  0.6249815  0.7500192  0.3750295  )
       183           Al  tau( 183) = (  0.4999956  0.8749944  0.3750236  )
       184           Al  tau( 184) = (  0.5000045  0.7499013  0.5000000  )
       185           Al  tau( 185) = (  0.6249569  0.8749592  0.5000000  )
       186           Al  tau( 186) = (  0.6249815  0.7500192  0.6249705  )
       187           Al  tau( 187) = (  0.4999956  0.8749944  0.6249765  )
       188           Al  tau( 188) = (  0.5000064  0.7500307  0.7500112  )
       189           Al  tau( 189) = (  0.6251433  0.8750853  0.7499990  )
       190           Al  tau( 190) = (  0.6251426  0.7499979  0.8750905  )
       191           Al  tau( 191) = (  0.5001323  0.8748702  0.8749242  )
       192           Al  tau( 192) = (  0.7502362  0.0000663  0.0000000  )
       193           Al  tau( 193) = (  0.8782051  0.1225978  0.0000000  )
       194           Al  tau( 194) = (  0.8768762  0.9996502  0.1229031  )
       195           Al  tau( 195) = (  0.7501379  0.1248403  0.1248006  )
       196           Al  tau( 196) = (  0.7508745  0.9999636  0.2490599  )
       197           Al  tau( 197) = (  0.8743536  0.1248324  0.2505677  )
       198           Al  tau( 198) = (  0.8748689  0.9999768  0.3752071  )
       199           Al  tau( 199) = (  0.7498221  0.1249005  0.3750463  )
       200           Al  tau( 200) = (  0.7499086  0.9999545  0.5000000  )
       201           Al  tau( 201) = (  0.8748685  0.1250510  0.5000000  )
       202           Al  tau( 202) = (  0.8748689  0.9999768  0.6247929  )
       203           Al  tau( 203) = (  0.7498221  0.1249005  0.6249537  )
       204           Al  tau( 204) = (  0.7508745  0.9999636  0.7509401  )
       205           Al  tau( 205) = (  0.8743536  0.1248324  0.7494323  )
       206           Al  tau( 206) = (  0.8768762  0.9996502  0.8770970  )
       207           Al  tau( 207) = (  0.7501379  0.1248403  0.8751994  )
       208           Al  tau( 208) = (  0.7507203  0.2490230  0.0000000  )
       209           Al  tau( 209) = (  0.8745328  0.3755791  0.0000000  )
       210           Al  tau( 210) = (  0.8743151  0.2502385  0.1250756  )
       211           Al  tau( 211) = (  0.7498371  0.3750247  0.1249317  )
       212           Al  tau( 212) = (  0.7497570  0.2501334  0.2502048  )
       213           Al  tau( 213) = (  0.8750417  0.3749324  0.2500247  )
       214           Al  tau( 214) = (  0.8750213  0.2499767  0.3749514  )
       215           Al  tau( 215) = (  0.7500497  0.3749982  0.3749900  )
       216           Al  tau( 216) = (  0.7500011  0.2500184  0.5000000  )
       217           Al  tau( 217) = (  0.8749511  0.3750432  0.5000000  )
       218           Al  tau( 218) = (  0.8750213  0.2499767  0.6250486  )
       219           Al  tau( 219) = (  0.7500497  0.3749982  0.6250100  )
       220           Al  tau( 220) = (  0.7497570  0.2501334  0.7497952  )
       221           Al  tau( 221) = (  0.8750417  0.3749324  0.7499753  )
       222           Al  tau( 222) = (  0.8743151  0.2502385  0.8749244  )
       223           Al  tau( 223) = (  0.7498371  0.3750247  0.8750683  )
       224           Al  tau( 224) = (  0.7498646  0.5001330  0.0000000  )
       225           Al  tau( 225) = (  0.8750141  0.6250226  0.0000000  )
       226           Al  tau( 226) = (  0.8748702  0.5001323  0.1250758  )
       227           Al  tau( 227) = (  0.7499979  0.6251426  0.1249095  )
       228           Al  tau( 228) = (  0.7500307  0.5000064  0.2499889  )
       229           Al  tau( 229) = (  0.8750853  0.6251433  0.2500010  )
       230           Al  tau( 230) = (  0.8749944  0.4999956  0.3750236  )
       231           Al  tau( 231) = (  0.7500192  0.6249815  0.3750295  )
       232           Al  tau( 232) = (  0.7499013  0.5000045  0.5000000  )
       233           Al  tau( 233) = (  0.8749592  0.6249569  0.5000000  )
       234           Al  tau( 234) = (  0.8749944  0.4999956  0.6249765  )
       235           Al  tau( 235) = (  0.7500192  0.6249815  0.6249705  )
       236           Al  tau( 236) = (  0.7500307  0.5000064  0.7500112  )
       237           Al  tau( 237) = (  0.8750853  0.6251433  0.7499990  )
       238           Al  tau( 238) = (  0.8748702  0.5001323  0.8749242  )
       239           Al  tau( 239) = (  0.7499979  0.6251426  0.8750905  )
       240           Al  tau( 240) = (  0.7509361  0.7509361  0.0000000  )
       241           Al  tau( 241) = (  0.8771699  0.8771699  0.0000000  )
       242           Al  tau( 242) = (  0.8750514  0.7501129  0.1248500  )
       243           Al  tau( 243) = (  0.7501129  0.8750514  0.1248500  )
       244           Al  tau( 244) = (  0.7498398  0.7498398  0.2501335  )
       245           Al  tau( 245) = (  0.8749685  0.8749685  0.2498898  )
       246           Al  tau( 246) = (  0.8751163  0.7500248  0.3748558  )
       247           Al  tau( 247) = (  0.7500248  0.8751163  0.3748558  )
       248           Al  tau( 248) = (  0.7500301  0.7500301  0.5000000  )
       249           Al  tau( 249) = (  0.8749279  0.8749279  0.5000000  )
       250           Al  tau( 250) = (  0.8751163  0.7500248  0.6251442  )
       251           Al  tau( 251) = (  0.7500248  0.8751163  0.6251442  )
       252           Al  tau( 252) = (  0.7498398  0.7498398  0.7498665  )
       253           Al  tau( 253) = (  0.8749685  0.8749685  0.7501102  )
       254           Al  tau( 254) = (  0.8750514  0.7501129  0.8751500  )
       255           Al  tau( 255) = (  0.7501129  0.8750514  0.8751500  )

     number of k points=    63  Methfessel-Paxton smearing, width (Ry)=  0.0441
                       cart. coord. in units 2pi/alat
        k(    1) = (   0.0000000   0.0000000   0.0000000), wk =   0.0160000
        k(    2) = (   0.0000000   0.0000000   0.2000000), wk =   0.0320000
        k(    3) = (   0.0000000   0.0000000   0.4000000), wk =   0.0320000
        k(    4) = (   0.0000000   0.2000000   0.0000000), wk =   0.0320000
        k(    5) = (   0.0000000   0.2000000   0.2000000), wk =   0.0320000
        k(    6) = (   0.0000000   0.2000000   0.4000000), wk =   0.0320000
        k(    7) = (   0.0000000   0.2000000  -0.4000000), wk =   0.0320000
        k(    8) = (   0.0000000   0.2000000  -0.2000000), wk =   0.0320000
        k(    9) = (   0.0000000   0.4000000   0.0000000), wk =   0.0320000
        k(   10) = (   0.0000000   0.4000000   0.2000000), wk =   0.0320000
        k(   11) = (   0.0000000   0.4000000   0.4000000), wk =   0.0320000
        k(   12) = (   0.0000000   0.4000000  -0.4000000), wk =   0.0320000
        k(   13) = (   0.0000000   0.4000000  -0.2000000), wk =   0.0320000
        k(   14) = (   0.2000000   0.0000000   0.0000000), wk =   0.0320000
        k(   15) = (   0.2000000   0.0000000   0.2000000), wk =   0.0320000
        k(   16) = (   0.2000000   0.0000000   0.4000000), wk =   0.0320000
        k(   17) = (   0.2000000   0.0000000  -0.4000000), wk =   0.0320000
        k(   18) = (   0.2000000   0.0000000  -0.2000000), wk =   0.0320000
        k(   19) = (   0.2000000   0.2000000   0.0000000), wk =   0.0320000
        k(   20) = (   0.2000000   0.2000000   0.2000000), wk =   0.0320000
        k(   21) = (   0.2000000   0.2000000   0.4000000), wk =   0.0320000
        k(   22) = (   0.2000000   0.2000000  -0.4000000), wk =   0.0320000
        k(   23) = (   0.2000000   0.2000000  -0.2000000), wk =   0.0320000
        k(   24) = (   0.2000000   0.4000000   0.0000000), wk =   0.0320000
        k(   25) = (   0.2000000   0.4000000   0.2000000), wk =   0.0320000
        k(   26) = (   0.2000000   0.4000000   0.4000000), wk =   0.0320000
        k(   27) = (   0.2000000   0.4000000  -0.4000000), wk =   0.0320000
        k(   28) = (   0.2000000   0.4000000  -0.2000000), wk =   0.0320000
        k(   29) = (   0.2000000  -0.4000000   0.0000000), wk =   0.0320000
        k(   30) = (   0.2000000  -0.4000000   0.2000000), wk =   0.0320000
        k(   31) = (   0.2000000  -0.4000000   0.4000000), wk =   0.0320000
        k(   32) = (   0.2000000  -0.4000000  -0.4000000), wk =   0.0320000
        k(   33) = (   0.2000000  -0.4000000  -0.2000000), wk =   0.0320000
        k(   34) = (   0.2000000  -0.2000000   0.0000000), wk =   0.0320000
        k(   35) = (   0.2000000  -0.2000000   0.2000000), wk =   0.0320000
        k(   36) = (   0.2000000  -0.2000000   0.4000000), wk =   0.0320000
        k(   37) = (   0.2000000  -0.2000000  -0.4000000), wk =   0.0320000
        k(   38) = (   0.2000000  -0.2000000  -0.2000000), wk =   0.0320000
        k(   39) = (   0.4000000   0.0000000   0.0000000), wk =   0.0320000
        k(   40) = (   0.4000000   0.0000000   0.2000000), wk =   0.0320000
        k(   41) = (   0.4000000   0.0000000   0.4000000), wk =   0.0320000
        k(   42) = (   0.4000000   0.0000000  -0.4000000), wk =   0.0320000
        k(   43) = (   0.4000000   0.0000000  -0.2000000), wk =   0.0320000
        k(   44) = (   0.4000000   0.2000000   0.0000000), wk =   0.0320000
        k(   45) = (   0.4000000   0.2000000   0.2000000), wk =   0.0320000
        k(   46) = (   0.4000000   0.2000000   0.4000000), wk =   0.0320000
        k(   47) = (   0.4000000   0.2000000  -0.4000000), wk =   0.0320000
        k(   48) = (   0.4000000   0.2000000  -0.2000000), wk =   0.0320000
        k(   49) = (   0.4000000   0.4000000   0.0000000), wk =   0.0320000
        k(   50) = (   0.4000000   0.4000000   0.2000000), wk =   0.0320000
        k(   51) = (   0.4000000   0.4000000   0.4000000), wk =   0.0320000
        k(   52) = (   0.4000000   0.4000000  -0.4000000), wk =   0.0320000
        k(   53) = (   0.4000000   0.4000000  -0.2000000), wk =   0.0320000
        k(   54) = (   0.4000000  -0.4000000   0.0000000), wk =   0.0320000
        k(   55) = (   0.4000000  -0.4000000   0.2000000), wk =   0.0320000
        k(   56) = (   0.4000000  -0.4000000   0.4000000), wk =   0.0320000
        k(   57) = (   0.4000000  -0.4000000  -0.4000000), wk =   0.0320000
        k(   58) = (   0.4000000  -0.4000000  -0.2000000), wk =   0.0320000
        k(   59) = (   0.4000000  -0.2000000   0.0000000), wk =   0.0320000
        k(   60) = (   0.4000000  -0.2000000   0.2000000), wk =   0.0320000
        k(   61) = (   0.4000000  -0.2000000   0.4000000), wk =   0.0320000
        k(   62) = (   0.4000000  -0.2000000  -0.4000000), wk =   0.0320000
        k(   63) = (   0.4000000  -0.2000000  -0.2000000), wk =   0.0320000

                       cryst. coord.
        k(    1) = (   0.0000000   0.0000000   0.0000000), wk =   0.0160000
        k(    2) = (   0.0000000   0.0000000   0.2000000), wk =   0.0320000
        k(    3) = (   0.0000000   0.0000000   0.4000000), wk =   0.0320000
        k(    4) = (   0.0000000   0.2000000   0.0000000), wk =   0.0320000
        k(    5) = (   0.0000000   0.2000000   0.2000000), wk =   0.0320000
        k(    6) = (   0.0000000   0.2000000   0.4000000), wk =   0.0320000
        k(    7) = (   0.0000000   0.2000000  -0.4000000), wk =   0.0320000
        k(    8) = (   0.0000000   0.2000000  -0.2000000), wk =   0.0320000
        k(    9) = (   0.0000000   0.4000000   0.0000000), wk =   0.0320000
        k(   10) = (   0.0000000   0.4000000   0.2000000), wk =   0.0320000
        k(   11) = (   0.0000000   0.4000000   0.4000000), wk =   0.0320000
        k(   12) = (   0.0000000   0.4000000  -0.4000000), wk =   0.0320000
        k(   13) = (   0.0000000   0.4000000  -0.2000000), wk =   0.0320000
        k(   14) = (   0.2000000   0.0000000   0.0000000), wk =   0.0320000
        k(   15) = (   0.2000000   0.0000000   0.2000000), wk =   0.0320000
        k(   16) = (   0.2000000   0.0000000   0.4000000), wk =   0.0320000
        k(   17) = (   0.2000000   0.0000000  -0.4000000), wk =   0.0320000
        k(   18) = (   0.2000000   0.0000000  -0.2000000), wk =   0.0320000
        k(   19) = (   0.2000000   0.2000000   0.0000000), wk =   0.0320000
        k(   20) = (   0.2000000   0.2000000   0.2000000), wk =   0.0320000
        k(   21) = (   0.2000000   0.2000000   0.4000000), wk =   0.0320000
        k(   22) = (   0.2000000   0.2000000  -0.4000000), wk =   0.0320000
        k(   23) = (   0.2000000   0.2000000  -0.2000000), wk =   0.0320000
        k(   24) = (   0.2000000   0.4000000   0.0000000), wk =   0.0320000
        k(   25) = (   0.2000000   0.4000000   0.2000000), wk =   0.0320000
        k(   26) = (   0.2000000   0.4000000   0.4000000), wk =   0.0320000
        k(   27) = (   0.2000000   0.4000000  -0.4000000), wk =   0.0320000
        k(   28) = (   0.2000000   0.4000000  -0.2000000), wk =   0.0320000
        k(   29) = (   0.2000000  -0.4000000   0.0000000), wk =   0.0320000
        k(   30) = (   0.2000000  -0.4000000   0.2000000), wk =   0.0320000
        k(   31) = (   0.2000000  -0.4000000   0.4000000), wk =   0.0320000
        k(   32) = (   0.2000000  -0.4000000  -0.4000000), wk =   0.0320000
        k(   33) = (   0.2000000  -0.4000000  -0.2000000), wk =   0.0320000
        k(   34) = (   0.2000000  -0.2000000   0.0000000), wk =   0.0320000
        k(   35) = (   0.2000000  -0.2000000   0.2000000), wk =   0.0320000
        k(   36) = (   0.2000000  -0.2000000   0.4000000), wk =   0.0320000
        k(   37) = (   0.2000000  -0.2000000  -0.4000000), wk =   0.0320000
        k(   38) = (   0.2000000  -0.2000000  -0.2000000), wk =   0.0320000
        k(   39) = (   0.4000000   0.0000000   0.0000000), wk =   0.0320000
        k(   40) = (   0.4000000   0.0000000   0.2000000), wk =   0.0320000
        k(   41) = (   0.4000000   0.0000000   0.4000000), wk =   0.0320000
        k(   42) = (   0.4000000   0.0000000  -0.4000000), wk =   0.0320000
        k(   43) = (   0.4000000   0.0000000  -0.2000000), wk =   0.0320000
        k(   44) = (   0.4000000   0.2000000   0.0000000), wk =   0.0320000
        k(   45) = (   0.4000000   0.2000000   0.2000000), wk =   0.0320000
        k(   46) = (   0.4000000   0.2000000   0.4000000), wk =   0.0320000
        k(   47) = (   0.4000000   0.2000000  -0.4000000), wk =   0.0320000
        k(   48) = (   0.4000000   0.2000000  -0.2000000), wk =   0.0320000
        k(   49) = (   0.4000000   0.4000000   0.0000000), wk =   0.0320000
        k(   50) = (   0.4000000   0.4000000   0.2000000), wk =   0.0320000
        k(   51) = (   0.4000000   0.4000000   0.4000000), wk =   0.0320000
        k(   52) = (   0.4000000   0.4000000  -0.4000000), wk =   0.0320000
        k(   53) = (   0.4000000   0.4000000  -0.2000000), wk =   0.0320000
        k(   54) = (   0.4000000  -0.4000000   0.0000000), wk =   0.0320000
        k(   55) = (   0.4000000  -0.4000000   0.2000000), wk =   0.0320000
        k(   56) = (   0.4000000  -0.4000000   0.4000000), wk =   0.0320000
        k(   57) = (   0.4000000  -0.4000000  -0.4000000), wk =   0.0320000
        k(   58) = (   0.4000000  -0.4000000  -0.2000000), wk =   0.0320000
        k(   59) = (   0.4000000  -0.2000000   0.0000000), wk =   0.0320000
        k(   60) = (   0.4000000  -0.2000000   0.2000000), wk =   0.0320000
        k(   61) = (   0.4000000  -0.2000000   0.4000000), wk =   0.0320000
        k(   62) = (   0.4000000  -0.2000000  -0.4000000), wk =   0.0320000
        k(   63) = (   0.4000000  -0.2000000  -0.2000000), wk =   0.0320000

     Dense  grid:  3895379 G-vectors     FFT dimensions: ( 200, 200, 200)

     Smooth grid:   985619 G-vectors     FFT dimensions: ( 125, 125, 125)

     Dynamical RAM for                 wfc:     107.62 MB

     Dynamical RAM for     wfc (w. buffer):     322.87 MB

     Dynamical RAM for           str. fact:      14.86 MB

     Dynamical RAM for           local pot:       0.00 MB

     Dynamical RAM for          nlocal pot:    1076.23 MB

     Dynamical RAM for                qrad:      15.65 MB

     Dynamical RAM for          rho,v,vnew:      45.18 MB

     Dynamical RAM for               rhoin:      15.06 MB

     Dynamical RAM for            rho*nmix:     118.88 MB

     Dynamical RAM for           G-vectors:      28.80 MB

     Dynamical RAM for          h,s,v(r/c):      38.41 MB

     Dynamical RAM for          <psi|beta>:      32.01 MB

     Dynamical RAM for                 psi:     430.49 MB

     Dynamical RAM for                hpsi:     430.49 MB

     Dynamical RAM for                spsi:     430.49 MB

     Dynamical RAM for      wfcinit/wfcrot:     503.19 MB

     Dynamical RAM for           addusdens:      98.03 MB

     Dynamical RAM for          addusforce:     200.56 MB

     Dynamical RAM for         addusstress:      45.09 MB

     Estimated static dynamical RAM per process >       1.66 GB

     Estimated max dynamical RAM per process >       2.99 GB

     Estimated total dynamical RAM >     860.58 GB

     Initial potential from superposition of free atoms

     starting charge  763.41736, renormalised to  764.00000
     Starting wfcs are 1020 randomized atomic wfcs
     Checking if some PAW data can be deallocated... 
       PAW data deallocated on    2 nodes for type:  1
       PAW data deallocated on  286 nodes for type:  2

     total cpu time spent up to now is      199.0 secs

     Self-consistent Calculation

     iteration #  1     ecut=    40.00 Ry     beta= 0.40
     Davidson diagonalization with overlap
     ethr =  1.00E-02,  avg # of iterations =  3.0

     Threshold (ethr) on eigenvalues was too large:
     Diagonalizing with lowered threshold

     Davidson diagonalization with overlap
     ethr =  2.03E-04,  avg # of iterations =  8.7

     total cpu time spent up to now is      978.6 secs

     total energy              =  -10067.44796844 Ry
     Harris-Foulkes estimate   =  -10067.62365247 Ry
     estimated scf accuracy    <       1.60946107 Ry

     iteration #  2     ecut=    40.00 Ry     beta= 0.40
     Davidson diagonalization with overlap
     ethr =  2.11E-04,  avg # of iterations =  1.0

     total cpu time spent up to now is     1200.7 secs

     total energy              =  -10067.22606064 Ry
     Harris-Foulkes estimate   =  -10067.45656985 Ry
     estimated scf accuracy    <       0.84039874 Ry

     iteration #  3     ecut=    40.00 Ry     beta= 0.40
     Davidson diagonalization with overlap
     ethr =  1.10E-04,  avg # of iterations =  1.3

     total cpu time spent up to now is     1425.2 secs

     total energy              =  -10067.25155939 Ry
     Harris-Foulkes estimate   =  -10067.25337099 Ry
     estimated scf accuracy    <       0.00559890 Ry

     iteration #  4     ecut=    40.00 Ry     beta= 0.40
     Davidson diagonalization with overlap
     c_bands:  4 eigenvalues not converged
     ethr =  7.33E-07,  avg # of iterations = 19.8

     total cpu time spent up to now is     2122.8 secs

     total energy              =  -10067.25674745 Ry
     Harris-Foulkes estimate   =  -10067.25667610 Ry
     estimated scf accuracy    <       0.01457514 Ry

     iteration #  5     ecut=    40.00 Ry     beta= 0.40
     Davidson diagonalization with overlap
     c_bands:  4 eigenvalues not converged
     ethr =  7.33E-07,  avg # of iterations =  9.3

     total cpu time spent up to now is     2417.4 secs

     total energy              =  -10067.24883757 Ry
     Harris-Foulkes estimate   =  -10067.25676238 Ry
     estimated scf accuracy    <       0.01790665 Ry

     iteration #  6     ecut=    40.00 Ry     beta= 0.40
     Davidson diagonalization with overlap
     ethr =  7.33E-07,  avg # of iterations =  8.2

     total cpu time spent up to now is     2967.1 secs

     total energy              =  -10067.25132418 Ry
     Harris-Foulkes estimate   =  -10067.26523212 Ry
     estimated scf accuracy    <       0.16097737 Ry

     iteration #  7     ecut=    40.00 Ry     beta= 0.40
     Davidson diagonalization with overlap
     ethr =  7.33E-07,  avg # of iterations =  4.0

     total cpu time spent up to now is     3287.7 secs

     total energy              =  -10067.25472920 Ry
     Harris-Foulkes estimate   =  -10067.25560324 Ry
     estimated scf accuracy    <       0.01700197 Ry

     iteration #  8     ecut=    40.00 Ry     beta= 0.40
     Davidson diagonalization with overlap
     ethr =  7.33E-07,  avg # of iterations =  1.2

     total cpu time spent up to now is     3513.2 secs

     total energy              =  -10067.25390639 Ry
     Harris-Foulkes estimate   =  -10067.25488104 Ry
     estimated scf accuracy    <       0.00734318 Ry

     iteration #  9     ecut=    40.00 Ry     beta= 0.40
     Davidson diagonalization with overlap
     ethr =  7.33E-07,  avg # of iterations =  3.0

     total cpu time spent up to now is     3763.4 secs

     total energy              =  -10067.25447814 Ry
     Harris-Foulkes estimate   =  -10067.25452676 Ry
     estimated scf accuracy    <       0.00020236 Ry

     iteration # 10     ecut=    40.00 Ry     beta= 0.40
     Davidson diagonalization with overlap
     ethr =  2.65E-08,  avg # of iterations =  4.1

     total cpu time spent up to now is     4083.6 secs

     total energy              =  -10067.25457973 Ry
     Harris-Foulkes estimate   =  -10067.25456063 Ry
     estimated scf accuracy    <       0.00023639 Ry

     iteration # 11     ecut=    40.00 Ry     beta= 0.40
     Davidson diagonalization with overlap
     ethr =  2.65E-08,  avg # of iterations =  1.0

     total cpu time spent up to now is     4307.1 secs

     total energy              =  -10067.25454632 Ry
     Harris-Foulkes estimate   =  -10067.25458453 Ry
     estimated scf accuracy    <       0.00055107 Ry

     iteration # 12     ecut=    40.00 Ry     beta= 0.40
     Davidson diagonalization with overlap
     ethr =  2.65E-08,  avg # of iterations =  1.1

     total cpu time spent up to now is     4530.8 secs

     total energy              =  -10067.25451785 Ry
     Harris-Foulkes estimate   =  -10067.25455304 Ry
     estimated scf accuracy    <       0.00020094 Ry

     iteration # 13     ecut=    40.00 Ry     beta= 0.40
     Davidson diagonalization with overlap
     ethr =  2.63E-08,  avg # of iterations =  3.0

     total cpu time spent up to now is     4795.2 secs

     total energy              =  -10067.25452508 Ry
     Harris-Foulkes estimate   =  -10067.25455117 Ry
     estimated scf accuracy    <       0.00012575 Ry

     iteration # 14     ecut=    40.00 Ry     beta= 0.40
     Davidson diagonalization with overlap
     ethr =  1.65E-08,  avg # of iterations =  3.0

     total cpu time spent up to now is     5051.2 secs

     total energy              =  -10067.25454153 Ry
     Harris-Foulkes estimate   =  -10067.25454373 Ry
     estimated scf accuracy    <       0.00003842 Ry

     iteration # 15     ecut=    40.00 Ry     beta= 0.40
     Davidson diagonalization with overlap
     ethr =  5.03E-09,  avg # of iterations =  1.0

     total cpu time spent up to now is     5275.1 secs

     total energy              =  -10067.25454163 Ry
     Harris-Foulkes estimate   =  -10067.25454243 Ry
     estimated scf accuracy    <       0.00001695 Ry

     iteration # 16     ecut=    40.00 Ry     beta= 0.40
     Davidson diagonalization with overlap
     ethr =  2.22E-09,  avg # of iterations =  1.2

     total cpu time spent up to now is     5500.1 secs

     total energy              =  -10067.25454143 Ry
     Harris-Foulkes estimate   =  -10067.25454190 Ry
     estimated scf accuracy    <       0.00000751 Ry

     iteration # 17     ecut=    40.00 Ry     beta= 0.40
     Davidson diagonalization with overlap
     ethr =  9.83E-10,  avg # of iterations =  2.9

     total cpu time spent up to now is     5733.9 secs

     total energy              =  -10067.25454150 Ry
     Harris-Foulkes estimate   =  -10067.25454167 Ry
     estimated scf accuracy    <       0.00000135 Ry

     iteration # 18     ecut=    40.00 Ry     beta= 0.40
     Davidson diagonalization with overlap
     ethr =  1.77E-10,  avg # of iterations =  4.0

     total cpu time spent up to now is     6022.8 secs

     total energy              =  -10067.25454157 Ry
     Harris-Foulkes estimate   =  -10067.25454161 Ry
     estimated scf accuracy    <       0.00000016 Ry

     iteration # 19     ecut=    40.00 Ry     beta= 0.40
     Davidson diagonalization with overlap
     ethr =  2.14E-11,  avg # of iterations =  3.1

     total cpu time spent up to now is     6296.9 secs

     total energy              =  -10067.25454156 Ry
     Harris-Foulkes estimate   =  -10067.25454156 Ry
     estimated scf accuracy    <       0.00000017 Ry

     iteration # 20     ecut=    40.00 Ry     beta= 0.40
     Davidson diagonalization with overlap
     ethr =  2.14E-11,  avg # of iterations =  1.0

     total cpu time spent up to now is     6519.8 secs

     total energy              =  -10067.25454153 Ry
     Harris-Foulkes estimate   =  -10067.25454155 Ry
     estimated scf accuracy    <       0.00000015 Ry

     iteration # 21     ecut=    40.00 Ry     beta= 0.40
     Davidson diagonalization with overlap
     ethr =  1.96E-11,  avg # of iterations =  1.3

     total cpu time spent up to now is     6743.9 secs

     total energy              =  -10067.25454152 Ry
     Harris-Foulkes estimate   =  -10067.25454153 Ry
     estimated scf accuracy    <       0.00000002 Ry

     iteration # 22     ecut=    40.00 Ry     beta= 0.40
     Davidson diagonalization with overlap
     ethr =  2.51E-12,  avg # of iterations =  5.0

     total cpu time spent up to now is     7041.0 secs

     total energy              =  -10067.25454151 Ry
     Harris-Foulkes estimate   =  -10067.25454150 Ry
     estimated scf accuracy    <          9.8E-10 Ry

     iteration # 23     ecut=    40.00 Ry     beta= 0.40
     Davidson diagonalization with overlap
     ethr =  1.28E-13,  avg # of iterations =  4.1

     total cpu time spent up to now is     7331.9 secs

     total energy              =  -10067.25454148 Ry
     Harris-Foulkes estimate   =  -10067.25454148 Ry
     estimated scf accuracy    <          7.4E-10 Ry

     iteration # 24     ecut=    40.00 Ry     beta= 0.40
     Davidson diagonalization with overlap
     ethr =  1.00E-13,  avg # of iterations =  2.1

     total cpu time spent up to now is     7562.5 secs

     total energy              =  -10067.25454148 Ry
     Harris-Foulkes estimate   =  -10067.25454148 Ry
     estimated scf accuracy    <          1.1E-10 Ry

     iteration # 25     ecut=    40.00 Ry     beta= 0.40
     Davidson diagonalization with overlap
     ethr =  1.00E-13,  avg # of iterations =  2.3

     total cpu time spent up to now is     7791.7 secs

     total energy              =  -10067.25454147 Ry
     Harris-Foulkes estimate   =  -10067.25454147 Ry
     estimated scf accuracy    <          1.1E-10 Ry

     iteration # 26     ecut=    40.00 Ry     beta= 0.40
     Davidson diagonalization with overlap
     ethr =  1.00E-13,  avg # of iterations =  1.0

     total cpu time spent up to now is     8014.9 secs

     total energy              =  -10067.25454147 Ry
     Harris-Foulkes estimate   =  -10067.25454147 Ry
     estimated scf accuracy    <          9.4E-12 Ry

     iteration # 27     ecut=    40.00 Ry     beta= 0.40
     Davidson diagonalization with overlap
     ethr =  1.00E-13,  avg # of iterations =  1.0

     total cpu time spent up to now is     8237.4 secs

     End of self-consistent calculation

          k = 0.0000 0.0000 0.0000 (123065 PWs)   bands (ev):

    -3.3072  -2.7656  -2.7627  -2.7592  -2.7591  -2.7469  -2.6786  -2.2080
    -2.2067  -2.2058  -2.2038  -2.2037  -2.2025  -2.1998  -2.1996  -2.1903
    -2.1825  -2.1510  -2.0329  -1.6482  -1.6454  -1.6424  -1.6378  -1.6357
    -1.6282  -1.6051  -1.5240  -1.0857  -1.0838  -1.0819  -1.0771  -1.0607
    -1.0278  -0.5455  -0.5446  -0.5441  -0.5434  -0.5420  -0.5414  -0.5407
    -0.5404  -0.5401  -0.5393  -0.5372  -0.5367  -0.5362  -0.5343  -0.5340
    -0.5333  -0.5293  -0.5183  -0.5155  -0.5077  -0.4899  -0.4836  -0.4077
    -0.3276   0.0061   0.0063   0.0087   0.0089   0.0092   0.0108   0.0111
     0.0111   0.0120   0.0122   0.0129   0.0131   0.0139   0.0159   0.0197
     0.0204   0.0218   0.0290   0.0457   0.0568   0.0725   0.0834   0.2054
     0.4035   1.1079   1.1088   1.1118   1.1140   1.1152   1.1196   1.1257
     1.1267   1.1328   1.1376   1.1710   1.2082   1.6413   1.6442   1.6449
     1.6470   1.6473   1.6473   1.6482   1.6496   1.6498   1.6500   1.6501
     1.6510   1.6521   1.6528   1.6529   1.6529   1.6545   1.6546   1.6556
     1.6560   1.6630   1.6665   1.6669   1.6769   1.7031   1.7256   1.7267
     1.7437   1.8083   1.8818   2.1817   2.1821   2.1822   2.1825   2.1843
     2.1844   2.1846   2.1864   2.1881   2.1889   2.1892   2.1917   2.1921
     2.1947   2.1947   2.1959   2.1977   2.2107   2.2319   2.2480   2.2633
     2.2787   2.3517   2.4167   2.7210   2.7220   2.7223   2.7243   2.7249
     2.7270   2.7273   2.7275   2.7296   2.7312   2.7329   2.7336   2.7363
     2.7372   2.7381   2.7404   2.7442   2.7621   2.7771   2.7981   2.8077
     2.8218   2.9194   3.0274   3.1988   3.2146   3.2233   3.2248   3.3812
     3.3817   3.4172   3.4575   3.7939   3.7946   3.7964   3.7978   3.7986
     3.7995   3.7995   3.8003   3.8022   3.8030   3.8035   3.8043   3.8062
     3.8128   3.8158   3.8188   3.8285   3.8428   3.8492   3.8510   3.8633
     3.8700   3.9218   3.9798   4.2205   4.2206   4.2218   4.2220   4.2225
     4.2232   4.2232   4.2241   4.2246   4.2251   4.2252   4.2261   4.2272
     4.2292   4.2368   4.2394   4.2398   4.2444   4.2588   4.2779   4.3006
     4.3516   4.3846   4.3864   4.4512   4.4525   4.4529   4.4541   4.4544
     4.4545   4.4552   4.4557   4.4561   4.4561   4.4581   4.4611   4.4625
     4.4776   4.4783   4.4855   4.4945   4.5004   4.5084   4.5128   4.5182
     4.5304   4.7640   4.8666   4.8699   4.8777   5.0052   5.3498   5.3507
     5.3511   5.3544   5.3554   5.3585   5.3603   5.3679   5.3737   5.4477
     5.4496   5.4586   5.8671   5.8691   5.8703   5.8710   5.8726   5.8760
     5.8779   5.8863   5.8909   5.9083   5.9092   5.9182   5.9384   5.9386
     5.9399   5.9399   5.9402   5.9417   5.9423   5.9428   5.9436   5.9441
     5.9446   5.9451   5.9472   5.9476   5.9648   5.9942   5.9945   5.9966
     6.0035   6.0420   6.0652   6.0675   6.0924   6.1158   6.1502   6.1786
     6.2124   6.3948   6.4028   6.4034   6.4086   6.4132   6.4199   6.4224
     6.4234   6.4234   6.4509   6.4588   6.4678   6.6708   6.6725   6.6749
     6.6750   6.6798   6.6839   6.6852   6.6896   6.6950   6.7394   6.7806
     6.8020   6.9050   6.9051   6.9086   6.9097   6.9101   6.9146   6.9155
     6.9197   6.9242   6.9324   6.9334   6.9393   6.9798   6.9819   6.9820
     6.9851   6.9865   6.9869   6.9885   6.9888   6.9892   6.9907   6.9948
     6.9967   7.0073   7.0117   7.0162   7.0261   7.0414   7.0442   7.0570
     7.0742   7.0946   7.1031   7.1116   7.1315   7.3169   7.3178   7.3216
     7.3221   7.3226   7.3230   7.3279   7.3312   7.3401   7.3590   7.4126
     7.4140   7.4151   7.4180   7.4181   7.4184   7.4186   7.4206   7.4210
     7.4214   7.4226   7.4269   7.4284   7.4302   7.4337   7.4440   7.4624
     7.4676   7.4919   7.4972   7.5266   7.5376   7.6121   7.6193   7.6751
     7.7189   7.9393   7.9568   7.9599   7.9649   7.9688   7.9790   8.5586
     8.5599   8.5604   8.5614   8.5616   8.5617   8.5628   8.5629   8.5639
     8.5642   8.5652   8.5668   8.5705   8.5717   8.5760   8.5767   8.6015
     8.6272   8.6303   8.6345   8.6414   8.6586   8.6636   8.6663   8.7824
     8.7829   8.7850   8.7863   8.8039   8.8092   8.8615   8.8620   8.8631
     8.8633   8.8649   8.8650   8.8651   8.8665   8.8678   8.8701   8.8709
     8.8738   8.8756   8.8826   8.8836   8.8856   8.8913   8.9115   8.9127
     8.9204   8.9456

     occupation numbers 
     1.0000   1.0000   1.0000   1.0000   1.0000   1.0000   1.0000   1.0000
     1.0000   1.0000   1.0000   1.0000   1.0000   1.0000   1.0000   1.0000
     1.0000   1.0000   1.0000   1.0000   1.0000   1.0000   1.0000   1.0000
     1.0000   1.0000   1.0000   1.0000   1.0000   1.0000   1.0000   1.0000
     1.0000   1.0000   1.0000   1.0000   1.0000   1.0000   1.0000   1.0000
     1.0000   1.0000   1.0000   1.0000   1.0000   1.0000   1.0000   1.0000
     1.0000   1.0000   1.0000   1.0000   1.0000   1.0000   1.0000   1.0000
     1.0000   1.0000   1.0000   1.0000   1.0000   1.0000   1.0000   1.0000
     1.0000   1.0000   1.0000   1.0000   1.0000   1.0000   1.0000   1.0000
     1.0000   1.0000   1.0000   1.0000   1.0000   1.0000   1.0000   1.0000
     1.0000   1.0000   1.0000   1.0000   1.0000   1.0000   1.0000   1.0000
     1.0000   1.0000   1.0000   1.0000   1.0000   1.0000   1.0000   1.0000
     1.0000   1.0000   1.0000   1.0000   1.0000   1.0000   1.0000   1.0000
     1.0000   1.0000   1.0000   1.0000   1.0000   1.0000   1.0000   1.0000
     1.0000   1.0000   1.0000   1.0000   1.0000   1.0000   1.0000   1.0000
     1.0000   1.0000   1.0000   1.0000   1.0000   1.0000   1.0000   1.0000
     1.0000   1.0000   1.0000   1.0000   1.0000   1.0000   1.0000   1.0000
     1.0000   1.0000   1.0000   1.0000   1.0000   1.0000   1.0000   1.0000
     1.0000   1.0000   1.0000   1.0000   1.0000   1.0000   1.0000   1.0000
     1.0000   1.0000   1.0000   1.0000   1.0000   1.0000   1.0000   1.0000
     1.0000   1.0000   1.0000   1.0000   1.0000   1.0000   1.0000   1.0000
     1.0000   1.0000   1.0000   1.0000   1.0000   1.0000   1.0000   1.0000
     1.0000   1.0000   1.0000   1.0000   1.0000   1.0000   1.0000   1.0000
     1.0000   1.0000   1.0000   1.0000   1.0000   1.0000   1.0000   1.0000
     1.0000   1.0000   1.0000   1.0000   1.0000   1.0000   1.0000   1.0000
     1.0000   1.0000   1.0000   1.0000   1.0000   1.0000   1.0000   1.0000
     1.0000   1.0000   1.0000   1.0000   1.0000   1.0000   1.0000   1.0000
     1.0000   1.0000   1.0000   1.0000   1.0000   1.0000   1.0000   1.0000
     1.0000   1.0000   1.0000   1.0000   1.0000   1.0000   1.0000   1.0000
     1.0000   1.0000   1.0000   1.0000   1.0000   1.0000   1.0000   1.0000
     1.0000   1.0000   1.0000   1.0000   1.0000   1.0000   1.0000   1.0000
     1.0000   1.0000   1.0000   1.0000   1.0000   1.0000   1.0000   1.0000
     1.0000   1.0000   1.0000   1.0000   1.0000   1.0000   1.0000   1.0000
     1.0000   1.0000   1.0000   1.0000   1.0000   1.0000   1.0001   1.0001
     1.0001   1.0001   1.0001   1.0001   1.0001   1.0001   1.0001   1.0001
     1.0001   1.0001   1.0001   1.0001   1.0001   1.0001   1.0001   1.0001
     1.0001   1.0001   1.0001   1.0001   1.0001   1.0002   1.0002   1.0002
     1.0002   1.0002   1.0003   1.0003   1.0004   1.0004   1.0006   1.0007
     1.0010   1.0035   1.0036   1.0037   1.0038   1.0039   1.0041   1.0041
     1.0041   1.0041   1.0049   1.0051   1.0054   1.0153   1.0154   1.0156
     1.0156   1.0159   1.0162   1.0163   1.0166   1.0170   1.0202   1.0234
     1.0250   1.0323   1.0323   1.0325   1.0325   1.0325   1.0328   1.0328
     1.0331   1.0333   1.0337   1.0337   1.0340   1.0353   1.0353   1.0353
     1.0353   1.0354   1.0354   1.0354   1.0354   1.0354   1.0354   1.0354
     1.0354   1.0354   1.0354   1.0354   1.0352   1.0347   1.0346   1.0340
     1.0328   1.0310   1.0300   1.0290   1.0260   0.9599   0.9594   0.9571
     0.9568   0.9565   0.9563   0.9533   0.9513   0.9457   0.9330   0.8916
     0.8904   0.8894   0.8869   0.8869   0.8866   0.8864   0.8847   0.8844
     0.8840   0.8829   0.8792   0.8779   0.8762   0.8730   0.8636   0.8460
     0.8408   0.8158   0.8101   0.7775   0.7647   0.6719   0.6624   0.5867
     0.5255   0.2318   0.2118   0.2083   0.2028   0.1985   0.1875  -0.0328
    -0.0328  -0.0327  -0.0327  -0.0327  -0.0327  -0.0326  -0.0326  -0.0325
    -0.0325  -0.0325  -0.0324  -0.0322  -0.0321  -0.0318  -0.0318  -0.0302
    -0.0284  -0.0281  -0.0278  -0.0273  -0.0260  -0.0256  -0.0254  -0.0167
    -0.0167  -0.0166  -0.0165  -0.0153  -0.0149  -0.0117  -0.0117  -0.0117
    -0.0116  -0.0116  -0.0115  -0.0115  -0.0115  -0.0114  -0.0113  -0.0112
    -0.0111  -0.0110  -0.0106  -0.0105  -0.0104  -0.0101  -0.0091  -0.0091
    -0.0087  -0.0076

          k = 0.0000 0.0000 0.2000 (123202 PWs)   bands (ev):

    -3.2851  -2.9495  -2.7403  -2.7369  -2.7248  -2.6934  -2.4995  -2.4046
    -2.4012  -2.3889  -2.3476  -2.1775  -2.1721  -2.1603  -2.1347  -1.9583
    -1.9546  -1.9414  -1.9016  -1.8430  -1.8366  -1.8212  -1.7594  -1.4890
    -1.3984  -1.3927  -1.3803  -1.3350  -1.0621  -1.0599  -1.0428  -1.0386
    -0.9591  -0.9553  -0.9424  -0.8859  -0.7302  -0.7276  -0.7093  -0.7018
    -0.6075  -0.5180  -0.5169  -0.5128  -0.5085  -0.4995  -0.4962  -0.4721
    -0.4686  -0.4029  -0.3965  -0.3816  -0.3437  -0.2888  -0.2861  -0.2664
    -0.2625  -0.1874  -0.1863  -0.1819  -0.1765  -0.1657  -0.1574  -0.1035
    -0.0891  -0.0768  -0.0721  -0.0443   0.0521   0.2522   0.2533   0.2577
     0.2624   0.2729   0.2797   0.3282   0.3523   0.4764   0.4838   0.5123
     0.6078   0.7003   0.7018   0.7327   0.7629   1.0380   1.1446   1.1463
     1.1468   1.1576   1.2363   1.2375   1.2417   1.2455   1.2564   1.2631
     1.3013   1.3201   1.4759   1.4798   1.4818   1.4881   1.5598   1.5640
     1.5726   1.5728   1.5809   1.5947   1.6040   1.6644   1.6732   1.6856
     1.7080   1.7344   1.9070   1.9092   1.9108   1.9222   1.9970   2.0095
     2.0141   2.0253   2.1047   2.1053   2.1059   2.1101   2.1109   2.1151
     2.1236   2.1300   2.1304   2.1585   2.1681   2.1859   2.2111   2.2131
     2.2163   2.2353   2.2390   2.2417   2.2829   2.3042   2.3635   2.4308
     2.4445   2.4607   2.4762   2.5351   2.5376   2.5404   2.5576   2.5589
     2.5758   2.6194   2.6658   2.8482   2.8518   2.8665   2.8793   2.8823
     2.8828   2.8994   2.9265   2.9656   2.9681   2.9711   2.9914   2.9969
     3.0040   3.0539   3.1001   3.1900   3.1914   3.2228   3.2485   3.3882
     3.3944   3.3998   3.4124   3.4168   3.4276   3.4580   3.5015   3.7079
     3.7088   3.7125   3.7170   3.7251   3.7304   3.7531   3.7543   3.7607
     3.7758   3.7794   3.7938   3.8202   3.8210   3.8284   3.8302   3.8571
     3.8611   3.8632   3.8917   3.9219   3.9246   3.9263   3.9502   3.9519
     3.9634   4.0079   4.0441   4.1319   4.1324   4.1436   4.1436   4.1904
     4.2010   4.2032   4.2384   4.2573   4.2720   4.2919   4.3146   4.4606
     4.4626   4.4633   4.4928   4.5066   4.5907   4.5917   4.5994   4.6020
     4.6357   4.6436   4.6462   4.6816   4.8075   4.8088   4.8152   4.8257
     4.8280   4.8323   4.8510   4.8938   4.8994   4.9064   4.9530   4.9568
     4.9751   5.0081   5.0095   5.0152   5.0199   5.0318   5.0375   5.0504
     5.1533   5.1909   5.1952   5.2796   5.3460   5.3477   5.3564   5.3746
     5.3812   5.3878   5.4118   5.4198   5.4741   5.4794   5.4986   5.5391
     5.5398   5.5451   5.5466   5.5496   5.5758   5.5923   5.6023   5.6090
     5.6154   5.6943   5.6951   5.7019   5.7400   5.7570   5.8273   5.8550
     5.8758   5.8913   6.1026   6.1114   6.1503   6.1527   6.1720   6.1899
     6.3816   6.3826   6.3836   6.3861   6.3869   6.3949   6.3959   6.3964
     6.3997   6.4106   6.4118   6.4149   6.4201   6.4244   6.4307   6.4319
     6.4746   6.4853   6.4901   6.4959   6.4974   6.5182   6.5189   6.5251
     6.5446   6.5602   6.5848   6.5933   6.6142   6.6218   6.6226   6.6380
     6.6619   6.7044   6.7152   6.7159   6.7610   6.8126   6.8169   6.8239
     6.8342   6.8534   6.8572   6.8699   6.8885   6.9355   6.9418   6.9500
     6.9540   6.9599   6.9795   7.0329   7.0432   7.0489   7.0503   7.0507
     7.0532   7.0596   7.0728   7.0994   7.0996   7.1125   7.1176   7.1334
     7.1659   7.2027   7.2243   7.2298   7.2303   7.2370   7.2650   7.2663
     7.2888   7.3034   7.3145   7.3282   7.3316   7.3505   7.3824   7.3942
     7.4082   7.5303   7.5435   7.5456   7.5977   7.6273   7.6286   7.6297
     7.6398   7.6424   7.6450   7.6517   7.6784   7.6876   7.7014   7.7036
     7.7171   7.7234   7.7291   7.7926   7.8043   7.8328   7.8657   7.8742
     7.9279   7.9349   7.9610   7.9618   7.9669   7.9751   7.9770   8.0096
     8.0123   8.0392   8.0573   8.1612   8.1645   8.1699   8.1743   8.2042
     8.2274   8.2322   8.2417   8.4750   8.4856   8.4929   8.5398   8.5970
     8.6052   8.6132   8.6140   8.6419   8.6455   8.6546   8.6691   8.6903
     8.6991   8.7243   8.7579   8.9232   8.9293   8.9857   8.9960   9.0120
     9.0139   9.0142   9.0174   9.0257   9.0278   9.0575   9.0663   9.1179
     9.1256   9.1463   9.1477   9.1562   9.1623   9.1755   9.2000   9.2008
     9.2072   9.2092

     occupation numbers 
     1.0000   1.0000   1.0000   1.0000   1.0000   1.0000   1.0000   1.0000
     1.0000   1.0000   1.0000   1.0000   1.0000   1.0000   1.0000   1.0000
     1.0000   1.0000   1.0000   1.0000   1.0000   1.0000   1.0000   1.0000
     1.0000   1.0000   1.0000   1.0000   1.0000   1.0000   1.0000   1.0000
     1.0000   1.0000   1.0000   1.0000   1.0000   1.0000   1.0000   1.0000
     1.0000   1.0000   1.0000   1.0000   1.0000   1.0000   1.0000   1.0000
     1.0000   1.0000   1.0000   1.0000   1.0000   1.0000   1.0000   1.0000
     1.0000   1.0000   1.0000   1.0000   1.0000   1.0000   1.0000   1.0000
     1.0000   1.0000   1.0000   1.0000   1.0000   1.0000   1.0000   1.0000
     1.0000   1.0000   1.0000   1.0000   1.0000   1.0000   1.0000   1.0000
[...]
     atom   74 type  1   force =    -0.00000002   -0.00000000    0.00000001
     atom   75 type  1   force =    -0.00000002   -0.00000001   -0.00000003
     atom   76 type  1   force =     0.00000008   -0.00000001   -0.00000011
     atom   77 type  1   force =     0.00000004   -0.00000002   -0.00000001
     atom   78 type  1   force =     0.00000014   -0.00000004   -0.00000002
     atom   79 type  1   force =     0.00000007    0.00000002   -0.00000005
     atom   80 type  1   force =     0.00000002    0.00000005   -0.00000003
     atom   81 type  1   force =     0.00000001    0.00000004   -0.00000001
     atom   82 type  1   force =     0.00000009    0.00000002    0.00000001
     atom   83 type  1   force =     0.00000000    0.00000011   -0.00000001
     atom   84 type  1   force =     0.00000003    0.00000003    0.00000007
     atom   85 type  1   force =    -0.00000001   -0.00000000   -0.00000003
     atom   86 type  1   force =    -0.00000003   -0.00000002   -0.00000000
     atom   87 type  1   force =    -0.00000002   -0.00000002   -0.00000001
     atom   88 type  1   force =    -0.00000004   -0.00000005    0.00000002
     atom   89 type  1   force =    -0.00000001   -0.00000002    0.00000001
     atom   90 type  1   force =    -0.00000004   -0.00000004    0.00000003
     atom   91 type  1   force =    -0.00000002   -0.00000005    0.00000002
     atom   92 type  1   force =     0.00000002    0.00000001   -0.00000006
     atom   93 type  1   force =    -0.00000001   -0.00000002    0.00000002
     atom   94 type  1   force =     0.00000007    0.00000000   -0.00000003
     atom   95 type  1   force =     0.00000000    0.00000007   -0.00000001
     atom   96 type  1   force =    -0.00000005    0.00000004    0.00000001
     atom   97 type  1   force =    -0.00000003    0.00000003    0.00000000
     atom   98 type  1   force =    -0.00000003    0.00000002   -0.00000004
     atom   99 type  1   force =    -0.00000004    0.00000001   -0.00000004
     atom  100 type  1   force =    -0.00000003    0.00000002   -0.00000006
     atom  101 type  1   force =    -0.00000001    0.00000004   -0.00000004
     atom  102 type  1   force =     0.00000001    0.00000002   -0.00000001
     atom  103 type  1   force =    -0.00000001    0.00000003   -0.00000004
     atom  104 type  1   force =    -0.00000001    0.00000000   -0.00000001
     atom  105 type  1   force =     0.00000001    0.00000003   -0.00000001
     atom  106 type  1   force =     0.00000001    0.00000000    0.00000002
     atom  107 type  1   force =    -0.00000001    0.00000003    0.00000003
     atom  108 type  1   force =    -0.00000002    0.00000001    0.00000006
     atom  109 type  1   force =    -0.00000000    0.00000002    0.00000004
     atom  110 type  1   force =    -0.00000003    0.00000002    0.00000003
     atom  111 type  1   force =    -0.00000002   -0.00000000    0.00000004
     atom  112 type  1   force =     0.00000007   -0.00000009    0.00000002
     atom  113 type  1   force =     0.00000011   -0.00000003    0.00000001
     atom  114 type  1   force =     0.00000001    0.00000003   -0.00000003
     atom  115 type  1   force =     0.00000011   -0.00000009    0.00000006
     atom  116 type  1   force =    -0.00000001    0.00000001   -0.00000003
     atom  117 type  1   force =     0.00000003    0.00000001   -0.00000004
     atom  118 type  1   force =     0.00000000    0.00000003   -0.00000003
     atom  119 type  1   force =    -0.00000001    0.00000002   -0.00000001
     atom  120 type  1   force =    -0.00000000    0.00000004   -0.00000000
     atom  121 type  1   force =    -0.00000001    0.00000002    0.00000000
     atom  122 type  1   force =     0.00000000    0.00000004    0.00000002
     atom  123 type  1   force =    -0.00000001    0.00000003   -0.00000001
     atom  124 type  1   force =     0.00000001   -0.00000001    0.00000001
     atom  125 type  1   force =     0.00000004    0.00000002    0.00000002
     atom  126 type  1   force =     0.00000001    0.00000002    0.00000003
     atom  127 type  1   force =     0.00000014   -0.00000008   -0.00000003
     atom  128 type  1   force =     0.00000003   -0.00000003   -0.00000001
     atom  129 type  1   force =    -0.00000007   -0.00000002   -0.00000000
     atom  130 type  1   force =    -0.00000007   -0.00000002   -0.00000000
     atom  131 type  1   force =     0.00000005   -0.00000006   -0.00000002
     atom  132 type  1   force =     0.00000002   -0.00000004   -0.00000006
     atom  133 type  1   force =     0.00000001   -0.00000005   -0.00000005
     atom  134 type  1   force =     0.00000001   -0.00000003   -0.00000004
     atom  135 type  1   force =     0.00000000   -0.00000004   -0.00000003
     atom  136 type  1   force =    -0.00000000   -0.00000003    0.00000001
     atom  137 type  1   force =     0.00000001   -0.00000004    0.00000001
     atom  138 type  1   force =     0.00000001   -0.00000002    0.00000004
     atom  139 type  1   force =    -0.00000001   -0.00000003    0.00000004
     atom  140 type  1   force =     0.00000001   -0.00000001    0.00000006
     atom  141 type  1   force =    -0.00000001   -0.00000004    0.00000005
     atom  142 type  1   force =    -0.00000008   -0.00000000    0.00000000
     atom  143 type  1   force =     0.00000003   -0.00000005    0.00000002
     atom  144 type  1   force =     0.00000004   -0.00000004   -0.00000001
     atom  145 type  1   force =     0.00000003   -0.00000002    0.00000000
     atom  146 type  1   force =     0.00000001   -0.00000003   -0.00000003
     atom  147 type  1   force =     0.00000002   -0.00000002   -0.00000003
     atom  148 type  1   force =     0.00000001   -0.00000003   -0.00000005
     atom  149 type  1   force =     0.00000003    0.00000000   -0.00000004
     atom  150 type  1   force =     0.00000002   -0.00000002   -0.00000003
     atom  151 type  1   force =     0.00000001    0.00000001   -0.00000001
     atom  152 type  1   force =    -0.00000001   -0.00000002    0.00000002
     atom  153 type  1   force =     0.00000001    0.00000000    0.00000001
     atom  154 type  1   force =     0.00000001   -0.00000002    0.00000003
     atom  155 type  1   force =     0.00000000    0.00000000    0.00000002
     atom  156 type  1   force =    -0.00000000   -0.00000004    0.00000004
     atom  157 type  1   force =     0.00000002   -0.00000000    0.00000003
     atom  158 type  1   force =    -0.00000000   -0.00000003    0.00000002
     atom  159 type  1   force =     0.00000001   -0.00000002    0.00000002
     atom  160 type  1   force =     0.00000001    0.00000002   -0.00000000
     atom  161 type  1   force =     0.00000003    0.00000003    0.00000001
     atom  162 type  1   force =     0.00000004    0.00000003   -0.00000002
     atom  163 type  1   force =     0.00000002    0.00000004   -0.00000002
     atom  164 type  1   force =     0.00000002    0.00000003   -0.00000002
     atom  165 type  1   force =     0.00000003    0.00000003   -0.00000004
     atom  166 type  1   force =     0.00000003    0.00000003   -0.00000003
     atom  167 type  1   force =     0.00000002    0.00000002   -0.00000002
     atom  168 type  1   force =     0.00000001    0.00000001    0.00000000
     atom  169 type  1   force =     0.00000002    0.00000002   -0.00000000
     atom  170 type  1   force =     0.00000001    0.00000002    0.00000003
     atom  171 type  1   force =     0.00000002    0.00000002    0.00000002
     atom  172 type  1   force =     0.00000002    0.00000002    0.00000002
     atom  173 type  1   force =     0.00000002    0.00000001    0.00000003
     atom  174 type  1   force =     0.00000003    0.00000002    0.00000002
     atom  175 type  1   force =     0.00000001    0.00000003    0.00000002
     atom  176 type  1   force =     0.00000001    0.00000005    0.00000002
     atom  177 type  1   force =    -0.00000008    0.00000000    0.00000001
     atom  178 type  1   force =    -0.00000000    0.00000002   -0.00000001
     atom  179 type  1   force =     0.00000001    0.00000002   -0.00000003
     atom  180 type  1   force =     0.00000002    0.00000004   -0.00000004
     atom  181 type  1   force =    -0.00000001    0.00000001   -0.00000004
     atom  182 type  1   force =     0.00000002    0.00000002   -0.00000004
     atom  183 type  1   force =     0.00000001    0.00000001   -0.00000004
     atom  184 type  1   force =     0.00000001    0.00000003   -0.00000000
     atom  185 type  1   force =     0.00000002    0.00000001   -0.00000000
     atom  186 type  1   force =     0.00000002    0.00000002    0.00000002
     atom  187 type  1   force =     0.00000000    0.00000001    0.00000003
     atom  188 type  1   force =     0.00000001    0.00000004    0.00000003
     atom  189 type  1   force =    -0.00000002    0.00000003    0.00000003
     atom  190 type  1   force =    -0.00000000    0.00000002    0.00000003
     atom  191 type  1   force =     0.00000000    0.00000004    0.00000003
     atom  192 type  1   force =    -0.00000017   -0.00000000    0.00000002
     atom  193 type  1   force =    -0.00000006    0.00000006    0.00000004
     atom  194 type  1   force =    -0.00000006   -0.00000001    0.00000010
     atom  195 type  1   force =    -0.00000010    0.00000003    0.00000006
     atom  196 type  1   force =    -0.00000005   -0.00000002    0.00000002
     atom  197 type  1   force =    -0.00000005    0.00000002    0.00000006
     atom  198 type  1   force =    -0.00000001   -0.00000003    0.00000001
     atom  199 type  1   force =     0.00000000   -0.00000004   -0.00000002
     atom  200 type  1   force =     0.00000001   -0.00000003   -0.00000000
     atom  201 type  1   force =     0.00000003   -0.00000002   -0.00000000
     atom  202 type  1   force =    -0.00000000   -0.00000001   -0.00000002
     atom  203 type  1   force =    -0.00000000   -0.00000004    0.00000002
     atom  204 type  1   force =    -0.00000008   -0.00000000   -0.00000004
     atom  205 type  1   force =    -0.00000006    0.00000002   -0.00000010
     atom  206 type  1   force =    -0.00000008    0.00000000   -0.00000007
     atom  207 type  1   force =    -0.00000013    0.00000003   -0.00000005
     atom  208 type  1   force =    -0.00000007    0.00000006    0.00000001
     atom  209 type  1   force =    -0.00000001    0.00000008    0.00000001
     atom  210 type  1   force =    -0.00000006    0.00000010    0.00000004
     atom  211 type  1   force =     0.00000003    0.00000001   -0.00000002
     atom  212 type  1   force =     0.00000001    0.00000000   -0.00000005
     atom  213 type  1   force =     0.00000001    0.00000002   -0.00000004
     atom  214 type  1   force =     0.00000003    0.00000001   -0.00000001
     atom  215 type  1   force =     0.00000004    0.00000002   -0.00000003
     atom  216 type  1   force =     0.00000002   -0.00000001    0.00000000
     atom  217 type  1   force =     0.00000003    0.00000000   -0.00000001
     atom  218 type  1   force =     0.00000003   -0.00000000    0.00000000
     atom  219 type  1   force =     0.00000002    0.00000001    0.00000003
     atom  220 type  1   force =    -0.00000001   -0.00000001    0.00000003
     atom  221 type  1   force =     0.00000001    0.00000003    0.00000003
     atom  222 type  1   force =    -0.00000007    0.00000011   -0.00000004
     atom  223 type  1   force =     0.00000001    0.00000001    0.00000002
     atom  224 type  1   force =     0.00000004    0.00000002    0.00000001
     atom  225 type  1   force =     0.00000001   -0.00000005    0.00000001
     atom  226 type  1   force =     0.00000003    0.00000002   -0.00000002
     atom  227 type  1   force =     0.00000002    0.00000001   -0.00000002
     atom  228 type  1   force =     0.00000004    0.00000003   -0.00000003
     atom  229 type  1   force =     0.00000002    0.00000001   -0.00000003
     atom  230 type  1   force =     0.00000001    0.00000003   -0.00000004
     atom  231 type  1   force =     0.00000003    0.00000002   -0.00000003
     atom  232 type  1   force =     0.00000003    0.00000003   -0.00000001
     atom  233 type  1   force =     0.00000001    0.00000002   -0.00000002
     atom  234 type  1   force =     0.00000001    0.00000002    0.00000002
     atom  235 type  1   force =     0.00000002    0.00000002    0.00000002
     atom  236 type  1   force =     0.00000002    0.00000002    0.00000003
     atom  237 type  1   force =     0.00000001   -0.00000001    0.00000002
     atom  238 type  1   force =     0.00000003    0.00000002    0.00000004
     atom  239 type  1   force =     0.00000002   -0.00000000    0.00000003
     atom  240 type  1   force =    -0.00000006   -0.00000008    0.00000002
     atom  241 type  1   force =    -0.00000007   -0.00000009    0.00000004
     atom  242 type  1   force =    -0.00000003   -0.00000012    0.00000006
     atom  243 type  1   force =    -0.00000011   -0.00000005    0.00000006
     atom  244 type  1   force =     0.00000001   -0.00000000   -0.00000002
     atom  245 type  1   force =    -0.00000004   -0.00000006    0.00000007
     atom  246 type  1   force =     0.00000001   -0.00000000   -0.00000002
     atom  247 type  1   force =     0.00000001   -0.00000001   -0.00000002
     atom  248 type  1   force =     0.00000002    0.00000002   -0.00000001
     atom  249 type  1   force =    -0.00000000   -0.00000001   -0.00000001
     atom  250 type  1   force =     0.00000000   -0.00000000   -0.00000001
     atom  251 type  1   force =    -0.00000000    0.00000001    0.00000000
     atom  252 type  1   force =    -0.00000001   -0.00000001    0.00000000
     atom  253 type  1   force =    -0.00000006   -0.00000004   -0.00000011
     atom  254 type  1   force =    -0.00000006   -0.00000014   -0.00000002
     atom  255 type  1   force =    -0.00000014   -0.00000005   -0.00000004

     Total force =     0.004100     Total SCF correction =     0.000001


     Computing stress (Cartesian axis) and pressure

          total   stress  (Ry/bohr**3)                   (kbar)     P=   -9.86
  -0.00006801  -0.00000069  -0.00000000        -10.00     -0.10     -0.00
  -0.00000069  -0.00006801  -0.00000000         -0.10    -10.00     -0.00
  -0.00000000  -0.00000000  -0.00006502         -0.00     -0.00     -9.57

     kinetic stress (kbar)   1425.00     -0.06     -0.00
                               -0.06   1425.00     -0.00
                               -0.00     -0.00   1425.13

     local   stress (kbar)    607.15     -4.83     -0.00
                               -4.83    607.15     -0.00
                               -0.00     -0.00    613.07

     nonloc. stress (kbar)   1033.21     -0.11      0.00
                               -0.11   1033.21      0.00
                                0.00      0.00   1033.46

     hartree stress (kbar)      8.50      1.82      0.00
                                1.82      8.50      0.00
                                0.00      0.00      5.93

     exc-cor stress (kbar)    499.52      0.00      0.00
                                0.00    499.52      0.00
                                0.00      0.00    499.52

     corecor stress (kbar)  -1265.21      0.01     -0.00
                                0.01  -1265.21     -0.00
                               -0.00     -0.00  -1265.25

     ewald   stress (kbar)  -2318.17      3.06      0.00
                                3.06  -2318.17      0.00
                                0.00      0.00  -2321.44

     hubbard stress (kbar)      0.00      0.00      0.00
                                0.00      0.00      0.00
                                0.00      0.00      0.00

     london  stress (kbar)      0.00      0.00      0.00
                                0.00      0.00      0.00
                                0.00      0.00      0.00

     DFT-D3  stress (kbar)      0.00      0.00      0.00
                                0.00      0.00      0.00
                                0.00      0.00      0.00

     XDM     stress (kbar)      0.00      0.00      0.00
                                0.00      0.00      0.00
                                0.00      0.00      0.00

     dft-nl  stress (kbar)      0.00      0.00      0.00
                                0.00      0.00      0.00
                                0.00      0.00      0.00

     TS-vdW  stress (kbar)      0.00      0.00      0.00
                                0.00      0.00      0.00
                                0.00      0.00      0.00



     Writing output data file aiida.save/
 
     init_run     :    194.90s CPU    197.20s WALL (       1 calls)
     electrons    :   7978.76s CPU   8038.82s WALL (       1 calls)
     forces       :     92.68s CPU     93.56s WALL (       1 calls)
     stress       :   1251.43s CPU   1252.85s WALL (       1 calls)

     Called by init_run:
     wfcinit      :    182.93s CPU    184.85s WALL (       1 calls)
     wfcinit:atom :      0.32s CPU      0.60s WALL (       2 calls)
     wfcinit:wfcr :    180.27s CPU    181.05s WALL (       2 calls)
     potinit      :      2.30s CPU      2.49s WALL (       1 calls)
     hinit0       :      2.85s CPU      2.92s WALL (       1 calls)

     Called by electrons:
     c_bands      :   6904.08s CPU   6951.93s WALL (      28 calls)
     sum_band     :    983.01s CPU    987.34s WALL (      28 calls)
     v_of_rho     :     43.71s CPU     46.11s WALL (      28 calls)
     v_h          :      4.22s CPU      4.23s WALL (      28 calls)
     v_xc         :     41.92s CPU     44.40s WALL (      30 calls)
     newd         :      8.24s CPU     10.06s WALL (      28 calls)
     PAW_pot      :      4.73s CPU      5.43s WALL (      28 calls)
     mix_rho      :     29.20s CPU     31.56s WALL (      28 calls)

     Called by c_bands:
     init_us_2    :     96.44s CPU     97.08s WALL (     118 calls)
     cegterg      :   5956.96s CPU   6002.72s WALL (      56 calls)

     Called by sum_band:
     sum_band:bec :      1.39s CPU      1.39s WALL (      56 calls)
     addusdens    :      6.80s CPU      8.91s WALL (      28 calls)

     Called by *egterg:
     h_psi        :   3925.74s CPU   3940.59s WALL (     258 calls)
     s_psi        :   1161.85s CPU   1162.52s WALL (     258 calls)
     g_psi        :      4.85s CPU      4.86s WALL (     200 calls)
     cdiaghg      :    341.74s CPU    347.36s WALL (     254 calls)
     cegterg:over :    290.42s CPU    292.14s WALL (     200 calls)
     cegterg:upda :    195.30s CPU    203.61s WALL (     200 calls)
     cegterg:last :    116.51s CPU    116.59s WALL (      58 calls)
     cdiaghg:chol :     14.92s CPU     15.06s WALL (     254 calls)
     cdiaghg:inve :      6.59s CPU      6.59s WALL (     254 calls)
     cdiaghg:para :     75.51s CPU     76.86s WALL (     508 calls)

     Called by h_psi:
     h_psi:pot    :   3920.35s CPU   3927.86s WALL (     258 calls)
     h_psi:calbec :   1131.96s CPU   1132.08s WALL (     258 calls)
     vloc_psi     :   1624.33s CPU   1630.69s WALL (     258 calls)
     add_vuspsi   :   1164.06s CPU   1165.09s WALL (     258 calls)

     General routines
     calbec       :   1670.19s CPU   1670.43s WALL (     324 calls)
     fft          :     47.97s CPU     51.12s WALL (     389 calls)
     ffts         :     13.63s CPU     13.68s WALL (     454 calls)
     fftw         :   1677.23s CPU   1683.39s WALL (  151332 calls)
     interpolate  :      4.22s CPU      4.91s WALL (      28 calls)
 
     Parallel routines
     fft_scatt_xy :    570.64s CPU    572.38s WALL (  152175 calls)
     fft_scatt_yz :    319.93s CPU    322.91s WALL (  152175 calls)

     PAW routines
     PAW_pot      :      4.73s CPU      5.43s WALL (      28 calls)
 
     PWSCF        :      2h41m CPU      2h43m WALL

 
   This run was terminated on:   1:41:33  27Feb2020            

=------------------------------------------------------------------------------=
   JOB DONE.
=------------------------------------------------------------------------------=
