begin
comment 4 atoms, species Al4
lattice      6.6518589680     0.0000000000    -0.0000000000
lattice      0.0000000000     6.6518589680     0.0000000000
lattice     -0.0000000000     0.0000000000     6.6518589680
atom      0.0000000000     0.0000000000     0.0000000000   Al  0.0 0.0   -1.91402409e-13 -1.91322997e-13 -1.91602390e-13
atom     -0.0000000000     3.3259294840     3.3259294840   Al  0.0 0.0   -1.91404298e-13  1.91323874e-13  1.91603470e-13
atom      3.3259294840     0.0000000000     3.3259294840   Al  0.0 0.0    1.91403219e-13 -1.91322187e-13  1.91604010e-13
atom      3.3259294840     3.3259294840     0.0000000000   Al  0.0 0.0    1.91402679e-13  1.91323554e-13 -1.91604549e-13
energy -6.541379378611569e-01
charge 0.0000
end
