
     Program PWSCF v.6.3 starts on 22Feb2020 at  8:28:47 

     This program is part of the open-source Quantum ESPRESSO suite
     for quantum simulation of materials; please cite
         "P. Giannozzi et al., J. Phys.:Condens. Matter 21 395502 (2009);
         "P. Giannozzi et al., J. Phys.:Condens. Matter 29 465901 (2017);
          URL http://www.quantum-espresso.org", 
     in publications or presentations arising from this work. More details at
     http://www.quantum-espresso.org/quote

 *** WARNING: using old-style file format, will disappear from next version ***

     Parallel version (MPI & OpenMP), running on      36 processor cores
     Number of MPI processes:                36
     Threads/MPI process:                     1

     MPI processes distributed on     1 nodes
     K-points division:     npool     =       4
     R & G space division:  proc/nbgrp/npool/nimage =       9
     Reading input from aiida.in
Warning: card &IONS ignored
Warning: card   !PRESS_CONV_THR = 0.05                 ! JUST FOR VOLUME RELAXATIONS ignored
Warning: card / ignored

     Current dimensions of program PWSCF are:
     Max number of different atomic species (ntypx) = 10
     Max number of k-points (npk) =  40000
     Max angular momentum in pseudopotentials (lmaxx) =  3
               file Al.pbe-n-kjpaw_psl.1.0.0.UPF: wavefunction(s)  3S 3P renormalized

     Subspace diagonalization in iterative solution of the eigenvalue problem:
     one sub-group per band group will be used
     scalapack distributed-memory algorithm (size of sub-group:  2*  2 procs)

 
     Parallelization info
     --------------------
     sticks:   dense  smooth     PW     G-vecs:    dense   smooth      PW
     Min        3324    1330    347               432816   109512   14645
     Max        3325    1331    348               432821   109515   14652
     Sum       29921   11977   3125              3895379   985619  131827
 


     bravais-lattice index     =            0
     lattice parameter (alat)  =      30.6665  a.u.
     unit-cell volume          =   28839.7502 (a.u.)^3
     number of atoms/cell      =          255
     number of atomic types    =            2
     number of electrons       =       766.00
     number of Kohn-Sham states=          460
     kinetic-energy cutoff     =      40.0000  Ry
     charge density cutoff     =     400.0000  Ry
     convergence threshold     =      1.0E-12
     mixing beta               =       0.4000
     number of iterations used =            8  local-TF  mixing
     Exchange-correlation      = PBE ( 1  4  3  4 0 0)

     celldm(1)=  30.666473  celldm(2)=   0.000000  celldm(3)=   0.000000
     celldm(4)=   0.000000  celldm(5)=   0.000000  celldm(6)=   0.000000

     crystal axes: (cart. coord. in units of alat)
               a(1) = (   1.000000   0.000000   0.000000 )  
               a(2) = (   0.000000   1.000000   0.000000 )  
               a(3) = (   0.000000   0.000000   1.000000 )  

     reciprocal axes: (cart. coord. in units 2 pi/alat)
               b(1) = (  1.000000  0.000000  0.000000 )  
               b(2) = (  0.000000  1.000000  0.000000 )  
               b(3) = (  0.000000  0.000000  1.000000 )  


     PseudoPot. # 1 for Al read from file:
     /users/aglensk/Dropbox/Albert/scripts/dotfiles/scripts/potentials/quantum_espresso/pseudo_SSSPefV1.1_alalloy/Al.pbe-n-kjpaw_psl.1.0.0.UPF
     MD5 check sum: cfc449ca30b5f3223ec38ddd88ac046d
     Pseudo is Projector augmented-wave + core cor, Zval =  3.0
     Generated using "atomic" code by A. Dal Corso v.5.1
     Shape of augmentation charge: PSQ
     Using radial grid of 1135 points,  6 beta functions with: 
                l(1) =   0
                l(2) =   0
                l(3) =   1
                l(4) =   1
                l(5) =   2
                l(6) =   2
     Q(r) pseudized with 0 coefficients 


     PseudoPot. # 2 for Si read from file:
     /users/aglensk/Dropbox/Albert/scripts/dotfiles/scripts/potentials/quantum_espresso/pseudo_SSSPefV1.1_alalloy/Si.pbe-n-rrkjus_psl.1.0.0.UPF
     MD5 check sum: 0b0bb1205258b0d07b9f9672cf965d36
     Pseudo is Ultrasoft + core correction, Zval =  4.0
     Generated using "atomic" code by A. Dal Corso v.5.1
     Using radial grid of 1141 points,  6 beta functions with: 
                l(1) =   0
                l(2) =   0
                l(3) =   1
                l(4) =   1
                l(5) =   2
                l(6) =   2
     Q(r) pseudized with 0 coefficients 


     atomic species   valence    mass     pseudopotential
        Al             3.00    26.98154     Al( 1.00)
        Si             4.00    28.08500     Si( 1.00)

     No symmetry found


                                    s                        frac. trans.

      isym =  1     identity                                     

 cryst.   s( 1) = (     1          0          0      )
                  (     0          1          0      )
                  (     0          0          1      )

 cart.    s( 1) = (  1.0000000  0.0000000  0.0000000 )
                  (  0.0000000  1.0000000  0.0000000 )
                  (  0.0000000  0.0000000  1.0000000 )


   Cartesian axes

     site n.     atom                  positions (alat units)
         1           Al  tau(   1) = (   0.1226460   0.0003176   0.1226460  )
         2           Al  tau(   2) = (   0.1220815   0.1235963   0.0000000  )
         3           Al  tau(   3) = (   0.0000000   0.1235963   0.1220815  )
         4           Al  tau(   4) = (   0.0000000   0.0003041   0.2494472  )
         5           Al  tau(   5) = (   0.1248534   0.1249527   0.2496303  )
         6           Al  tau(   6) = (   0.1249393   0.0000285   0.3749922  )
         7           Al  tau(   7) = (   0.0000000   0.1250110   0.3749171  )
         8           Al  tau(   8) = (   0.0000000   0.0000383   0.5000000  )
         9           Al  tau(   9) = (   0.1250332   0.1250490   0.5000000  )
        10           Al  tau(  10) = (   0.1249393   0.0000285   0.6250078  )
        11           Al  tau(  11) = (   0.0000000   0.1250110   0.6250830  )
        12           Al  tau(  12) = (   0.0000000   0.0003041   0.7505528  )
        13           Al  tau(  13) = (   0.1248534   0.1249527   0.7503697  )
        14           Al  tau(  14) = (   0.1226460   0.0003176   0.8773540  )
        15           Al  tau(  15) = (   0.0000000   0.1235963   0.8779185  )
        16           Si  tau(  16) = (   0.0000000   0.2503619   0.0000000  )
        17           Al  tau(  17) = (   0.1242420   0.3743558   0.0000000  )
        18           Al  tau(  18) = (   0.1240762   0.2497669   0.1240762  )
        19           Al  tau(  19) = (   0.0000000   0.3743558   0.1242420  )
        20           Al  tau(  20) = (   0.0000000   0.2491103   0.2487120  )
        21           Al  tau(  21) = (   0.1248462   0.3748373   0.2497673  )
        22           Al  tau(  22) = (   0.1248670   0.2500048   0.3747828  )
        23           Al  tau(  23) = (   0.0000000   0.3748373   0.3747536  )
        24           Al  tau(  24) = (   0.0000000   0.2500372   0.5000000  )
        25           Al  tau(  25) = (   0.1250051   0.3750132   0.5000000  )
        26           Al  tau(  26) = (   0.1248670   0.2500048   0.6252172  )
        27           Al  tau(  27) = (   0.0000000   0.3748373   0.6252464  )
        28           Al  tau(  28) = (   0.0000000   0.2491103   0.7512881  )
        29           Al  tau(  29) = (   0.1248462   0.3748373   0.7502327  )
        30           Al  tau(  30) = (   0.1240762   0.2497669   0.8759239  )
        31           Al  tau(  31) = (   0.0000000   0.3743558   0.8757580  )
        32           Al  tau(  32) = (   0.0000000   0.4997034   0.0000000  )
        33           Al  tau(  33) = (   0.1249439   0.6248434   0.0000000  )
        34           Al  tau(  34) = (   0.1249585   0.4997478   0.1249585  )
        35           Al  tau(  35) = (   0.0000000   0.6248434   0.1249439  )
        36           Al  tau(  36) = (   0.0000000   0.4997100   0.2497497  )
        37           Al  tau(  37) = (   0.1248955   0.6250448   0.2499747  )
        38           Al  tau(  38) = (   0.1249797   0.4999643   0.3749773  )
        39           Al  tau(  39) = (   0.0000000   0.6250848   0.3748420  )
        40           Al  tau(  40) = (   0.0000000   0.4999497   0.5000000  )
        41           Al  tau(  41) = (   0.1250031   0.6249808   0.5000000  )
        42           Al  tau(  42) = (   0.1249797   0.4999643   0.6250227  )
        43           Al  tau(  43) = (   0.0000000   0.6250848   0.6251580  )
        44           Al  tau(  44) = (   0.0000000   0.4997100   0.7502503  )
        45           Al  tau(  45) = (   0.1248955   0.6250448   0.7500253  )
        46           Al  tau(  46) = (   0.1249585   0.4997478   0.8750415  )
        47           Al  tau(  47) = (   0.0000000   0.6248434   0.8750561  )
        48           Al  tau(  48) = (   0.0000000   0.7501559   0.0000000  )
        49           Al  tau(  49) = (   0.1228031   0.8772421   0.0000000  )
        50           Al  tau(  50) = (   0.1248909   0.7501592   0.1248909  )
        51           Al  tau(  51) = (   0.0000000   0.8772421   0.1228031  )
        52           Al  tau(  52) = (   0.0000000   0.7508531   0.2491109  )
        53           Al  tau(  53) = (   0.1248772   0.8751484   0.2498050  )
        54           Al  tau(  54) = (   0.1249104   0.7499971   0.3749114  )
        55           Al  tau(  55) = (   0.0000000   0.8750635   0.3749939  )
        56           Al  tau(  56) = (   0.0000000   0.7499756   0.5000000  )
        57           Al  tau(  57) = (   0.1250342   0.8749602   0.5000000  )
        58           Al  tau(  58) = (   0.1249104   0.7499971   0.6250887  )
        59           Al  tau(  59) = (   0.0000000   0.8750635   0.6250062  )
        60           Al  tau(  60) = (   0.0000000   0.7508531   0.7508892  )
        61           Al  tau(  61) = (   0.1248772   0.8751484   0.7501950  )
        62           Al  tau(  62) = (   0.1248909   0.7501592   0.8751091  )
        63           Al  tau(  63) = (   0.0000000   0.8772421   0.8771970  )
        64           Al  tau(  64) = (   0.2494472   0.0003041   0.0000000  )
        65           Al  tau(  65) = (   0.3749171   0.1250110   0.0000000  )
        66           Al  tau(  66) = (   0.3749922   0.0000285   0.1249393  )
        67           Al  tau(  67) = (   0.2496303   0.1249527   0.1248534  )
        68           Al  tau(  68) = (   0.2491856   0.9999360   0.2491856  )
        69           Al  tau(  69) = (   0.3748742   0.1249446   0.2499746  )
        70           Al  tau(  70) = (   0.3748893   0.0000087   0.3748893  )
        71           Al  tau(  71) = (   0.2499746   0.1249446   0.3748742  )
        72           Al  tau(  72) = (   0.2500167   0.0000144   0.5000000  )
        73           Al  tau(  73) = (   0.3750242   0.1250145   0.5000000  )
        74           Al  tau(  74) = (   0.3748893   0.0000087   0.6251107  )
        75           Al  tau(  75) = (   0.2499746   0.1249446   0.6251258  )
        76           Al  tau(  76) = (   0.2491856   0.9999360   0.7508144  )
        77           Al  tau(  77) = (   0.3748742   0.1249446   0.7500254  )
        78           Al  tau(  78) = (   0.3749922   0.0000285   0.8750607  )
        79           Al  tau(  79) = (   0.2496303   0.1249527   0.8751466  )
        80           Al  tau(  80) = (   0.2487120   0.2491103   0.0000000  )
        81           Al  tau(  81) = (   0.3747536   0.3748373   0.0000000  )
        82           Al  tau(  82) = (   0.3747828   0.2500048   0.1248670  )
        83           Al  tau(  83) = (   0.2497673   0.3748373   0.1248462  )
        84           Al  tau(  84) = (   0.2498563   0.2501632   0.2498563  )
        85           Al  tau(  85) = (   0.3749821   0.3749909   0.2499469  )
        86           Al  tau(  86) = (   0.3749869   0.2499775   0.3749869  )
        87           Al  tau(  87) = (   0.2499469   0.3749909   0.3749821  )
        88           Al  tau(  88) = (   0.2499366   0.2499830   0.5000000  )
        89           Al  tau(  89) = (   0.3749788   0.3749749   0.5000000  )
        90           Al  tau(  90) = (   0.3749869   0.2499775   0.6250131  )
        91           Al  tau(  91) = (   0.2499469   0.3749909   0.6250179  )
        92           Al  tau(  92) = (   0.2498563   0.2501632   0.7501437  )
        93           Al  tau(  93) = (   0.3749821   0.3749909   0.7500531  )
        94           Al  tau(  94) = (   0.3747828   0.2500048   0.8751330  )
        95           Al  tau(  95) = (   0.2497673   0.3748373   0.8751538  )
        96           Al  tau(  96) = (   0.2497497   0.4997100   0.0000000  )
        97           Al  tau(  97) = (   0.3748420   0.6250848   0.0000000  )
        98           Al  tau(  98) = (   0.3749773   0.4999643   0.1249797  )
        99           Al  tau(  99) = (   0.2499747   0.6250448   0.1248955  )
       100           Al  tau( 100) = (   0.2500234   0.5000471   0.2500234  )
       101           Al  tau( 101) = (   0.3750335   0.6249871   0.2499753  )
       102           Al  tau( 102) = (   0.3749847   0.4999917   0.3749847  )
       103           Al  tau( 103) = (   0.2499753   0.6249871   0.3750335  )
       104           Al  tau( 104) = (   0.2500454   0.4999880   0.5000000  )
       105           Al  tau( 105) = (   0.3749637   0.6250073   0.5000000  )
       106           Al  tau( 106) = (   0.3749847   0.4999917   0.6250153  )
       107           Al  tau( 107) = (   0.2499753   0.6249871   0.6249666  )
       108           Al  tau( 108) = (   0.2500234   0.5000471   0.7499766  )
       109           Al  tau( 109) = (   0.3750335   0.6249871   0.7500247  )
       110           Al  tau( 110) = (   0.3749773   0.4999643   0.8750203  )
       111           Al  tau( 111) = (   0.2499747   0.6250448   0.8751045  )
       112           Al  tau( 112) = (   0.2491109   0.7508531   0.0000000  )
       113           Al  tau( 113) = (   0.3749939   0.8750635   0.0000000  )
       114           Al  tau( 114) = (   0.3749114   0.7499971   0.1249104  )
       115           Al  tau( 115) = (   0.2498050   0.8751484   0.1248772  )
       116           Al  tau( 116) = (   0.2501412   0.7498465   0.2501412  )
       117           Al  tau( 117) = (   0.3749315   0.8750700   0.2500027  )
       118           Al  tau( 118) = (   0.3750060   0.7500194   0.3750060  )
       119           Al  tau( 119) = (   0.2500027   0.8750700   0.3749315  )
       120           Al  tau( 120) = (   0.2499793   0.7500162   0.5000000  )
       121           Al  tau( 121) = (   0.3750033   0.8750067   0.5000000  )
       122           Al  tau( 122) = (   0.3750060   0.7500194   0.6249940  )
       123           Al  tau( 123) = (   0.2500027   0.8750700   0.6250686  )
       124           Al  tau( 124) = (   0.2501412   0.7498465   0.7498588  )
       125           Al  tau( 125) = (   0.3749315   0.8750700   0.7499973  )
       126           Al  tau( 126) = (   0.3749114   0.7499971   0.8750896  )
       127           Al  tau( 127) = (   0.2498050   0.8751484   0.8751228  )
       128           Al  tau( 128) = (   0.5000000   0.0000383   0.0000000  )
       129           Al  tau( 129) = (   0.6250830   0.1250110   0.0000000  )
       130           Al  tau( 130) = (   0.6250078   0.0000285   0.1249393  )
       131           Al  tau( 131) = (   0.5000000   0.1250490   0.1250332  )
       132           Al  tau( 132) = (   0.5000000   0.0000144   0.2500167  )
       133           Al  tau( 133) = (   0.6251258   0.1249446   0.2499746  )
       134           Al  tau( 134) = (   0.6251107   0.0000087   0.3748893  )
       135           Al  tau( 135) = (   0.5000000   0.1250145   0.3750242  )
       136           Al  tau( 136) = (   0.5000000   0.9999959   0.5000000  )
       137           Al  tau( 137) = (   0.6249758   0.1250145   0.5000000  )
       138           Al  tau( 138) = (   0.6251107   0.0000087   0.6251107  )
       139           Al  tau( 139) = (   0.5000000   0.1250145   0.6249758  )
       140           Al  tau( 140) = (   0.5000000   0.0000144   0.7499833  )
       141           Al  tau( 141) = (   0.6251258   0.1249446   0.7500254  )
       142           Al  tau( 142) = (   0.6250078   0.0000285   0.8750607  )
       143           Al  tau( 143) = (   0.5000000   0.1250490   0.8749668  )
       144           Al  tau( 144) = (   0.5000000   0.2500372   0.0000000  )
       145           Al  tau( 145) = (   0.6252464   0.3748373   0.0000000  )
       146           Al  tau( 146) = (   0.6252172   0.2500048   0.1248670  )
       147           Al  tau( 147) = (   0.5000000   0.3750132   0.1250051  )
       148           Al  tau( 148) = (   0.5000000   0.2499830   0.2499366  )
       149           Al  tau( 149) = (   0.6250179   0.3749909   0.2499469  )
       150           Al  tau( 150) = (   0.6250131   0.2499775   0.3749869  )
       151           Al  tau( 151) = (   0.5000000   0.3749749   0.3749788  )
       152           Al  tau( 152) = (   0.5000000   0.2500616   0.5000000  )
       153           Al  tau( 153) = (   0.6250212   0.3749749   0.5000000  )
       154           Al  tau( 154) = (   0.6250131   0.2499775   0.6250131  )
       155           Al  tau( 155) = (   0.5000000   0.3749749   0.6250212  )
       156           Al  tau( 156) = (   0.5000000   0.2499830   0.7500635  )
       157           Al  tau( 157) = (   0.6250179   0.3749909   0.7500531  )
       158           Al  tau( 158) = (   0.6252172   0.2500048   0.8751330  )
       159           Al  tau( 159) = (   0.5000000   0.3750132   0.8749949  )
       160           Al  tau( 160) = (   0.5000000   0.4999497   0.0000000  )
       161           Al  tau( 161) = (   0.6251580   0.6250848   0.0000000  )
       162           Al  tau( 162) = (   0.6250227   0.4999643   0.1249797  )
       163           Al  tau( 163) = (   0.5000000   0.6249808   0.1250031  )
       164           Al  tau( 164) = (   0.5000000   0.4999880   0.2500454  )
       165           Al  tau( 165) = (   0.6249666   0.6249871   0.2499753  )
       166           Al  tau( 166) = (   0.6250153   0.4999917   0.3749847  )
       167           Al  tau( 167) = (   0.5000000   0.6250073   0.3749637  )
       168           Al  tau( 168) = (   0.5000000   0.5000037   0.5000000  )
       169           Al  tau( 169) = (   0.6250363   0.6250073   0.5000000  )
       170           Al  tau( 170) = (   0.6250153   0.4999917   0.6250153  )
       171           Al  tau( 171) = (   0.5000000   0.6250073   0.6250363  )
       172           Al  tau( 172) = (   0.5000000   0.4999880   0.7499546  )
       173           Al  tau( 173) = (   0.6249666   0.6249871   0.7500247  )
       174           Al  tau( 174) = (   0.6250227   0.4999643   0.8750203  )
       175           Al  tau( 175) = (   0.5000000   0.6249808   0.8749969  )
       176           Al  tau( 176) = (   0.5000000   0.7499756   0.0000000  )
       177           Al  tau( 177) = (   0.6250062   0.8750635   0.0000000  )
       178           Al  tau( 178) = (   0.6250887   0.7499971   0.1249104  )
       179           Al  tau( 179) = (   0.5000000   0.8749602   0.1250342  )
       180           Al  tau( 180) = (   0.5000000   0.7500162   0.2499793  )
       181           Al  tau( 181) = (   0.6250686   0.8750700   0.2500027  )
       182           Al  tau( 182) = (   0.6249940   0.7500194   0.3750060  )
       183           Al  tau( 183) = (   0.5000000   0.8750067   0.3750033  )
       184           Al  tau( 184) = (   0.5000000   0.7499465   0.5000000  )
       185           Al  tau( 185) = (   0.6249967   0.8750067   0.5000000  )
       186           Al  tau( 186) = (   0.6249940   0.7500194   0.6249940  )
       187           Al  tau( 187) = (   0.5000000   0.8750067   0.6249967  )
       188           Al  tau( 188) = (   0.5000000   0.7500162   0.7500207  )
       189           Al  tau( 189) = (   0.6250686   0.8750700   0.7499973  )
       190           Al  tau( 190) = (   0.6250887   0.7499971   0.8750896  )
       191           Al  tau( 191) = (   0.5000000   0.8749602   0.8749658  )
       192           Al  tau( 192) = (   0.7505528   0.0003041   0.0000000  )
       193           Al  tau( 193) = (   0.8779185   0.1235963   0.0000000  )
       194           Al  tau( 194) = (   0.8773540   0.0003176   0.1226460  )
       195           Al  tau( 195) = (   0.7503697   0.1249527   0.1248534  )
       196           Al  tau( 196) = (   0.7508144   0.9999360   0.2491856  )
       197           Al  tau( 197) = (   0.8751466   0.1249527   0.2496303  )
       198           Al  tau( 198) = (   0.8750607   0.0000285   0.3749922  )
       199           Al  tau( 199) = (   0.7500254   0.1249446   0.3748742  )
       200           Al  tau( 200) = (   0.7499833   0.0000144   0.5000000  )
       201           Al  tau( 201) = (   0.8749668   0.1250490   0.5000000  )
       202           Al  tau( 202) = (   0.8750607   0.0000285   0.6250078  )
       203           Al  tau( 203) = (   0.7500254   0.1249446   0.6251258  )
       204           Al  tau( 204) = (   0.7508144   0.9999360   0.7508144  )
       205           Al  tau( 205) = (   0.8751466   0.1249527   0.7503697  )
       206           Al  tau( 206) = (   0.8773540   0.0003176   0.8773540  )
       207           Al  tau( 207) = (   0.7503697   0.1249527   0.8751466  )
       208           Al  tau( 208) = (   0.7512881   0.2491103   0.0000000  )
       209           Al  tau( 209) = (   0.8757580   0.3743558   0.0000000  )
       210           Al  tau( 210) = (   0.8759239   0.2497669   0.1240762  )
       211           Al  tau( 211) = (   0.7502327   0.3748373   0.1248462  )
       212           Al  tau( 212) = (   0.7501437   0.2501632   0.2498563  )
       213           Al  tau( 213) = (   0.8751538   0.3748373   0.2497673  )
       214           Al  tau( 214) = (   0.8751330   0.2500048   0.3747828  )
       215           Al  tau( 215) = (   0.7500531   0.3749909   0.3749821  )
       216           Al  tau( 216) = (   0.7500635   0.2499830   0.5000000  )
       217           Al  tau( 217) = (   0.8749949   0.3750132   0.5000000  )
       218           Al  tau( 218) = (   0.8751330   0.2500048   0.6252172  )
       219           Al  tau( 219) = (   0.7500531   0.3749909   0.6250179  )
       220           Al  tau( 220) = (   0.7501437   0.2501632   0.7501437  )
       221           Al  tau( 221) = (   0.8751538   0.3748373   0.7502327  )
       222           Al  tau( 222) = (   0.8759239   0.2497669   0.8759239  )
       223           Al  tau( 223) = (   0.7502327   0.3748373   0.8751538  )
       224           Al  tau( 224) = (   0.7502503   0.4997100   0.0000000  )
       225           Al  tau( 225) = (   0.8750561   0.6248434   0.0000000  )
       226           Al  tau( 226) = (   0.8750415   0.4997478   0.1249585  )
       227           Al  tau( 227) = (   0.7500253   0.6250448   0.1248955  )
       228           Al  tau( 228) = (   0.7499766   0.5000471   0.2500234  )
       229           Al  tau( 229) = (   0.8751045   0.6250448   0.2499747  )
       230           Al  tau( 230) = (   0.8750203   0.4999643   0.3749773  )
       231           Al  tau( 231) = (   0.7500247   0.6249871   0.3750335  )
       232           Al  tau( 232) = (   0.7499546   0.4999880   0.5000000  )
       233           Al  tau( 233) = (   0.8749969   0.6249808   0.5000000  )
       234           Al  tau( 234) = (   0.8750203   0.4999643   0.6250227  )
       235           Al  tau( 235) = (   0.7500247   0.6249871   0.6249666  )
       236           Al  tau( 236) = (   0.7499766   0.5000471   0.7499766  )
       237           Al  tau( 237) = (   0.8751045   0.6250448   0.7500253  )
       238           Al  tau( 238) = (   0.8750415   0.4997478   0.8750415  )
       239           Al  tau( 239) = (   0.7500253   0.6250448   0.8751045  )
       240           Al  tau( 240) = (   0.7508892   0.7508531   0.0000000  )
       241           Al  tau( 241) = (   0.8771970   0.8772421   0.0000000  )
       242           Al  tau( 242) = (   0.8751091   0.7501592   0.1248909  )
       243           Al  tau( 243) = (   0.7501950   0.8751484   0.1248772  )
       244           Al  tau( 244) = (   0.7498588   0.7498465   0.2501412  )
       245           Al  tau( 245) = (   0.8751228   0.8751484   0.2498050  )
       246           Al  tau( 246) = (   0.8750896   0.7499971   0.3749114  )
       247           Al  tau( 247) = (   0.7499973   0.8750700   0.3749315  )
       248           Al  tau( 248) = (   0.7500207   0.7500162   0.5000000  )
       249           Al  tau( 249) = (   0.8749658   0.8749602   0.5000000  )
       250           Al  tau( 250) = (   0.8750896   0.7499971   0.6250887  )
       251           Al  tau( 251) = (   0.7499973   0.8750700   0.6250686  )
       252           Al  tau( 252) = (   0.7498588   0.7498465   0.7498588  )
       253           Al  tau( 253) = (   0.8751228   0.8751484   0.7501950  )
       254           Al  tau( 254) = (   0.8751091   0.7501592   0.8751091  )
       255           Al  tau( 255) = (   0.7501950   0.8751484   0.8751228  )

   Crystallographic axes

     site n.     atom                  positions (cryst. coord.)
         1           Al  tau(   1) = (  0.1226460  0.0003176  0.1226460  )
         2           Al  tau(   2) = (  0.1220815  0.1235963  0.0000000  )
         3           Al  tau(   3) = (  0.0000000  0.1235963  0.1220815  )
         4           Al  tau(   4) = (  0.0000000  0.0003041  0.2494472  )
         5           Al  tau(   5) = (  0.1248534  0.1249527  0.2496303  )
         6           Al  tau(   6) = (  0.1249393  0.0000285  0.3749922  )
         7           Al  tau(   7) = (  0.0000000  0.1250110  0.3749171  )
         8           Al  tau(   8) = (  0.0000000  0.0000383  0.5000000  )
         9           Al  tau(   9) = (  0.1250332  0.1250490  0.5000000  )
        10           Al  tau(  10) = (  0.1249393  0.0000285  0.6250078  )
        11           Al  tau(  11) = (  0.0000000  0.1250110  0.6250830  )
        12           Al  tau(  12) = (  0.0000000  0.0003041  0.7505528  )
        13           Al  tau(  13) = (  0.1248534  0.1249527  0.7503697  )
        14           Al  tau(  14) = (  0.1226460  0.0003176  0.8773540  )
        15           Al  tau(  15) = (  0.0000000  0.1235963  0.8779185  )
        16           Si  tau(  16) = (  0.0000000  0.2503619  0.0000000  )
        17           Al  tau(  17) = (  0.1242420  0.3743558  0.0000000  )
        18           Al  tau(  18) = (  0.1240762  0.2497669  0.1240762  )
        19           Al  tau(  19) = (  0.0000000  0.3743558  0.1242420  )
        20           Al  tau(  20) = (  0.0000000  0.2491103  0.2487120  )
        21           Al  tau(  21) = (  0.1248462  0.3748373  0.2497673  )
        22           Al  tau(  22) = (  0.1248670  0.2500048  0.3747828  )
        23           Al  tau(  23) = (  0.0000000  0.3748373  0.3747536  )
        24           Al  tau(  24) = (  0.0000000  0.2500372  0.5000000  )
        25           Al  tau(  25) = (  0.1250051  0.3750132  0.5000000  )
        26           Al  tau(  26) = (  0.1248670  0.2500048  0.6252172  )
        27           Al  tau(  27) = (  0.0000000  0.3748373  0.6252464  )
        28           Al  tau(  28) = (  0.0000000  0.2491103  0.7512881  )
        29           Al  tau(  29) = (  0.1248462  0.3748373  0.7502327  )
        30           Al  tau(  30) = (  0.1240762  0.2497669  0.8759239  )
        31           Al  tau(  31) = (  0.0000000  0.3743558  0.8757580  )
        32           Al  tau(  32) = (  0.0000000  0.4997034  0.0000000  )
        33           Al  tau(  33) = (  0.1249439  0.6248434  0.0000000  )
        34           Al  tau(  34) = (  0.1249585  0.4997478  0.1249585  )
        35           Al  tau(  35) = (  0.0000000  0.6248434  0.1249439  )
        36           Al  tau(  36) = (  0.0000000  0.4997100  0.2497497  )
        37           Al  tau(  37) = (  0.1248955  0.6250448  0.2499747  )
        38           Al  tau(  38) = (  0.1249797  0.4999643  0.3749773  )
        39           Al  tau(  39) = (  0.0000000  0.6250848  0.3748420  )
        40           Al  tau(  40) = (  0.0000000  0.4999497  0.5000000  )
        41           Al  tau(  41) = (  0.1250031  0.6249808  0.5000000  )
        42           Al  tau(  42) = (  0.1249797  0.4999643  0.6250227  )
        43           Al  tau(  43) = (  0.0000000  0.6250848  0.6251580  )
        44           Al  tau(  44) = (  0.0000000  0.4997100  0.7502503  )
        45           Al  tau(  45) = (  0.1248955  0.6250448  0.7500253  )
        46           Al  tau(  46) = (  0.1249585  0.4997478  0.8750415  )
        47           Al  tau(  47) = (  0.0000000  0.6248434  0.8750561  )
        48           Al  tau(  48) = (  0.0000000  0.7501559  0.0000000  )
        49           Al  tau(  49) = (  0.1228031  0.8772421  0.0000000  )
        50           Al  tau(  50) = (  0.1248909  0.7501592  0.1248909  )
        51           Al  tau(  51) = (  0.0000000  0.8772421  0.1228031  )
        52           Al  tau(  52) = (  0.0000000  0.7508531  0.2491109  )
        53           Al  tau(  53) = (  0.1248772  0.8751484  0.2498050  )
        54           Al  tau(  54) = (  0.1249104  0.7499971  0.3749114  )
        55           Al  tau(  55) = (  0.0000000  0.8750635  0.3749939  )
        56           Al  tau(  56) = (  0.0000000  0.7499756  0.5000000  )
        57           Al  tau(  57) = (  0.1250342  0.8749602  0.5000000  )
        58           Al  tau(  58) = (  0.1249104  0.7499971  0.6250887  )
        59           Al  tau(  59) = (  0.0000000  0.8750635  0.6250062  )
        60           Al  tau(  60) = (  0.0000000  0.7508531  0.7508892  )
        61           Al  tau(  61) = (  0.1248772  0.8751484  0.7501950  )
        62           Al  tau(  62) = (  0.1248909  0.7501592  0.8751091  )
        63           Al  tau(  63) = (  0.0000000  0.8772421  0.8771970  )
        64           Al  tau(  64) = (  0.2494472  0.0003041  0.0000000  )
        65           Al  tau(  65) = (  0.3749171  0.1250110  0.0000000  )
        66           Al  tau(  66) = (  0.3749922  0.0000285  0.1249393  )
        67           Al  tau(  67) = (  0.2496303  0.1249527  0.1248534  )
        68           Al  tau(  68) = (  0.2491856  0.9999360  0.2491856  )
        69           Al  tau(  69) = (  0.3748742  0.1249446  0.2499746  )
        70           Al  tau(  70) = (  0.3748893  0.0000087  0.3748893  )
        71           Al  tau(  71) = (  0.2499746  0.1249446  0.3748742  )
        72           Al  tau(  72) = (  0.2500167  0.0000144  0.5000000  )
        73           Al  tau(  73) = (  0.3750242  0.1250145  0.5000000  )
        74           Al  tau(  74) = (  0.3748893  0.0000087  0.6251107  )
        75           Al  tau(  75) = (  0.2499746  0.1249446  0.6251258  )
        76           Al  tau(  76) = (  0.2491856  0.9999360  0.7508144  )
        77           Al  tau(  77) = (  0.3748742  0.1249446  0.7500254  )
        78           Al  tau(  78) = (  0.3749922  0.0000285  0.8750607  )
        79           Al  tau(  79) = (  0.2496303  0.1249527  0.8751466  )
        80           Al  tau(  80) = (  0.2487120  0.2491103  0.0000000  )
        81           Al  tau(  81) = (  0.3747536  0.3748373  0.0000000  )
        82           Al  tau(  82) = (  0.3747828  0.2500048  0.1248670  )
        83           Al  tau(  83) = (  0.2497673  0.3748373  0.1248462  )
        84           Al  tau(  84) = (  0.2498563  0.2501632  0.2498563  )
        85           Al  tau(  85) = (  0.3749821  0.3749909  0.2499469  )
        86           Al  tau(  86) = (  0.3749869  0.2499775  0.3749869  )
        87           Al  tau(  87) = (  0.2499469  0.3749909  0.3749821  )
        88           Al  tau(  88) = (  0.2499366  0.2499830  0.5000000  )
        89           Al  tau(  89) = (  0.3749788  0.3749749  0.5000000  )
        90           Al  tau(  90) = (  0.3749869  0.2499775  0.6250131  )
        91           Al  tau(  91) = (  0.2499469  0.3749909  0.6250179  )
        92           Al  tau(  92) = (  0.2498563  0.2501632  0.7501437  )
        93           Al  tau(  93) = (  0.3749821  0.3749909  0.7500531  )
        94           Al  tau(  94) = (  0.3747828  0.2500048  0.8751330  )
        95           Al  tau(  95) = (  0.2497673  0.3748373  0.8751538  )
        96           Al  tau(  96) = (  0.2497497  0.4997100  0.0000000  )
        97           Al  tau(  97) = (  0.3748420  0.6250848  0.0000000  )
        98           Al  tau(  98) = (  0.3749773  0.4999643  0.1249797  )
        99           Al  tau(  99) = (  0.2499747  0.6250448  0.1248955  )
       100           Al  tau( 100) = (  0.2500234  0.5000471  0.2500234  )
       101           Al  tau( 101) = (  0.3750335  0.6249871  0.2499753  )
       102           Al  tau( 102) = (  0.3749847  0.4999917  0.3749847  )
       103           Al  tau( 103) = (  0.2499753  0.6249871  0.3750335  )
       104           Al  tau( 104) = (  0.2500454  0.4999880  0.5000000  )
       105           Al  tau( 105) = (  0.3749637  0.6250073  0.5000000  )
       106           Al  tau( 106) = (  0.3749847  0.4999917  0.6250153  )
       107           Al  tau( 107) = (  0.2499753  0.6249871  0.6249666  )
       108           Al  tau( 108) = (  0.2500234  0.5000471  0.7499766  )
       109           Al  tau( 109) = (  0.3750335  0.6249871  0.7500247  )
       110           Al  tau( 110) = (  0.3749773  0.4999643  0.8750203  )
       111           Al  tau( 111) = (  0.2499747  0.6250448  0.8751045  )
       112           Al  tau( 112) = (  0.2491109  0.7508531  0.0000000  )
       113           Al  tau( 113) = (  0.3749939  0.8750635  0.0000000  )
       114           Al  tau( 114) = (  0.3749114  0.7499971  0.1249104  )
       115           Al  tau( 115) = (  0.2498050  0.8751484  0.1248772  )
       116           Al  tau( 116) = (  0.2501412  0.7498465  0.2501412  )
       117           Al  tau( 117) = (  0.3749315  0.8750700  0.2500027  )
       118           Al  tau( 118) = (  0.3750060  0.7500194  0.3750060  )
       119           Al  tau( 119) = (  0.2500027  0.8750700  0.3749315  )
       120           Al  tau( 120) = (  0.2499793  0.7500162  0.5000000  )
       121           Al  tau( 121) = (  0.3750033  0.8750067  0.5000000  )
       122           Al  tau( 122) = (  0.3750060  0.7500194  0.6249940  )
       123           Al  tau( 123) = (  0.2500027  0.8750700  0.6250686  )
       124           Al  tau( 124) = (  0.2501412  0.7498465  0.7498588  )
       125           Al  tau( 125) = (  0.3749315  0.8750700  0.7499973  )
       126           Al  tau( 126) = (  0.3749114  0.7499971  0.8750896  )
       127           Al  tau( 127) = (  0.2498050  0.8751484  0.8751228  )
       128           Al  tau( 128) = (  0.5000000  0.0000383  0.0000000  )
       129           Al  tau( 129) = (  0.6250830  0.1250110  0.0000000  )
       130           Al  tau( 130) = (  0.6250078  0.0000285  0.1249393  )
       131           Al  tau( 131) = (  0.5000000  0.1250490  0.1250332  )
       132           Al  tau( 132) = (  0.5000000  0.0000144  0.2500167  )
       133           Al  tau( 133) = (  0.6251258  0.1249446  0.2499746  )
       134           Al  tau( 134) = (  0.6251107  0.0000087  0.3748893  )
       135           Al  tau( 135) = (  0.5000000  0.1250145  0.3750242  )
       136           Al  tau( 136) = (  0.5000000  0.9999959  0.5000000  )
       137           Al  tau( 137) = (  0.6249758  0.1250145  0.5000000  )
       138           Al  tau( 138) = (  0.6251107  0.0000087  0.6251107  )
       139           Al  tau( 139) = (  0.5000000  0.1250145  0.6249758  )
       140           Al  tau( 140) = (  0.5000000  0.0000144  0.7499833  )
       141           Al  tau( 141) = (  0.6251258  0.1249446  0.7500254  )
       142           Al  tau( 142) = (  0.6250078  0.0000285  0.8750607  )
       143           Al  tau( 143) = (  0.5000000  0.1250490  0.8749668  )
       144           Al  tau( 144) = (  0.5000000  0.2500372  0.0000000  )
       145           Al  tau( 145) = (  0.6252464  0.3748373  0.0000000  )
       146           Al  tau( 146) = (  0.6252172  0.2500048  0.1248670  )
       147           Al  tau( 147) = (  0.5000000  0.3750132  0.1250051  )
       148           Al  tau( 148) = (  0.5000000  0.2499830  0.2499366  )
       149           Al  tau( 149) = (  0.6250179  0.3749909  0.2499469  )
       150           Al  tau( 150) = (  0.6250131  0.2499775  0.3749869  )
       151           Al  tau( 151) = (  0.5000000  0.3749749  0.3749788  )
       152           Al  tau( 152) = (  0.5000000  0.2500616  0.5000000  )
       153           Al  tau( 153) = (  0.6250212  0.3749749  0.5000000  )
       154           Al  tau( 154) = (  0.6250131  0.2499775  0.6250131  )
       155           Al  tau( 155) = (  0.5000000  0.3749749  0.6250212  )
       156           Al  tau( 156) = (  0.5000000  0.2499830  0.7500635  )
       157           Al  tau( 157) = (  0.6250179  0.3749909  0.7500531  )
       158           Al  tau( 158) = (  0.6252172  0.2500048  0.8751330  )
       159           Al  tau( 159) = (  0.5000000  0.3750132  0.8749949  )
       160           Al  tau( 160) = (  0.5000000  0.4999497  0.0000000  )
       161           Al  tau( 161) = (  0.6251580  0.6250848  0.0000000  )
       162           Al  tau( 162) = (  0.6250227  0.4999643  0.1249797  )
       163           Al  tau( 163) = (  0.5000000  0.6249808  0.1250031  )
       164           Al  tau( 164) = (  0.5000000  0.4999880  0.2500454  )
       165           Al  tau( 165) = (  0.6249666  0.6249871  0.2499753  )
       166           Al  tau( 166) = (  0.6250153  0.4999917  0.3749847  )
       167           Al  tau( 167) = (  0.5000000  0.6250073  0.3749637  )
       168           Al  tau( 168) = (  0.5000000  0.5000037  0.5000000  )
       169           Al  tau( 169) = (  0.6250363  0.6250073  0.5000000  )
       170           Al  tau( 170) = (  0.6250153  0.4999917  0.6250153  )
       171           Al  tau( 171) = (  0.5000000  0.6250073  0.6250363  )
       172           Al  tau( 172) = (  0.5000000  0.4999880  0.7499546  )
       173           Al  tau( 173) = (  0.6249666  0.6249871  0.7500247  )
       174           Al  tau( 174) = (  0.6250227  0.4999643  0.8750203  )
       175           Al  tau( 175) = (  0.5000000  0.6249808  0.8749969  )
       176           Al  tau( 176) = (  0.5000000  0.7499756  0.0000000  )
       177           Al  tau( 177) = (  0.6250062  0.8750635  0.0000000  )
       178           Al  tau( 178) = (  0.6250887  0.7499971  0.1249104  )
       179           Al  tau( 179) = (  0.5000000  0.8749602  0.1250342  )
       180           Al  tau( 180) = (  0.5000000  0.7500162  0.2499793  )
       181           Al  tau( 181) = (  0.6250686  0.8750700  0.2500027  )
       182           Al  tau( 182) = (  0.6249940  0.7500194  0.3750060  )
       183           Al  tau( 183) = (  0.5000000  0.8750067  0.3750033  )
       184           Al  tau( 184) = (  0.5000000  0.7499465  0.5000000  )
       185           Al  tau( 185) = (  0.6249967  0.8750067  0.5000000  )
       186           Al  tau( 186) = (  0.6249940  0.7500194  0.6249940  )
       187           Al  tau( 187) = (  0.5000000  0.8750067  0.6249967  )
       188           Al  tau( 188) = (  0.5000000  0.7500162  0.7500207  )
       189           Al  tau( 189) = (  0.6250686  0.8750700  0.7499973  )
       190           Al  tau( 190) = (  0.6250887  0.7499971  0.8750896  )
       191           Al  tau( 191) = (  0.5000000  0.8749602  0.8749658  )
       192           Al  tau( 192) = (  0.7505528  0.0003041  0.0000000  )
       193           Al  tau( 193) = (  0.8779185  0.1235963  0.0000000  )
       194           Al  tau( 194) = (  0.8773540  0.0003176  0.1226460  )
       195           Al  tau( 195) = (  0.7503697  0.1249527  0.1248534  )
       196           Al  tau( 196) = (  0.7508144  0.9999360  0.2491856  )
       197           Al  tau( 197) = (  0.8751466  0.1249527  0.2496303  )
       198           Al  tau( 198) = (  0.8750607  0.0000285  0.3749922  )
       199           Al  tau( 199) = (  0.7500254  0.1249446  0.3748742  )
       200           Al  tau( 200) = (  0.7499833  0.0000144  0.5000000  )
       201           Al  tau( 201) = (  0.8749668  0.1250490  0.5000000  )
       202           Al  tau( 202) = (  0.8750607  0.0000285  0.6250078  )
       203           Al  tau( 203) = (  0.7500254  0.1249446  0.6251258  )
       204           Al  tau( 204) = (  0.7508144  0.9999360  0.7508144  )
       205           Al  tau( 205) = (  0.8751466  0.1249527  0.7503697  )
       206           Al  tau( 206) = (  0.8773540  0.0003176  0.8773540  )
       207           Al  tau( 207) = (  0.7503697  0.1249527  0.8751466  )
       208           Al  tau( 208) = (  0.7512881  0.2491103  0.0000000  )
       209           Al  tau( 209) = (  0.8757580  0.3743558  0.0000000  )
       210           Al  tau( 210) = (  0.8759239  0.2497669  0.1240762  )
       211           Al  tau( 211) = (  0.7502327  0.3748373  0.1248462  )
       212           Al  tau( 212) = (  0.7501437  0.2501632  0.2498563  )
       213           Al  tau( 213) = (  0.8751538  0.3748373  0.2497673  )
       214           Al  tau( 214) = (  0.8751330  0.2500048  0.3747828  )
       215           Al  tau( 215) = (  0.7500531  0.3749909  0.3749821  )
       216           Al  tau( 216) = (  0.7500635  0.2499830  0.5000000  )
       217           Al  tau( 217) = (  0.8749949  0.3750132  0.5000000  )
       218           Al  tau( 218) = (  0.8751330  0.2500048  0.6252172  )
       219           Al  tau( 219) = (  0.7500531  0.3749909  0.6250179  )
       220           Al  tau( 220) = (  0.7501437  0.2501632  0.7501437  )
       221           Al  tau( 221) = (  0.8751538  0.3748373  0.7502327  )
       222           Al  tau( 222) = (  0.8759239  0.2497669  0.8759239  )
       223           Al  tau( 223) = (  0.7502327  0.3748373  0.8751538  )
       224           Al  tau( 224) = (  0.7502503  0.4997100  0.0000000  )
       225           Al  tau( 225) = (  0.8750561  0.6248434  0.0000000  )
       226           Al  tau( 226) = (  0.8750415  0.4997478  0.1249585  )
       227           Al  tau( 227) = (  0.7500253  0.6250448  0.1248955  )
       228           Al  tau( 228) = (  0.7499766  0.5000471  0.2500234  )
       229           Al  tau( 229) = (  0.8751045  0.6250448  0.2499747  )
       230           Al  tau( 230) = (  0.8750203  0.4999643  0.3749773  )
       231           Al  tau( 231) = (  0.7500247  0.6249871  0.3750335  )
       232           Al  tau( 232) = (  0.7499546  0.4999880  0.5000000  )
       233           Al  tau( 233) = (  0.8749969  0.6249808  0.5000000  )
       234           Al  tau( 234) = (  0.8750203  0.4999643  0.6250227  )
       235           Al  tau( 235) = (  0.7500247  0.6249871  0.6249666  )
       236           Al  tau( 236) = (  0.7499766  0.5000471  0.7499766  )
       237           Al  tau( 237) = (  0.8751045  0.6250448  0.7500253  )
       238           Al  tau( 238) = (  0.8750415  0.4997478  0.8750415  )
       239           Al  tau( 239) = (  0.7500253  0.6250448  0.8751045  )
       240           Al  tau( 240) = (  0.7508892  0.7508531  0.0000000  )
       241           Al  tau( 241) = (  0.8771970  0.8772421  0.0000000  )
       242           Al  tau( 242) = (  0.8751091  0.7501592  0.1248909  )
       243           Al  tau( 243) = (  0.7501950  0.8751484  0.1248772  )
       244           Al  tau( 244) = (  0.7498588  0.7498465  0.2501412  )
       245           Al  tau( 245) = (  0.8751228  0.8751484  0.2498050  )
       246           Al  tau( 246) = (  0.8750896  0.7499971  0.3749114  )
       247           Al  tau( 247) = (  0.7499973  0.8750700  0.3749315  )
       248           Al  tau( 248) = (  0.7500207  0.7500162  0.5000000  )
       249           Al  tau( 249) = (  0.8749658  0.8749602  0.5000000  )
       250           Al  tau( 250) = (  0.8750896  0.7499971  0.6250887  )
       251           Al  tau( 251) = (  0.7499973  0.8750700  0.6250686  )
       252           Al  tau( 252) = (  0.7498588  0.7498465  0.7498588  )
       253           Al  tau( 253) = (  0.8751228  0.8751484  0.7501950  )
       254           Al  tau( 254) = (  0.8751091  0.7501592  0.8751091  )
       255           Al  tau( 255) = (  0.7501950  0.8751484  0.8751228  )

     number of k points=    63  Methfessel-Paxton smearing, width (Ry)=  0.0441
                       cart. coord. in units 2pi/alat
        k(    1) = (   0.0000000   0.0000000   0.0000000), wk =   0.0160000
        k(    2) = (   0.0000000   0.0000000   0.2000000), wk =   0.0320000
        k(    3) = (   0.0000000   0.0000000   0.4000000), wk =   0.0320000
        k(    4) = (   0.0000000   0.2000000   0.0000000), wk =   0.0320000
        k(    5) = (   0.0000000   0.2000000   0.2000000), wk =   0.0320000
        k(    6) = (   0.0000000   0.2000000   0.4000000), wk =   0.0320000
        k(    7) = (   0.0000000   0.2000000  -0.4000000), wk =   0.0320000
        k(    8) = (   0.0000000   0.2000000  -0.2000000), wk =   0.0320000
        k(    9) = (   0.0000000   0.4000000   0.0000000), wk =   0.0320000
        k(   10) = (   0.0000000   0.4000000   0.2000000), wk =   0.0320000
        k(   11) = (   0.0000000   0.4000000   0.4000000), wk =   0.0320000
        k(   12) = (   0.0000000   0.4000000  -0.4000000), wk =   0.0320000
        k(   13) = (   0.0000000   0.4000000  -0.2000000), wk =   0.0320000
        k(   14) = (   0.2000000   0.0000000   0.0000000), wk =   0.0320000
        k(   15) = (   0.2000000   0.0000000   0.2000000), wk =   0.0320000
        k(   16) = (   0.2000000   0.0000000   0.4000000), wk =   0.0320000
        k(   17) = (   0.2000000   0.0000000  -0.4000000), wk =   0.0320000
        k(   18) = (   0.2000000   0.0000000  -0.2000000), wk =   0.0320000
        k(   19) = (   0.2000000   0.2000000   0.0000000), wk =   0.0320000
        k(   20) = (   0.2000000   0.2000000   0.2000000), wk =   0.0320000
        k(   21) = (   0.2000000   0.2000000   0.4000000), wk =   0.0320000
        k(   22) = (   0.2000000   0.2000000  -0.4000000), wk =   0.0320000
        k(   23) = (   0.2000000   0.2000000  -0.2000000), wk =   0.0320000
        k(   24) = (   0.2000000   0.4000000   0.0000000), wk =   0.0320000
        k(   25) = (   0.2000000   0.4000000   0.2000000), wk =   0.0320000
        k(   26) = (   0.2000000   0.4000000   0.4000000), wk =   0.0320000
        k(   27) = (   0.2000000   0.4000000  -0.4000000), wk =   0.0320000
        k(   28) = (   0.2000000   0.4000000  -0.2000000), wk =   0.0320000
        k(   29) = (   0.2000000  -0.4000000   0.0000000), wk =   0.0320000
        k(   30) = (   0.2000000  -0.4000000   0.2000000), wk =   0.0320000
        k(   31) = (   0.2000000  -0.4000000   0.4000000), wk =   0.0320000
        k(   32) = (   0.2000000  -0.4000000  -0.4000000), wk =   0.0320000
        k(   33) = (   0.2000000  -0.4000000  -0.2000000), wk =   0.0320000
        k(   34) = (   0.2000000  -0.2000000   0.0000000), wk =   0.0320000
        k(   35) = (   0.2000000  -0.2000000   0.2000000), wk =   0.0320000
        k(   36) = (   0.2000000  -0.2000000   0.4000000), wk =   0.0320000
        k(   37) = (   0.2000000  -0.2000000  -0.4000000), wk =   0.0320000
        k(   38) = (   0.2000000  -0.2000000  -0.2000000), wk =   0.0320000
        k(   39) = (   0.4000000   0.0000000   0.0000000), wk =   0.0320000
        k(   40) = (   0.4000000   0.0000000   0.2000000), wk =   0.0320000
        k(   41) = (   0.4000000   0.0000000   0.4000000), wk =   0.0320000
        k(   42) = (   0.4000000   0.0000000  -0.4000000), wk =   0.0320000
        k(   43) = (   0.4000000   0.0000000  -0.2000000), wk =   0.0320000
        k(   44) = (   0.4000000   0.2000000   0.0000000), wk =   0.0320000
        k(   45) = (   0.4000000   0.2000000   0.2000000), wk =   0.0320000
        k(   46) = (   0.4000000   0.2000000   0.4000000), wk =   0.0320000
        k(   47) = (   0.4000000   0.2000000  -0.4000000), wk =   0.0320000
        k(   48) = (   0.4000000   0.2000000  -0.2000000), wk =   0.0320000
        k(   49) = (   0.4000000   0.4000000   0.0000000), wk =   0.0320000
        k(   50) = (   0.4000000   0.4000000   0.2000000), wk =   0.0320000
        k(   51) = (   0.4000000   0.4000000   0.4000000), wk =   0.0320000
        k(   52) = (   0.4000000   0.4000000  -0.4000000), wk =   0.0320000
        k(   53) = (   0.4000000   0.4000000  -0.2000000), wk =   0.0320000
        k(   54) = (   0.4000000  -0.4000000   0.0000000), wk =   0.0320000
        k(   55) = (   0.4000000  -0.4000000   0.2000000), wk =   0.0320000
        k(   56) = (   0.4000000  -0.4000000   0.4000000), wk =   0.0320000
        k(   57) = (   0.4000000  -0.4000000  -0.4000000), wk =   0.0320000
        k(   58) = (   0.4000000  -0.4000000  -0.2000000), wk =   0.0320000
        k(   59) = (   0.4000000  -0.2000000   0.0000000), wk =   0.0320000
        k(   60) = (   0.4000000  -0.2000000   0.2000000), wk =   0.0320000
        k(   61) = (   0.4000000  -0.2000000   0.4000000), wk =   0.0320000
        k(   62) = (   0.4000000  -0.2000000  -0.4000000), wk =   0.0320000
        k(   63) = (   0.4000000  -0.2000000  -0.2000000), wk =   0.0320000

                       cryst. coord.
        k(    1) = (   0.0000000   0.0000000   0.0000000), wk =   0.0160000
        k(    2) = (   0.0000000   0.0000000   0.2000000), wk =   0.0320000
        k(    3) = (   0.0000000   0.0000000   0.4000000), wk =   0.0320000
        k(    4) = (   0.0000000   0.2000000   0.0000000), wk =   0.0320000
        k(    5) = (   0.0000000   0.2000000   0.2000000), wk =   0.0320000
        k(    6) = (   0.0000000   0.2000000   0.4000000), wk =   0.0320000
        k(    7) = (   0.0000000   0.2000000  -0.4000000), wk =   0.0320000
        k(    8) = (   0.0000000   0.2000000  -0.2000000), wk =   0.0320000
        k(    9) = (   0.0000000   0.4000000   0.0000000), wk =   0.0320000
        k(   10) = (   0.0000000   0.4000000   0.2000000), wk =   0.0320000
        k(   11) = (   0.0000000   0.4000000   0.4000000), wk =   0.0320000
        k(   12) = (   0.0000000   0.4000000  -0.4000000), wk =   0.0320000
        k(   13) = (   0.0000000   0.4000000  -0.2000000), wk =   0.0320000
        k(   14) = (   0.2000000   0.0000000   0.0000000), wk =   0.0320000
        k(   15) = (   0.2000000   0.0000000   0.2000000), wk =   0.0320000
        k(   16) = (   0.2000000   0.0000000   0.4000000), wk =   0.0320000
        k(   17) = (   0.2000000   0.0000000  -0.4000000), wk =   0.0320000
        k(   18) = (   0.2000000   0.0000000  -0.2000000), wk =   0.0320000
        k(   19) = (   0.2000000   0.2000000   0.0000000), wk =   0.0320000
        k(   20) = (   0.2000000   0.2000000   0.2000000), wk =   0.0320000
        k(   21) = (   0.2000000   0.2000000   0.4000000), wk =   0.0320000
        k(   22) = (   0.2000000   0.2000000  -0.4000000), wk =   0.0320000
        k(   23) = (   0.2000000   0.2000000  -0.2000000), wk =   0.0320000
        k(   24) = (   0.2000000   0.4000000   0.0000000), wk =   0.0320000
        k(   25) = (   0.2000000   0.4000000   0.2000000), wk =   0.0320000
        k(   26) = (   0.2000000   0.4000000   0.4000000), wk =   0.0320000
        k(   27) = (   0.2000000   0.4000000  -0.4000000), wk =   0.0320000
        k(   28) = (   0.2000000   0.4000000  -0.2000000), wk =   0.0320000
        k(   29) = (   0.2000000  -0.4000000   0.0000000), wk =   0.0320000
        k(   30) = (   0.2000000  -0.4000000   0.2000000), wk =   0.0320000
        k(   31) = (   0.2000000  -0.4000000   0.4000000), wk =   0.0320000
        k(   32) = (   0.2000000  -0.4000000  -0.4000000), wk =   0.0320000
        k(   33) = (   0.2000000  -0.4000000  -0.2000000), wk =   0.0320000
        k(   34) = (   0.2000000  -0.2000000   0.0000000), wk =   0.0320000
        k(   35) = (   0.2000000  -0.2000000   0.2000000), wk =   0.0320000
        k(   36) = (   0.2000000  -0.2000000   0.4000000), wk =   0.0320000
        k(   37) = (   0.2000000  -0.2000000  -0.4000000), wk =   0.0320000
        k(   38) = (   0.2000000  -0.2000000  -0.2000000), wk =   0.0320000
        k(   39) = (   0.4000000   0.0000000   0.0000000), wk =   0.0320000
        k(   40) = (   0.4000000   0.0000000   0.2000000), wk =   0.0320000
        k(   41) = (   0.4000000   0.0000000   0.4000000), wk =   0.0320000
        k(   42) = (   0.4000000   0.0000000  -0.4000000), wk =   0.0320000
        k(   43) = (   0.4000000   0.0000000  -0.2000000), wk =   0.0320000
        k(   44) = (   0.4000000   0.2000000   0.0000000), wk =   0.0320000
        k(   45) = (   0.4000000   0.2000000   0.2000000), wk =   0.0320000
        k(   46) = (   0.4000000   0.2000000   0.4000000), wk =   0.0320000
        k(   47) = (   0.4000000   0.2000000  -0.4000000), wk =   0.0320000
        k(   48) = (   0.4000000   0.2000000  -0.2000000), wk =   0.0320000
        k(   49) = (   0.4000000   0.4000000   0.0000000), wk =   0.0320000
        k(   50) = (   0.4000000   0.4000000   0.2000000), wk =   0.0320000
        k(   51) = (   0.4000000   0.4000000   0.4000000), wk =   0.0320000
        k(   52) = (   0.4000000   0.4000000  -0.4000000), wk =   0.0320000
        k(   53) = (   0.4000000   0.4000000  -0.2000000), wk =   0.0320000
        k(   54) = (   0.4000000  -0.4000000   0.0000000), wk =   0.0320000
        k(   55) = (   0.4000000  -0.4000000   0.2000000), wk =   0.0320000
        k(   56) = (   0.4000000  -0.4000000   0.4000000), wk =   0.0320000
        k(   57) = (   0.4000000  -0.4000000  -0.4000000), wk =   0.0320000
        k(   58) = (   0.4000000  -0.4000000  -0.2000000), wk =   0.0320000
        k(   59) = (   0.4000000  -0.2000000   0.0000000), wk =   0.0320000
        k(   60) = (   0.4000000  -0.2000000   0.2000000), wk =   0.0320000
        k(   61) = (   0.4000000  -0.2000000   0.4000000), wk =   0.0320000
        k(   62) = (   0.4000000  -0.2000000  -0.4000000), wk =   0.0320000
        k(   63) = (   0.4000000  -0.2000000  -0.2000000), wk =   0.0320000

     Dense  grid:  3895379 G-vectors     FFT dimensions: ( 200, 200, 200)

     Smooth grid:   985619 G-vectors     FFT dimensions: ( 125, 125, 125)

     Dynamical RAM for                 wfc:      96.08 MB

     Dynamical RAM for     wfc (w. buffer):    1633.42 MB

     Dynamical RAM for           str. fact:      13.21 MB

     Dynamical RAM for           local pot:       0.00 MB

     Dynamical RAM for          nlocal pot:     958.75 MB

     Dynamical RAM for                qrad:      15.65 MB

     Dynamical RAM for          rho,v,vnew:      40.87 MB

     Dynamical RAM for               rhoin:      13.62 MB

     Dynamical RAM for            rho*nmix:     105.67 MB

     Dynamical RAM for           G-vectors:      25.60 MB

     Dynamical RAM for          h,s,v(r/c):      38.75 MB

     Dynamical RAM for          <psi|beta>:      32.22 MB

     Dynamical RAM for                 psi:     384.33 MB

     Dynamical RAM for                hpsi:     384.33 MB

     Dynamical RAM for                spsi:     384.33 MB

     Dynamical RAM for      wfcinit/wfcrot:     449.93 MB

     Dynamical RAM for           addusdens:     731.43 MB

     Dynamical RAM for          addusforce:    1571.17 MB

     Dynamical RAM for         addusstress:     334.34 MB

     Estimated static dynamical RAM per process >       2.79 GB

     Estimated max dynamical RAM per process >       4.33 GB

     Estimated total dynamical RAM >     155.84 GB

     Initial potential from superposition of free atoms

     starting charge  765.41773, renormalised to  766.00000
     Starting wfcs are 1020 randomized atomic wfcs
