begin
comment uuid: d211866b-737d-4d8b-bb76-5bfdc6d8e3de
lattice 27.1086736294 0.0000000000 0.0000000000
lattice 13.5543358147 23.4767996790 0.0000000000
lattice 13.5543358147 7.8255998930 22.1341396974
atom   32.509294    3.210878   8.957244 Mg  0.0   0.0  -0.0000119150  0.0013016850  -0.0010389050
atom   21.727670    27.372498   14.104952 Mg  0.0   0.0  -0.0017330149  0.0025115999  -0.0011750300
atom   19.406105    20.676334   17.462319 Mg  0.0   0.0  0.0022198899  -0.0002654500  -0.0021492949
atom   27.179791    27.742662   12.739621 Mg  0.0   0.0  -0.0007561550  -0.0001460550  -0.0002509600
atom   21.806141    21.951856   9.470155 Mg  0.0   0.0  -0.0002769550  -0.0004482550  0.0006790700
atom   26.189104    24.673182   17.269035 Mg  0.0   0.0  0.0028378099  0.0006180800  0.0023209599
atom   32.579996    28.125999   13.221027 Mg  0.0   0.0  0.0002376150  0.0002968850  -0.0006431150
atom   26.626247    19.232986   13.477170 Mg  0.0   0.0  -0.0005137300  -0.0013766799  0.0008200150
atom   27.223847    22.595759   9.101390 Mg  0.0   0.0  0.0003031750  0.0001926400  -0.0013391700
atom   32.583153    22.105697   8.819902 Mg  0.0   0.0  -0.0005229250  0.0002711350  -0.0000210900
atom   37.956443    25.074983   17.731485 Mg  0.0   0.0  -0.0005680100  -0.0002032550  0.0001803150
atom   37.900935    24.996190   4.364536 Mg  0.0   0.0  -0.0007348700  0.0007448650  0.0001518750
atom   11.146684    6.373959   17.714154 Si  0.0   0.0  -0.0006537150  -0.0016717099  0.0001106050
atom   45.483720    23.531468   13.217814 Si  0.0   0.0  -0.0019755149  0.0013042050  0.0003149900
atom   10.576640    3.429922   8.548015 Si  0.0   0.0  -0.0023191799  0.0001874250  0.0001592100
atom   21.446863    18.051641   13.100789 Si  0.0   0.0  -0.0001415000  0.0017063899  0.0002852500
atom   24.540508    19.947384   18.311413 Si  0.0   0.0  0.0006854450  -0.0011561450  0.0013224400
atom   16.722124    3.583744   8.150163 Si  0.0   0.0  0.0001032750  -0.0024461449  -0.0001329750
atom   16.210536    6.432093   4.273516 Si  0.0   0.0  0.0006636250  -0.0011802950  0.0028206099
atom   21.816347    9.511715   13.256520 Si  0.0   0.0  -0.0019150949  0.0003587250  -0.0007180650
atom   30.100904    23.236071   13.717892 Si  0.0   0.0  -0.0002724750  0.0000072100  -0.0000605250
atom   19.067427    1.481723   4.098319 Si  0.0   0.0  0.0007936800  -0.0020741499  -0.0002007750
atom   27.059233    12.498162   8.897616 Si  0.0   0.0  0.0004794950  0.0014071699  -0.0002915050
atom   32.332546    6.392896   17.823978 Si  0.0   0.0  -0.0001555800  -0.0007327500  0.0001284600
atom   13.597590    7.864899   22.096657 Al  0.0   0.0  0.0004995450  -0.0006521750  -0.0004831650
atom   2.768329    1.567495   4.379107 Al  0.0   0.0  -0.0001645200  -0.0005144550  0.0007542200
atom   16.280406    12.540965   22.098805 Al  0.0   0.0  -0.0004973750  0.0004910100  0.0000922650
atom   32.522826    6.324348   4.358129 Al  0.0   0.0  -0.0002475550  0.0003161150  -0.0000164850
atom   35.225310    7.933028   8.909409 Al  0.0   0.0  0.0003833050  -0.0011797250  0.0009461250
atom   10.844369    9.260750   13.336634 Al  0.0   0.0  -0.0005153750  -0.0000884250  -0.0010805550
atom   40.684177    11.008303   17.701964 Al  0.0   0.0  0.0006917700  0.0000666550  -0.0002519550
atom   46.105057    17.273302   22.112627 Al  0.0   0.0  -0.0001855200  -0.0001204450  -0.0000377150
atom   35.235081    10.965287   4.452475 Al  0.0   0.0  -0.0001024250  -0.0000655250  0.0003131550
atom   37.941513    12.521333   8.859402 Al  0.0   0.0  0.0001456250  -0.0006947350  -0.0006145600
atom   40.632090    14.044625   13.283508 Al  0.0   0.0  -0.0001176000  -0.0005600350  0.0004906850
atom   16.307338    15.679972   17.718085 Al  0.0   0.0  0.0006078650  0.0001758100  -0.0010454350
atom   8.209999    14.146947   0.082302 Al  0.0   0.0  -0.0001334200  0.0009729200  -0.0001528800
atom   10.861114    15.598176   4.447882 Al  0.0   0.0  -0.0000394400  0.0000392200  0.0001669550
atom   13.570741    17.170134   8.886239 Al  0.0   0.0  -0.0005335850  0.0011523350  0.0001585000
atom   16.257236    18.714594   13.273548 Al  0.0   0.0  0.0004524050  -0.0009715800  -0.0000047100
atom   51.487269    26.670468   22.077076 Al  0.0   0.0  -0.0004967750  -0.0007812550  0.0000478700
atom   13.557606    20.272265   4.377066 Al  0.0   0.0  0.0009929050  -0.0002180250  0.0002409700
atom   16.220893    21.867375   8.806445 Al  0.0   0.0  -0.0013082050  -0.0013027350  -0.0008998000
atom   18.966768    7.828972   22.110599 Al  0.0   0.0  -0.0008840050  -0.0008441750  0.0000810000
atom   21.713288    25.019519   4.398498 Al  0.0   0.0  -0.0000121450  -0.0005291250  0.0004598800
atom   29.737297    29.705952   17.650860 Al  0.0   0.0  0.0006065550  -0.0002291950  0.0009726350
atom   21.681348    12.515621   22.126355 Al  0.0   0.0  0.0006144700  -0.0007259450  0.0000589100
atom   10.829590    6.272998   4.399556 Al  0.0   0.0  -0.0002931250  -0.0001902150  0.0008867900
atom   13.561159    7.880885   8.728769 Al  0.0   0.0  0.0002493500  -0.0003385100  0.0011551500
atom   16.213956    9.366889   13.250283 Al  0.0   0.0  -0.0003915400  -0.0016168249  -0.0005012350
atom   18.985593    10.941323   17.683083 Al  0.0   0.0  -0.0012561550  -0.0008494400  -0.0005003800
atom   10.855614    9.286377   0.162395 Al  0.0   0.0  0.0008476750  0.0009273100  -0.0004146950
atom   13.564429    10.944876   4.426318 Al  0.0   0.0  -0.0003192850  0.0002125100  0.0000234100
atom   16.259599    12.543804   8.838971 Al  0.0   0.0  0.0004243050  -0.0007823750  0.0005334900
atom   18.899166    13.878953   13.275079 Al  0.0   0.0  -0.0005137050  -0.0011926000  0.0002045900
atom   21.700115    15.613314   17.716233 Al  0.0   0.0  -0.0008790400  0.0001249050  -0.0005390850
atom   13.617593    14.079476   0.063040 Al  0.0   0.0  -0.0005539450  0.0003251250  -0.0004485200
atom   16.283317    15.619929   4.438432 Al  0.0   0.0  0.0000077150  0.0010770700  -0.0012070500
atom   18.964804    17.149458   8.813722 Al  0.0   0.0  0.0002101200  0.0003659950  0.0000522350
atom   29.728547    26.575196   22.090277 Al  0.0   0.0  0.0010628850  0.0003934550  -0.0001469900
atom   19.020368    20.358635   4.488780 Al  0.0   0.0  -0.0007288900  0.0001573550  0.0001762500
atom   10.868352    0.029832   0.024448 Al  0.0   0.0  0.0002290500  0.0009539250  0.0003643700
atom   13.676030    1.732120   4.370697 Al  0.0   0.0  0.0002212900  -0.0010668300  0.0008142950
atom   21.682350    6.352262   17.748986 Al  0.0   0.0  0.0006104500  -0.0001118050  -0.0008102450
atom   13.563692    4.701796   0.001462 Al  0.0   0.0  -0.0004471850  -0.0004864500  -0.0008048950
atom   19.026227    8.001160   8.806729 Al  0.0   0.0  0.0009806450  0.0000831400  0.0012057550
atom   24.390825    11.002141   17.712359 Al  0.0   0.0  0.0005246800  -0.0003307800  0.0012145950
atom   16.308038    9.332019   0.061347 Al  0.0   0.0  -0.0004147350  0.0015169049  -0.0016050599
atom   18.962536    10.947257   4.425902 Al  0.0   0.0  0.0006874650  0.0004874000  0.0003224550
atom   21.734323    12.530159   8.828917 Al  0.0   0.0  0.0002310900  0.0001340800  -0.0001228450
atom   24.419552    14.047063   13.264779 Al  0.0   0.0  0.0006192150  -0.0009425500  0.0000934000
atom   27.159400    15.597080   17.749666 Al  0.0   0.0  0.0005225500  -0.0001158250  -0.0014059099
atom   19.012997    14.083917   0.045633 Al  0.0   0.0  -0.0006432750  0.0008936800  -0.0011471200
atom   21.705974    15.627111   4.449281 Al  0.0   0.0  0.0001152250  0.0009636000  0.0004257650
atom   24.472281    17.150460   8.801891 Al  0.0   0.0  -0.0001152850  0.0010027600  0.0002772150
atom   29.908508    20.264327   17.876027 Al  0.0   0.0  0.0000326150  0.0004054650  -0.0006682450
atom   21.672900    18.815026   0.094711 Al  0.0   0.0  0.0002337050  -0.0000615650  0.0009624100
atom   24.441664    20.393032   4.524897 Al  0.0   0.0  -0.0004755100  0.0009312450  -0.0007831150
atom   32.405876    25.052871   17.839967 Al  0.0   0.0  0.0000759450  -0.0004176100  0.0005063050
atom   16.266761    0.025114   0.026381 Al  0.0   0.0  0.0000143650  -0.0005270400  0.0001074800
atom   21.790077    3.290633   8.801588 Al  0.0   0.0  0.0001672200  0.0003271650  -0.0003766150
atom   24.430513    4.804230   13.272490 Al  0.0   0.0  0.0005619150  -0.0001839750  -0.0007522500
atom   27.111206    6.353850   17.737306 Al  0.0   0.0  0.0002352200  -0.0008394900  -0.0003904100
atom   18.968206    4.673598   0.052718 Al  0.0   0.0  0.0000566550  -0.0005902900  -0.0005735950
atom   21.616580    6.318338   4.374269 Al  0.0   0.0  0.0002233950  -0.0011529600  0.0000533050
atom   24.405188    7.924429   8.836363 Al  0.0   0.0  -0.0001518100  0.0000318000  0.0001808500
atom   27.088338    9.478811   13.267935 Al  0.0   0.0  0.0013682799  -0.0006239150  0.0000286700
atom   29.842549    10.946823   17.719200 Al  0.0   0.0  -0.0000638300  0.0011734250  -0.0009670250
atom   21.672333    9.376924   0.009823 Al  0.0   0.0  0.0002211700  -0.0000159950  0.0003675800
atom   24.400652    10.962887   4.433405 Al  0.0   0.0  0.0005334200  0.0001622350  0.0001539950
atom   29.765817    14.123190   13.273038 Al  0.0   0.0  0.0001294650  -0.0001056050  0.0007178250
atom   32.556127    15.596702   17.718747 Al  0.0   0.0  -0.0005935700  0.0000940850  -0.0011379700
atom   24.413126    14.052998   0.047353 Al  0.0   0.0  0.0006791850  0.0000237200  0.0002342700
atom   27.126515    15.601162   4.428170 Al  0.0   0.0  0.0003752850  0.0005697800  0.0002775800
atom   29.738602    17.249304   8.881325 Al  0.0   0.0  0.0004716700  -0.0000089850  0.0005036600
atom   32.493758    18.685905   13.313672 Al  0.0   0.0  0.0003904050  -0.0005274150  0.0001447150
atom   35.295218    20.259980   17.756224 Al  0.0   0.0  -0.0004547200  0.0003503150  -0.0001781550
atom   27.145036    18.804196   0.049196 Al  0.0   0.0  0.0003231500  0.0004672450  0.0013655449
atom   29.817035    20.344272   4.379447 Al  0.0   0.0  0.0004085850  0.0010139750  0.0002898200
atom   35.293328    23.388967   13.326353 Al  0.0   0.0  -0.0008250850  -0.0005764000  0.0005876400
atom   35.249916    7.762819   21.912866 Al  0.0   0.0  0.0003450250  0.0000532150  -0.0008179450
atom   27.072840    3.188444   8.834587 Al  0.0   0.0  0.0007582550  0.0005570200  0.0004597850
atom   29.687574    4.823054   13.284207 Al  0.0   0.0  -0.0001473850  -0.0004102550  0.0007086450
atom   37.940813    12.542723   22.065886 Al  0.0   0.0  0.0004912100  -0.0002903550  -0.0001829100
atom   27.108938    6.308964   4.399235 Al  0.0   0.0  -0.0003728550  0.0004771700  0.0001975250
atom   29.779425    7.964609   8.821017 Al  0.0   0.0  0.0002644650  -0.0006725150  0.0007213600
atom   32.555749    9.278250   13.302219 Al  0.0   0.0  -0.0004233600  -0.0002477200  -0.0000602550
atom   35.242111    10.881714   17.684142 Al  0.0   0.0  -0.0000381800  -0.0000076300  0.0004378200
atom   27.107804    9.384692   0.011069 Al  0.0   0.0  0.0011720100  0.0006927050  -0.0011848000
atom   29.798702    10.986776   4.414714 Al  0.0   0.0  -0.0002844200  0.0001192350  0.0000421050
atom   32.476182    12.558376   8.872650 Al  0.0   0.0  -0.0009216200  0.0003327900  0.0003905650
atom   35.240788    14.012099   13.279898 Al  0.0   0.0  -0.0000868600  -0.0000709450  0.0004751250
atom   37.953231    15.611065   17.708749 Al  0.0   0.0  0.0002482600  0.0002597550  -0.0002104700
atom   43.432226    21.934691   22.066161 Al  0.0   0.0  0.0006950350  0.0008413050  -0.0006051400
atom   32.494325    15.620118   4.448128 Al  0.0   0.0  -0.0004457400  0.0015151799  -0.0003424850
atom   35.232661    17.191566   8.853694 Al  0.0   0.0  0.0004184800  0.0004183850  0.0007356900
atom   37.940757    18.714651   13.307926 Al  0.0   0.0  -0.0000822250  0.0003108100  -0.0011051200
atom   40.752044    20.304394   17.726476 Al  0.0   0.0  -0.0002144950  0.0003880250  -0.0003385450
atom   46.164703    26.572493   21.982984 Al  0.0   0.0  -0.0000651500  -0.0004549100  -0.0004395650
atom   35.214518    20.232954   4.338681 Al  0.0   0.0  -0.0002335200  0.0007070400  0.0004265950
atom   38.001991    21.829009   8.867018 Al  0.0   0.0  0.0012374450  -0.0000664050  0.0003184950
atom   40.606141    23.454737   13.269012 Al  0.0   0.0  -0.0016352799  0.0005416700  -0.0009686050
atom   43.508146    25.227502   17.663163 Al  0.0   0.0  -0.0011336450  0.0005485900  0.0011238300
energy -2225.420588918845169
charge 0
end
begin
comment uuid: a50387e4-0677-4da6-aafc-9f8af82abcfe
lattice 27.1086736294 0.0000000000 0.0000000000
lattice 13.5543358147 23.4767996790 0.0000000000
lattice 13.5543358147 7.8255998930 22.1341396974
atom   19.457151    26.476741   9.062154 Mg  0.0   0.0  0.0014454349  -0.0008502700  0.0018015649
atom   16.323724    18.782292   13.282431 Mg  0.0   0.0  -0.0007509100  -0.0005453700  0.0005876750
atom   22.025752    24.959697   17.262193 Mg  0.0   0.0  -0.0010372150  -0.0001688250  0.0008603450
atom   26.468965    27.106508   13.123940 Mg  0.0   0.0  0.0019966999  0.0022688099  0.0013998949
atom   13.522548    7.582160   8.915986 Mg  0.0   0.0  -0.0008025700  -0.0001221200  -0.0001246350
atom   21.947887    19.464126   13.155994 Mg  0.0   0.0  -0.0002256600  0.0011788700  0.0001314250
atom   32.275224    28.023394   13.164480 Mg  0.0   0.0  0.0002489050  0.0000382400  -0.0000249500
atom   26.566714    22.544730   9.400227 Mg  0.0   0.0  0.0025749649  -0.0027980999  -0.0023082199
atom   19.027928    1.608546   4.384909 Mg  0.0   0.0  0.0006538850  0.0004806100  -0.0010024650
atom   37.942458    25.058919   17.692987 Mg  0.0   0.0  -0.0002011400  -0.0000051200  0.0004455650
atom   27.084747    6.213219   4.443535 Mg  0.0   0.0  -0.0000996350  -0.0004738050  -0.0001097150
atom   35.264034    20.323293   4.408193 Mg  0.0   0.0  0.0004387200  0.0007992450  -0.0009210500
atom   35.086909    5.157442   13.398662 Si  0.0   0.0  0.0002526600  0.0030424549  0.0006585300
atom   21.662146    21.797878   22.101920 Si  0.0   0.0  0.0005197650  0.0010248500  0.0004550000
atom   24.486209    26.777363   22.103963 Si  0.0   0.0  -0.0016603299  -0.0013320100  -0.0011824400
atom   45.660789    23.548856   13.509753 Si  0.0   0.0  -0.0023086149  -0.0002197900  -0.0005736000
atom   21.540226    21.668364   8.346472 Si  0.0   0.0  -0.0011512200  -0.0009975450  -0.0032499299
atom   27.239533    24.872571   17.919609 Si  0.0   0.0  0.0002815850  -0.0006751500  0.0004756350
atom   16.384524    3.262416   8.526507 Si  0.0   0.0  -0.0016599799  -0.0017701699  0.0002806400
atom   21.613178    12.530423   8.824513 Si  0.0   0.0  -0.0000936000  0.0000397000  0.0003668550
atom   29.947630    23.065220   13.596955 Si  0.0   0.0  -0.0000939500  0.0008872450  0.0005268750
atom   27.212885    12.555465   8.904231 Si  0.0   0.0  0.0003573900  0.0001025300  -0.0002396500
atom   32.529478    15.659448   17.704496 Si  0.0   0.0  0.0004435700  0.0004406300  -0.0011896800
atom   38.014143    24.964038   4.389407 Si  0.0   0.0  0.0004732300  0.0009698650  0.0010289450
atom   27.119028    0.035923   0.062877 Al  0.0   0.0  -0.0004123800  -0.0003812050  -0.0002871900
atom   16.350844    24.998078   4.441267 Al  0.0   0.0  0.0000869800  -0.0004909400  -0.0001830750
atom   38.013728    6.343663   17.756470 Al  0.0   0.0  -0.0005131750  0.0000959150  0.0006285600
atom   16.304616    12.508496   22.108178 Al  0.0   0.0  -0.0003289850  -0.0001239200  -0.0000855250
atom   5.473855    6.237997   4.442363 Al  0.0   0.0  0.0007381650  0.0000281900  0.0006894700
atom   35.205352    7.967746   8.853335 Al  0.0   0.0  0.0000882350  -0.0000107200  -0.0004808400
atom   10.856691    9.355965   13.335576 Al  0.0   0.0  -0.0004961950  0.0005977700  0.0004776300
atom   40.672592    10.995262   17.730464 Al  0.0   0.0  -0.0003764100  -0.0006292900  -0.0000251350
atom   32.534355    9.366700   0.052129 Al  0.0   0.0  0.0002122900  0.0006882700  -0.0003642600
atom   35.234325    10.987627   4.380222 Al  0.0   0.0  -0.0003695550  -0.0002019450  -0.0000811900
atom   37.932461    12.526719   8.835758 Al  0.0   0.0  -0.0002454250  0.0008719800  -0.0002014250
atom   13.541769    14.051561   13.276402 Al  0.0   0.0  0.0006715850  -0.0000442150  -0.0002832500
atom   16.300950    15.646029   17.749269 Al  0.0   0.0  -0.0001848900  -0.0001086200  -0.0000257950
atom   10.827076    15.613560   4.336489 Al  0.0   0.0  0.0008480550  0.0005014950  -0.0005043200
atom   13.540672    17.210919   8.787527 Al  0.0   0.0  0.0002330250  0.0000643000  -0.0002483950
atom   19.048906    20.323671   17.872474 Al  0.0   0.0  -0.0003837450  0.0004269600  -0.0000626200
atom   13.614380    20.352776   4.428737 Al  0.0   0.0  0.0001463300  -0.0003395300  -0.0006398650
atom   16.320209    21.901772   8.828992 Al  0.0   0.0  0.0002498300  -0.0000182900  -0.0003623050
atom   18.964633    7.825682   22.112305 Al  0.0   0.0  -0.0001484450  -0.0005570150  -0.0000832550
atom   8.227349    1.546253   4.350342 Al  0.0   0.0  0.0003531650  0.0002425850  -0.0002701900
atom   29.716357    29.705252   17.706613 Al  0.0   0.0  0.0002788850  0.0001708750  -0.0005538900
atom   21.697374    12.541854   22.075666 Al  0.0   0.0  -0.0000529200  0.0003740900  0.0005115450
atom   10.774611    6.236314   4.401068 Al  0.0   0.0  -0.0003377450  -0.0008679200  0.0008021450
atom   16.246350    9.427140   13.332798 Al  0.0   0.0  -0.0000386150  0.0003784900  0.0001465500
atom   18.980301    10.964153   17.705933 Al  0.0   0.0  -0.0003137850  -0.0001875900  -0.0002387300
atom   10.841270    9.365150   0.022884 Al  0.0   0.0  0.0003336200  0.0002515650  -0.0006840850
atom   13.538216    10.956443   4.406625 Al  0.0   0.0  -0.0001326950  -0.0001201450  -0.0002339700
atom   16.267498    12.511940   8.843753 Al  0.0   0.0  0.0000380100  0.0003750000  0.0000622750
atom   19.063459    14.097487   13.258807 Al  0.0   0.0  -0.0001037300  -0.0005031900  -0.0006737800
atom   21.715424    15.670674   17.643130 Al  0.0   0.0  0.0002211600  -0.0000288750  0.0002396000
atom   13.480383    14.140634   0.041018 Al  0.0   0.0  -0.0006454500  -0.0005961350  0.0002626500
atom   16.267064    15.638639   4.410801 Al  0.0   0.0  -0.0004815000  0.0005832950  0.0004715350
atom   19.037566    17.152256   8.795503 Al  0.0   0.0  -0.0000103900  -0.0004225850  -0.0001670000
atom   24.567534    20.245806   17.858999 Al  0.0   0.0  -0.0000029750  0.0000468000  -0.0009827500
atom   29.731458    26.600805   22.110551 Al  0.0   0.0  0.0004663300  0.0000281550  0.0000210650
atom   18.948928    20.285684   4.302867 Al  0.0   0.0  0.0001125800  0.0001370000  0.0001582200
atom   24.379220    7.817907   22.099853 Al  0.0   0.0  0.0000221900  0.0000433800  -0.0005301100
atom   13.514553    1.644865   4.466838 Al  0.0   0.0  -0.0009529250  0.0003392050  -0.0010817300
atom   21.632645    6.316713   17.702493 Al  0.0   0.0  0.0003624400  -0.0002219350  0.0000641250
atom   27.111111    12.521102   22.111364 Al  0.0   0.0  0.0005326150  -0.0001641000  0.0002638650
atom   16.265401    6.338485   4.324185 Al  0.0   0.0  -0.0002272800  -0.0005549750  0.0006840500
atom   19.024526    7.907136   8.813949 Al  0.0   0.0  0.0009856350  0.0002880200  -0.0005399500
atom   21.679704    9.427820   13.261831 Al  0.0   0.0  -0.0001533800  0.0002577850  -0.0003132600
atom   24.405188    10.978290   17.693856 Al  0.0   0.0  0.0003476350  0.0002368800  -0.0003376250
atom   29.808170    17.259033   22.101822 Al  0.0   0.0  -0.0001791650  -0.0002204900  0.0008144000
atom   18.951385    10.997983   4.417737 Al  0.0   0.0  0.0000904700  -0.0004297400  0.0002625300
atom   24.389691    14.107277   13.203129 Al  0.0   0.0  -0.0004098850  -0.0007760650  -0.0003994300
atom   27.176409    15.603071   17.711565 Al  0.0   0.0  -0.0007370600  -0.0002618050  0.0000793100
atom   18.958945    14.095484   0.000550 Al  0.0   0.0  -0.0000245650  0.0000406250  0.0001353000
atom   21.693312    15.606303   4.423143 Al  0.0   0.0  0.0000139600  0.0002745100  0.0003225900
atom   24.462264    17.123377   8.830939 Al  0.0   0.0  0.0006723350  -0.0005280150  -0.0001774000
atom   27.265614    18.697793   13.358803 Al  0.0   0.0  -0.0006682200  0.0004221450  0.0003058500
atom   29.881104    20.266973   17.804814 Al  0.0   0.0  0.0005797600  0.0003216050  -0.0005799200
atom   21.673089    18.792762   0.052380 Al  0.0   0.0  -0.0004158100  -0.0002247000  0.0004622550
atom   24.435616    20.331042   4.448525 Al  0.0   0.0  0.0000740300  0.0002270850  -0.0001217550
atom   32.458606    25.006379   17.774141 Al  0.0   0.0  -0.0000550050  -0.0003851950  -0.0003853150
atom   43.334024    31.287062   22.130092 Al  0.0   0.0  0.0004898100  -0.0005436150  -0.0001171600
atom   21.810299    3.155880   8.798678 Al  0.0   0.0  0.0009997750  0.0009314300  -0.0000006600
atom   24.381942    4.761215   13.234767 Al  0.0   0.0  -0.0001464850  -0.0002358700  -0.0004261600
atom   27.144091    6.318414   17.678907 Al  0.0   0.0  0.0004518650  0.0003916800  -0.0005875050
atom   32.509123    12.597928   22.042454 Al  0.0   0.0  0.0002396100  -0.0001796850  0.0001029900
atom   21.664396    6.376643   4.404413 Al  0.0   0.0  -0.0001579600  0.0002490450  -0.0000104550
atom   24.397251    7.971980   8.896407 Al  0.0   0.0  -0.0000529600  0.0001551450  0.0000331900
atom   27.094008    9.467736   13.259978 Al  0.0   0.0  0.0003197500  -0.0000235350  0.0001192250
atom   29.842927    10.964853   17.702266 Al  0.0   0.0  -0.0002050450  -0.0002896650  -0.0000860650
atom   35.227047    17.238679   22.124270 Al  0.0   0.0  0.0001269100  -0.0002558950  0.0007353750
atom   24.382131    11.036633   4.512631 Al  0.0   0.0  0.0002987200  -0.0002191200  0.0002717150
atom   29.836879    14.101002   13.297985 Al  0.0   0.0  -0.0002690250  -0.0000919250  -0.0000360600
atom   24.380052    14.064810   0.049470 Al  0.0   0.0  0.0001077900  -0.0005485200  0.0004114450
atom   27.111962    15.628075   4.466271 Al  0.0   0.0  0.0002280050  0.0003941550  0.0007939950
atom   29.803427    17.281773   8.852692 Al  0.0   0.0  0.0001971750  0.0008742800  -0.0001063800
atom   32.615093    18.656346   13.320570 Al  0.0   0.0  0.0000447400  0.0002056450  0.0001197050
atom   35.220755    20.261870   17.743543 Al  0.0   0.0  -0.0001784200  -0.0000877550  -0.0003306450
atom   27.142201    18.781290   0.043756 Al  0.0   0.0  0.0007403550  0.0004923600  0.0005572000
atom   29.721593    20.353343   4.483904 Al  0.0   0.0  -0.0005039550  -0.0002027950  0.0001633350
atom   32.368833    22.015358   8.992850 Al  0.0   0.0  -0.0008160650  -0.0006599750  0.0002852400
atom   35.203367    23.390290   13.271261 Al  0.0   0.0  -0.0001324100  -0.0001092100  0.0003233800
atom   35.253695    7.858686   21.999645 Al  0.0   0.0  0.0004295250  -0.0008564950  0.0001838950
atom   40.747942    26.573790   8.875939 Al  0.0   0.0  -0.0001432250  0.0000777350  0.0005690550
atom   29.793033    4.746266   13.307888 Al  0.0   0.0  0.0001040200  -0.0004069750  -0.0004507850
atom   32.546488    6.272015   17.698335 Al  0.0   0.0  -0.0004467300  -0.0002962750  0.0008809150
atom   37.904148    12.510348   22.093898 Al  0.0   0.0  0.0000627800  0.0001119400  0.0007411500
atom   29.842738    7.860246   8.882478 Al  0.0   0.0  0.0005251950  -0.0007933350  0.0004616900
atom   32.483931    9.483422   13.294942 Al  0.0   0.0  0.0002586650  0.0007915550  -0.0002357500
atom   35.229826    11.028487   17.695595 Al  0.0   0.0  -0.0001449500  0.0001020650  -0.0002789700
atom   40.651744    17.229607   22.132674 Al  0.0   0.0  -0.0000262100  -0.0000157250  0.0005643550
atom   29.831020    10.981333   4.451662 Al  0.0   0.0  -0.0004395450  0.0004025700  0.0002135700
atom   32.473158    12.581357   8.846493 Al  0.0   0.0  -0.0001047750  0.0000220600  0.0003101850
atom   35.264034    14.034287   13.285682 Al  0.0   0.0  -0.0007628200  0.0001823600  0.0004492000
atom   37.926393    15.639717   17.712094 Al  0.0   0.0  -0.0003331150  -0.0000710100  -0.0001032850
atom   29.810420    14.067550   0.018861 Al  0.0   0.0  0.0004571600  0.0002960650  -0.0003497150
atom   32.521541    15.608193   4.369374 Al  0.0   0.0  -0.0005957300  -0.0002073400  0.0000128050
atom   35.227369    17.182873   8.868795 Al  0.0   0.0  0.0001953850  -0.0004197100  0.0011600250
atom   37.939623    18.755852   13.302559 Al  0.0   0.0  0.0000104350  0.0003631200  -0.0004564450
atom   40.659059    20.296078   17.776881 Al  0.0   0.0  -0.0001243900  0.0003381050  -0.0001794000
atom   46.184736    26.503775   22.038586 Al  0.0   0.0  0.0011956950  0.0001555500  -0.0000575350
atom   37.953042    21.903095   8.877545 Al  0.0   0.0  -0.0000534350  0.0004996200  0.0001163250
atom   40.626363    23.497450   13.243952 Al  0.0   0.0  -0.0006976500  -0.0005826300  0.0001766300
atom   43.438596    25.032082   17.754429 Al  0.0   0.0  -0.0001074400  -0.0001690300  0.0002875950
energy -2225.405293254240405
charge 0
end
begin
comment uuid: 9b6d3ecd-f8c5-4905-a457-566b18fc288b
lattice 27.1086736294 0.0000000000 0.0000000000
lattice 13.5543358147 23.4767996790 0.0000000000
lattice 13.5543358147 7.8255998930 22.1341396974
atom   27.084814    0.281938   0.242920 Mg  0.0   0.0  -0.0001546850  0.0011153700  -0.0008012550
atom   40.715002    20.871754   4.960510 Mg  0.0   0.0  -0.0001805050  0.0003055950  -0.0003336950
atom   21.632456    0.119999   0.015362 Mg  0.0   0.0  0.0000765550  0.0018449199  0.0005492200
atom   40.468231    25.901595   8.644931 Mg  0.0   0.0  0.0017984549  -0.0000210450  0.0013236300
atom   27.022379    5.904441   4.271343 Mg  0.0   0.0  -0.0006443200  -0.0002212600  -0.0019780099
atom   35.210171    20.370920   4.556421 Mg  0.0   0.0  -0.0008110950  0.0009470450  0.0006402900
atom   3.313691    1.769665   4.120412 Si  0.0   0.0  -0.0000906850  -0.0011912700  0.0010210150
atom   16.473786    21.635668   9.285035 Si  0.0   0.0  0.0003991750  0.0000143600  0.0006616250
atom   18.688797    1.613358   4.369185 Si  0.0   0.0  0.0012855750  -0.0005612050  -0.0007152600
atom   35.085113    26.571484   9.037925 Si  0.0   0.0  -0.0012053900  -0.0000249050  0.0016824149
atom   37.131729    25.151800   4.830444 Si  0.0   0.0  -0.0003337150  0.0022174699  -0.0003838400
atom   37.861624    12.785051   21.760914 Si  0.0   0.0  -0.0003134600  -0.0009602200  -0.0009985550
atom   46.022183    26.538353   8.810622 Al  0.0   0.0  0.0012071750  -0.0005162650  -0.0005830300
atom   8.120869    4.687697   13.250207 Al  0.0   0.0  0.0001289800  -0.0003886100  0.0005555050
atom   10.862683    6.256915   17.674673 Al  0.0   0.0  -0.0001524800  0.0001191750  -0.0009118900
atom   16.458798    12.647350   21.955381 Al  0.0   0.0  0.0008470400  -0.0001617500  0.0009990350
atom   5.514433    6.380215   4.433216 Al  0.0   0.0  0.0002526950  -0.0017111949  -0.0015443449
atom   8.120794    7.797746   8.857871 Al  0.0   0.0  -0.0001644650  0.0001597650  0.0000735050
atom   10.852156    9.382764   13.258655 Al  0.0   0.0  -0.0004784800  0.0004925300  0.0000776400
atom   13.571970    10.978668   17.648611 Al  0.0   0.0  -0.0001278650  0.0007170500  0.0001485800
atom   19.011768    17.269806   22.131386 Al  0.0   0.0  -0.0001351000  -0.0003086900  0.0004985750
atom   8.168345    10.993580   4.443724 Al  0.0   0.0  0.0002660000  0.0005641900  -0.0007094700
atom   10.842498    12.494174   8.865506 Al  0.0   0.0  -0.0003579750  0.0004522050  0.0003639400
atom   13.553808    14.079173   13.286419 Al  0.0   0.0  0.0001563700  -0.0006299050  0.0001744050
atom   16.292389    15.682902   17.654942 Al  0.0   0.0  -0.0004085800  -0.0006610000  0.0008584000
atom   8.141318    14.085165   0.003219 Al  0.0   0.0  0.0006642550  0.0008411900  0.0001813900
atom   10.903335    15.698758   4.480068 Al  0.0   0.0  0.0001128300  -0.0011059400  0.0000820400
atom   40.638743    17.198616   8.952141 Al  0.0   0.0  -0.0000552700  -0.0004809300  0.0007517400
atom   16.286398    18.710852   13.363698 Al  0.0   0.0  0.0005517650  0.0009256300  -0.0013469349
atom   18.984459    20.350886   17.697768 Al  0.0   0.0  0.0004124050  0.0007459650  0.0005136450
atom   10.911613    18.768155   0.028068 Al  0.0   0.0  -0.0002490750  -0.0004955900  -0.0001286100
atom   19.029251    23.488945   13.338562 Al  0.0   0.0  -0.0002694500  -0.0003029800  -0.0000616700
atom   21.705974    25.039642   17.707086 Al  0.0   0.0  0.0002641750  0.0004584200  0.0008266550
atom   19.075799    7.789158   22.015143 Al  0.0   0.0  0.0013725649  0.0013398650  0.0011309450
atom   21.859947    25.043469   4.441040 Al  0.0   0.0  -0.0036749699  0.0001956650  -0.0012289250
atom   24.380410    26.605314   8.859269 Al  0.0   0.0  -0.0000061150  0.0002749950  0.0005811350
atom   13.559969    4.693253   13.244689 Al  0.0   0.0  0.0001404050  -0.0001947700  0.0006394600
atom   16.259145    6.263473   17.714967 Al  0.0   0.0  0.0003196750  -0.0004948050  -0.0006390050
atom   21.777168    12.544556   22.101057 Al  0.0   0.0  -0.0010938650  -0.0003745150  0.0002904800
atom   10.865688    6.262471   4.436958 Al  0.0   0.0  -0.0004126150  0.0005063250  0.0000013250
atom   13.566395    7.810050   8.845511 Al  0.0   0.0  -0.0000161000  -0.0003215500  -0.0001577100
atom   16.274019    9.375204   13.249073 Al  0.0   0.0  0.0004223050  0.0003630300  0.0002587350
atom   19.009784    10.936428   17.647571 Al  0.0   0.0  0.0002084350  -0.0000565650  0.0003277600
atom   24.411576    17.212427   22.130907 Al  0.0   0.0  0.0004174300  0.0012176150  0.0001786500
atom   13.565091    10.944744   4.445142 Al  0.0   0.0  0.0000506050  0.0009531450  -0.0006654550
atom   16.259088    12.511240   8.858305 Al  0.0   0.0  0.0005168700  0.0000213500  0.0000672750
atom   18.989373    14.075979   13.260205 Al  0.0   0.0  0.0004610050  -0.0004825850  -0.0004700250
atom   21.691422    15.655347   17.701794 Al  0.0   0.0  0.0006435400  -0.0002863050  -0.0004448950
atom   27.120164    21.894209   22.130403 Al  0.0   0.0  0.0001226050  0.0009990300  0.0005231050
atom   16.248278    15.714483   4.461112 Al  0.0   0.0  0.0009599800  -0.0008011550  -0.0000056150
atom   19.005059    17.160930   8.856378 Al  0.0   0.0  0.0003396600  0.0002193450  0.0003379800