begin
comment 4 atoms, species Al4
lattice      7.4250723297     0.0000000000    -0.0000000000
lattice      0.0000000000     7.4250723297    -0.0000000000
lattice     -0.0000000000    -0.0000000000     7.4250723297
atom      0.0000000000     0.0000000000     0.0000000000   Al  0.0 0.0   -3.92416325e-14 -3.91835474e-14 -3.92286869e-14
atom     -0.0000000000     3.7125361648     3.7125361648   Al  0.0 0.0   -3.92481096e-14  3.91937225e-14  3.91565562e-14
atom      3.7125361648    -0.0000000000     3.7125361648   Al  0.0 0.0    3.92216614e-14 -3.92431105e-14  3.91689475e-14
atom      3.7125361648     3.7125361648    -0.0000000000   Al  0.0 0.0    3.92359650e-14  3.92210349e-14 -3.92418481e-14
energy -7.899984804940391e+01
charge 0.0000
end
begin
comment 4 atoms, species Al4
lattice      7.4824826827     0.0000000000    -0.0000000000
lattice      0.0000000000     7.4824826827    -0.0000000000
lattice     -0.0000000000    -0.0000000000     7.4824826827
atom      0.0000000000     0.0000000000     0.0000000000   Al  0.0 0.0    8.49058694e-14  8.48837260e-14  8.49892125e-14
atom     -0.0000000000     3.7412413414     3.7412413414   Al  0.0 0.0    8.49015513e-14 -8.48870659e-14 -8.49055651e-14
atom      3.7412413414    -0.0000000000     3.7412413414   Al  0.0 0.0   -8.49077585e-14  8.49012384e-14 -8.49439692e-14
atom      3.7412413414     3.7412413414    -0.0000000000   Al  0.0 0.0   -8.48939946e-14 -8.48972105e-14  8.49182526e-14
energy -7.900221534689683e+01
charge 0.0000
end
begin
comment 4 atoms, species Al4
lattice      7.5398930358     0.0000000000    -0.0000000000
lattice      0.0000000000     7.5398930358    -0.0000000000
lattice     -0.0000000000    -0.0000000000     7.5398930358
atom      0.0000000000     0.0000000000     0.0000000000   Al  0.0 0.0    1.88160341e-13  1.88179265e-13  1.88123163e-13
atom     -0.0000000000     3.7699465179     3.7699465179   Al  0.0 0.0    1.88136591e-13 -1.88133721e-13 -1.88217254e-13
atom      3.7699465179    -0.0000000000     3.7699465179   Al  0.0 0.0   -1.88146307e-13  1.88179514e-13 -1.88227758e-13
atom      3.7699465179     3.7699465179    -0.0000000000   Al  0.0 0.0   -1.88156023e-13 -1.88153290e-13  1.88133686e-13
energy -7.900385285895881e+01
charge 0.0000
end
begin
comment 4 atoms, species Al4
lattice      7.5973033888     0.0000000000    -0.0000000000
lattice      0.0000000000     7.5973033888    -0.0000000000
lattice     -0.0000000000    -0.0000000000     7.5973033888
atom      0.0000000000     0.0000000000     0.0000000000   Al  0.0 0.0   -2.17698977e-13 -2.17676425e-13 -2.17661599e-13
atom     -0.0000000000     3.7986516944     3.7986516944   Al  0.0 0.0   -2.17695469e-13  2.17648101e-13  2.17613448e-13
atom      3.7986516944    -0.0000000000     3.7986516944   Al  0.0 0.0    2.17689531e-13 -2.17668987e-13  2.17641381e-13
atom      3.7986516944     3.7986516944    -0.0000000000   Al  0.0 0.0    2.17693850e-13  2.17710759e-13 -2.17602344e-13
energy -7.900480924805420e+01
charge 0.0000
end
begin
comment 4 atoms, species Al4
lattice      7.6547137419     0.0000000000    -0.0000000000
lattice      0.0000000000     7.6547137419    -0.0000000000
lattice     -0.0000000000    -0.0000000000     7.6547137419
atom      0.0000000000     0.0000000000     0.0000000000   Al  0.0 0.0   -1.06282525e-13 -1.06292409e-13 -1.06321742e-13
atom     -0.0000000000     3.8273568710     3.8273568710   Al  0.0 0.0   -1.06277397e-13  1.06270635e-13  1.06218360e-13
atom      3.8273568710    -0.0000000000     3.8273568710   Al  0.0 0.0    1.06276588e-13 -1.06276553e-13  1.06217385e-13
atom      3.8273568710     3.8273568710    -0.0000000000   Al  0.0 0.0    1.06282255e-13  1.06269811e-13 -1.06210072e-13
energy -7.900512022044403e+01
charge 0.0000
end
begin
comment 4 atoms, species Al4
lattice      7.7121240950     0.0000000000    -0.0000000000
lattice      0.0000000000     7.7121240950    -0.0000000000
lattice     -0.0000000000    -0.0000000000     7.7121240950
atom      0.0000000000     0.0000000000     0.0000000000   Al  0.0 0.0   -1.31534118e-14 -1.31683958e-14 -1.31696428e-14
atom     -0.0000000000     3.8560620475     3.8560620475   Al  0.0 0.0   -1.31662311e-14  1.31598186e-14  1.31248304e-14
atom      3.8560620475    -0.0000000000     3.8560620475   Al  0.0 0.0    1.31558407e-14 -1.31618939e-14  1.31260887e-14
atom      3.8560620475     3.8560620475    -0.0000000000   Al  0.0 0.0    1.31690648e-14  1.31585605e-14 -1.30979985e-14
energy -7.900482158240960e+01
charge 0.0000
end
begin
comment 4 atoms, species Al4
lattice      7.7695344480     0.0000000000    -0.0000000000
lattice      0.0000000000     7.7695344480    -0.0000000000
lattice     -0.0000000000    -0.0000000000     7.7695344480
atom      0.0000000000     0.0000000000     0.0000000000   Al  0.0 0.0    6.28458439e-14  6.28496317e-14  6.29577020e-14
atom     -0.0000000000     3.8847672240     3.8847672240   Al  0.0 0.0    6.28465861e-14 -6.28630541e-14 -6.28840056e-14
atom      3.8847672240    -0.0000000000     3.8847672240   Al  0.0 0.0   -6.28439885e-14  6.28389415e-14 -6.28948409e-14
atom      3.8847672240     3.8847672240    -0.0000000000   Al  0.0 0.0   -6.28437186e-14 -6.28459983e-14  6.28928929e-14
energy -7.900395398628989e+01
charge 0.0000
end
begin
comment 4 atoms, species Al4
lattice      7.8269448011     0.0000000000    -0.0000000000
lattice      0.0000000000     7.8269448011    -0.0000000000
lattice     -0.0000000000    -0.0000000000     7.8269448011
atom      0.0000000000     0.0000000000     0.0000000000   Al  0.0 0.0    1.23265669e-13  1.23289292e-13  1.23463649e-13
atom     -0.0000000000     3.9134724006     3.9134724006   Al  0.0 0.0    1.23274845e-13 -1.23281994e-13 -1.23342640e-13
atom      3.9134724006    -0.0000000000     3.9134724006   Al  0.0 0.0   -1.23268773e-13  1.23262154e-13 -1.23353991e-13
atom      3.9134724006     3.9134724006    -0.0000000000   Al  0.0 0.0   -1.23272551e-13 -1.23276286e-13  1.23479882e-13
energy -7.900256274807552e+01
charge 0.0000
end
begin
comment 4 atoms, species Al4
lattice      7.8843551542     0.0000000000    -0.0000000000
lattice      0.0000000000     7.8843551542    -0.0000000000
lattice     -0.0000000000    -0.0000000000     7.8843551542
atom      0.0000000000     0.0000000000     0.0000000000   Al  0.0 0.0   -1.20631775e-13 -1.20676105e-13 -1.20664162e-13
atom     -0.0000000000     3.9421775771     3.9421775771   Al  0.0 0.0   -1.20642300e-13  1.20626523e-13  1.20609243e-13
atom      3.9421775771    -0.0000000000     3.9421775771   Al  0.0 0.0    1.20634204e-13 -1.20675498e-13  1.20588482e-13
atom      3.9421775771     3.9421775771    -0.0000000000   Al  0.0 0.0    1.20636363e-13  1.20639727e-13 -1.20650708e-13
energy -7.900069650153141e+01
charge 0.0000
end
