   1    1        0.000000000       0.271300853       0.040139059
   1    2        0.000000000       0.395210063       0.064145956
   1    3        0.000000000       0.401682877       0.060866163
   1    4        0.000000000       0.240461815       0.034673704
   1    5        0.000000000       0.247415387       0.034174970
   1    6        0.000000000       0.075654591       0.008493445
   1    7        0.000000000       0.077250416       0.008552024
   1    8        0.000000000       0.081172769       0.009181618
   1    9        0.000000000       0.019398111       0.001114343
   1   10        0.000000000       2.313312691       0.665238056
   1   11        0.000000000       3.001077966       0.695071117
   1   12        0.000000000       2.491156019       0.524175682
   1   13        0.000000000       2.982626149       0.981682893
   1   14        0.000000000       2.743774711       0.627076121
   1   15        0.000000000       3.593498551       1.204138976
   1   16        0.000000000       4.605756849       1.117756238
   1   17        0.000000000       1.008288080       0.337813515
   1   18        0.000000000       1.268233632       0.322613352
   1   19        0.000000000       0.944912614       0.222777088
   1   20        0.000000000       8.476397194       2.676941718
   1   21        0.000000000      10.748266623       2.610096094
   1   22        0.000000000       8.331083533       1.831284119
   1   23        0.000000000       5.492071871       1.215321650
   1   24        0.000000000       7.098478094       2.333916891
   1   25        0.000000000       8.964857396       2.204953415
   1   26        0.000000000       2.015108599       0.671611600
   1   27        0.000000000       2.436635294       0.622412014
   1   28        0.000000000       1.910705734       0.410273864
   1   29        0.000000000       3.749119999       1.225120574
   1   30        0.000000000       4.646368059       1.184592610
   1   31        0.000000000       3.700802007       0.793306535
   1   32        0.000000000       5.069054905       1.721332201
   1   33        0.000000000       4.739580047       1.080076247
   1   34        0.000000000       0.000642054       0.000026714
   1   35        0.000000000       0.001283662       0.000035674
   1   36        0.000000000       0.001362650       0.000024211
   1   37        0.000000000       0.025700376       0.001653014
   1   38        0.000000000       0.015095137       0.002195673
   1   39        0.000000000       0.018763264       0.002681825
   1   40        0.000000000       0.049431816       0.003469020
   1   41        0.000000000       0.013997368       0.002249614
   1   42        0.000000000       0.043603040       0.001989141
   1   43        0.000000000       0.072741229       0.004790952
   1   44        0.000000000       0.052071596       0.006737306
   1   45        0.000000000       0.064647858       0.009623880
   1   46        0.000000000       0.141495879       0.010216768
   1   47        0.000000000       0.046439163       0.007381958
   1   48        0.000000000       0.107013238       0.005029701
   1   49        0.000000000       0.002208644       0.000088649
   1   50        0.000000000       0.001662281       0.000128632
   1   51        0.000000000       0.005248221       0.000199945
   1   52        0.000000000       0.034932526       0.002209120
   1   53        0.000000000       0.028412817       0.003246740
   1   54        0.000000000       0.035444997       0.005029097
   1   55        0.000000000       0.071547796       0.004948975
   1   56        0.000000000       0.025539275       0.003823897
   1   57        0.000000000       0.049365372       0.002427869
   1   58        0.000000000       0.005673209       0.000679758
   1   59        0.000000000       0.013769702       0.000500838
   1   60        0.000000000       0.020237195       0.001046260
   1   61        0.000000000       0.015079957       0.001624014
   1   62        0.000000000       0.019817818       0.002484367
   1   63        0.000000000       0.015915960       0.002023119
   1   64        0.000000000       0.015509126       0.000681811
   2    1        0.000000000       0.232546316       0.015128524
   2    2        0.000000000       0.541135408       0.188728501
   2    3        0.000000000       0.439775007       0.023320067
   2    4        0.000000000       0.131026618       0.008177631
   2    5        0.000000000       0.302616334       0.050497302
   2    6        0.000000000       0.040340329       0.002016955
   2    7        0.000000000       0.095985150       0.003979914
   2    8        0.000000000       0.149361326       0.008742779
   2    9        0.000000000       1.860950359       0.163929277
   2   10        0.007913699       3.060593452       1.763143341
   2   11        0.000000000       2.634444437       0.195914685
   2   12        0.079991970       3.740466741       2.282662853
   2   13        0.000000000       2.573238333       0.263617589
   2   14        0.017868930       4.613124352       2.760905435
   2   15        0.000000000       3.532175958       0.302587197
   2   16        0.000000000       0.681133545       0.076086852
   2   17        0.060692111       1.292089688       0.774908234
   2   18        0.000000000       1.014091428       0.090414966
   2   19        0.000000000       6.296018678       0.615578975
   2   20        0.205406498      10.720187619       6.481127302
   2   21        0.000000000       8.796627189       0.728631666
   2   22        0.000000000       4.937090173       0.520027967
   2   23        0.246950605       8.907923113       5.427645328
   2   24        0.000000000       6.961229531       0.619578389
   2   25        0.000000000       1.507922332       0.146792967
   2   26        0.093053144       2.530993364       1.542622609
   2   27        0.000000000       1.997973963       0.173876575
   2   28        0.000000000       2.674260051       0.279380635
   2   29        0.246687833       4.805036743       2.858522223
   2   30        0.000000000       3.915082422       0.329070818
   2   31        0.000000000       3.670999803       0.375388915
   2   32        0.000000000       4.993095171       0.423550215
   2   33        0.000000000       0.002378124       0.000071231
   2   34        0.000000000       0.000509181       0.000016621
   2   35        0.000000000       0.001845118       0.000213177
   2   36        0.000000000       0.000957039       0.000036825
   2   37        0.000000000       0.001872341       0.000006186
   2   38        0.000000000       0.019109606       0.000295731
   2   39        0.000000000       0.018330094       0.001687156
   2   40        0.000000000       0.021147493       0.000574429
   2   41        0.000000000       0.067718602       0.015536688
   2   42        0.000000000       0.024729372       0.002392992
   2   43        0.000000000       0.050707972       0.000495618
   2   44        0.000000000       0.048733745       0.000757669
   2   45        0.000000000       0.055620550       0.004768303
   2   46        0.000000000       0.063774066       0.001697132
   2   47        0.000000000       0.152790218       0.044375207
   2   48        0.000000000       0.094495834       0.007031563
   2   49        0.000000000       0.123647552       0.001217673
   2   50        0.000000000       0.001588262       0.000021276
   2   51        0.000000000       0.002220627       0.000040036
   2   52        0.000000000       0.006460560       0.000053573
   2   53        0.000000000       0.021313607       0.000329442
   2   54        0.000000000       0.028412817       0.002241043
   2   55        0.000000000       0.031964881       0.000816865
   2   56        0.000000000       0.076705003       0.021241886
   2   57        0.000000000       0.053217335       0.003442827
   2   58        0.000000000       0.058018536       0.000567847
   2   59        0.000000000       0.016388316       0.000135926
   2   60        0.000000000       0.014035219       0.000183228
   2   61        0.000000000       0.021970610       0.000462208
   2   62        0.000000000       0.030477701       0.001965678
   2   63        0.000000000       0.013295627       0.000943104
   2   64        0.000000000       0.031195861       0.000249714
   3    1        0.000000000       0.305341567       0.058582540
   3    2        0.000000000       0.439015480       0.095168842
   3    3        0.000000000       0.317982803       0.081665595
   3    4        0.000000000       0.238853773       0.050834006
   3    5        0.000000000       0.070133934       0.008837135
   3    6        0.000000000       0.097069581       0.016241970
   3    7        0.000000000       0.131974142       0.017683204
   3    8        0.000000000       0.082064371       0.006960957
   3    9        0.000000000       2.034574773       0.504509261
   3   10        0.000000000       3.095479492       0.799524878
   3   11        0.000000000       1.853642466       0.581741236
   3   12        0.000000000       2.783581709       0.727348020
   3   13        0.000000000       4.638984094       1.234853792
   3   14        0.000000000       3.687610292       1.231545450
   3   15        0.000000000       0.744453202       0.214418768
   3   16        0.000000000       1.283012605       0.368982113
   3   17        0.000000000       1.009529735       0.312070902
   3   18        0.000000000       6.854011729       1.762576611
   3   19        0.000000000      10.930525792       2.973534853
   3   20        0.000000000       8.431728497       2.740801370
   3   21        0.000000000       5.379750795       1.433692568
   3   22        0.000000000       7.092771121       2.306265144
   3   23        0.000000000       1.628283459       0.394880897
   3   24        0.000000000       2.475172454       0.709587683
   3   25        0.000000000       1.993769087       0.679936898
   3   26        0.000000000       2.963918259       0.763542658
   3   27        0.000000000       4.710925488       1.342933053
   3   28        0.000000000       3.819956335       1.202608072
   3   29        0.000000000       3.953132822       1.039553126
   3   30        0.000000000       5.296757758       1.748980468
   3   31        0.000000000       0.000914908       0.000041940
   3   32        0.000000000       0.001768112       0.000073103
   3   33        0.000000000       0.001288120       0.000051544
   3   34        0.000000000       0.000785621       0.000033491
   3   35        0.000000000       0.000222020       0.000003508
   3   36        0.000000000       0.000263795       0.000006177
   3   37        0.000000000       0.024759693       0.002007024
   3   38        0.000000000       0.020740166       0.002699720
   3   39        0.000000000       0.027787479       0.003386043
   3   40        0.000000000       0.056917289       0.005223052
   3   41        0.000000000       0.029089441       0.003484168
   3   42        0.000000000       0.062364284       0.003914981
   3   43        0.000000000       0.044528651       0.006570488
   3   44        0.000000000       0.079215384       0.010124965
   3   45        0.000000000       0.157408001       0.014007682
   3   46        0.000000000       0.094495834       0.010499661
   3   47        0.000000000       0.075489673       0.008750955
   3   48        0.000000000       0.012391482       0.001334787
   3   49        0.000000000       0.003108038       0.000177753
   3   50        0.000000000       0.002957548       0.000245108
   3   51        0.000000000       0.003519547       0.000276663
   3   52        0.000000000       0.004722704       0.000426954
   3   53        0.000000000       0.027717000       0.001368178
   3   54        0.000000000       0.038713086       0.005003005
   3   55        0.000000000       0.053217335       0.005388043
   3   56        0.000000000       0.040089189       0.004691806
   3   57        0.000000000       0.007136936       0.000515830
   3   58        0.000000000       0.009238848       0.000931697
   3   59        0.000000000       0.008166735       0.000865615
   3   60        0.000000000       0.018772079       0.001006875
   3   61        0.000000000       0.015135533       0.001783539
   3   62        0.000000000       0.025730515       0.002707500
   3   63        0.000000000       0.022917436       0.002365497
   3   64        0.000000000       0.016504330       0.001438509
       -0.1824150362       -0.0398675913
