begin
comment 22 atoms, species Al4Mg10Si8
lattice     27.8548482166     0.0000000000    -7.9677659939
lattice      0.0000000000     7.6615028880     0.0000000000
lattice      0.0278421005     0.0000000000    12.9123897772
atom      0.0670933782     0.0000000000    12.7504043784   Mg  0.0 0.0    1.23999991e-06  1.99999985e-08 -3.69999972e-06
atom      2.1228312402     3.8307543412     3.8812960107   Mg  0.0 0.0   -4.06264969e-04 -1.99999985e-08  6.87149948e-05
atom      4.3742315642     3.8307543412    10.3994417459   Mg  0.0 0.0   -6.28619953e-04  1.04999992e-07 -2.36074982e-04
atom      9.6596328076     0.0000000000    -1.7956909047   Mg  0.0 0.0    6.28579953e-04 -1.09999992e-07  2.35964982e-04
atom     11.9110273371     0.0000000000     4.7224606249   Mg  0.0 0.0    4.06149969e-04  4.99999962e-09 -6.84849949e-05
atom      1.6654153696     0.0000000000     7.8748295838   Si  0.0 0.0   -2.72169980e-04 -2.24999983e-07 -2.82389979e-04
atom      5.2183136596     0.0000000000     1.2308207504   Si  0.0 0.0    1.05354992e-04 -6.74999949e-07  1.25909991e-04
atom      6.0951399196     0.0000000000     6.0806365319   Al  0.0 0.0   -2.95904978e-04 -1.34999990e-07 -2.22949983e-04
atom      7.9387070690     3.8307543412     2.5231461785   Al  0.0 0.0    2.95684978e-04  1.14999991e-07  2.22894983e-04
atom      8.8155738897     3.8307543412     7.3729271936   Si  0.0 0.0   -1.05794992e-04  7.34999945e-07 -1.25969991e-04
atom     12.3683910581     3.8307543412     0.7289357434   Si  0.0 0.0    2.71959980e-04  2.14999984e-07  2.82529979e-04
atom     13.9945899165     3.8307543412     8.7657652120   Mg  0.0 0.0    8.19999938e-07 -9.99999925e-09  3.64999973e-06
atom     16.0504262833     0.0000000000    -0.1033547445   Mg  0.0 0.0   -4.11699969e-04  2.99999977e-08  7.01049947e-05
atom     18.3014383824     0.0000000000     6.4151096828   Mg  0.0 0.0   -6.26874953e-04  1.49999989e-07 -2.33239982e-04
atom     23.5872626171     3.8307543412    -5.7791248355   Mg  0.0 0.0    6.26844953e-04 -1.44999989e-07  2.33124982e-04
atom     25.8382660246     3.8307543412     0.7393395918   Mg  0.0 0.0    4.11629969e-04 -1.49999989e-08 -6.99099947e-05
atom     15.5927699451     3.8307543412     3.8902049034   Si  0.0 0.0   -2.66799980e-04 -2.44999982e-07 -2.82194979e-04
atom     19.1458710392     3.8307543412    -2.7534968267   Si  0.0 0.0    1.02209992e-04 -8.24999938e-07  1.31864990e-04
atom     20.0226683271     3.8307543412     2.0964319457   Al  0.0 0.0   -3.01274977e-04 -2.79999979e-07 -2.17759984e-04
atom     21.8660152892     0.0000000000    -1.4604181264   Al  0.0 0.0    3.00899977e-04  2.59999980e-07  2.17554984e-04
atom     22.7428560352     0.0000000000     3.3894787768   Si  0.0 0.0   -1.02694992e-04  7.89999941e-07 -1.31869990e-04
atom     26.2958731104     0.0000000000    -3.2542055701   Si  0.0 0.0    2.66724980e-04  2.44999982e-07  2.82234979e-04
energy -2.928222725490804e+02
charge 0.0000
end
