
     Program PWSCF v.6.3 starts on 26Feb2020 at 22:51:37 

     This program is part of the open-source Quantum ESPRESSO suite
     for quantum simulation of materials; please cite
         "P. Giannozzi et al., J. Phys.:Condens. Matter 21 395502 (2009);
         "P. Giannozzi et al., J. Phys.:Condens. Matter 29 465901 (2017);
          URL http://www.quantum-espresso.org", 
     in publications or presentations arising from this work. More details at
     http://www.quantum-espresso.org/quote

 *** WARNING: using old-style file format, will disappear from next version ***

     Parallel version (MPI & OpenMP), running on     288 processor cores
     Number of MPI processes:               288
     Threads/MPI process:                     1

     MPI processes distributed on     8 nodes
     K-points division:     npool     =      36
     R & G space division:  proc/nbgrp/npool/nimage =       8
     Reading input from aiida.in
Warning: card &IONS ignored
Warning: card   !PRESS_CONV_THR = 0.05                 ! JUST FOR VOLUME RELAXATIONS ignored
Warning: card / ignored

     Current dimensions of program PWSCF are:
     Max number of different atomic species (ntypx) = 10
     Max number of k-points (npk) =  40000
     Max angular momentum in pseudopotentials (lmaxx) =  3
               file Al.pbe-n-kjpaw_psl.1.0.0.UPF: wavefunction(s)  3S 3P renormalized

     Subspace diagonalization in iterative solution of the eigenvalue problem:
     one sub-group per band group will be used
     scalapack distributed-memory algorithm (size of sub-group:  2*  2 procs)

 
     Parallelization info
     --------------------
     sticks:   dense  smooth     PW     G-vecs:    dense   smooth      PW
     Min        3740    1497    390               486920   123201   16474
     Max        3741    1498    391               486925   123204   16481
     Sum       29921   11977   3125              3895379   985619  131827
 


     bravais-lattice index     =            0
     lattice parameter (alat)  =      30.6665  a.u.
     unit-cell volume          =   28839.7502 (a.u.)^3
     number of atoms/cell      =          254
     number of atomic types    =            1
     number of electrons       =       762.00
     number of Kohn-Sham states=          457
     kinetic-energy cutoff     =      40.0000  Ry
     charge density cutoff     =     400.0000  Ry
     convergence threshold     =      1.0E-12
     mixing beta               =       0.4000
     number of iterations used =            8  local-TF  mixing
     Exchange-correlation      = SLA PW PBX PBC ( 1  4  3  4 0 0)

     celldm(1)=  30.666473  celldm(2)=   0.000000  celldm(3)=   0.000000
     celldm(4)=   0.000000  celldm(5)=   0.000000  celldm(6)=   0.000000

     crystal axes: (cart. coord. in units of alat)
               a(1) = (   1.000000   0.000000   0.000000 )  
               a(2) = (   0.000000   1.000000   0.000000 )  
               a(3) = (   0.000000   0.000000   1.000000 )  

     reciprocal axes: (cart. coord. in units 2 pi/alat)
               b(1) = (  1.000000  0.000000  0.000000 )  
               b(2) = (  0.000000  1.000000  0.000000 )  
               b(3) = (  0.000000  0.000000  1.000000 )  


     PseudoPot. # 1 for Al read from file:
     /users/aglensk/Dropbox/Albert/scripts/dotfiles/scripts/potentials/quantum_espresso/pseudo_SSSPefV1.1_alalloy/Al.pbe-n-kjpaw_psl.1.0.0.UPF
     MD5 check sum: cfc449ca30b5f3223ec38ddd88ac046d
     Pseudo is Projector augmented-wave + core cor, Zval =  3.0
     Generated using "atomic" code by A. Dal Corso v.5.1
     Shape of augmentation charge: PSQ
     Using radial grid of 1135 points,  6 beta functions with: 
                l(1) =   0
                l(2) =   0
                l(3) =   1
                l(4) =   1
                l(5) =   2
                l(6) =   2
     Q(r) pseudized with 0 coefficients 


     atomic species   valence    mass     pseudopotential
        Al             3.00    26.98154     Al( 1.00)

     No symmetry found


                                    s                        frac. trans.

      isym =  1     identity                                     

 cryst.   s( 1) = (     1          0          0      )
                  (     0          1          0      )
                  (     0          0          1      )

 cart.    s( 1) = (  1.0000000  0.0000000  0.0000000 )
                  (  0.0000000  1.0000000  0.0000000 )
                  (  0.0000000  0.0000000  1.0000000 )


   Cartesian axes

     site n.     atom                  positions (alat units)
         1           Al  tau(   1) = (   0.1228214   0.0001843   0.1228214  )
         2           Al  tau(   2) = (   0.1209323   0.1250000   0.0000000  )
         3           Al  tau(   3) = (   0.0000000   0.1250000   0.1209323  )
         4           Al  tau(   4) = (   0.0000000   0.0009283   0.2487493  )
         5           Al  tau(   5) = (   0.1248667   0.1250000   0.2496759  )
         6           Al  tau(   6) = (   0.1248615   0.9999963   0.3749151  )
         7           Al  tau(   7) = (   0.0000000   0.1250000   0.3750361  )
         8           Al  tau(   8) = (   0.0000000   0.9999634   0.5000000  )
         9           Al  tau(   9) = (   0.1250849   0.1250000   0.5000000  )
        10           Al  tau(  10) = (   0.1248615   0.9999963   0.6250849  )
        11           Al  tau(  11) = (   0.0000000   0.1250000   0.6249639  )
        12           Al  tau(  12) = (   0.0000000   0.0009283   0.7512507  )
        13           Al  tau(  13) = (   0.1248667   0.1250000   0.7503242  )
        14           Al  tau(  14) = (   0.1228214   0.0001843   0.8771786  )
        15           Al  tau(  15) = (   0.0000000   0.1250000   0.8790677  )
        16           Al  tau(  16) = (   0.1227704   0.3727690   0.0000000  )
        17           Al  tau(  17) = (   0.1228214   0.2498157   0.1228214  )
        18           Al  tau(  18) = (   0.0000000   0.3727690   0.1227704  )
        19           Al  tau(  19) = (   0.0000000   0.2490716   0.2487493  )
        20           Al  tau(  20) = (   0.1247684   0.3748023   0.2498376  )
        21           Al  tau(  21) = (   0.1248615   0.2500037   0.3749151  )
        22           Al  tau(  22) = (   0.0000000   0.3748594   0.3749284  )
        23           Al  tau(  23) = (   0.0000000   0.2500366   0.5000000  )
        24           Al  tau(  24) = (   0.1250722   0.3750673   0.5000000  )
        25           Al  tau(  25) = (   0.1248615   0.2500037   0.6250849  )
        26           Al  tau(  26) = (   0.0000000   0.3748594   0.6250716  )
        27           Al  tau(  27) = (   0.0000000   0.2490716   0.7512507  )
        28           Al  tau(  28) = (   0.1247684   0.3748023   0.7501624  )
        29           Al  tau(  29) = (   0.1228214   0.2498157   0.8771786  )
        30           Al  tau(  30) = (   0.0000000   0.3727690   0.8772296  )
        31           Al  tau(  31) = (   0.0000000   0.4997537   0.0000000  )
        32           Al  tau(  32) = (   0.1249318   0.6250000   0.0000000  )
        33           Al  tau(  33) = (   0.1249337   0.4998126   0.1249337  )
        34           Al  tau(  34) = (   0.0000000   0.6250000   0.1249318  )
        35           Al  tau(  35) = (   0.0000000   0.4991342   0.2491509  )
        36           Al  tau(  36) = (   0.1248345   0.6250000   0.2500023  )
        37           Al  tau(  37) = (   0.1249358   0.5000151   0.3749458  )
        38           Al  tau(  38) = (   0.0000000   0.6250000   0.3747531  )
        39           Al  tau(  39) = (   0.0000000   0.5000170   0.5000000  )
        40           Al  tau(  40) = (   0.1250019   0.6250000   0.5000000  )
        41           Al  tau(  41) = (   0.1249358   0.5000151   0.6250543  )
        42           Al  tau(  42) = (   0.0000000   0.6250000   0.6252469  )
        43           Al  tau(  43) = (   0.0000000   0.4991342   0.7508491  )
        44           Al  tau(  44) = (   0.1248345   0.6250000   0.7499977  )
        45           Al  tau(  45) = (   0.1249337   0.4998126   0.8750663  )
        46           Al  tau(  46) = (   0.0000000   0.6250000   0.8750682  )
        47           Al  tau(  47) = (   0.0000000   0.7502463   0.0000000  )
        48           Al  tau(  48) = (   0.1227704   0.8772310   0.0000000  )
        49           Al  tau(  49) = (   0.1249337   0.7501874   0.1249337  )
        50           Al  tau(  50) = (   0.0000000   0.8772310   0.1227704  )
        51           Al  tau(  51) = (   0.0000000   0.7508658   0.2491509  )
        52           Al  tau(  52) = (   0.1247684   0.8751977   0.2498376  )
        53           Al  tau(  53) = (   0.1249358   0.7499849   0.3749458  )
        54           Al  tau(  54) = (   0.0000000   0.8751406   0.3749284  )
        55           Al  tau(  55) = (   0.0000000   0.7499830   0.5000000  )
        56           Al  tau(  56) = (   0.1250722   0.8749328   0.5000000  )
        57           Al  tau(  57) = (   0.1249358   0.7499849   0.6250543  )
        58           Al  tau(  58) = (   0.0000000   0.8751406   0.6250716  )
        59           Al  tau(  59) = (   0.0000000   0.7508658   0.7508491  )
        60           Al  tau(  60) = (   0.1247684   0.8751977   0.7501624  )
        61           Al  tau(  61) = (   0.1249337   0.7501874   0.8750663  )
        62           Al  tau(  62) = (   0.0000000   0.8772310   0.8772296  )
        63           Al  tau(  63) = (   0.2487493   0.0009283   0.0000000  )
        64           Al  tau(  64) = (   0.3750361   0.1250000   0.0000000  )
        65           Al  tau(  65) = (   0.3749151   0.9999963   0.1248615  )
        66           Al  tau(  66) = (   0.2496759   0.1250000   0.1248667  )
        67           Al  tau(  67) = (   0.2493396   0.9998358   0.2493396  )
        68           Al  tau(  68) = (   0.3748271   0.1250000   0.2500029  )
        69           Al  tau(  69) = (   0.3749077   0.0000217   0.3749077  )
        70           Al  tau(  70) = (   0.2500029   0.1250000   0.3748271  )
        71           Al  tau(  71) = (   0.2499980   0.0000150   0.5000000  )
        72           Al  tau(  72) = (   0.3750359   0.1250000   0.5000000  )
        73           Al  tau(  73) = (   0.3749077   0.0000217   0.6250923  )
        74           Al  tau(  74) = (   0.2500029   0.1250000   0.6251729  )
        75           Al  tau(  75) = (   0.2493396   0.9998358   0.7506604  )
        76           Al  tau(  76) = (   0.3748271   0.1250000   0.7499971  )
        77           Al  tau(  77) = (   0.3749151   0.9999963   0.8751385  )
        78           Al  tau(  78) = (   0.2496759   0.1250000   0.8751333  )
        79           Al  tau(  79) = (   0.2487493   0.2490716   0.0000000  )
        80           Al  tau(  80) = (   0.3749284   0.3748594   0.0000000  )
        81           Al  tau(  81) = (   0.3749151   0.2500037   0.1248615  )
        82           Al  tau(  82) = (   0.2498376   0.3748023   0.1247684  )
        83           Al  tau(  83) = (   0.2493396   0.2501642   0.2493396  )
        84           Al  tau(  84) = (   0.3749219   0.3749289   0.2499660  )
        85           Al  tau(  85) = (   0.3749077   0.2499783   0.3749077  )
        86           Al  tau(  86) = (   0.2499660   0.3749289   0.3749219  )
        87           Al  tau(  87) = (   0.2499980   0.2499851   0.5000000  )
        88           Al  tau(  88) = (   0.3749927   0.3749892   0.5000000  )
        89           Al  tau(  89) = (   0.3749077   0.2499783   0.6250923  )
        90           Al  tau(  90) = (   0.2499660   0.3749289   0.6250781  )
        91           Al  tau(  91) = (   0.2493396   0.2501642   0.7506604  )
        92           Al  tau(  92) = (   0.3749219   0.3749289   0.7500340  )
        93           Al  tau(  93) = (   0.3749151   0.2500037   0.8751385  )
        94           Al  tau(  94) = (   0.2498376   0.3748023   0.8752316  )
        95           Al  tau(  95) = (   0.2491509   0.4991342   0.0000000  )
        96           Al  tau(  96) = (   0.3747531   0.6250000   0.0000000  )
        97           Al  tau(  97) = (   0.3749458   0.5000151   0.1249358  )
        98           Al  tau(  98) = (   0.2500023   0.6250000   0.1248345  )
        99           Al  tau(  99) = (   0.2501301   0.5001399   0.2501301  )
       100           Al  tau( 100) = (   0.3750447   0.6250000   0.2499627  )
       101           Al  tau( 101) = (   0.3749904   0.4999732   0.3749904  )
       102           Al  tau( 102) = (   0.2499627   0.6250000   0.3750447  )
       103           Al  tau( 103) = (   0.2500619   0.5000000   0.5000000  )
       104           Al  tau( 104) = (   0.3749664   0.6250000   0.5000000  )
       105           Al  tau( 105) = (   0.3749904   0.4999732   0.6250096  )
       106           Al  tau( 106) = (   0.2499627   0.6250000   0.6249554  )
       107           Al  tau( 107) = (   0.2501301   0.5001399   0.7498699  )
       108           Al  tau( 108) = (   0.3750447   0.6250000   0.7500374  )
       109           Al  tau( 109) = (   0.3749458   0.5000151   0.8750643  )
       110           Al  tau( 110) = (   0.2500023   0.6250000   0.8751656  )
       111           Al  tau( 111) = (   0.2491509   0.7508658   0.0000000  )
       112           Al  tau( 112) = (   0.3749284   0.8751406   0.0000000  )
       113           Al  tau( 113) = (   0.3749458   0.7499849   0.1249358  )
       114           Al  tau( 114) = (   0.2498376   0.8751977   0.1247684  )
       115           Al  tau( 115) = (   0.2501301   0.7498601   0.2501301  )
       116           Al  tau( 116) = (   0.3749219   0.8750712   0.2499660  )
       117           Al  tau( 117) = (   0.3749904   0.7500268   0.3749904  )
       118           Al  tau( 118) = (   0.2499660   0.8750712   0.3749219  )
       119           Al  tau( 119) = (   0.2500619   0.7500000   0.5000000  )
       120           Al  tau( 120) = (   0.3749927   0.8750109   0.5000000  )
       121           Al  tau( 121) = (   0.3749904   0.7500268   0.6250096  )
       122           Al  tau( 122) = (   0.2499660   0.8750712   0.6250781  )
       123           Al  tau( 123) = (   0.2501301   0.7498601   0.7498699  )
       124           Al  tau( 124) = (   0.3749219   0.8750712   0.7500340  )
       125           Al  tau( 125) = (   0.3749458   0.7499849   0.8750643  )
       126           Al  tau( 126) = (   0.2498376   0.8751977   0.8752316  )
       127           Al  tau( 127) = (   0.5000000   0.9999634   0.0000000  )
       128           Al  tau( 128) = (   0.6249639   0.1250000   0.0000000  )
       129           Al  tau( 129) = (   0.6250849   0.9999963   0.1248615  )
       130           Al  tau( 130) = (   0.5000000   0.1250000   0.1250849  )
       131           Al  tau( 131) = (   0.5000000   0.0000150   0.2499980  )
       132           Al  tau( 132) = (   0.6251729   0.1250000   0.2500029  )
       133           Al  tau( 133) = (   0.6250923   0.0000217   0.3749077  )
       134           Al  tau( 134) = (   0.5000000   0.1250000   0.3750359  )
       135           Al  tau( 135) = (   0.5000000   0.9999425   0.5000000  )
       136           Al  tau( 136) = (   0.6249642   0.1250000   0.5000000  )
       137           Al  tau( 137) = (   0.6250923   0.0000217   0.6250923  )
       138           Al  tau( 138) = (   0.5000000   0.1250000   0.6249642  )
       139           Al  tau( 139) = (   0.5000000   0.0000150   0.7500020  )
       140           Al  tau( 140) = (   0.6251729   0.1250000   0.7499971  )
       141           Al  tau( 141) = (   0.6250849   0.9999963   0.8751385  )
       142           Al  tau( 142) = (   0.5000000   0.1250000   0.8749151  )
       143           Al  tau( 143) = (   0.5000000   0.2500366   0.0000000  )
       144           Al  tau( 144) = (   0.6250716   0.3748594   0.0000000  )
       145           Al  tau( 145) = (   0.6250849   0.2500037   0.1248615  )
       146           Al  tau( 146) = (   0.5000000   0.3750673   0.1250722  )
       147           Al  tau( 147) = (   0.5000000   0.2499851   0.2499980  )
       148           Al  tau( 148) = (   0.6250781   0.3749289   0.2499660  )
       149           Al  tau( 149) = (   0.6250923   0.2499783   0.3749077  )
       150           Al  tau( 150) = (   0.5000000   0.3749892   0.3749927  )
       151           Al  tau( 151) = (   0.5000000   0.2500574   0.5000000  )
       152           Al  tau( 152) = (   0.6250073   0.3749892   0.5000000  )
       153           Al  tau( 153) = (   0.6250923   0.2499783   0.6250923  )
       154           Al  tau( 154) = (   0.5000000   0.3749892   0.6250073  )
       155           Al  tau( 155) = (   0.5000000   0.2499851   0.7500020  )
       156           Al  tau( 156) = (   0.6250781   0.3749289   0.7500340  )
       157           Al  tau( 157) = (   0.6250849   0.2500037   0.8751385  )
       158           Al  tau( 158) = (   0.5000000   0.3750673   0.8749278  )
       159           Al  tau( 159) = (   0.5000000   0.5000170   0.0000000  )
       160           Al  tau( 160) = (   0.6252469   0.6250000   0.0000000  )
       161           Al  tau( 161) = (   0.6250543   0.5000151   0.1249358  )
       162           Al  tau( 162) = (   0.5000000   0.6250000   0.1250019  )
       163           Al  tau( 163) = (   0.5000000   0.5000000   0.2500619  )
       164           Al  tau( 164) = (   0.6249554   0.6250000   0.2499627  )
       165           Al  tau( 165) = (   0.6250096   0.4999732   0.3749904  )
       166           Al  tau( 166) = (   0.5000000   0.6250000   0.3749664  )
       167           Al  tau( 167) = (   0.5000000   0.5000585   0.5000000  )
       168           Al  tau( 168) = (   0.6250336   0.6250000   0.5000000  )
       169           Al  tau( 169) = (   0.6250096   0.4999732   0.6250096  )
       170           Al  tau( 170) = (   0.5000000   0.6250000   0.6250336  )
       171           Al  tau( 171) = (   0.5000000   0.5000000   0.7499381  )
       172           Al  tau( 172) = (   0.6249554   0.6250000   0.7500374  )
       173           Al  tau( 173) = (   0.6250543   0.5000151   0.8750643  )
       174           Al  tau( 174) = (   0.5000000   0.6250000   0.8749981  )
       175           Al  tau( 175) = (   0.5000000   0.7499830   0.0000000  )
       176           Al  tau( 176) = (   0.6250716   0.8751406   0.0000000  )
       177           Al  tau( 177) = (   0.6250543   0.7499849   0.1249358  )
       178           Al  tau( 178) = (   0.5000000   0.8749328   0.1250722  )
       179           Al  tau( 179) = (   0.5000000   0.7500000   0.2500619  )
       180           Al  tau( 180) = (   0.6250781   0.8750712   0.2499660  )
       181           Al  tau( 181) = (   0.6250096   0.7500268   0.3749904  )
       182           Al  tau( 182) = (   0.5000000   0.8750109   0.3749927  )
       183           Al  tau( 183) = (   0.5000000   0.7499415   0.5000000  )
       184           Al  tau( 184) = (   0.6250073   0.8750109   0.5000000  )
       185           Al  tau( 185) = (   0.6250096   0.7500268   0.6250096  )
       186           Al  tau( 186) = (   0.5000000   0.8750109   0.6250073  )
       187           Al  tau( 187) = (   0.5000000   0.7500000   0.7499381  )
       188           Al  tau( 188) = (   0.6250781   0.8750712   0.7500340  )
       189           Al  tau( 189) = (   0.6250543   0.7499849   0.8750643  )
       190           Al  tau( 190) = (   0.5000000   0.8749328   0.8749278  )
       191           Al  tau( 191) = (   0.7512507   0.0009283   0.0000000  )
       192           Al  tau( 192) = (   0.8790677   0.1250000   0.0000000  )
       193           Al  tau( 193) = (   0.8771786   0.0001843   0.1228214  )
       194           Al  tau( 194) = (   0.7503242   0.1250000   0.1248667  )
       195           Al  tau( 195) = (   0.7506604   0.9998358   0.2493396  )
       196           Al  tau( 196) = (   0.8751333   0.1250000   0.2496759  )
       197           Al  tau( 197) = (   0.8751385   0.9999963   0.3749151  )
       198           Al  tau( 198) = (   0.7499971   0.1250000   0.3748271  )
       199           Al  tau( 199) = (   0.7500020   0.0000150   0.5000000  )
       200           Al  tau( 200) = (   0.8749151   0.1250000   0.5000000  )
       201           Al  tau( 201) = (   0.8751385   0.9999963   0.6250849  )
       202           Al  tau( 202) = (   0.7499971   0.1250000   0.6251729  )
       203           Al  tau( 203) = (   0.7506604   0.9998358   0.7506604  )
       204           Al  tau( 204) = (   0.8751333   0.1250000   0.7503242  )
       205           Al  tau( 205) = (   0.8771786   0.0001843   0.8771786  )
       206           Al  tau( 206) = (   0.7503242   0.1250000   0.8751333  )
       207           Al  tau( 207) = (   0.7512507   0.2490716   0.0000000  )
       208           Al  tau( 208) = (   0.8772296   0.3727690   0.0000000  )
       209           Al  tau( 209) = (   0.8771786   0.2498157   0.1228214  )
       210           Al  tau( 210) = (   0.7501624   0.3748023   0.1247684  )
       211           Al  tau( 211) = (   0.7506604   0.2501642   0.2493396  )
       212           Al  tau( 212) = (   0.8752316   0.3748023   0.2498376  )
       213           Al  tau( 213) = (   0.8751385   0.2500037   0.3749151  )
       214           Al  tau( 214) = (   0.7500340   0.3749289   0.3749219  )
       215           Al  tau( 215) = (   0.7500020   0.2499851   0.5000000  )
       216           Al  tau( 216) = (   0.8749278   0.3750673   0.5000000  )
       217           Al  tau( 217) = (   0.8751385   0.2500037   0.6250849  )
       218           Al  tau( 218) = (   0.7500340   0.3749289   0.6250781  )
       219           Al  tau( 219) = (   0.7506604   0.2501642   0.7506604  )
       220           Al  tau( 220) = (   0.8752316   0.3748023   0.7501624  )
       221           Al  tau( 221) = (   0.8771786   0.2498157   0.8771786  )
       222           Al  tau( 222) = (   0.7501624   0.3748023   0.8752316  )
       223           Al  tau( 223) = (   0.7508491   0.4991342   0.0000000  )
       224           Al  tau( 224) = (   0.8750682   0.6250000   0.0000000  )
       225           Al  tau( 225) = (   0.8750663   0.4998126   0.1249337  )
       226           Al  tau( 226) = (   0.7499977   0.6250000   0.1248345  )
       227           Al  tau( 227) = (   0.7498699   0.5001399   0.2501301  )
       228           Al  tau( 228) = (   0.8751656   0.6250000   0.2500023  )
       229           Al  tau( 229) = (   0.8750643   0.5000151   0.3749458  )
       230           Al  tau( 230) = (   0.7500374   0.6250000   0.3750447  )
       231           Al  tau( 231) = (   0.7499381   0.5000000   0.5000000  )
       232           Al  tau( 232) = (   0.8749981   0.6250000   0.5000000  )
       233           Al  tau( 233) = (   0.8750643   0.5000151   0.6250543  )
       234           Al  tau( 234) = (   0.7500374   0.6250000   0.6249554  )
       235           Al  tau( 235) = (   0.7498699   0.5001399   0.7498699  )
       236           Al  tau( 236) = (   0.8751656   0.6250000   0.7499977  )
       237           Al  tau( 237) = (   0.8750663   0.4998126   0.8750663  )
       238           Al  tau( 238) = (   0.7499977   0.6250000   0.8751656  )
       239           Al  tau( 239) = (   0.7508491   0.7508658   0.0000000  )
       240           Al  tau( 240) = (   0.8772296   0.8772310   0.0000000  )
       241           Al  tau( 241) = (   0.8750663   0.7501874   0.1249337  )
       242           Al  tau( 242) = (   0.7501624   0.8751977   0.1247684  )
       243           Al  tau( 243) = (   0.7498699   0.7498601   0.2501301  )
       244           Al  tau( 244) = (   0.8752316   0.8751977   0.2498376  )
       245           Al  tau( 245) = (   0.8750643   0.7499849   0.3749458  )
       246           Al  tau( 246) = (   0.7500340   0.8750712   0.3749219  )
       247           Al  tau( 247) = (   0.7499381   0.7500000   0.5000000  )
       248           Al  tau( 248) = (   0.8749278   0.8749328   0.5000000  )
       249           Al  tau( 249) = (   0.8750643   0.7499849   0.6250543  )
       250           Al  tau( 250) = (   0.7500340   0.8750712   0.6250781  )
       251           Al  tau( 251) = (   0.7498699   0.7498601   0.7498699  )
       252           Al  tau( 252) = (   0.8752316   0.8751977   0.7501624  )
       253           Al  tau( 253) = (   0.8750663   0.7501874   0.8750663  )
       254           Al  tau( 254) = (   0.7501624   0.8751977   0.8752316  )

   Crystallographic axes

     site n.     atom                  positions (cryst. coord.)
         1           Al  tau(   1) = (  0.1228214  0.0001843  0.1228214  )
         2           Al  tau(   2) = (  0.1209323  0.1250000  0.0000000  )
         3           Al  tau(   3) = (  0.0000000  0.1250000  0.1209323  )
         4           Al  tau(   4) = (  0.0000000  0.0009283  0.2487493  )
         5           Al  tau(   5) = (  0.1248667  0.1250000  0.2496759  )
         6           Al  tau(   6) = (  0.1248615  0.9999963  0.3749151  )
         7           Al  tau(   7) = (  0.0000000  0.1250000  0.3750361  )
         8           Al  tau(   8) = (  0.0000000  0.9999634  0.5000000  )
         9           Al  tau(   9) = (  0.1250849  0.1250000  0.5000000  )
        10           Al  tau(  10) = (  0.1248615  0.9999963  0.6250849  )
        11           Al  tau(  11) = (  0.0000000  0.1250000  0.6249639  )
        12           Al  tau(  12) = (  0.0000000  0.0009283  0.7512507  )
        13           Al  tau(  13) = (  0.1248667  0.1250000  0.7503242  )
        14           Al  tau(  14) = (  0.1228214  0.0001843  0.8771786  )
        15           Al  tau(  15) = (  0.0000000  0.1250000  0.8790677  )
        16           Al  tau(  16) = (  0.1227704  0.3727690  0.0000000  )
        17           Al  tau(  17) = (  0.1228214  0.2498157  0.1228214  )
        18           Al  tau(  18) = (  0.0000000  0.3727690  0.1227704  )
        19           Al  tau(  19) = (  0.0000000  0.2490716  0.2487493  )
        20           Al  tau(  20) = (  0.1247684  0.3748023  0.2498376  )
        21           Al  tau(  21) = (  0.1248615  0.2500037  0.3749151  )
        22           Al  tau(  22) = (  0.0000000  0.3748594  0.3749284  )
        23           Al  tau(  23) = (  0.0000000  0.2500366  0.5000000  )
        24           Al  tau(  24) = (  0.1250722  0.3750673  0.5000000  )
        25           Al  tau(  25) = (  0.1248615  0.2500037  0.6250849  )
        26           Al  tau(  26) = (  0.0000000  0.3748594  0.6250716  )
        27           Al  tau(  27) = (  0.0000000  0.2490716  0.7512507  )
        28           Al  tau(  28) = (  0.1247684  0.3748023  0.7501624  )
        29           Al  tau(  29) = (  0.1228214  0.2498157  0.8771786  )
        30           Al  tau(  30) = (  0.0000000  0.3727690  0.8772296  )
        31           Al  tau(  31) = (  0.0000000  0.4997537  0.0000000  )
        32           Al  tau(  32) = (  0.1249318  0.6250000  0.0000000  )
        33           Al  tau(  33) = (  0.1249337  0.4998126  0.1249337  )
        34           Al  tau(  34) = (  0.0000000  0.6250000  0.1249318  )
        35           Al  tau(  35) = (  0.0000000  0.4991342  0.2491509  )
        36           Al  tau(  36) = (  0.1248345  0.6250000  0.2500023  )
        37           Al  tau(  37) = (  0.1249358  0.5000151  0.3749458  )
        38           Al  tau(  38) = (  0.0000000  0.6250000  0.3747531  )
        39           Al  tau(  39) = (  0.0000000  0.5000170  0.5000000  )
        40           Al  tau(  40) = (  0.1250019  0.6250000  0.5000000  )
        41           Al  tau(  41) = (  0.1249358  0.5000151  0.6250543  )
        42           Al  tau(  42) = (  0.0000000  0.6250000  0.6252469  )
        43           Al  tau(  43) = (  0.0000000  0.4991342  0.7508491  )
        44           Al  tau(  44) = (  0.1248345  0.6250000  0.7499977  )
        45           Al  tau(  45) = (  0.1249337  0.4998126  0.8750663  )
        46           Al  tau(  46) = (  0.0000000  0.6250000  0.8750682  )
        47           Al  tau(  47) = (  0.0000000  0.7502463  0.0000000  )
        48           Al  tau(  48) = (  0.1227704  0.8772310  0.0000000  )
        49           Al  tau(  49) = (  0.1249337  0.7501874  0.1249337  )
        50           Al  tau(  50) = (  0.0000000  0.8772310  0.1227704  )
        51           Al  tau(  51) = (  0.0000000  0.7508658  0.2491509  )
        52           Al  tau(  52) = (  0.1247684  0.8751977  0.2498376  )
        53           Al  tau(  53) = (  0.1249358  0.7499849  0.3749458  )
        54           Al  tau(  54) = (  0.0000000  0.8751406  0.3749284  )
        55           Al  tau(  55) = (  0.0000000  0.7499830  0.5000000  )
        56           Al  tau(  56) = (  0.1250722  0.8749328  0.5000000  )
        57           Al  tau(  57) = (  0.1249358  0.7499849  0.6250543  )
        58           Al  tau(  58) = (  0.0000000  0.8751406  0.6250716  )
        59           Al  tau(  59) = (  0.0000000  0.7508658  0.7508491  )
        60           Al  tau(  60) = (  0.1247684  0.8751977  0.7501624  )
        61           Al  tau(  61) = (  0.1249337  0.7501874  0.8750663  )
        62           Al  tau(  62) = (  0.0000000  0.8772310  0.8772296  )
        63           Al  tau(  63) = (  0.2487493  0.0009283  0.0000000  )
        64           Al  tau(  64) = (  0.3750361  0.1250000  0.0000000  )
        65           Al  tau(  65) = (  0.3749151  0.9999963  0.1248615  )
        66           Al  tau(  66) = (  0.2496759  0.1250000  0.1248667  )
        67           Al  tau(  67) = (  0.2493396  0.9998358  0.2493396  )
        68           Al  tau(  68) = (  0.3748271  0.1250000  0.2500029  )
        69           Al  tau(  69) = (  0.3749077  0.0000217  0.3749077  )
        70           Al  tau(  70) = (  0.2500029  0.1250000  0.3748271  )
        71           Al  tau(  71) = (  0.2499980  0.0000150  0.5000000  )
        72           Al  tau(  72) = (  0.3750359  0.1250000  0.5000000  )
        73           Al  tau(  73) = (  0.3749077  0.0000217  0.6250923  )
        74           Al  tau(  74) = (  0.2500029  0.1250000  0.6251729  )
        75           Al  tau(  75) = (  0.2493396  0.9998358  0.7506604  )
        76           Al  tau(  76) = (  0.3748271  0.1250000  0.7499971  )
        77           Al  tau(  77) = (  0.3749151  0.9999963  0.8751385  )
        78           Al  tau(  78) = (  0.2496759  0.1250000  0.8751333  )
        79           Al  tau(  79) = (  0.2487493  0.2490716  0.0000000  )
        80           Al  tau(  80) = (  0.3749284  0.3748594  0.0000000  )
        81           Al  tau(  81) = (  0.3749151  0.2500037  0.1248615  )
        82           Al  tau(  82) = (  0.2498376  0.3748023  0.1247684  )
        83           Al  tau(  83) = (  0.2493396  0.2501642  0.2493396  )
        84           Al  tau(  84) = (  0.3749219  0.3749289  0.2499660  )
        85           Al  tau(  85) = (  0.3749077  0.2499783  0.3749077  )
        86           Al  tau(  86) = (  0.2499660  0.3749289  0.3749219  )
        87           Al  tau(  87) = (  0.2499980  0.2499851  0.5000000  )
        88           Al  tau(  88) = (  0.3749927  0.3749892  0.5000000  )
        89           Al  tau(  89) = (  0.3749077  0.2499783  0.6250923  )
        90           Al  tau(  90) = (  0.2499660  0.3749289  0.6250781  )
        91           Al  tau(  91) = (  0.2493396  0.2501642  0.7506604  )
        92           Al  tau(  92) = (  0.3749219  0.3749289  0.7500340  )
        93           Al  tau(  93) = (  0.3749151  0.2500037  0.8751385  )
        94           Al  tau(  94) = (  0.2498376  0.3748023  0.8752316  )
        95           Al  tau(  95) = (  0.2491509  0.4991342  0.0000000  )
        96           Al  tau(  96) = (  0.3747531  0.6250000  0.0000000  )
        97           Al  tau(  97) = (  0.3749458  0.5000151  0.1249358  )
        98           Al  tau(  98) = (  0.2500023  0.6250000  0.1248345  )
        99           Al  tau(  99) = (  0.2501301  0.5001399  0.2501301  )
       100           Al  tau( 100) = (  0.3750447  0.6250000  0.2499627  )
       101           Al  tau( 101) = (  0.3749904  0.4999732  0.3749904  )
       102           Al  tau( 102) = (  0.2499627  0.6250000  0.3750447  )
       103           Al  tau( 103) = (  0.2500619  0.5000000  0.5000000  )
       104           Al  tau( 104) = (  0.3749664  0.6250000  0.5000000  )
       105           Al  tau( 105) = (  0.3749904  0.4999732  0.6250096  )
       106           Al  tau( 106) = (  0.2499627  0.6250000  0.6249554  )
       107           Al  tau( 107) = (  0.2501301  0.5001399  0.7498699  )
       108           Al  tau( 108) = (  0.3750447  0.6250000  0.7500374  )
       109           Al  tau( 109) = (  0.3749458  0.5000151  0.8750643  )
       110           Al  tau( 110) = (  0.2500023  0.6250000  0.8751656  )
       111           Al  tau( 111) = (  0.2491509  0.7508658  0.0000000  )
       112           Al  tau( 112) = (  0.3749284  0.8751406  0.0000000  )
       113           Al  tau( 113) = (  0.3749458  0.7499849  0.1249358  )
       114           Al  tau( 114) = (  0.2498376  0.8751977  0.1247684  )
       115           Al  tau( 115) = (  0.2501301  0.7498601  0.2501301  )
       116           Al  tau( 116) = (  0.3749219  0.8750712  0.2499660  )
       117           Al  tau( 117) = (  0.3749904  0.7500268  0.3749904  )
       118           Al  tau( 118) = (  0.2499660  0.8750712  0.3749219  )
       119           Al  tau( 119) = (  0.2500619  0.7500000  0.5000000  )
       120           Al  tau( 120) = (  0.3749927  0.8750109  0.5000000  )
       121           Al  tau( 121) = (  0.3749904  0.7500268  0.6250096  )
       122           Al  tau( 122) = (  0.2499660  0.8750712  0.6250781  )
       123           Al  tau( 123) = (  0.2501301  0.7498601  0.7498699  )
       124           Al  tau( 124) = (  0.3749219  0.8750712  0.7500340  )
       125           Al  tau( 125) = (  0.3749458  0.7499849  0.8750643  )
       126           Al  tau( 126) = (  0.2498376  0.8751977  0.8752316  )
       127           Al  tau( 127) = (  0.5000000  0.9999634  0.0000000  )
       128           Al  tau( 128) = (  0.6249639  0.1250000  0.0000000  )
       129           Al  tau( 129) = (  0.6250849  0.9999963  0.1248615  )
       130           Al  tau( 130) = (  0.5000000  0.1250000  0.1250849  )
       131           Al  tau( 131) = (  0.5000000  0.0000150  0.2499980  )
       132           Al  tau( 132) = (  0.6251729  0.1250000  0.2500029  )
       133           Al  tau( 133) = (  0.6250923  0.0000217  0.3749077  )
       134           Al  tau( 134) = (  0.5000000  0.1250000  0.3750359  )
       135           Al  tau( 135) = (  0.5000000  0.9999425  0.5000000  )
       136           Al  tau( 136) = (  0.6249642  0.1250000  0.5000000  )
       137           Al  tau( 137) = (  0.6250923  0.0000217  0.6250923  )
       138           Al  tau( 138) = (  0.5000000  0.1250000  0.6249642  )
       139           Al  tau( 139) = (  0.5000000  0.0000150  0.7500020  )
       140           Al  tau( 140) = (  0.6251729  0.1250000  0.7499971  )
       141           Al  tau( 141) = (  0.6250849  0.9999963  0.8751385  )
       142           Al  tau( 142) = (  0.5000000  0.1250000  0.8749151  )
       143           Al  tau( 143) = (  0.5000000  0.2500366  0.0000000  )
       144           Al  tau( 144) = (  0.6250716  0.3748594  0.0000000  )
       145           Al  tau( 145) = (  0.6250849  0.2500037  0.1248615  )
       146           Al  tau( 146) = (  0.5000000  0.3750673  0.1250722  )
       147           Al  tau( 147) = (  0.5000000  0.2499851  0.2499980  )
       148           Al  tau( 148) = (  0.6250781  0.3749289  0.2499660  )
       149           Al  tau( 149) = (  0.6250923  0.2499783  0.3749077  )
       150           Al  tau( 150) = (  0.5000000  0.3749892  0.3749927  )
       151           Al  tau( 151) = (  0.5000000  0.2500574  0.5000000  )
       152           Al  tau( 152) = (  0.6250073  0.3749892  0.5000000  )
       153           Al  tau( 153) = (  0.6250923  0.2499783  0.6250923  )
       154           Al  tau( 154) = (  0.5000000  0.3749892  0.6250073  )
       155           Al  tau( 155) = (  0.5000000  0.2499851  0.7500020  )
       156           Al  tau( 156) = (  0.6250781  0.3749289  0.7500340  )
       157           Al  tau( 157) = (  0.6250849  0.2500037  0.8751385  )
       158           Al  tau( 158) = (  0.5000000  0.3750673  0.8749278  )
       159           Al  tau( 159) = (  0.5000000  0.5000170  0.0000000  )
       160           Al  tau( 160) = (  0.6252469  0.6250000  0.0000000  )
       161           Al  tau( 161) = (  0.6250543  0.5000151  0.1249358  )
       162           Al  tau( 162) = (  0.5000000  0.6250000  0.1250019  )
       163           Al  tau( 163) = (  0.5000000  0.5000000  0.2500619  )
       164           Al  tau( 164) = (  0.6249554  0.6250000  0.2499627  )
       165           Al  tau( 165) = (  0.6250096  0.4999732  0.3749904  )
       166           Al  tau( 166) = (  0.5000000  0.6250000  0.3749664  )
       167           Al  tau( 167) = (  0.5000000  0.5000585  0.5000000  )
       168           Al  tau( 168) = (  0.6250336  0.6250000  0.5000000  )
       169           Al  tau( 169) = (  0.6250096  0.4999732  0.6250096  )
       170           Al  tau( 170) = (  0.5000000  0.6250000  0.6250336  )
       171           Al  tau( 171) = (  0.5000000  0.5000000  0.7499381  )
       172           Al  tau( 172) = (  0.6249554  0.6250000  0.7500374  )
       173           Al  tau( 173) = (  0.6250543  0.5000151  0.8750643  )
       174           Al  tau( 174) = (  0.5000000  0.6250000  0.8749981  )
       175           Al  tau( 175) = (  0.5000000  0.7499830  0.0000000  )
       176           Al  tau( 176) = (  0.6250716  0.8751406  0.0000000  )
       177           Al  tau( 177) = (  0.6250543  0.7499849  0.1249358  )
       178           Al  tau( 178) = (  0.5000000  0.8749328  0.1250722  )
       179           Al  tau( 179) = (  0.5000000  0.7500000  0.2500619  )
       180           Al  tau( 180) = (  0.6250781  0.8750712  0.2499660  )
       181           Al  tau( 181) = (  0.6250096  0.7500268  0.3749904  )
       182           Al  tau( 182) = (  0.5000000  0.8750109  0.3749927  )
       183           Al  tau( 183) = (  0.5000000  0.7499415  0.5000000  )
       184           Al  tau( 184) = (  0.6250073  0.8750109  0.5000000  )
       185           Al  tau( 185) = (  0.6250096  0.7500268  0.6250096  )
       186           Al  tau( 186) = (  0.5000000  0.8750109  0.6250073  )
       187           Al  tau( 187) = (  0.5000000  0.7500000  0.7499381  )
       188           Al  tau( 188) = (  0.6250781  0.8750712  0.7500340  )
       189           Al  tau( 189) = (  0.6250543  0.7499849  0.8750643  )
       190           Al  tau( 190) = (  0.5000000  0.8749328  0.8749278  )
       191           Al  tau( 191) = (  0.7512507  0.0009283  0.0000000  )
       192           Al  tau( 192) = (  0.8790677  0.1250000  0.0000000  )
       193           Al  tau( 193) = (  0.8771786  0.0001843  0.1228214  )
       194           Al  tau( 194) = (  0.7503242  0.1250000  0.1248667  )
       195           Al  tau( 195) = (  0.7506604  0.9998358  0.2493396  )
       196           Al  tau( 196) = (  0.8751333  0.1250000  0.2496759  )
       197           Al  tau( 197) = (  0.8751385  0.9999963  0.3749151  )
       198           Al  tau( 198) = (  0.7499971  0.1250000  0.3748271  )
       199           Al  tau( 199) = (  0.7500020  0.0000150  0.5000000  )
       200           Al  tau( 200) = (  0.8749151  0.1250000  0.5000000  )
       201           Al  tau( 201) = (  0.8751385  0.9999963  0.6250849  )
       202           Al  tau( 202) = (  0.7499971  0.1250000  0.6251729  )
       203           Al  tau( 203) = (  0.7506604  0.9998358  0.7506604  )
       204           Al  tau( 204) = (  0.8751333  0.1250000  0.7503242  )
       205           Al  tau( 205) = (  0.8771786  0.0001843  0.8771786  )
       206           Al  tau( 206) = (  0.7503242  0.1250000  0.8751333  )
       207           Al  tau( 207) = (  0.7512507  0.2490716  0.0000000  )
       208           Al  tau( 208) = (  0.8772296  0.3727690  0.0000000  )
       209           Al  tau( 209) = (  0.8771786  0.2498157  0.1228214  )
       210           Al  tau( 210) = (  0.7501624  0.3748023  0.1247684  )
       211           Al  tau( 211) = (  0.7506604  0.2501642  0.2493396  )
       212           Al  tau( 212) = (  0.8752316  0.3748023  0.2498376  )
       213           Al  tau( 213) = (  0.8751385  0.2500037  0.3749151  )
       214           Al  tau( 214) = (  0.7500340  0.3749289  0.3749219  )
       215           Al  tau( 215) = (  0.7500020  0.2499851  0.5000000  )
       216           Al  tau( 216) = (  0.8749278  0.3750673  0.5000000  )
       217           Al  tau( 217) = (  0.8751385  0.2500037  0.6250849  )
       218           Al  tau( 218) = (  0.7500340  0.3749289  0.6250781  )
       219           Al  tau( 219) = (  0.7506604  0.2501642  0.7506604  )
       220           Al  tau( 220) = (  0.8752316  0.3748023  0.7501624  )
       221           Al  tau( 221) = (  0.8771786  0.2498157  0.8771786  )
       222           Al  tau( 222) = (  0.7501624  0.3748023  0.8752316  )
       223           Al  tau( 223) = (  0.7508491  0.4991342  0.0000000  )
       224           Al  tau( 224) = (  0.8750682  0.6250000  0.0000000  )
       225           Al  tau( 225) = (  0.8750663  0.4998126  0.1249337  )
       226           Al  tau( 226) = (  0.7499977  0.6250000  0.1248345  )
       227           Al  tau( 227) = (  0.7498699  0.5001399  0.2501301  )
       228           Al  tau( 228) = (  0.8751656  0.6250000  0.2500023  )
       229           Al  tau( 229) = (  0.8750643  0.5000151  0.3749458  )
       230           Al  tau( 230) = (  0.7500374  0.6250000  0.3750447  )
       231           Al  tau( 231) = (  0.7499381  0.5000000  0.5000000  )
       232           Al  tau( 232) = (  0.8749981  0.6250000  0.5000000  )
       233           Al  tau( 233) = (  0.8750643  0.5000151  0.6250543  )
       234           Al  tau( 234) = (  0.7500374  0.6250000  0.6249554  )
       235           Al  tau( 235) = (  0.7498699  0.5001399  0.7498699  )
       236           Al  tau( 236) = (  0.8751656  0.6250000  0.7499977  )
       237           Al  tau( 237) = (  0.8750663  0.4998126  0.8750663  )
       238           Al  tau( 238) = (  0.7499977  0.6250000  0.8751656  )
       239           Al  tau( 239) = (  0.7508491  0.7508658  0.0000000  )
       240           Al  tau( 240) = (  0.8772296  0.8772310  0.0000000  )
       241           Al  tau( 241) = (  0.8750663  0.7501874  0.1249337  )
       242           Al  tau( 242) = (  0.7501624  0.8751977  0.1247684  )
       243           Al  tau( 243) = (  0.7498699  0.7498601  0.2501301  )
       244           Al  tau( 244) = (  0.8752316  0.8751977  0.2498376  )
       245           Al  tau( 245) = (  0.8750643  0.7499849  0.3749458  )
       246           Al  tau( 246) = (  0.7500340  0.8750712  0.3749219  )
       247           Al  tau( 247) = (  0.7499381  0.7500000  0.5000000  )
       248           Al  tau( 248) = (  0.8749278  0.8749328  0.5000000  )
       249           Al  tau( 249) = (  0.8750643  0.7499849  0.6250543  )
       250           Al  tau( 250) = (  0.7500340  0.8750712  0.6250781  )
       251           Al  tau( 251) = (  0.7498699  0.7498601  0.7498699  )
       252           Al  tau( 252) = (  0.8752316  0.8751977  0.7501624  )
       253           Al  tau( 253) = (  0.8750663  0.7501874  0.8750663  )
       254           Al  tau( 254) = (  0.7501624  0.8751977  0.8752316  )

     number of k points=    63  Methfessel-Paxton smearing, width (Ry)=  0.0441
                       cart. coord. in units 2pi/alat
        k(    1) = (   0.0000000   0.0000000   0.0000000), wk =   0.0160000
        k(    2) = (   0.0000000   0.0000000   0.2000000), wk =   0.0320000
        k(    3) = (   0.0000000   0.0000000   0.4000000), wk =   0.0320000
        k(    4) = (   0.0000000   0.2000000   0.0000000), wk =   0.0320000
        k(    5) = (   0.0000000   0.2000000   0.2000000), wk =   0.0320000
        k(    6) = (   0.0000000   0.2000000   0.4000000), wk =   0.0320000
        k(    7) = (   0.0000000   0.2000000  -0.4000000), wk =   0.0320000
        k(    8) = (   0.0000000   0.2000000  -0.2000000), wk =   0.0320000
        k(    9) = (   0.0000000   0.4000000   0.0000000), wk =   0.0320000
        k(   10) = (   0.0000000   0.4000000   0.2000000), wk =   0.0320000
        k(   11) = (   0.0000000   0.4000000   0.4000000), wk =   0.0320000
        k(   12) = (   0.0000000   0.4000000  -0.4000000), wk =   0.0320000
        k(   13) = (   0.0000000   0.4000000  -0.2000000), wk =   0.0320000
        k(   14) = (   0.2000000   0.0000000   0.0000000), wk =   0.0320000
        k(   15) = (   0.2000000   0.0000000   0.2000000), wk =   0.0320000
        k(   16) = (   0.2000000   0.0000000   0.4000000), wk =   0.0320000
        k(   17) = (   0.2000000   0.0000000  -0.4000000), wk =   0.0320000
        k(   18) = (   0.2000000   0.0000000  -0.2000000), wk =   0.0320000
        k(   19) = (   0.2000000   0.2000000   0.0000000), wk =   0.0320000
        k(   20) = (   0.2000000   0.2000000   0.2000000), wk =   0.0320000
        k(   21) = (   0.2000000   0.2000000   0.4000000), wk =   0.0320000
        k(   22) = (   0.2000000   0.2000000  -0.4000000), wk =   0.0320000
        k(   23) = (   0.2000000   0.2000000  -0.2000000), wk =   0.0320000
        k(   24) = (   0.2000000   0.4000000   0.0000000), wk =   0.0320000
        k(   25) = (   0.2000000   0.4000000   0.2000000), wk =   0.0320000
        k(   26) = (   0.2000000   0.4000000   0.4000000), wk =   0.0320000
        k(   27) = (   0.2000000   0.4000000  -0.4000000), wk =   0.0320000
        k(   28) = (   0.2000000   0.4000000  -0.2000000), wk =   0.0320000
        k(   29) = (   0.2000000  -0.4000000   0.0000000), wk =   0.0320000
        k(   30) = (   0.2000000  -0.4000000   0.2000000), wk =   0.0320000
        k(   31) = (   0.2000000  -0.4000000   0.4000000), wk =   0.0320000
        k(   32) = (   0.2000000  -0.4000000  -0.4000000), wk =   0.0320000
        k(   33) = (   0.2000000  -0.4000000  -0.2000000), wk =   0.0320000
        k(   34) = (   0.2000000  -0.2000000   0.0000000), wk =   0.0320000
        k(   35) = (   0.2000000  -0.2000000   0.2000000), wk =   0.0320000
        k(   36) = (   0.2000000  -0.2000000   0.4000000), wk =   0.0320000
        k(   37) = (   0.2000000  -0.2000000  -0.4000000), wk =   0.0320000
        k(   38) = (   0.2000000  -0.2000000  -0.2000000), wk =   0.0320000
        k(   39) = (   0.4000000   0.0000000   0.0000000), wk =   0.0320000
        k(   40) = (   0.4000000   0.0000000   0.2000000), wk =   0.0320000
        k(   41) = (   0.4000000   0.0000000   0.4000000), wk =   0.0320000
        k(   42) = (   0.4000000   0.0000000  -0.4000000), wk =   0.0320000
        k(   43) = (   0.4000000   0.0000000  -0.2000000), wk =   0.0320000
        k(   44) = (   0.4000000   0.2000000   0.0000000), wk =   0.0320000
        k(   45) = (   0.4000000   0.2000000   0.2000000), wk =   0.0320000
        k(   46) = (   0.4000000   0.2000000   0.4000000), wk =   0.0320000
        k(   47) = (   0.4000000   0.2000000  -0.4000000), wk =   0.0320000
        k(   48) = (   0.4000000   0.2000000  -0.2000000), wk =   0.0320000
        k(   49) = (   0.4000000   0.4000000   0.0000000), wk =   0.0320000
        k(   50) = (   0.4000000   0.4000000   0.2000000), wk =   0.0320000
        k(   51) = (   0.4000000   0.4000000   0.4000000), wk =   0.0320000
        k(   52) = (   0.4000000   0.4000000  -0.4000000), wk =   0.0320000
        k(   53) = (   0.4000000   0.4000000  -0.2000000), wk =   0.0320000
        k(   54) = (   0.4000000  -0.4000000   0.0000000), wk =   0.0320000
        k(   55) = (   0.4000000  -0.4000000   0.2000000), wk =   0.0320000
        k(   56) = (   0.4000000  -0.4000000   0.4000000), wk =   0.0320000
        k(   57) = (   0.4000000  -0.4000000  -0.4000000), wk =   0.0320000
        k(   58) = (   0.4000000  -0.4000000  -0.2000000), wk =   0.0320000
        k(   59) = (   0.4000000  -0.2000000   0.0000000), wk =   0.0320000
        k(   60) = (   0.4000000  -0.2000000   0.2000000), wk =   0.0320000
        k(   61) = (   0.4000000  -0.2000000   0.4000000), wk =   0.0320000
        k(   62) = (   0.4000000  -0.2000000  -0.4000000), wk =   0.0320000
        k(   63) = (   0.4000000  -0.2000000  -0.2000000), wk =   0.0320000

                       cryst. coord.
        k(    1) = (   0.0000000   0.0000000   0.0000000), wk =   0.0160000
        k(    2) = (   0.0000000   0.0000000   0.2000000), wk =   0.0320000
        k(    3) = (   0.0000000   0.0000000   0.4000000), wk =   0.0320000
        k(    4) = (   0.0000000   0.2000000   0.0000000), wk =   0.0320000
        k(    5) = (   0.0000000   0.2000000   0.2000000), wk =   0.0320000
        k(    6) = (   0.0000000   0.2000000   0.4000000), wk =   0.0320000
        k(    7) = (   0.0000000   0.2000000  -0.4000000), wk =   0.0320000
        k(    8) = (   0.0000000   0.2000000  -0.2000000), wk =   0.0320000
        k(    9) = (   0.0000000   0.4000000   0.0000000), wk =   0.0320000
        k(   10) = (   0.0000000   0.4000000   0.2000000), wk =   0.0320000
        k(   11) = (   0.0000000   0.4000000   0.4000000), wk =   0.0320000
        k(   12) = (   0.0000000   0.4000000  -0.4000000), wk =   0.0320000
        k(   13) = (   0.0000000   0.4000000  -0.2000000), wk =   0.0320000
        k(   14) = (   0.2000000   0.0000000   0.0000000), wk =   0.0320000
        k(   15) = (   0.2000000   0.0000000   0.2000000), wk =   0.0320000
        k(   16) = (   0.2000000   0.0000000   0.4000000), wk =   0.0320000
        k(   17) = (   0.2000000   0.0000000  -0.4000000), wk =   0.0320000
        k(   18) = (   0.2000000   0.0000000  -0.2000000), wk =   0.0320000
        k(   19) = (   0.2000000   0.2000000   0.0000000), wk =   0.0320000
        k(   20) = (   0.2000000   0.2000000   0.2000000), wk =   0.0320000
        k(   21) = (   0.2000000   0.2000000   0.4000000), wk =   0.0320000
        k(   22) = (   0.2000000   0.2000000  -0.4000000), wk =   0.0320000
        k(   23) = (   0.2000000   0.2000000  -0.2000000), wk =   0.0320000
        k(   24) = (   0.2000000   0.4000000   0.0000000), wk =   0.0320000
        k(   25) = (   0.2000000   0.4000000   0.2000000), wk =   0.0320000
        k(   26) = (   0.2000000   0.4000000   0.4000000), wk =   0.0320000
        k(   27) = (   0.2000000   0.4000000  -0.4000000), wk =   0.0320000
        k(   28) = (   0.2000000   0.4000000  -0.2000000), wk =   0.0320000
        k(   29) = (   0.2000000  -0.4000000   0.0000000), wk =   0.0320000
        k(   30) = (   0.2000000  -0.4000000   0.2000000), wk =   0.0320000
        k(   31) = (   0.2000000  -0.4000000   0.4000000), wk =   0.0320000
        k(   32) = (   0.2000000  -0.4000000  -0.4000000), wk =   0.0320000
        k(   33) = (   0.2000000  -0.4000000  -0.2000000), wk =   0.0320000
        k(   34) = (   0.2000000  -0.2000000   0.0000000), wk =   0.0320000
        k(   35) = (   0.2000000  -0.2000000   0.2000000), wk =   0.0320000
        k(   36) = (   0.2000000  -0.2000000   0.4000000), wk =   0.0320000
        k(   37) = (   0.2000000  -0.2000000  -0.4000000), wk =   0.0320000
        k(   38) = (   0.2000000  -0.2000000  -0.2000000), wk =   0.0320000
        k(   39) = (   0.4000000   0.0000000   0.0000000), wk =   0.0320000
        k(   40) = (   0.4000000   0.0000000   0.2000000), wk =   0.0320000
        k(   41) = (   0.4000000   0.0000000   0.4000000), wk =   0.0320000
        k(   42) = (   0.4000000   0.0000000  -0.4000000), wk =   0.0320000
        k(   43) = (   0.4000000   0.0000000  -0.2000000), wk =   0.0320000
        k(   44) = (   0.4000000   0.2000000   0.0000000), wk =   0.0320000
        k(   45) = (   0.4000000   0.2000000   0.2000000), wk =   0.0320000
        k(   46) = (   0.4000000   0.2000000   0.4000000), wk =   0.0320000
        k(   47) = (   0.4000000   0.2000000  -0.4000000), wk =   0.0320000
        k(   48) = (   0.4000000   0.2000000  -0.2000000), wk =   0.0320000
        k(   49) = (   0.4000000   0.4000000   0.0000000), wk =   0.0320000
        k(   50) = (   0.4000000   0.4000000   0.2000000), wk =   0.0320000
        k(   51) = (   0.4000000   0.4000000   0.4000000), wk =   0.0320000
        k(   52) = (   0.4000000   0.4000000  -0.4000000), wk =   0.0320000
        k(   53) = (   0.4000000   0.4000000  -0.2000000), wk =   0.0320000
        k(   54) = (   0.4000000  -0.4000000   0.0000000), wk =   0.0320000
        k(   55) = (   0.4000000  -0.4000000   0.2000000), wk =   0.0320000
        k(   56) = (   0.4000000  -0.4000000   0.4000000), wk =   0.0320000
        k(   57) = (   0.4000000  -0.4000000  -0.4000000), wk =   0.0320000
        k(   58) = (   0.4000000  -0.4000000  -0.2000000), wk =   0.0320000
        k(   59) = (   0.4000000  -0.2000000   0.0000000), wk =   0.0320000
        k(   60) = (   0.4000000  -0.2000000   0.2000000), wk =   0.0320000
        k(   61) = (   0.4000000  -0.2000000   0.4000000), wk =   0.0320000
        k(   62) = (   0.4000000  -0.2000000  -0.4000000), wk =   0.0320000
        k(   63) = (   0.4000000  -0.2000000  -0.2000000), wk =   0.0320000

     Dense  grid:  3895379 G-vectors     FFT dimensions: ( 200, 200, 200)

     Smooth grid:   985619 G-vectors     FFT dimensions: ( 125, 125, 125)

     Dynamical RAM for                 wfc:     107.39 MB

     Dynamical RAM for     wfc (w. buffer):     322.16 MB

     Dynamical RAM for           str. fact:       7.43 MB

     Dynamical RAM for           local pot:       0.00 MB

     Dynamical RAM for          nlocal pot:    1074.35 MB

     Dynamical RAM for                qrad:       7.82 MB

     Dynamical RAM for          rho,v,vnew:      45.18 MB

     Dynamical RAM for               rhoin:      15.06 MB

     Dynamical RAM for            rho*nmix:     118.88 MB

     Dynamical RAM for           G-vectors:      28.80 MB

     Dynamical RAM for          h,s,v(r/c):      38.24 MB

     Dynamical RAM for          <psi|beta>:      31.88 MB

     Dynamical RAM for                 psi:     429.55 MB

     Dynamical RAM for                hpsi:     429.55 MB

     Dynamical RAM for                spsi:     429.55 MB

     Dynamical RAM for      wfcinit/wfcrot:     501.12 MB

     Dynamical RAM for           addusdens:      98.03 MB

     Dynamical RAM for          addusforce:     199.94 MB

     Dynamical RAM for         addusstress:      45.09 MB

     Estimated static dynamical RAM per process >       1.63 GB

     Estimated max dynamical RAM per process >       2.96 GB

     Estimated total dynamical RAM >     852.60 GB

     Initial potential from superposition of free atoms

     starting charge  761.41829, renormalised to  762.00000
     Starting wfcs are 1016 randomized atomic wfcs
     Checking if some PAW data can be deallocated... 

     total cpu time spent up to now is      207.2 secs

     Self-consistent Calculation

     iteration #  1     ecut=    40.00 Ry     beta= 0.40
     Davidson diagonalization with overlap
     ethr =  1.00E-02,  avg # of iterations =  3.0

     Threshold (ethr) on eigenvalues was too large:
     Diagonalizing with lowered threshold

     Davidson diagonalization with overlap
     ethr =  2.03E-04,  avg # of iterations =  8.7

     total cpu time spent up to now is      965.1 secs

     total energy              =  -10033.78420773 Ry
     Harris-Foulkes estimate   =  -10033.95834276 Ry
     estimated scf accuracy    <       1.60927050 Ry

     iteration #  2     ecut=    40.00 Ry     beta= 0.40
     Davidson diagonalization with overlap
     ethr =  2.11E-04,  avg # of iterations =  1.1

     total cpu time spent up to now is     1195.6 secs

     total energy              =  -10033.56407335 Ry
     Harris-Foulkes estimate   =  -10033.79268514 Ry
     estimated scf accuracy    <       0.84190993 Ry

     iteration #  3     ecut=    40.00 Ry     beta= 0.40
     Davidson diagonalization with overlap
     ethr =  1.10E-04,  avg # of iterations =  1.2

     total cpu time spent up to now is     1430.2 secs

     total energy              =  -10033.58871143 Ry
     Harris-Foulkes estimate   =  -10033.59050744 Ry
     estimated scf accuracy    <       0.00513061 Ry

     iteration #  4     ecut=    40.00 Ry     beta= 0.40
     Davidson diagonalization with overlap
     c_bands:  3 eigenvalues not converged
     ethr =  6.73E-07,  avg # of iterations = 18.8

     total cpu time spent up to now is     2144.2 secs

     total energy              =  -10033.59378897 Ry
     Harris-Foulkes estimate   =  -10033.59369553 Ry
     estimated scf accuracy    <       0.01505937 Ry

     iteration #  5     ecut=    40.00 Ry     beta= 0.40
     Davidson diagonalization with overlap
     c_bands:  3 eigenvalues not converged
     ethr =  6.73E-07,  avg # of iterations =  6.7

     total cpu time spent up to now is     2439.7 secs

     total energy              =  -10033.58760449 Ry
     Harris-Foulkes estimate   =  -10033.59380155 Ry
     estimated scf accuracy    <       0.01813682 Ry

     iteration #  6     ecut=    40.00 Ry     beta= 0.40
     Davidson diagonalization with overlap
     c_bands:  1 eigenvalues not converged
     ethr =  6.73E-07,  avg # of iterations = 10.0

     total cpu time spent up to now is     2950.9 secs

     total energy              =  -10033.59101403 Ry
     Harris-Foulkes estimate   =  -10033.59607996 Ry
     estimated scf accuracy    <       0.07198417 Ry

     iteration #  7     ecut=    40.00 Ry     beta= 0.40
     Davidson diagonalization with overlap
     ethr =  6.73E-07,  avg # of iterations =  3.1

     total cpu time spent up to now is     3230.6 secs

     total energy              =  -10033.59225414 Ry
     Harris-Foulkes estimate   =  -10033.59240865 Ry
     estimated scf accuracy    <       0.01207715 Ry

     iteration #  8     ecut=    40.00 Ry     beta= 0.40
     Davidson diagonalization with overlap
     ethr =  6.73E-07,  avg # of iterations =  1.0

     total cpu time spent up to now is     3461.1 secs

     total energy              =  -10033.59160368 Ry
     Harris-Foulkes estimate   =  -10033.59227765 Ry
     estimated scf accuracy    <       0.01015368 Ry

     iteration #  9     ecut=    40.00 Ry     beta= 0.40
     Davidson diagonalization with overlap
     ethr =  6.73E-07,  avg # of iterations =  1.9

     total cpu time spent up to now is     3697.3 secs

     total energy              =  -10033.59155972 Ry
     Harris-Foulkes estimate   =  -10033.59180118 Ry
     estimated scf accuracy    <       0.00209709 Ry

     iteration # 10     ecut=    40.00 Ry     beta= 0.40
     Davidson diagonalization with overlap
     ethr =  2.75E-07,  avg # of iterations =  4.0

     total cpu time spent up to now is     3965.3 secs

     total energy              =  -10033.59176164 Ry
     Harris-Foulkes estimate   =  -10033.59178574 Ry
     estimated scf accuracy    <       0.00012533 Ry

     iteration # 11     ecut=    40.00 Ry     beta= 0.40
     Davidson diagonalization with overlap
     ethr =  1.64E-08,  avg # of iterations =  4.2

     total cpu time spent up to now is     4270.7 secs

     total energy              =  -10033.59178379 Ry
     Harris-Foulkes estimate   =  -10033.59179690 Ry
     estimated scf accuracy    <       0.00005439 Ry

     iteration # 12     ecut=    40.00 Ry     beta= 0.40
     Davidson diagonalization with overlap
     ethr =  7.14E-09,  avg # of iterations =  3.0

     total cpu time spent up to now is     4547.7 secs

     total energy              =  -10033.59179672 Ry
     Harris-Foulkes estimate   =  -10033.59179654 Ry
     estimated scf accuracy    <       0.00006329 Ry

     iteration # 13     ecut=    40.00 Ry     beta= 0.40
     Davidson diagonalization with overlap
     ethr =  7.14E-09,  avg # of iterations =  1.0

     total cpu time spent up to now is     4778.0 secs

     total energy              =  -10033.59179292 Ry
     Harris-Foulkes estimate   =  -10033.59179697 Ry
     estimated scf accuracy    <       0.00006892 Ry

     iteration # 14     ecut=    40.00 Ry     beta= 0.40
     Davidson diagonalization with overlap
     ethr =  7.14E-09,  avg # of iterations =  1.0

     total cpu time spent up to now is     5008.4 secs

     total energy              =  -10033.59179100 Ry
     Harris-Foulkes estimate   =  -10033.59179384 Ry
     estimated scf accuracy    <       0.00003005 Ry

     iteration # 15     ecut=    40.00 Ry     beta= 0.40
     Davidson diagonalization with overlap
     ethr =  3.94E-09,  avg # of iterations =  2.9

     total cpu time spent up to now is     5253.3 secs

     total energy              =  -10033.59179245 Ry
     Harris-Foulkes estimate   =  -10033.59179281 Ry
     estimated scf accuracy    <       0.00000260 Ry

     iteration # 16     ecut=    40.00 Ry     beta= 0.40
     Davidson diagonalization with overlap
     ethr =  3.41E-10,  avg # of iterations =  3.4

     total cpu time spent up to now is     5534.3 secs

     total energy              =  -10033.59179266 Ry
     Harris-Foulkes estimate   =  -10033.59179276 Ry
     estimated scf accuracy    <       0.00000147 Ry

     iteration # 17     ecut=    40.00 Ry     beta= 0.40
     Davidson diagonalization with overlap
     ethr =  1.93E-10,  avg # of iterations =  3.3

     total cpu time spent up to now is     5827.9 secs

     total energy              =  -10033.59179179 Ry
     Harris-Foulkes estimate   =  -10033.59179305 Ry
     estimated scf accuracy    <       0.00000916 Ry

     iteration # 18     ecut=    40.00 Ry     beta= 0.40
     Davidson diagonalization with overlap
     ethr =  1.93E-10,  avg # of iterations =  4.0

     total cpu time spent up to now is     6143.5 secs

     total energy              =  -10033.59179247 Ry
     Harris-Foulkes estimate   =  -10033.59179269 Ry
     estimated scf accuracy    <       0.00000237 Ry

     iteration # 19     ecut=    40.00 Ry     beta= 0.40
     Davidson diagonalization with overlap
     ethr =  1.93E-10,  avg # of iterations =  2.0

     total cpu time spent up to now is     6382.0 secs

     total energy              =  -10033.59179253 Ry
     Harris-Foulkes estimate   =  -10033.59179254 Ry
     estimated scf accuracy    <       0.00000008 Ry

     iteration # 20     ecut=    40.00 Ry     beta= 0.40
     Davidson diagonalization with overlap
     ethr =  9.89E-12,  avg # of iterations =  4.6

     total cpu time spent up to now is     6723.1 secs

     total energy              =  -10033.59179252 Ry
     Harris-Foulkes estimate   =  -10033.59179253 Ry
     estimated scf accuracy    <       0.00000008 Ry

     iteration # 21     ecut=    40.00 Ry     beta= 0.40
     Davidson diagonalization with overlap
     ethr =  9.89E-12,  avg # of iterations =  2.0

     total cpu time spent up to now is     6978.1 secs

     total energy              =  -10033.59179251 Ry
     Harris-Foulkes estimate   =  -10033.59179251 Ry
     estimated scf accuracy    <       0.00000002 Ry

     iteration # 22     ecut=    40.00 Ry     beta= 0.40
     Davidson diagonalization with overlap
     ethr =  2.36E-12,  avg # of iterations =  2.0

     total cpu time spent up to now is     7216.1 secs

     total energy              =  -10033.59179250 Ry
     Harris-Foulkes estimate   =  -10033.59179250 Ry
     estimated scf accuracy    <          3.5E-10 Ry

     iteration # 23     ecut=    40.00 Ry     beta= 0.40
     Davidson diagonalization with overlap
     ethr =  1.00E-13,  avg # of iterations =  4.1

     total cpu time spent up to now is     7561.3 secs

     total energy              =  -10033.59179249 Ry
     Harris-Foulkes estimate   =  -10033.59179249 Ry
     estimated scf accuracy    <          5.2E-10 Ry

     iteration # 24     ecut=    40.00 Ry     beta= 0.40
     Davidson diagonalization with overlap
     ethr =  1.00E-13,  avg # of iterations =  1.0

     total cpu time spent up to now is     7792.4 secs

     total energy              =  -10033.59179248 Ry
     Harris-Foulkes estimate   =  -10033.59179248 Ry
     estimated scf accuracy    <          2.5E-10 Ry

     iteration # 25     ecut=    40.00 Ry     beta= 0.40
     Davidson diagonalization with overlap
     ethr =  1.00E-13,  avg # of iterations =  1.0

     total cpu time spent up to now is     8022.6 secs

     total energy              =  -10033.59179247 Ry
     Harris-Foulkes estimate   =  -10033.59179247 Ry
     estimated scf accuracy    <          1.1E-11 Ry

     iteration # 26     ecut=    40.00 Ry     beta= 0.40
     Davidson diagonalization with overlap
     ethr =  1.00E-13,  avg # of iterations =  1.0

     total cpu time spent up to now is     8252.1 secs

     total energy              =  -10033.59179247 Ry
     Harris-Foulkes estimate   =  -10033.59179247 Ry
     estimated scf accuracy    <          3.4E-12 Ry

     iteration # 27     ecut=    40.00 Ry     beta= 0.40
     Davidson diagonalization with overlap
     ethr =  1.00E-13,  avg # of iterations =  1.0

     total cpu time spent up to now is     8481.6 secs

     total energy              =  -10033.59179247 Ry
     Harris-Foulkes estimate   =  -10033.59179247 Ry
     estimated scf accuracy    <          4.6E-12 Ry

     iteration # 28     ecut=    40.00 Ry     beta= 0.40
     Davidson diagonalization with overlap
     ethr =  1.00E-13,  avg # of iterations =  1.0

     total cpu time spent up to now is     8709.7 secs

     End of self-consistent calculation

          k = 0.0000 0.0000 0.0000 (123065 PWs)   bands (ev):

    -3.3305  -2.7914  -2.7877  -2.7824  -2.7824  -2.7673  -2.6973  -2.2324
    -2.2320  -2.2287  -2.2287  -2.2283  -2.2273  -2.2226  -2.2226  -2.2131
    -2.2131  -2.1462  -2.0528  -1.6707  -1.6698  -1.6618  -1.6618  -1.6605
    -1.6605  -1.5879  -1.5620  -1.1124  -1.1037  -1.1023  -1.1023  -1.0872
    -1.0439  -0.5685  -0.5685  -0.5682  -0.5682  -0.5677  -0.5674  -0.5659
    -0.5627  -0.5627  -0.5625  -0.5625  -0.5600  -0.5600  -0.5589  -0.5588
    -0.5586  -0.5557  -0.5427  -0.5427  -0.5093  -0.5093  -0.5023  -0.4150
    -0.3398  -0.0181  -0.0176  -0.0155  -0.0144  -0.0134  -0.0131  -0.0131
    -0.0121  -0.0121  -0.0115  -0.0102  -0.0102  -0.0085  -0.0085  -0.0078
    -0.0048  -0.0021   0.0316   0.0316   0.0378   0.0378   0.0390   0.3030
     0.3320   1.0825   1.0857   1.0857   1.0859   1.0885   1.1051   1.1051
     1.1065   1.1065   1.1202   1.1567   1.1813   1.6202   1.6209   1.6213
     1.6213   1.6220   1.6226   1.6230   1.6231   1.6235   1.6245   1.6245
     1.6254   1.6256   1.6292   1.6292   1.6297   1.6309   1.6309   1.6340
     1.6375   1.6428   1.6428   1.6445   1.6732   1.6732   1.7049   1.7049
     1.7205   1.7761   1.9316   2.1561   2.1562   2.1582   2.1582   2.1591
     2.1602   2.1608   2.1638   2.1638   2.1638   2.1638   2.1643   2.1661
     2.1661   2.1668   2.1796   2.1914   2.1914   2.2125   2.2396   2.2538
     2.2538   2.3372   2.3969   2.7002   2.7010   2.7012   2.7012   2.7014
     2.7014   2.7015   2.7016   2.7035   2.7042   2.7092   2.7092   2.7099
     2.7099   2.7133   2.7140   2.7655   2.7655   2.7712   2.7846   2.7846
     2.7848   2.9333   3.0333   3.1575   3.2045   3.2045   3.2162   3.3563
     3.3563   3.3563   3.4785   3.7702   3.7711   3.7711   3.7714   3.7717
     3.7749   3.7749   3.7755   3.7769   3.7769   3.7783   3.7837   3.7838
     3.7897   3.7897   3.7958   3.8054   3.8206   3.8206   3.8442   3.8471
     3.8471   3.9399   3.9579   4.1941   4.1949   4.1949   4.1977   4.1978
     4.1978   4.1990   4.2002   4.2002   4.2007   4.2007   4.2025   4.2032
     4.2072   4.2085   4.2099   4.2099   4.2231   4.2825   4.2877   4.2877
     4.3377   4.3377   4.4263   4.4285   4.4296   4.4300   4.4307   4.4307
     4.4307   4.4308   4.4308   4.4334   4.4375   4.4455   4.4458   4.4458
     4.4483   4.4483   4.4554   4.4559   4.4669   4.4787   4.4787   4.5263
     4.5263   4.8028   4.8390   4.8483   4.8483   5.0921   5.3243   5.3259
     5.3274   5.3274   5.3324   5.3324   5.3411   5.3607   5.3607   5.4294
     5.4305   5.4305   5.8408   5.8425   5.8448   5.8471   5.8471   5.8535
     5.8563   5.8698   5.8698   5.8914   5.8914   5.8934   5.9005   5.9102
     5.9124   5.9139   5.9139   5.9167   5.9168   5.9190   5.9190   5.9213
     5.9236   5.9308   5.9308   5.9364   5.9584   5.9584   5.9797   5.9797
     5.9869   6.0138   6.0414   6.0871   6.0871   6.1285   6.1295   6.1642
     6.2347   6.3741   6.3741   6.3770   6.3773   6.3806   6.3910   6.4029
     6.4029   6.4416   6.4416   6.4498   6.4517   6.6448   6.6510   6.6518
     6.6532   6.6532   6.6608   6.6608   6.6727   6.7094   6.7121   6.7279
     6.7925   6.8787   6.8822   6.8861   6.8861   6.8864   6.8864   6.8938
     6.9024   6.9024   6.9049   6.9049   6.9224   6.9502   6.9511   6.9596
     6.9596   6.9629   6.9629   6.9630   6.9630   6.9710   6.9720   6.9892
     6.9900   6.9900   6.9961   6.9961   6.9993   7.0050   7.0108   7.0592
     7.0592   7.0960   7.0960   7.1333   7.1383   7.2927   7.2927   7.2957
     7.2957   7.2963   7.2963   7.2993   7.3198   7.3236   7.3410   7.3830
     7.3895   7.3895   7.3895   7.3899   7.3914   7.3946   7.3946   7.3984
     7.3998   7.3998   7.4070   7.4076   7.4274   7.4274   7.4308   7.4421
     7.4421   7.4517   7.4987   7.4987   7.5557   7.6541   7.6541   7.6865
     7.7463   7.9264   7.9342   7.9372   7.9515   7.9515   7.9537   8.5279
     8.5319   8.5342   8.5343   8.5372   8.5372   8.5375   8.5375   8.5400
     8.5406   8.5451   8.5499   8.5499   8.5554   8.5554   8.5585   8.5610
     8.6041   8.6282   8.6282   8.6474   8.6513   8.6513   8.6608   8.7526
     8.7562   8.7568   8.7568   8.7708   8.7846   8.8375   8.8378   8.8378
     8.8406   8.8406   8.8426   8.8426   8.8443   8.8443   8.8472   8.8518
     8.8530   8.8556   8.8557   8.8576   8.8576   8.8751   8.8946   8.9009
     8.9228

     occupation numbers 
     1.0000   1.0000   1.0000   1.0000   1.0000   1.0000   1.0000   1.0000
     1.0000   1.0000   1.0000   1.0000   1.0000   1.0000   1.0000   1.0000
     1.0000   1.0000   1.0000   1.0000   1.0000   1.0000   1.0000   1.0000
     1.0000   1.0000   1.0000   1.0000   1.0000   1.0000   1.0000   1.0000
     1.0000   1.0000   1.0000   1.0000   1.0000   1.0000   1.0000   1.0000
     1.0000   1.0000   1.0000   1.0000   1.0000   1.0000   1.0000   1.0000
     1.0000   1.0000   1.0000   1.0000   1.0000   1.0000   1.0000   1.0000
     1.0000   1.0000   1.0000   1.0000   1.0000   1.0000   1.0000   1.0000
     1.0000   1.0000   1.0000   1.0000   1.0000   1.0000   1.0000   1.0000
     1.0000   1.0000   1.0000   1.0000   1.0000   1.0000   1.0000   1.0000
     1.0000   1.0000   1.0000   1.0000   1.0000   1.0000   1.0000   1.0000
     1.0000   1.0000   1.0000   1.0000   1.0000   1.0000   1.0000   1.0000
     1.0000   1.0000   1.0000   1.0000   1.0000   1.0000   1.0000   1.0000
     1.0000   1.0000   1.0000   1.0000   1.0000   1.0000   1.0000   1.0000
     1.0000   1.0000   1.0000   1.0000   1.0000   1.0000   1.0000   1.0000
     1.0000   1.0000   1.0000   1.0000   1.0000   1.0000   1.0000   1.0000
     1.0000   1.0000   1.0000   1.0000   1.0000   1.0000   1.0000   1.0000
     1.0000   1.0000   1.0000   1.0000   1.0000   1.0000   1.0000   1.0000
     1.0000   1.0000   1.0000   1.0000   1.0000   1.0000   1.0000   1.0000
     1.0000   1.0000   1.0000   1.0000   1.0000   1.0000   1.0000   1.0000
     1.0000   1.0000   1.0000   1.0000   1.0000   1.0000   1.0000   1.0000
     1.0000   1.0000   1.0000   1.0000   1.0000   1.0000   1.0000   1.0000
     1.0000   1.0000   1.0000   1.0000   1.0000   1.0000   1.0000   1.0000
     1.0000   1.0000   1.0000   1.0000   1.0000   1.0000   1.0000   1.0000
     1.0000   1.0000   1.0000   1.0000   1.0000   1.0000   1.0000   1.0000
     1.0000   1.0000   1.0000   1.0000   1.0000   1.0000   1.0000   1.0000
     1.0000   1.0000   1.0000   1.0000   1.0000   1.0000   1.0000   1.0000
     1.0000   1.0000   1.0000   1.0000   1.0000   1.0000   1.0000   1.0000
     1.0000   1.0000   1.0000   1.0000   1.0000   1.0000   1.0000   1.0000
     1.0000   1.0000   1.0000   1.0000   1.0000   1.0000   1.0000   1.0000
     1.0000   1.0000   1.0000   1.0000   1.0000   1.0000   1.0000   1.0000
     1.0000   1.0000   1.0000   1.0000   1.0000   1.0000   1.0000   1.0000
     1.0000   1.0000   1.0000   1.0000   1.0000   1.0000   1.0000   1.0000
     1.0000   1.0000   1.0001   1.0001   1.0001   1.0001   1.0001   1.0001
     1.0001   1.0001   1.0001   1.0001   1.0001   1.0001   1.0001   1.0001
     1.0001   1.0001   1.0001   1.0001   1.0001   1.0001   1.0001   1.0001
     1.0001   1.0001   1.0001   1.0001   1.0002   1.0002   1.0002   1.0002
     1.0002   1.0003   1.0003   1.0005   1.0005   1.0007   1.0007   1.0009
     1.0015   1.0038   1.0038   1.0039   1.0039   1.0040   1.0043   1.0046
     1.0046   1.0058   1.0058   1.0060   1.0061   1.0161   1.0165   1.0166
     1.0167   1.0167   1.0172   1.0172   1.0180   1.0207   1.0209   1.0221
     1.0271   1.0329   1.0330   1.0332   1.0332   1.0333   1.0333   1.0336
     1.0340   1.0340   1.0341   1.0341   1.0348   1.0354   1.0354   1.0354
     1.0354   1.0355   1.0355   1.0355   1.0355   1.0354   1.0354   1.0352
     1.0352   1.0352   1.0350   1.0350   1.0349   1.0347   1.0345   1.0308
     1.0308   1.0258   1.0258   1.0183   1.0171   0.9522   0.9522   0.9503
     0.9503   0.9499   0.9499   0.9481   0.9344   0.9318   0.9191   0.8851
     0.8795   0.8795   0.8794   0.8791   0.8778   0.8749   0.8748   0.8714
     0.8702   0.8702   0.8635   0.8630   0.8438   0.8438   0.8405   0.8290
     0.8290   0.8190   0.7668   0.7668   0.6969   0.5643   0.5643   0.5189
     0.4347   0.2043   0.1958   0.1925   0.1773   0.1773   0.1750  -0.0325
    -0.0322  -0.0321  -0.0321  -0.0319  -0.0319  -0.0319  -0.0319  -0.0318
    -0.0317  -0.0314  -0.0311  -0.0311  -0.0308  -0.0308  -0.0306  -0.0304
    -0.0273  -0.0255  -0.0255  -0.0240  -0.0237  -0.0237  -0.0230  -0.0162
    -0.0160  -0.0160  -0.0160  -0.0150  -0.0141  -0.0110  -0.0110  -0.0110
    -0.0109  -0.0109  -0.0107  -0.0107  -0.0107  -0.0107  -0.0105  -0.0103
    -0.0102  -0.0101  -0.0101  -0.0100  -0.0100  -0.0091  -0.0082  -0.0080
    -0.0071

          k = 0.0000 0.0000 0.2000 (123202 PWs)   bands (ev):

    -3.3085  -2.9724  -2.7659  -2.7601  -2.7454  -2.7161  -2.5219  -2.4301
    -2.4238  -2.4097  -2.3661  -2.2013  -2.2004  -2.1689  -2.1631  -1.9838
    -1.9774  -1.9608  -1.9217  -1.8662  -1.8653  -1.8188  -1.7891  -1.5119
    -1.4221  -1.4208  -1.3824  -1.3673  -1.0819  -1.0806  -1.0675  -1.0642
    -0.9847  -0.9786  -0.9613  -0.9067  -0.7501  -0.7473  -0.7377  -0.7177
    -0.6289  -0.5413  -0.5405  -0.5387  -0.5263  -0.5215  -0.5196  -0.5037
    -0.4850  -0.4262  -0.4258  -0.3874  -0.3740  -0.3070  -0.3059  -0.2935
    -0.2822  -0.2103  -0.2097  -0.2079  -0.1904  -0.1859  -0.1829  -0.1388
    -0.1062  -0.1021  -0.0954  -0.0332   0.0305   0.2291   0.2299   0.2316
     0.2469   0.2521   0.2555   0.2991   0.3396   0.4532   0.4540   0.5464
     0.5556   0.6818   0.6824   0.7156   0.7333   1.0187   1.1074   1.1247
     1.1248   1.1392   1.2130   1.2141   1.2155   1.2288   1.2344   1.2350
     1.2698   1.3128   1.4353   1.4593   1.4600   1.4873   1.5341   1.5389
     1.5520   1.5525   1.5660   1.5765   1.6145   1.6159   1.6556   1.6663
     1.6746   1.7126   1.8690   1.8883   1.8886   1.9100   1.9777   1.9887
     1.9892   2.0019   2.0804   2.0808   2.0827   2.0838   2.0842   2.0978
     2.0988   2.1022   2.1228   2.1354   2.1499   2.1642   2.1855   2.1858
     2.2114   2.2137   2.2158   2.2271   2.2601   2.3194   2.3288   2.4151
     2.4256   2.4334   2.4496   2.5097   2.5101   2.5385   2.5399   2.5483
     2.5518   2.6157   2.6383   2.8225   2.8291   2.8359   2.8513   2.8587
     2.8606   2.8931   2.8973   2.9402   2.9405   2.9700   2.9751   2.9770
     2.9863   3.0536   3.0764   3.1718   3.1736   3.2115   3.2171   3.3639
     3.3659   3.3795   3.3977   3.4012   3.4236   3.4273   3.4970   3.6838
     3.6854   3.6873   3.7005   3.7007   3.7030   3.7205   3.7286   3.7299
     3.7538   3.7687   3.7836   3.7976   3.7982   3.8112   3.8124   3.8145
     3.8385   3.8416   3.8820   3.8957   3.8959   3.9279   3.9343   3.9359
     3.9492   3.9890   4.0070   4.1093   4.1106   4.1265   4.1266   4.1292
     4.1902   4.1975   4.2320   4.2476   4.2518   4.2905   4.3022   4.4410
     4.4446   4.4464   4.4641   4.4868   4.5683   4.5698   4.5783   4.5809
     4.5889   4.6251   4.6411   4.6764   4.7828   4.7830   4.7961   4.7974
     4.8115   4.8179   4.8494   4.8725   4.8858   4.8954   4.9282   4.9339
     4.9619   4.9861   4.9867   4.9870   5.0055   5.0088   5.0299   5.0390
     5.1256   5.1653   5.1758   5.2913   5.3102   5.3209   5.3310   5.3529
     5.3813   5.3818   5.3862   5.3944   5.4511   5.4516   5.5070   5.5091
     5.5160   5.5174   5.5299   5.5344   5.5493   5.5727   5.5825   5.5905
     5.5960   5.6643   5.7032   5.7213   5.7261   5.7397   5.8133   5.8374
     5.8633   5.8672   6.0753   6.1059   6.1152   6.1331   6.1496   6.1661
     6.3499   6.3518   6.3658   6.3672   6.3682   6.3713   6.3741   6.3785
     6.3791   6.3874   6.3875   6.3941   6.3969   6.4026   6.4038   6.4240
     6.4540   6.4593   6.4696   6.4768   6.4815   6.4916   6.4955   6.5190
     6.5272   6.5536   6.5677   6.5811   6.5862   6.5933   6.6026   6.6146
     6.6556   6.6773   6.6926   6.7241   6.7376   6.7896   6.7949   6.8152
     6.8335   6.8469   6.8565   6.8636   6.8726   6.9117   6.9134   6.9185
     6.9373   6.9469   6.9508   7.0057   7.0203   7.0255   7.0267   7.0281
     7.0293   7.0629   7.0645   7.0728   7.0736   7.0877   7.1008   7.1274
     7.1310   7.1746   7.2021   7.2121   7.2136   7.2327   7.2341   7.2400
     7.2670   7.2877   7.3026   7.3070   7.3195   7.3441   7.3662   7.3801
     7.3913   7.5033   7.5216   7.5388   7.5710   7.6016   7.6030   7.6112
     7.6154   7.6338   7.6359   7.6391   7.6417   7.6503   7.6861   7.6877
     7.6962   7.7116   7.7191   7.7770   7.7908   7.8350   7.8708   7.8837
     7.9005   7.9194   7.9388   7.9407   7.9437   7.9528   7.9592   7.9907
     8.0073   8.0150   8.0475   8.1447   8.1499   8.1525   8.1543   8.1889
     8.1931   8.2370   8.2517   8.4477   8.4698   8.4766   8.5245   8.5690
     8.5701   8.5875   8.5918   8.6174   8.6260   8.6601   8.6651   8.6736
     8.6828   8.7129   8.7760   8.9023   8.9054   8.9578   8.9674   8.9863
     8.9872   8.9957   8.9965   9.0000   9.0041   9.0284   9.0464   9.0979
     9.0995   9.1250   9.1297   9.1353   9.1428   9.1767   9.1784   9.1801
     9.1820

     occupation numbers 
     1.0000   1.0000   1.0000   1.0000   1.0000   1.0000   1.0000   1.0000
     1.0000   1.0000   1.0000   1.0000   1.0000   1.0000   1.0000   1.0000
     1.0000   1.0000   1.0000   1.0000   1.0000   1.0000   1.0000   1.0000
     1.0000   1.0000   1.0000   1.0000   1.0000   1.0000   1.0000   1.0000
     1.0000   1.0000   1.0000   1.0000   1.0000   1.0000   1.0000   1.0000
     1.0000   1.0000   1.0000   1.0000   1.0000   1.0000   1.0000   1.0000
     1.0000   1.0000   1.0000   1.0000   1.0000   1.0000   1.0000   1.0000
     1.0000   1.0000   1.0000   1.0000   1.0000   1.0000   1.0000   1.0000
     1.0000   1.0000   1.0000   1.0000   1.0000   1.0000   1.0000   1.0000
     1.0000   1.0000   1.0000   1.0000   1.0000   1.0000   1.0000   1.0000
     1.0000   1.0000   1.0000   1.0000   1.0000   1.0000   1.0000   1.0000
     1.0000   1.0000   1.0000   1.0000   1.0000   1.0000   1.0000   1.0000
     1.0000   1.0000   1.0000   1.0000   1.0000   1.0000   1.0000   1.0000
     1.0000   1.0000   1.0000   1.0000   1.0000   1.0000   1.0000   1.0000
     1.0000   1.0000   1.0000   1.0000   1.0000   1.0000   1.0000   1.0000
     1.0000   1.0000   1.0000   1.0000   1.0000   1.0000   1.0000   1.0000
     1.0000   1.0000   1.0000   1.0000   1.0000   1.0000   1.0000   1.0000
     1.0000   1.0000   1.0000   1.0000   1.0000   1.0000   1.0000   1.0000
[...]
     atom   73 type  1   force =     0.00000003   -0.00000003   -0.00000001
     atom   74 type  1   force =     0.00000004   -0.00000001   -0.00000007
     atom   75 type  1   force =     0.00000010   -0.00000003   -0.00000012
     atom   76 type  1   force =     0.00000008   -0.00000001   -0.00000006
     atom   77 type  1   force =     0.00000012   -0.00000003   -0.00000005
     atom   78 type  1   force =     0.00000014   -0.00000001   -0.00000009
     atom   79 type  1   force =     0.00000014    0.00000004   -0.00000002
     atom   80 type  1   force =     0.00000010    0.00000004   -0.00000001
     atom   81 type  1   force =     0.00000012    0.00000004    0.00000002
     atom   82 type  1   force =     0.00000012    0.00000008    0.00000005
     atom   83 type  1   force =     0.00000009    0.00000004    0.00000012
     atom   84 type  1   force =     0.00000004    0.00000003    0.00000005
     atom   85 type  1   force =     0.00000002    0.00000002    0.00000004
     atom   86 type  1   force =     0.00000002    0.00000004    0.00000008
     atom   87 type  1   force =     0.00000000    0.00000001    0.00000001
     atom   88 type  1   force =    -0.00000002    0.00000002    0.00000000
     atom   89 type  1   force =     0.00000002    0.00000000   -0.00000000
     atom   90 type  1   force =     0.00000003    0.00000002   -0.00000005
     atom   91 type  1   force =     0.00000010    0.00000002   -0.00000012
     atom   92 type  1   force =     0.00000005    0.00000002   -0.00000004
     atom   93 type  1   force =     0.00000011    0.00000002   -0.00000006
     atom   94 type  1   force =     0.00000012    0.00000006   -0.00000007
     atom   95 type  1   force =     0.00000010    0.00000007   -0.00000001
     atom   96 type  1   force =     0.00000003   -0.00000001   -0.00000001
     atom   97 type  1   force =     0.00000004    0.00000004    0.00000001
     atom   98 type  1   force =     0.00000006    0.00000001    0.00000005
     atom   99 type  1   force =     0.00000004    0.00000006    0.00000009
     atom  100 type  1   force =    -0.00000000    0.00000002    0.00000003
     atom  101 type  1   force =    -0.00000003    0.00000002    0.00000004
     atom  102 type  1   force =     0.00000001    0.00000000    0.00000004
     atom  103 type  1   force =     0.00000001    0.00000003   -0.00000002
     atom  104 type  1   force =    -0.00000002    0.00000002    0.00000002
     atom  105 type  1   force =     0.00000001    0.00000003   -0.00000001
     atom  106 type  1   force =     0.00000005    0.00000001   -0.00000004
     atom  107 type  1   force =     0.00000007    0.00000004   -0.00000006
     atom  108 type  1   force =     0.00000003    0.00000002   -0.00000004
     atom  109 type  1   force =     0.00000005    0.00000003   -0.00000004
     atom  110 type  1   force =     0.00000007    0.00000001   -0.00000005
     atom  111 type  1   force =     0.00000009   -0.00000007   -0.00000000
     atom  112 type  1   force =     0.00000009   -0.00000002   -0.00000003
     atom  113 type  1   force =     0.00000003   -0.00000004    0.00000004
     atom  114 type  1   force =     0.00000011   -0.00000008    0.00000006
     atom  115 type  1   force =     0.00000005   -0.00000005    0.00000007
     atom  116 type  1   force =     0.00000003   -0.00000006    0.00000005
     atom  117 type  1   force =    -0.00000000   -0.00000002    0.00000003
     atom  118 type  1   force =     0.00000002   -0.00000004    0.00000007
     atom  119 type  1   force =     0.00000002   -0.00000002    0.00000000
     atom  120 type  1   force =     0.00000001   -0.00000003    0.00000003
     atom  121 type  1   force =     0.00000003   -0.00000000   -0.00000001
     atom  122 type  1   force =     0.00000005   -0.00000003   -0.00000005
     atom  123 type  1   force =     0.00000008   -0.00000004   -0.00000007
     atom  124 type  1   force =     0.00000008   -0.00000003   -0.00000006
     atom  125 type  1   force =     0.00000006   -0.00000002   -0.00000006
     atom  126 type  1   force =     0.00000013   -0.00000006   -0.00000007
     atom  127 type  1   force =    -0.00000000   -0.00000002   -0.00000005
     atom  128 type  1   force =    -0.00000013   -0.00000000   -0.00000002
     atom  129 type  1   force =    -0.00000010   -0.00000001    0.00000001
     atom  130 type  1   force =     0.00000001    0.00000001    0.00000000
     atom  131 type  1   force =    -0.00000001   -0.00000000    0.00000003
     atom  132 type  1   force =    -0.00000005    0.00000003    0.00000007
     atom  133 type  1   force =    -0.00000001    0.00000002    0.00000006
     atom  134 type  1   force =     0.00000001    0.00000002    0.00000003
     atom  135 type  1   force =    -0.00000000   -0.00000002    0.00000004
     atom  136 type  1   force =     0.00000000    0.00000001    0.00000002
     atom  137 type  1   force =    -0.00000005   -0.00000001   -0.00000000
     atom  138 type  1   force =     0.00000001   -0.00000001    0.00000001
     atom  139 type  1   force =     0.00000000   -0.00000004   -0.00000003
     atom  140 type  1   force =    -0.00000008   -0.00000001   -0.00000007
     atom  141 type  1   force =    -0.00000013   -0.00000004   -0.00000006
     atom  142 type  1   force =    -0.00000000   -0.00000003   -0.00000004
     atom  143 type  1   force =     0.00000001    0.00000003   -0.00000001
     atom  144 type  1   force =    -0.00000010    0.00000002   -0.00000001
     atom  145 type  1   force =    -0.00000009    0.00000004    0.00000004
     atom  146 type  1   force =     0.00000000    0.00000000   -0.00000000
     atom  147 type  1   force =     0.00000002    0.00000002    0.00000003
     atom  148 type  1   force =    -0.00000003    0.00000000    0.00000005
     atom  149 type  1   force =    -0.00000000    0.00000001    0.00000004
     atom  150 type  1   force =     0.00000002   -0.00000000    0.00000002
     atom  151 type  1   force =     0.00000002    0.00000000    0.00000001
     atom  152 type  1   force =     0.00000001   -0.00000001    0.00000000
     atom  153 type  1   force =    -0.00000002   -0.00000000   -0.00000003
     atom  154 type  1   force =     0.00000001    0.00000001    0.00000001
     atom  155 type  1   force =    -0.00000000    0.00000000   -0.00000004
     atom  156 type  1   force =    -0.00000005    0.00000002   -0.00000004
     atom  157 type  1   force =    -0.00000010    0.00000003   -0.00000005
     atom  158 type  1   force =    -0.00000000    0.00000001   -0.00000003
     atom  159 type  1   force =    -0.00000002   -0.00000000   -0.00000002
     atom  160 type  1   force =    -0.00000007   -0.00000001   -0.00000001
     atom  161 type  1   force =    -0.00000005    0.00000000    0.00000002
     atom  162 type  1   force =    -0.00000003    0.00000001    0.00000003
     atom  163 type  1   force =    -0.00000001    0.00000001    0.00000002
     atom  164 type  1   force =    -0.00000002    0.00000001    0.00000004
     atom  165 type  1   force =     0.00000001   -0.00000001    0.00000003
     atom  166 type  1   force =    -0.00000002    0.00000002    0.00000002
     atom  167 type  1   force =    -0.00000001    0.00000001    0.00000002
     atom  168 type  1   force =    -0.00000001    0.00000001    0.00000002
     atom  169 type  1   force =    -0.00000002    0.00000000    0.00000000
     atom  170 type  1   force =    -0.00000002    0.00000003    0.00000001
     atom  171 type  1   force =    -0.00000000    0.00000002   -0.00000002
     atom  172 type  1   force =    -0.00000005    0.00000001   -0.00000005
     atom  173 type  1   force =    -0.00000006    0.00000001   -0.00000005
     atom  174 type  1   force =    -0.00000002    0.00000000   -0.00000005
     atom  175 type  1   force =    -0.00000002   -0.00000001   -0.00000002
     atom  176 type  1   force =    -0.00000011   -0.00000000   -0.00000004
     atom  177 type  1   force =    -0.00000007   -0.00000003    0.00000004
     atom  178 type  1   force =    -0.00000001   -0.00000002    0.00000000
     atom  179 type  1   force =    -0.00000002   -0.00000003    0.00000003
     atom  180 type  1   force =    -0.00000005   -0.00000004    0.00000004
     atom  181 type  1   force =    -0.00000002   -0.00000001    0.00000003
     atom  182 type  1   force =    -0.00000002   -0.00000004    0.00000005
     atom  183 type  1   force =    -0.00000003    0.00000001    0.00000004
     atom  184 type  1   force =    -0.00000004   -0.00000002    0.00000004
     atom  185 type  1   force =    -0.00000005    0.00000001    0.00000001
     atom  186 type  1   force =    -0.00000001   -0.00000003    0.00000002
     atom  187 type  1   force =    -0.00000000    0.00000002   -0.00000005
     atom  188 type  1   force =    -0.00000009   -0.00000002   -0.00000004
     atom  189 type  1   force =    -0.00000009    0.00000001   -0.00000008
     atom  190 type  1   force =     0.00000001    0.00000001   -0.00000006
     atom  191 type  1   force =    -0.00000015   -0.00000003   -0.00000002
     atom  192 type  1   force =    -0.00000002    0.00000001   -0.00000000
     atom  193 type  1   force =    -0.00000003   -0.00000002    0.00000006
     atom  194 type  1   force =    -0.00000013    0.00000002    0.00000007
     atom  195 type  1   force =    -0.00000007   -0.00000000    0.00000012
     atom  196 type  1   force =    -0.00000006    0.00000000    0.00000017
     atom  197 type  1   force =    -0.00000001   -0.00000001    0.00000013
     atom  198 type  1   force =    -0.00000003    0.00000001    0.00000009
     atom  199 type  1   force =    -0.00000000    0.00000001   -0.00000000
     atom  200 type  1   force =    -0.00000001   -0.00000002   -0.00000001
     atom  201 type  1   force =    -0.00000001   -0.00000001   -0.00000013
     atom  202 type  1   force =    -0.00000006    0.00000001   -0.00000008
     atom  203 type  1   force =    -0.00000012   -0.00000003   -0.00000010
     atom  204 type  1   force =    -0.00000006   -0.00000000   -0.00000016
     atom  205 type  1   force =    -0.00000005   -0.00000003   -0.00000006
     atom  206 type  1   force =    -0.00000015    0.00000000   -0.00000008
     atom  207 type  1   force =    -0.00000014    0.00000005   -0.00000000
     atom  208 type  1   force =    -0.00000006    0.00000005    0.00000000
     atom  209 type  1   force =    -0.00000005    0.00000004    0.00000006
     atom  210 type  1   force =    -0.00000011    0.00000004    0.00000006
     atom  211 type  1   force =    -0.00000009    0.00000003    0.00000012
     atom  212 type  1   force =    -0.00000006    0.00000005    0.00000013
     atom  213 type  1   force =    -0.00000005    0.00000000    0.00000011
     atom  214 type  1   force =    -0.00000004    0.00000001    0.00000006
     atom  215 type  1   force =    -0.00000003    0.00000000    0.00000000
     atom  216 type  1   force =    -0.00000003    0.00000000   -0.00000000
     atom  217 type  1   force =    -0.00000004    0.00000000   -0.00000011
     atom  218 type  1   force =    -0.00000005    0.00000000   -0.00000006
     atom  219 type  1   force =    -0.00000011    0.00000003   -0.00000012
     atom  220 type  1   force =    -0.00000007    0.00000005   -0.00000012
     atom  221 type  1   force =    -0.00000005    0.00000004   -0.00000005
     atom  222 type  1   force =    -0.00000013    0.00000006   -0.00000007
     atom  223 type  1   force =    -0.00000009    0.00000003   -0.00000001
     atom  224 type  1   force =    -0.00000002   -0.00000002   -0.00000000
     atom  225 type  1   force =    -0.00000005    0.00000006    0.00000006
     atom  226 type  1   force =    -0.00000006   -0.00000001    0.00000006
     atom  227 type  1   force =    -0.00000005    0.00000002    0.00000008
     atom  228 type  1   force =    -0.00000004   -0.00000001    0.00000009
     atom  229 type  1   force =    -0.00000004    0.00000001    0.00000006
     atom  230 type  1   force =    -0.00000001   -0.00000000    0.00000003
     atom  231 type  1   force =    -0.00000002   -0.00000001   -0.00000001
     atom  232 type  1   force =    -0.00000003    0.00000001   -0.00000002
     atom  233 type  1   force =    -0.00000005    0.00000001   -0.00000006
     atom  234 type  1   force =    -0.00000004    0.00000001   -0.00000001
     atom  235 type  1   force =    -0.00000008    0.00000003   -0.00000006
     atom  236 type  1   force =    -0.00000005   -0.00000001   -0.00000007
     atom  237 type  1   force =    -0.00000006    0.00000007   -0.00000007
     atom  238 type  1   force =    -0.00000007   -0.00000002   -0.00000008
     atom  239 type  1   force =    -0.00000010   -0.00000005   -0.00000001
     atom  240 type  1   force =    -0.00000004   -0.00000003   -0.00000001
     atom  241 type  1   force =    -0.00000004   -0.00000008    0.00000008
     atom  242 type  1   force =    -0.00000012   -0.00000005    0.00000006
     atom  243 type  1   force =    -0.00000006   -0.00000005    0.00000008
     atom  244 type  1   force =    -0.00000003   -0.00000005    0.00000015
     atom  245 type  1   force =    -0.00000001   -0.00000001    0.00000007
     atom  246 type  1   force =    -0.00000001   -0.00000002    0.00000008
     atom  247 type  1   force =    -0.00000001   -0.00000001    0.00000001
     atom  248 type  1   force =     0.00000002    0.00000000   -0.00000001
     atom  249 type  1   force =    -0.00000004   -0.00000000   -0.00000007
     atom  250 type  1   force =    -0.00000005   -0.00000002   -0.00000004
     atom  251 type  1   force =    -0.00000009   -0.00000002   -0.00000008
     atom  252 type  1   force =    -0.00000006   -0.00000004   -0.00000013
     atom  253 type  1   force =    -0.00000005   -0.00000007   -0.00000008
     atom  254 type  1   force =    -0.00000015   -0.00000004   -0.00000009

     Total force =     0.004446     Total SCF correction =     0.000002


     Computing stress (Cartesian axis) and pressure

          total   stress  (Ry/bohr**3)                   (kbar)     P=  -11.68
  -0.00007932  -0.00000000   0.00000000        -11.67     -0.00      0.00
  -0.00000000  -0.00007958  -0.00000000         -0.00    -11.71     -0.00
   0.00000000  -0.00000000  -0.00007932          0.00     -0.00    -11.67

     kinetic stress (kbar)   1419.94     -0.00      0.00
                               -0.00   1420.01     -0.00
                                0.00     -0.00   1419.94

     local   stress (kbar)    607.77     -0.00     -0.00
                               -0.00    593.46      0.00
                               -0.00      0.00    607.77

     nonloc. stress (kbar)   1030.10      0.00     -0.00
                                0.00   1030.09      0.00
                               -0.00      0.00   1030.10

     hartree stress (kbar)      6.79     -0.00     -0.00
                               -0.00     13.20     -0.00
                               -0.00     -0.00      6.79

     exc-cor stress (kbar)    498.08      0.00      0.00
                                0.00    498.08     -0.00
                                0.00     -0.00    498.08

     corecor stress (kbar)  -1261.33     -0.00     -0.00
                               -0.00  -1261.33      0.00
                               -0.00      0.00  -1261.33

     ewald   stress (kbar)  -2313.02      0.00     -0.00
                                0.00  -2305.21     -0.00
                               -0.00     -0.00  -2313.02

     hubbard stress (kbar)      0.00      0.00      0.00
                                0.00      0.00      0.00
                                0.00      0.00      0.00

     london  stress (kbar)      0.00      0.00      0.00
                                0.00      0.00      0.00
                                0.00      0.00      0.00

     DFT-D3  stress (kbar)      0.00      0.00      0.00
                                0.00      0.00      0.00
                                0.00      0.00      0.00

     XDM     stress (kbar)      0.00      0.00      0.00
                                0.00      0.00      0.00
                                0.00      0.00      0.00

     dft-nl  stress (kbar)      0.00      0.00      0.00
                                0.00      0.00      0.00
                                0.00      0.00      0.00

     TS-vdW  stress (kbar)      0.00      0.00      0.00
                                0.00      0.00      0.00
                                0.00      0.00      0.00



     Writing output data file aiida.save/
 
     init_run     :    203.42s CPU    205.80s WALL (       1 calls)
     electrons    :   8437.68s CPU   8503.02s WALL (       1 calls)
     forces       :     99.25s CPU    100.24s WALL (       1 calls)
     stress       :   1158.02s CPU   1159.65s WALL (       1 calls)

     Called by init_run:
     wfcinit      :    196.28s CPU    198.29s WALL (       1 calls)
     wfcinit:atom :      0.31s CPU      0.58s WALL (       2 calls)
     wfcinit:wfcr :    193.79s CPU    194.78s WALL (       2 calls)
     potinit      :      2.12s CPU      2.30s WALL (       1 calls)
     hinit0       :      2.49s CPU      2.55s WALL (       1 calls)

     Called by electrons:
     c_bands      :   7321.49s CPU   7377.77s WALL (      29 calls)
     sum_band     :   1023.73s CPU   1028.16s WALL (      29 calls)
     v_of_rho     :     44.13s CPU     45.05s WALL (      29 calls)
     v_h          :      3.57s CPU      3.57s WALL (      29 calls)
     v_xc         :     42.29s CPU     43.25s WALL (      31 calls)
     newd         :      8.58s CPU     10.29s WALL (      29 calls)
     PAW_pot      :      5.09s CPU      5.65s WALL (      29 calls)
     mix_rho      :     27.92s CPU     29.31s WALL (      29 calls)

     Called by c_bands:
     init_us_2    :     88.00s CPU     88.55s WALL (     122 calls)
     cegterg      :   6619.68s CPU   6674.54s WALL (      58 calls)

     Called by sum_band:
     sum_band:bec :      1.49s CPU      1.49s WALL (      58 calls)
     addusdens    :      6.53s CPU      8.84s WALL (      29 calls)

     Called by *egterg:
     h_psi        :   4174.83s CPU   4192.78s WALL (     275 calls)
     s_psi        :   1312.23s CPU   1314.93s WALL (     275 calls)
     g_psi        :      5.17s CPU      5.17s WALL (     215 calls)
     cdiaghg      :    334.11s CPU    340.07s WALL (     271 calls)
     cegterg:over :    425.35s CPU    428.30s WALL (     215 calls)
     cegterg:upda :    235.09s CPU    245.50s WALL (     215 calls)
     cegterg:last :    123.89s CPU    123.99s WALL (      60 calls)
     cdiaghg:chol :     15.62s CPU     15.78s WALL (     271 calls)
     cdiaghg:inve :      7.42s CPU      7.42s WALL (     271 calls)
     cdiaghg:para :     81.66s CPU     82.99s WALL (     542 calls)

     Called by h_psi:
     h_psi:pot    :   4169.27s CPU   4179.23s WALL (     275 calls)
     h_psi:calbec :   1398.49s CPU   1399.33s WALL (     275 calls)
     vloc_psi     :   1432.54s CPU   1438.50s WALL (     275 calls)
     add_vuspsi   :   1338.24s CPU   1341.39s WALL (     275 calls)

     General routines
     calbec       :   2055.65s CPU   2057.14s WALL (     343 calls)
     fft          :     47.24s CPU     47.61s WALL (     402 calls)
     ffts         :     13.51s CPU     13.57s WALL (     449 calls)
     fftw         :   1526.89s CPU   1533.06s WALL (  156652 calls)
     interpolate  :      4.51s CPU      4.57s WALL (      29 calls)
 
     Parallel routines
     fft_scatt_xy :    471.84s CPU    473.50s WALL (  157503 calls)
     fft_scatt_yz :    348.79s CPU    351.24s WALL (  157503 calls)

     PAW routines
     PAW_pot      :      5.09s CPU      5.65s WALL (      29 calls)
 
     PWSCF        :      2h48m CPU      2h50m WALL

 
   This run was terminated on:   1:41:51  27Feb2020            

=------------------------------------------------------------------------------=
   JOB DONE.
=------------------------------------------------------------------------------=
