
     Program PWSCF v.6.3 starts on 22Feb2020 at  7:45:39 

     This program is part of the open-source Quantum ESPRESSO suite
     for quantum simulation of materials; please cite
         "P. Giannozzi et al., J. Phys.:Condens. Matter 21 395502 (2009);
         "P. Giannozzi et al., J. Phys.:Condens. Matter 29 465901 (2017);
          URL http://www.quantum-espresso.org", 
     in publications or presentations arising from this work. More details at
     http://www.quantum-espresso.org/quote

 *** WARNING: using old-style file format, will disappear from next version ***

     Parallel version (MPI & OpenMP), running on      36 processor cores
     Number of MPI processes:                36
     Threads/MPI process:                     1

     MPI processes distributed on     1 nodes
     K-points division:     npool     =       4
     R & G space division:  proc/nbgrp/npool/nimage =       9
     Reading input from aiida.in
Warning: card &IONS ignored
Warning: card   !PRESS_CONV_THR = 0.05                 ! JUST FOR VOLUME RELAXATIONS ignored
Warning: card / ignored

     Current dimensions of program PWSCF are:
     Max number of different atomic species (ntypx) = 10
     Max number of k-points (npk) =  40000
     Max angular momentum in pseudopotentials (lmaxx) =  3
               file Al.pbe-n-kjpaw_psl.1.0.0.UPF: wavefunction(s)  3S 3P renormalized

     Subspace diagonalization in iterative solution of the eigenvalue problem:
     one sub-group per band group will be used
     scalapack distributed-memory algorithm (size of sub-group:  2*  2 procs)

 
     Parallelization info
     --------------------
     sticks:   dense  smooth     PW     G-vecs:    dense   smooth      PW
     Min        3324    1330    347               432816   109512   14645
     Max        3325    1331    348               432821   109515   14652
     Sum       29921   11977   3125              3895379   985619  131827
 


     bravais-lattice index     =            0
     lattice parameter (alat)  =      30.6665  a.u.
     unit-cell volume          =   28839.7502 (a.u.)^3
     number of atoms/cell      =          254
     number of atomic types    =            1
     number of electrons       =       762.00
     number of Kohn-Sham states=          457
     kinetic-energy cutoff     =      40.0000  Ry
     charge density cutoff     =     400.0000  Ry
     convergence threshold     =      1.0E-12
     mixing beta               =       0.4000
     number of iterations used =            8  local-TF  mixing
     Exchange-correlation      = SLA PW PBX PBC ( 1  4  3  4 0 0)

     celldm(1)=  30.666473  celldm(2)=   0.000000  celldm(3)=   0.000000
     celldm(4)=   0.000000  celldm(5)=   0.000000  celldm(6)=   0.000000

     crystal axes: (cart. coord. in units of alat)
               a(1) = (   1.000000   0.000000   0.000000 )  
               a(2) = (   0.000000   1.000000   0.000000 )  
               a(3) = (   0.000000   0.000000   1.000000 )  

     reciprocal axes: (cart. coord. in units 2 pi/alat)
               b(1) = (  1.000000  0.000000  0.000000 )  
               b(2) = (  0.000000  1.000000  0.000000 )  
               b(3) = (  0.000000  0.000000  1.000000 )  


     PseudoPot. # 1 for Al read from file:
     /users/aglensk/Dropbox/Albert/scripts/dotfiles/scripts/potentials/quantum_espresso/pseudo_SSSPefV1.1_alalloy/Al.pbe-n-kjpaw_psl.1.0.0.UPF
     MD5 check sum: cfc449ca30b5f3223ec38ddd88ac046d
     Pseudo is Projector augmented-wave + core cor, Zval =  3.0
     Generated using "atomic" code by A. Dal Corso v.5.1
     Shape of augmentation charge: PSQ
     Using radial grid of 1135 points,  6 beta functions with: 
                l(1) =   0
                l(2) =   0
                l(3) =   1
                l(4) =   1
                l(5) =   2
                l(6) =   2
     Q(r) pseudized with 0 coefficients 


     atomic species   valence    mass     pseudopotential
        Al             3.00    26.98154     Al( 1.00)

     No symmetry found


                                    s                        frac. trans.

      isym =  1     identity                                     

 cryst.   s( 1) = (     1          0          0      )
                  (     0          1          0      )
                  (     0          0          1      )

 cart.    s( 1) = (  1.0000000  0.0000000  0.0000000 )
                  (  0.0000000  1.0000000  0.0000000 )
                  (  0.0000000  0.0000000  1.0000000 )


   Cartesian axes

     site n.     atom                  positions (alat units)
         1           Al  tau(   1) = (   0.1228214   0.0001843   0.1228214  )
         2           Al  tau(   2) = (   0.1209323   0.1250000   0.0000000  )
         3           Al  tau(   3) = (   0.0000000   0.1250000   0.1209323  )
         4           Al  tau(   4) = (   0.0000000   0.0009283   0.2487493  )
         5           Al  tau(   5) = (   0.1248667   0.1250000   0.2496759  )
         6           Al  tau(   6) = (   0.1248615   0.9999963   0.3749151  )
         7           Al  tau(   7) = (   0.0000000   0.1250000   0.3750361  )
         8           Al  tau(   8) = (   0.0000000   0.9999634   0.5000000  )
         9           Al  tau(   9) = (   0.1250849   0.1250000   0.5000000  )
        10           Al  tau(  10) = (   0.1248615   0.9999963   0.6250849  )
        11           Al  tau(  11) = (   0.0000000   0.1250000   0.6249639  )
        12           Al  tau(  12) = (   0.0000000   0.0009283   0.7512507  )
        13           Al  tau(  13) = (   0.1248667   0.1250000   0.7503242  )
        14           Al  tau(  14) = (   0.1228214   0.0001843   0.8771786  )
        15           Al  tau(  15) = (   0.0000000   0.1250000   0.8790677  )
        16           Al  tau(  16) = (   0.1227704   0.3727690   0.0000000  )
        17           Al  tau(  17) = (   0.1228214   0.2498157   0.1228214  )
        18           Al  tau(  18) = (   0.0000000   0.3727690   0.1227704  )
        19           Al  tau(  19) = (   0.0000000   0.2490716   0.2487493  )
        20           Al  tau(  20) = (   0.1247684   0.3748023   0.2498376  )
        21           Al  tau(  21) = (   0.1248615   0.2500037   0.3749151  )
        22           Al  tau(  22) = (   0.0000000   0.3748594   0.3749284  )
        23           Al  tau(  23) = (   0.0000000   0.2500366   0.5000000  )
        24           Al  tau(  24) = (   0.1250722   0.3750673   0.5000000  )
        25           Al  tau(  25) = (   0.1248615   0.2500037   0.6250849  )
        26           Al  tau(  26) = (   0.0000000   0.3748594   0.6250716  )
        27           Al  tau(  27) = (   0.0000000   0.2490716   0.7512507  )
        28           Al  tau(  28) = (   0.1247684   0.3748023   0.7501624  )
        29           Al  tau(  29) = (   0.1228214   0.2498157   0.8771786  )
        30           Al  tau(  30) = (   0.0000000   0.3727690   0.8772296  )
        31           Al  tau(  31) = (   0.0000000   0.4997537   0.0000000  )
        32           Al  tau(  32) = (   0.1249318   0.6250000   0.0000000  )
        33           Al  tau(  33) = (   0.1249337   0.4998126   0.1249337  )
        34           Al  tau(  34) = (   0.0000000   0.6250000   0.1249318  )
        35           Al  tau(  35) = (   0.0000000   0.4991342   0.2491509  )
        36           Al  tau(  36) = (   0.1248345   0.6250000   0.2500023  )
        37           Al  tau(  37) = (   0.1249358   0.5000151   0.3749458  )
        38           Al  tau(  38) = (   0.0000000   0.6250000   0.3747531  )
        39           Al  tau(  39) = (   0.0000000   0.5000170   0.5000000  )
        40           Al  tau(  40) = (   0.1250019   0.6250000   0.5000000  )
        41           Al  tau(  41) = (   0.1249358   0.5000151   0.6250543  )
        42           Al  tau(  42) = (   0.0000000   0.6250000   0.6252469  )
        43           Al  tau(  43) = (   0.0000000   0.4991342   0.7508491  )
        44           Al  tau(  44) = (   0.1248345   0.6250000   0.7499977  )
        45           Al  tau(  45) = (   0.1249337   0.4998126   0.8750663  )
        46           Al  tau(  46) = (   0.0000000   0.6250000   0.8750682  )
        47           Al  tau(  47) = (   0.0000000   0.7502463   0.0000000  )
        48           Al  tau(  48) = (   0.1227704   0.8772310   0.0000000  )
        49           Al  tau(  49) = (   0.1249337   0.7501874   0.1249337  )
        50           Al  tau(  50) = (   0.0000000   0.8772310   0.1227704  )
        51           Al  tau(  51) = (   0.0000000   0.7508658   0.2491509  )
        52           Al  tau(  52) = (   0.1247684   0.8751977   0.2498376  )
        53           Al  tau(  53) = (   0.1249358   0.7499849   0.3749458  )
        54           Al  tau(  54) = (   0.0000000   0.8751406   0.3749284  )
        55           Al  tau(  55) = (   0.0000000   0.7499830   0.5000000  )
        56           Al  tau(  56) = (   0.1250722   0.8749328   0.5000000  )
        57           Al  tau(  57) = (   0.1249358   0.7499849   0.6250543  )
        58           Al  tau(  58) = (   0.0000000   0.8751406   0.6250716  )
        59           Al  tau(  59) = (   0.0000000   0.7508658   0.7508491  )
        60           Al  tau(  60) = (   0.1247684   0.8751977   0.7501624  )
        61           Al  tau(  61) = (   0.1249337   0.7501874   0.8750663  )
        62           Al  tau(  62) = (   0.0000000   0.8772310   0.8772296  )
        63           Al  tau(  63) = (   0.2487493   0.0009283   0.0000000  )
        64           Al  tau(  64) = (   0.3750361   0.1250000   0.0000000  )
        65           Al  tau(  65) = (   0.3749151   0.9999963   0.1248615  )
        66           Al  tau(  66) = (   0.2496759   0.1250000   0.1248667  )
        67           Al  tau(  67) = (   0.2493396   0.9998358   0.2493396  )
        68           Al  tau(  68) = (   0.3748271   0.1250000   0.2500029  )
        69           Al  tau(  69) = (   0.3749077   0.0000217   0.3749077  )
        70           Al  tau(  70) = (   0.2500029   0.1250000   0.3748271  )
        71           Al  tau(  71) = (   0.2499980   0.0000150   0.5000000  )
        72           Al  tau(  72) = (   0.3750359   0.1250000   0.5000000  )
        73           Al  tau(  73) = (   0.3749077   0.0000217   0.6250923  )
        74           Al  tau(  74) = (   0.2500029   0.1250000   0.6251729  )
        75           Al  tau(  75) = (   0.2493396   0.9998358   0.7506604  )
        76           Al  tau(  76) = (   0.3748271   0.1250000   0.7499971  )
        77           Al  tau(  77) = (   0.3749151   0.9999963   0.8751385  )
        78           Al  tau(  78) = (   0.2496759   0.1250000   0.8751333  )
        79           Al  tau(  79) = (   0.2487493   0.2490716   0.0000000  )
        80           Al  tau(  80) = (   0.3749284   0.3748594   0.0000000  )
        81           Al  tau(  81) = (   0.3749151   0.2500037   0.1248615  )
        82           Al  tau(  82) = (   0.2498376   0.3748023   0.1247684  )
        83           Al  tau(  83) = (   0.2493396   0.2501642   0.2493396  )
        84           Al  tau(  84) = (   0.3749219   0.3749289   0.2499660  )
        85           Al  tau(  85) = (   0.3749077   0.2499783   0.3749077  )
        86           Al  tau(  86) = (   0.2499660   0.3749289   0.3749219  )
        87           Al  tau(  87) = (   0.2499980   0.2499851   0.5000000  )
        88           Al  tau(  88) = (   0.3749927   0.3749892   0.5000000  )
        89           Al  tau(  89) = (   0.3749077   0.2499783   0.6250923  )
        90           Al  tau(  90) = (   0.2499660   0.3749289   0.6250781  )
        91           Al  tau(  91) = (   0.2493396   0.2501642   0.7506604  )
        92           Al  tau(  92) = (   0.3749219   0.3749289   0.7500340  )
        93           Al  tau(  93) = (   0.3749151   0.2500037   0.8751385  )
        94           Al  tau(  94) = (   0.2498376   0.3748023   0.8752316  )
        95           Al  tau(  95) = (   0.2491509   0.4991342   0.0000000  )
        96           Al  tau(  96) = (   0.3747531   0.6250000   0.0000000  )
        97           Al  tau(  97) = (   0.3749458   0.5000151   0.1249358  )
        98           Al  tau(  98) = (   0.2500023   0.6250000   0.1248345  )
        99           Al  tau(  99) = (   0.2501301   0.5001399   0.2501301  )
       100           Al  tau( 100) = (   0.3750447   0.6250000   0.2499627  )
       101           Al  tau( 101) = (   0.3749904   0.4999732   0.3749904  )
       102           Al  tau( 102) = (   0.2499627   0.6250000   0.3750447  )
       103           Al  tau( 103) = (   0.2500619   0.5000000   0.5000000  )
       104           Al  tau( 104) = (   0.3749664   0.6250000   0.5000000  )
       105           Al  tau( 105) = (   0.3749904   0.4999732   0.6250096  )
       106           Al  tau( 106) = (   0.2499627   0.6250000   0.6249554  )
       107           Al  tau( 107) = (   0.2501301   0.5001399   0.7498699  )
       108           Al  tau( 108) = (   0.3750447   0.6250000   0.7500374  )
       109           Al  tau( 109) = (   0.3749458   0.5000151   0.8750643  )
       110           Al  tau( 110) = (   0.2500023   0.6250000   0.8751656  )
       111           Al  tau( 111) = (   0.2491509   0.7508658   0.0000000  )
       112           Al  tau( 112) = (   0.3749284   0.8751406   0.0000000  )
       113           Al  tau( 113) = (   0.3749458   0.7499849   0.1249358  )
       114           Al  tau( 114) = (   0.2498376   0.8751977   0.1247684  )
       115           Al  tau( 115) = (   0.2501301   0.7498601   0.2501301  )
       116           Al  tau( 116) = (   0.3749219   0.8750712   0.2499660  )
       117           Al  tau( 117) = (   0.3749904   0.7500268   0.3749904  )
       118           Al  tau( 118) = (   0.2499660   0.8750712   0.3749219  )
       119           Al  tau( 119) = (   0.2500619   0.7500000   0.5000000  )
       120           Al  tau( 120) = (   0.3749927   0.8750109   0.5000000  )
       121           Al  tau( 121) = (   0.3749904   0.7500268   0.6250096  )
       122           Al  tau( 122) = (   0.2499660   0.8750712   0.6250781  )
       123           Al  tau( 123) = (   0.2501301   0.7498601   0.7498699  )
       124           Al  tau( 124) = (   0.3749219   0.8750712   0.7500340  )
       125           Al  tau( 125) = (   0.3749458   0.7499849   0.8750643  )
       126           Al  tau( 126) = (   0.2498376   0.8751977   0.8752316  )
       127           Al  tau( 127) = (   0.5000000   0.9999634   0.0000000  )
       128           Al  tau( 128) = (   0.6249639   0.1250000   0.0000000  )
       129           Al  tau( 129) = (   0.6250849   0.9999963   0.1248615  )
       130           Al  tau( 130) = (   0.5000000   0.1250000   0.1250849  )
       131           Al  tau( 131) = (   0.5000000   0.0000150   0.2499980  )
       132           Al  tau( 132) = (   0.6251729   0.1250000   0.2500029  )
       133           Al  tau( 133) = (   0.6250923   0.0000217   0.3749077  )
       134           Al  tau( 134) = (   0.5000000   0.1250000   0.3750359  )
       135           Al  tau( 135) = (   0.5000000   0.9999425   0.5000000  )
       136           Al  tau( 136) = (   0.6249642   0.1250000   0.5000000  )
       137           Al  tau( 137) = (   0.6250923   0.0000217   0.6250923  )
       138           Al  tau( 138) = (   0.5000000   0.1250000   0.6249642  )
       139           Al  tau( 139) = (   0.5000000   0.0000150   0.7500020  )
       140           Al  tau( 140) = (   0.6251729   0.1250000   0.7499971  )
       141           Al  tau( 141) = (   0.6250849   0.9999963   0.8751385  )
       142           Al  tau( 142) = (   0.5000000   0.1250000   0.8749151  )
       143           Al  tau( 143) = (   0.5000000   0.2500366   0.0000000  )
       144           Al  tau( 144) = (   0.6250716   0.3748594   0.0000000  )
       145           Al  tau( 145) = (   0.6250849   0.2500037   0.1248615  )
       146           Al  tau( 146) = (   0.5000000   0.3750673   0.1250722  )
       147           Al  tau( 147) = (   0.5000000   0.2499851   0.2499980  )
       148           Al  tau( 148) = (   0.6250781   0.3749289   0.2499660  )
       149           Al  tau( 149) = (   0.6250923   0.2499783   0.3749077  )
       150           Al  tau( 150) = (   0.5000000   0.3749892   0.3749927  )
       151           Al  tau( 151) = (   0.5000000   0.2500574   0.5000000  )
       152           Al  tau( 152) = (   0.6250073   0.3749892   0.5000000  )
       153           Al  tau( 153) = (   0.6250923   0.2499783   0.6250923  )
       154           Al  tau( 154) = (   0.5000000   0.3749892   0.6250073  )
       155           Al  tau( 155) = (   0.5000000   0.2499851   0.7500020  )
       156           Al  tau( 156) = (   0.6250781   0.3749289   0.7500340  )
       157           Al  tau( 157) = (   0.6250849   0.2500037   0.8751385  )
       158           Al  tau( 158) = (   0.5000000   0.3750673   0.8749278  )
       159           Al  tau( 159) = (   0.5000000   0.5000170   0.0000000  )
       160           Al  tau( 160) = (   0.6252469   0.6250000   0.0000000  )
       161           Al  tau( 161) = (   0.6250543   0.5000151   0.1249358  )
       162           Al  tau( 162) = (   0.5000000   0.6250000   0.1250019  )
       163           Al  tau( 163) = (   0.5000000   0.5000000   0.2500619  )
       164           Al  tau( 164) = (   0.6249554   0.6250000   0.2499627  )
       165           Al  tau( 165) = (   0.6250096   0.4999732   0.3749904  )
       166           Al  tau( 166) = (   0.5000000   0.6250000   0.3749664  )
       167           Al  tau( 167) = (   0.5000000   0.5000585   0.5000000  )
       168           Al  tau( 168) = (   0.6250336   0.6250000   0.5000000  )
       169           Al  tau( 169) = (   0.6250096   0.4999732   0.6250096  )
       170           Al  tau( 170) = (   0.5000000   0.6250000   0.6250336  )
       171           Al  tau( 171) = (   0.5000000   0.5000000   0.7499381  )
       172           Al  tau( 172) = (   0.6249554   0.6250000   0.7500374  )
       173           Al  tau( 173) = (   0.6250543   0.5000151   0.8750643  )
       174           Al  tau( 174) = (   0.5000000   0.6250000   0.8749981  )
       175           Al  tau( 175) = (   0.5000000   0.7499830   0.0000000  )
       176           Al  tau( 176) = (   0.6250716   0.8751406   0.0000000  )
       177           Al  tau( 177) = (   0.6250543   0.7499849   0.1249358  )
       178           Al  tau( 178) = (   0.5000000   0.8749328   0.1250722  )
       179           Al  tau( 179) = (   0.5000000   0.7500000   0.2500619  )
       180           Al  tau( 180) = (   0.6250781   0.8750712   0.2499660  )
       181           Al  tau( 181) = (   0.6250096   0.7500268   0.3749904  )
       182           Al  tau( 182) = (   0.5000000   0.8750109   0.3749927  )
       183           Al  tau( 183) = (   0.5000000   0.7499415   0.5000000  )
       184           Al  tau( 184) = (   0.6250073   0.8750109   0.5000000  )
       185           Al  tau( 185) = (   0.6250096   0.7500268   0.6250096  )
       186           Al  tau( 186) = (   0.5000000   0.8750109   0.6250073  )
       187           Al  tau( 187) = (   0.5000000   0.7500000   0.7499381  )
       188           Al  tau( 188) = (   0.6250781   0.8750712   0.7500340  )
       189           Al  tau( 189) = (   0.6250543   0.7499849   0.8750643  )
       190           Al  tau( 190) = (   0.5000000   0.8749328   0.8749278  )
       191           Al  tau( 191) = (   0.7512507   0.0009283   0.0000000  )
       192           Al  tau( 192) = (   0.8790677   0.1250000   0.0000000  )
       193           Al  tau( 193) = (   0.8771786   0.0001843   0.1228214  )
       194           Al  tau( 194) = (   0.7503242   0.1250000   0.1248667  )
       195           Al  tau( 195) = (   0.7506604   0.9998358   0.2493396  )
       196           Al  tau( 196) = (   0.8751333   0.1250000   0.2496759  )
       197           Al  tau( 197) = (   0.8751385   0.9999963   0.3749151  )
       198           Al  tau( 198) = (   0.7499971   0.1250000   0.3748271  )
       199           Al  tau( 199) = (   0.7500020   0.0000150   0.5000000  )
       200           Al  tau( 200) = (   0.8749151   0.1250000   0.5000000  )
       201           Al  tau( 201) = (   0.8751385   0.9999963   0.6250849  )
       202           Al  tau( 202) = (   0.7499971   0.1250000   0.6251729  )
       203           Al  tau( 203) = (   0.7506604   0.9998358   0.7506604  )
       204           Al  tau( 204) = (   0.8751333   0.1250000   0.7503242  )
       205           Al  tau( 205) = (   0.8771786   0.0001843   0.8771786  )
       206           Al  tau( 206) = (   0.7503242   0.1250000   0.8751333  )
       207           Al  tau( 207) = (   0.7512507   0.2490716   0.0000000  )
       208           Al  tau( 208) = (   0.8772296   0.3727690   0.0000000  )
       209           Al  tau( 209) = (   0.8771786   0.2498157   0.1228214  )
       210           Al  tau( 210) = (   0.7501624   0.3748023   0.1247684  )
       211           Al  tau( 211) = (   0.7506604   0.2501642   0.2493396  )
       212           Al  tau( 212) = (   0.8752316   0.3748023   0.2498376  )
       213           Al  tau( 213) = (   0.8751385   0.2500037   0.3749151  )
       214           Al  tau( 214) = (   0.7500340   0.3749289   0.3749219  )
       215           Al  tau( 215) = (   0.7500020   0.2499851   0.5000000  )
       216           Al  tau( 216) = (   0.8749278   0.3750673   0.5000000  )
       217           Al  tau( 217) = (   0.8751385   0.2500037   0.6250849  )
       218           Al  tau( 218) = (   0.7500340   0.3749289   0.6250781  )
       219           Al  tau( 219) = (   0.7506604   0.2501642   0.7506604  )
       220           Al  tau( 220) = (   0.8752316   0.3748023   0.7501624  )
       221           Al  tau( 221) = (   0.8771786   0.2498157   0.8771786  )
       222           Al  tau( 222) = (   0.7501624   0.3748023   0.8752316  )
       223           Al  tau( 223) = (   0.7508491   0.4991342   0.0000000  )
       224           Al  tau( 224) = (   0.8750682   0.6250000   0.0000000  )
       225           Al  tau( 225) = (   0.8750663   0.4998126   0.1249337  )
       226           Al  tau( 226) = (   0.7499977   0.6250000   0.1248345  )
       227           Al  tau( 227) = (   0.7498699   0.5001399   0.2501301  )
       228           Al  tau( 228) = (   0.8751656   0.6250000   0.2500023  )
       229           Al  tau( 229) = (   0.8750643   0.5000151   0.3749458  )
       230           Al  tau( 230) = (   0.7500374   0.6250000   0.3750447  )
       231           Al  tau( 231) = (   0.7499381   0.5000000   0.5000000  )
       232           Al  tau( 232) = (   0.8749981   0.6250000   0.5000000  )
       233           Al  tau( 233) = (   0.8750643   0.5000151   0.6250543  )
       234           Al  tau( 234) = (   0.7500374   0.6250000   0.6249554  )
       235           Al  tau( 235) = (   0.7498699   0.5001399   0.7498699  )
       236           Al  tau( 236) = (   0.8751656   0.6250000   0.7499977  )
       237           Al  tau( 237) = (   0.8750663   0.4998126   0.8750663  )
       238           Al  tau( 238) = (   0.7499977   0.6250000   0.8751656  )
       239           Al  tau( 239) = (   0.7508491   0.7508658   0.0000000  )
       240           Al  tau( 240) = (   0.8772296   0.8772310   0.0000000  )
       241           Al  tau( 241) = (   0.8750663   0.7501874   0.1249337  )
       242           Al  tau( 242) = (   0.7501624   0.8751977   0.1247684  )
       243           Al  tau( 243) = (   0.7498699   0.7498601   0.2501301  )
       244           Al  tau( 244) = (   0.8752316   0.8751977   0.2498376  )
       245           Al  tau( 245) = (   0.8750643   0.7499849   0.3749458  )
       246           Al  tau( 246) = (   0.7500340   0.8750712   0.3749219  )
       247           Al  tau( 247) = (   0.7499381   0.7500000   0.5000000  )
       248           Al  tau( 248) = (   0.8749278   0.8749328   0.5000000  )
       249           Al  tau( 249) = (   0.8750643   0.7499849   0.6250543  )
       250           Al  tau( 250) = (   0.7500340   0.8750712   0.6250781  )
       251           Al  tau( 251) = (   0.7498699   0.7498601   0.7498699  )
       252           Al  tau( 252) = (   0.8752316   0.8751977   0.7501624  )
       253           Al  tau( 253) = (   0.8750663   0.7501874   0.8750663  )
       254           Al  tau( 254) = (   0.7501624   0.8751977   0.8752316  )

   Crystallographic axes

     site n.     atom                  positions (cryst. coord.)
         1           Al  tau(   1) = (  0.1228214  0.0001843  0.1228214  )
         2           Al  tau(   2) = (  0.1209323  0.1250000  0.0000000  )
         3           Al  tau(   3) = (  0.0000000  0.1250000  0.1209323  )
         4           Al  tau(   4) = (  0.0000000  0.0009283  0.2487493  )
         5           Al  tau(   5) = (  0.1248667  0.1250000  0.2496759  )
         6           Al  tau(   6) = (  0.1248615  0.9999963  0.3749151  )
         7           Al  tau(   7) = (  0.0000000  0.1250000  0.3750361  )
         8           Al  tau(   8) = (  0.0000000  0.9999634  0.5000000  )
         9           Al  tau(   9) = (  0.1250849  0.1250000  0.5000000  )
        10           Al  tau(  10) = (  0.1248615  0.9999963  0.6250849  )
        11           Al  tau(  11) = (  0.0000000  0.1250000  0.6249639  )
        12           Al  tau(  12) = (  0.0000000  0.0009283  0.7512507  )
        13           Al  tau(  13) = (  0.1248667  0.1250000  0.7503242  )
        14           Al  tau(  14) = (  0.1228214  0.0001843  0.8771786  )
        15           Al  tau(  15) = (  0.0000000  0.1250000  0.8790677  )
        16           Al  tau(  16) = (  0.1227704  0.3727690  0.0000000  )
        17           Al  tau(  17) = (  0.1228214  0.2498157  0.1228214  )
        18           Al  tau(  18) = (  0.0000000  0.3727690  0.1227704  )
        19           Al  tau(  19) = (  0.0000000  0.2490716  0.2487493  )
        20           Al  tau(  20) = (  0.1247684  0.3748023  0.2498376  )
        21           Al  tau(  21) = (  0.1248615  0.2500037  0.3749151  )
        22           Al  tau(  22) = (  0.0000000  0.3748594  0.3749284  )
        23           Al  tau(  23) = (  0.0000000  0.2500366  0.5000000  )
        24           Al  tau(  24) = (  0.1250722  0.3750673  0.5000000  )
        25           Al  tau(  25) = (  0.1248615  0.2500037  0.6250849  )
        26           Al  tau(  26) = (  0.0000000  0.3748594  0.6250716  )
        27           Al  tau(  27) = (  0.0000000  0.2490716  0.7512507  )
        28           Al  tau(  28) = (  0.1247684  0.3748023  0.7501624  )
        29           Al  tau(  29) = (  0.1228214  0.2498157  0.8771786  )
        30           Al  tau(  30) = (  0.0000000  0.3727690  0.8772296  )
        31           Al  tau(  31) = (  0.0000000  0.4997537  0.0000000  )
        32           Al  tau(  32) = (  0.1249318  0.6250000  0.0000000  )
        33           Al  tau(  33) = (  0.1249337  0.4998126  0.1249337  )
        34           Al  tau(  34) = (  0.0000000  0.6250000  0.1249318  )
        35           Al  tau(  35) = (  0.0000000  0.4991342  0.2491509  )
        36           Al  tau(  36) = (  0.1248345  0.6250000  0.2500023  )
        37           Al  tau(  37) = (  0.1249358  0.5000151  0.3749458  )
        38           Al  tau(  38) = (  0.0000000  0.6250000  0.3747531  )
        39           Al  tau(  39) = (  0.0000000  0.5000170  0.5000000  )
        40           Al  tau(  40) = (  0.1250019  0.6250000  0.5000000  )
        41           Al  tau(  41) = (  0.1249358  0.5000151  0.6250543  )
        42           Al  tau(  42) = (  0.0000000  0.6250000  0.6252469  )
        43           Al  tau(  43) = (  0.0000000  0.4991342  0.7508491  )
        44           Al  tau(  44) = (  0.1248345  0.6250000  0.7499977  )
        45           Al  tau(  45) = (  0.1249337  0.4998126  0.8750663  )
        46           Al  tau(  46) = (  0.0000000  0.6250000  0.8750682  )
        47           Al  tau(  47) = (  0.0000000  0.7502463  0.0000000  )
        48           Al  tau(  48) = (  0.1227704  0.8772310  0.0000000  )
        49           Al  tau(  49) = (  0.1249337  0.7501874  0.1249337  )
        50           Al  tau(  50) = (  0.0000000  0.8772310  0.1227704  )
        51           Al  tau(  51) = (  0.0000000  0.7508658  0.2491509  )
        52           Al  tau(  52) = (  0.1247684  0.8751977  0.2498376  )
        53           Al  tau(  53) = (  0.1249358  0.7499849  0.3749458  )
        54           Al  tau(  54) = (  0.0000000  0.8751406  0.3749284  )
        55           Al  tau(  55) = (  0.0000000  0.7499830  0.5000000  )
        56           Al  tau(  56) = (  0.1250722  0.8749328  0.5000000  )
        57           Al  tau(  57) = (  0.1249358  0.7499849  0.6250543  )
        58           Al  tau(  58) = (  0.0000000  0.8751406  0.6250716  )
        59           Al  tau(  59) = (  0.0000000  0.7508658  0.7508491  )
        60           Al  tau(  60) = (  0.1247684  0.8751977  0.7501624  )
        61           Al  tau(  61) = (  0.1249337  0.7501874  0.8750663  )
        62           Al  tau(  62) = (  0.0000000  0.8772310  0.8772296  )
        63           Al  tau(  63) = (  0.2487493  0.0009283  0.0000000  )
        64           Al  tau(  64) = (  0.3750361  0.1250000  0.0000000  )
        65           Al  tau(  65) = (  0.3749151  0.9999963  0.1248615  )
        66           Al  tau(  66) = (  0.2496759  0.1250000  0.1248667  )
        67           Al  tau(  67) = (  0.2493396  0.9998358  0.2493396  )
        68           Al  tau(  68) = (  0.3748271  0.1250000  0.2500029  )
        69           Al  tau(  69) = (  0.3749077  0.0000217  0.3749077  )
        70           Al  tau(  70) = (  0.2500029  0.1250000  0.3748271  )
        71           Al  tau(  71) = (  0.2499980  0.0000150  0.5000000  )
        72           Al  tau(  72) = (  0.3750359  0.1250000  0.5000000  )
        73           Al  tau(  73) = (  0.3749077  0.0000217  0.6250923  )
        74           Al  tau(  74) = (  0.2500029  0.1250000  0.6251729  )
        75           Al  tau(  75) = (  0.2493396  0.9998358  0.7506604  )
        76           Al  tau(  76) = (  0.3748271  0.1250000  0.7499971  )
        77           Al  tau(  77) = (  0.3749151  0.9999963  0.8751385  )
        78           Al  tau(  78) = (  0.2496759  0.1250000  0.8751333  )
        79           Al  tau(  79) = (  0.2487493  0.2490716  0.0000000  )
        80           Al  tau(  80) = (  0.3749284  0.3748594  0.0000000  )
        81           Al  tau(  81) = (  0.3749151  0.2500037  0.1248615  )
        82           Al  tau(  82) = (  0.2498376  0.3748023  0.1247684  )
        83           Al  tau(  83) = (  0.2493396  0.2501642  0.2493396  )
        84           Al  tau(  84) = (  0.3749219  0.3749289  0.2499660  )
        85           Al  tau(  85) = (  0.3749077  0.2499783  0.3749077  )
        86           Al  tau(  86) = (  0.2499660  0.3749289  0.3749219  )
        87           Al  tau(  87) = (  0.2499980  0.2499851  0.5000000  )
        88           Al  tau(  88) = (  0.3749927  0.3749892  0.5000000  )
        89           Al  tau(  89) = (  0.3749077  0.2499783  0.6250923  )
        90           Al  tau(  90) = (  0.2499660  0.3749289  0.6250781  )
        91           Al  tau(  91) = (  0.2493396  0.2501642  0.7506604  )
        92           Al  tau(  92) = (  0.3749219  0.3749289  0.7500340  )
        93           Al  tau(  93) = (  0.3749151  0.2500037  0.8751385  )
        94           Al  tau(  94) = (  0.2498376  0.3748023  0.8752316  )
        95           Al  tau(  95) = (  0.2491509  0.4991342  0.0000000  )
        96           Al  tau(  96) = (  0.3747531  0.6250000  0.0000000  )
        97           Al  tau(  97) = (  0.3749458  0.5000151  0.1249358  )
        98           Al  tau(  98) = (  0.2500023  0.6250000  0.1248345  )
        99           Al  tau(  99) = (  0.2501301  0.5001399  0.2501301  )
       100           Al  tau( 100) = (  0.3750447  0.6250000  0.2499627  )
       101           Al  tau( 101) = (  0.3749904  0.4999732  0.3749904  )
       102           Al  tau( 102) = (  0.2499627  0.6250000  0.3750447  )
       103           Al  tau( 103) = (  0.2500619  0.5000000  0.5000000  )
       104           Al  tau( 104) = (  0.3749664  0.6250000  0.5000000  )
       105           Al  tau( 105) = (  0.3749904  0.4999732  0.6250096  )
       106           Al  tau( 106) = (  0.2499627  0.6250000  0.6249554  )
       107           Al  tau( 107) = (  0.2501301  0.5001399  0.7498699  )
       108           Al  tau( 108) = (  0.3750447  0.6250000  0.7500374  )
       109           Al  tau( 109) = (  0.3749458  0.5000151  0.8750643  )
       110           Al  tau( 110) = (  0.2500023  0.6250000  0.8751656  )
       111           Al  tau( 111) = (  0.2491509  0.7508658  0.0000000  )
       112           Al  tau( 112) = (  0.3749284  0.8751406  0.0000000  )
       113           Al  tau( 113) = (  0.3749458  0.7499849  0.1249358  )
       114           Al  tau( 114) = (  0.2498376  0.8751977  0.1247684  )
       115           Al  tau( 115) = (  0.2501301  0.7498601  0.2501301  )
       116           Al  tau( 116) = (  0.3749219  0.8750712  0.2499660  )
       117           Al  tau( 117) = (  0.3749904  0.7500268  0.3749904  )
       118           Al  tau( 118) = (  0.2499660  0.8750712  0.3749219  )
       119           Al  tau( 119) = (  0.2500619  0.7500000  0.5000000  )
       120           Al  tau( 120) = (  0.3749927  0.8750109  0.5000000  )
       121           Al  tau( 121) = (  0.3749904  0.7500268  0.6250096  )
       122           Al  tau( 122) = (  0.2499660  0.8750712  0.6250781  )
       123           Al  tau( 123) = (  0.2501301  0.7498601  0.7498699  )
       124           Al  tau( 124) = (  0.3749219  0.8750712  0.7500340  )
       125           Al  tau( 125) = (  0.3749458  0.7499849  0.8750643  )
       126           Al  tau( 126) = (  0.2498376  0.8751977  0.8752316  )
       127           Al  tau( 127) = (  0.5000000  0.9999634  0.0000000  )
       128           Al  tau( 128) = (  0.6249639  0.1250000  0.0000000  )
       129           Al  tau( 129) = (  0.6250849  0.9999963  0.1248615  )
       130           Al  tau( 130) = (  0.5000000  0.1250000  0.1250849  )
       131           Al  tau( 131) = (  0.5000000  0.0000150  0.2499980  )
       132           Al  tau( 132) = (  0.6251729  0.1250000  0.2500029  )
       133           Al  tau( 133) = (  0.6250923  0.0000217  0.3749077  )
       134           Al  tau( 134) = (  0.5000000  0.1250000  0.3750359  )
       135           Al  tau( 135) = (  0.5000000  0.9999425  0.5000000  )
       136           Al  tau( 136) = (  0.6249642  0.1250000  0.5000000  )
       137           Al  tau( 137) = (  0.6250923  0.0000217  0.6250923  )
       138           Al  tau( 138) = (  0.5000000  0.1250000  0.6249642  )
       139           Al  tau( 139) = (  0.5000000  0.0000150  0.7500020  )
       140           Al  tau( 140) = (  0.6251729  0.1250000  0.7499971  )
       141           Al  tau( 141) = (  0.6250849  0.9999963  0.8751385  )
       142           Al  tau( 142) = (  0.5000000  0.1250000  0.8749151  )
       143           Al  tau( 143) = (  0.5000000  0.2500366  0.0000000  )
       144           Al  tau( 144) = (  0.6250716  0.3748594  0.0000000  )
       145           Al  tau( 145) = (  0.6250849  0.2500037  0.1248615  )
       146           Al  tau( 146) = (  0.5000000  0.3750673  0.1250722  )
       147           Al  tau( 147) = (  0.5000000  0.2499851  0.2499980  )
       148           Al  tau( 148) = (  0.6250781  0.3749289  0.2499660  )
       149           Al  tau( 149) = (  0.6250923  0.2499783  0.3749077  )
       150           Al  tau( 150) = (  0.5000000  0.3749892  0.3749927  )
       151           Al  tau( 151) = (  0.5000000  0.2500574  0.5000000  )
       152           Al  tau( 152) = (  0.6250073  0.3749892  0.5000000  )
       153           Al  tau( 153) = (  0.6250923  0.2499783  0.6250923  )
       154           Al  tau( 154) = (  0.5000000  0.3749892  0.6250073  )
       155           Al  tau( 155) = (  0.5000000  0.2499851  0.7500020  )
       156           Al  tau( 156) = (  0.6250781  0.3749289  0.7500340  )
       157           Al  tau( 157) = (  0.6250849  0.2500037  0.8751385  )
       158           Al  tau( 158) = (  0.5000000  0.3750673  0.8749278  )
       159           Al  tau( 159) = (  0.5000000  0.5000170  0.0000000  )
       160           Al  tau( 160) = (  0.6252469  0.6250000  0.0000000  )
       161           Al  tau( 161) = (  0.6250543  0.5000151  0.1249358  )
       162           Al  tau( 162) = (  0.5000000  0.6250000  0.1250019  )
       163           Al  tau( 163) = (  0.5000000  0.5000000  0.2500619  )
       164           Al  tau( 164) = (  0.6249554  0.6250000  0.2499627  )
       165           Al  tau( 165) = (  0.6250096  0.4999732  0.3749904  )
       166           Al  tau( 166) = (  0.5000000  0.6250000  0.3749664  )
       167           Al  tau( 167) = (  0.5000000  0.5000585  0.5000000  )
       168           Al  tau( 168) = (  0.6250336  0.6250000  0.5000000  )
       169           Al  tau( 169) = (  0.6250096  0.4999732  0.6250096  )
       170           Al  tau( 170) = (  0.5000000  0.6250000  0.6250336  )
       171           Al  tau( 171) = (  0.5000000  0.5000000  0.7499381  )
       172           Al  tau( 172) = (  0.6249554  0.6250000  0.7500374  )
       173           Al  tau( 173) = (  0.6250543  0.5000151  0.8750643  )
       174           Al  tau( 174) = (  0.5000000  0.6250000  0.8749981  )
       175           Al  tau( 175) = (  0.5000000  0.7499830  0.0000000  )
       176           Al  tau( 176) = (  0.6250716  0.8751406  0.0000000  )
       177           Al  tau( 177) = (  0.6250543  0.7499849  0.1249358  )
       178           Al  tau( 178) = (  0.5000000  0.8749328  0.1250722  )
       179           Al  tau( 179) = (  0.5000000  0.7500000  0.2500619  )
       180           Al  tau( 180) = (  0.6250781  0.8750712  0.2499660  )
       181           Al  tau( 181) = (  0.6250096  0.7500268  0.3749904  )
       182           Al  tau( 182) = (  0.5000000  0.8750109  0.3749927  )
       183           Al  tau( 183) = (  0.5000000  0.7499415  0.5000000  )
       184           Al  tau( 184) = (  0.6250073  0.8750109  0.5000000  )
       185           Al  tau( 185) = (  0.6250096  0.7500268  0.6250096  )
       186           Al  tau( 186) = (  0.5000000  0.8750109  0.6250073  )
       187           Al  tau( 187) = (  0.5000000  0.7500000  0.7499381  )
       188           Al  tau( 188) = (  0.6250781  0.8750712  0.7500340  )
       189           Al  tau( 189) = (  0.6250543  0.7499849  0.8750643  )
       190           Al  tau( 190) = (  0.5000000  0.8749328  0.8749278  )
       191           Al  tau( 191) = (  0.7512507  0.0009283  0.0000000  )
       192           Al  tau( 192) = (  0.8790677  0.1250000  0.0000000  )
       193           Al  tau( 193) = (  0.8771786  0.0001843  0.1228214  )
       194           Al  tau( 194) = (  0.7503242  0.1250000  0.1248667  )
       195           Al  tau( 195) = (  0.7506604  0.9998358  0.2493396  )
       196           Al  tau( 196) = (  0.8751333  0.1250000  0.2496759  )
       197           Al  tau( 197) = (  0.8751385  0.9999963  0.3749151  )
       198           Al  tau( 198) = (  0.7499971  0.1250000  0.3748271  )
       199           Al  tau( 199) = (  0.7500020  0.0000150  0.5000000  )
       200           Al  tau( 200) = (  0.8749151  0.1250000  0.5000000  )
       201           Al  tau( 201) = (  0.8751385  0.9999963  0.6250849  )
       202           Al  tau( 202) = (  0.7499971  0.1250000  0.6251729  )
       203           Al  tau( 203) = (  0.7506604  0.9998358  0.7506604  )
       204           Al  tau( 204) = (  0.8751333  0.1250000  0.7503242  )
       205           Al  tau( 205) = (  0.8771786  0.0001843  0.8771786  )
       206           Al  tau( 206) = (  0.7503242  0.1250000  0.8751333  )
       207           Al  tau( 207) = (  0.7512507  0.2490716  0.0000000  )
       208           Al  tau( 208) = (  0.8772296  0.3727690  0.0000000  )
       209           Al  tau( 209) = (  0.8771786  0.2498157  0.1228214  )
       210           Al  tau( 210) = (  0.7501624  0.3748023  0.1247684  )
       211           Al  tau( 211) = (  0.7506604  0.2501642  0.2493396  )
       212           Al  tau( 212) = (  0.8752316  0.3748023  0.2498376  )
       213           Al  tau( 213) = (  0.8751385  0.2500037  0.3749151  )
       214           Al  tau( 214) = (  0.7500340  0.3749289  0.3749219  )
       215           Al  tau( 215) = (  0.7500020  0.2499851  0.5000000  )
       216           Al  tau( 216) = (  0.8749278  0.3750673  0.5000000  )
       217           Al  tau( 217) = (  0.8751385  0.2500037  0.6250849  )
       218           Al  tau( 218) = (  0.7500340  0.3749289  0.6250781  )
       219           Al  tau( 219) = (  0.7506604  0.2501642  0.7506604  )
       220           Al  tau( 220) = (  0.8752316  0.3748023  0.7501624  )
       221           Al  tau( 221) = (  0.8771786  0.2498157  0.8771786  )
       222           Al  tau( 222) = (  0.7501624  0.3748023  0.8752316  )
       223           Al  tau( 223) = (  0.7508491  0.4991342  0.0000000  )
       224           Al  tau( 224) = (  0.8750682  0.6250000  0.0000000  )
       225           Al  tau( 225) = (  0.8750663  0.4998126  0.1249337  )
       226           Al  tau( 226) = (  0.7499977  0.6250000  0.1248345  )
       227           Al  tau( 227) = (  0.7498699  0.5001399  0.2501301  )
       228           Al  tau( 228) = (  0.8751656  0.6250000  0.2500023  )
       229           Al  tau( 229) = (  0.8750643  0.5000151  0.3749458  )
       230           Al  tau( 230) = (  0.7500374  0.6250000  0.3750447  )
       231           Al  tau( 231) = (  0.7499381  0.5000000  0.5000000  )
       232           Al  tau( 232) = (  0.8749981  0.6250000  0.5000000  )
       233           Al  tau( 233) = (  0.8750643  0.5000151  0.6250543  )
       234           Al  tau( 234) = (  0.7500374  0.6250000  0.6249554  )
       235           Al  tau( 235) = (  0.7498699  0.5001399  0.7498699  )
       236           Al  tau( 236) = (  0.8751656  0.6250000  0.7499977  )
       237           Al  tau( 237) = (  0.8750663  0.4998126  0.8750663  )
       238           Al  tau( 238) = (  0.7499977  0.6250000  0.8751656  )
       239           Al  tau( 239) = (  0.7508491  0.7508658  0.0000000  )
       240           Al  tau( 240) = (  0.8772296  0.8772310  0.0000000  )
       241           Al  tau( 241) = (  0.8750663  0.7501874  0.1249337  )
       242           Al  tau( 242) = (  0.7501624  0.8751977  0.1247684  )
       243           Al  tau( 243) = (  0.7498699  0.7498601  0.2501301  )
       244           Al  tau( 244) = (  0.8752316  0.8751977  0.2498376  )
       245           Al  tau( 245) = (  0.8750643  0.7499849  0.3749458  )
       246           Al  tau( 246) = (  0.7500340  0.8750712  0.3749219  )
       247           Al  tau( 247) = (  0.7499381  0.7500000  0.5000000  )
       248           Al  tau( 248) = (  0.8749278  0.8749328  0.5000000  )
       249           Al  tau( 249) = (  0.8750643  0.7499849  0.6250543  )
       250           Al  tau( 250) = (  0.7500340  0.8750712  0.6250781  )
       251           Al  tau( 251) = (  0.7498699  0.7498601  0.7498699  )
       252           Al  tau( 252) = (  0.8752316  0.8751977  0.7501624  )
       253           Al  tau( 253) = (  0.8750663  0.7501874  0.8750663  )
       254           Al  tau( 254) = (  0.7501624  0.8751977  0.8752316  )

     number of k points=    63  Methfessel-Paxton smearing, width (Ry)=  0.0441
                       cart. coord. in units 2pi/alat
        k(    1) = (   0.0000000   0.0000000   0.0000000), wk =   0.0160000
        k(    2) = (   0.0000000   0.0000000   0.2000000), wk =   0.0320000
        k(    3) = (   0.0000000   0.0000000   0.4000000), wk =   0.0320000
        k(    4) = (   0.0000000   0.2000000   0.0000000), wk =   0.0320000
        k(    5) = (   0.0000000   0.2000000   0.2000000), wk =   0.0320000
        k(    6) = (   0.0000000   0.2000000   0.4000000), wk =   0.0320000
        k(    7) = (   0.0000000   0.2000000  -0.4000000), wk =   0.0320000
        k(    8) = (   0.0000000   0.2000000  -0.2000000), wk =   0.0320000
        k(    9) = (   0.0000000   0.4000000   0.0000000), wk =   0.0320000
        k(   10) = (   0.0000000   0.4000000   0.2000000), wk =   0.0320000
        k(   11) = (   0.0000000   0.4000000   0.4000000), wk =   0.0320000
        k(   12) = (   0.0000000   0.4000000  -0.4000000), wk =   0.0320000
        k(   13) = (   0.0000000   0.4000000  -0.2000000), wk =   0.0320000
        k(   14) = (   0.2000000   0.0000000   0.0000000), wk =   0.0320000
        k(   15) = (   0.2000000   0.0000000   0.2000000), wk =   0.0320000
        k(   16) = (   0.2000000   0.0000000   0.4000000), wk =   0.0320000
        k(   17) = (   0.2000000   0.0000000  -0.4000000), wk =   0.0320000
        k(   18) = (   0.2000000   0.0000000  -0.2000000), wk =   0.0320000
        k(   19) = (   0.2000000   0.2000000   0.0000000), wk =   0.0320000
        k(   20) = (   0.2000000   0.2000000   0.2000000), wk =   0.0320000
        k(   21) = (   0.2000000   0.2000000   0.4000000), wk =   0.0320000
        k(   22) = (   0.2000000   0.2000000  -0.4000000), wk =   0.0320000
        k(   23) = (   0.2000000   0.2000000  -0.2000000), wk =   0.0320000
        k(   24) = (   0.2000000   0.4000000   0.0000000), wk =   0.0320000
        k(   25) = (   0.2000000   0.4000000   0.2000000), wk =   0.0320000
        k(   26) = (   0.2000000   0.4000000   0.4000000), wk =   0.0320000
        k(   27) = (   0.2000000   0.4000000  -0.4000000), wk =   0.0320000
        k(   28) = (   0.2000000   0.4000000  -0.2000000), wk =   0.0320000
        k(   29) = (   0.2000000  -0.4000000   0.0000000), wk =   0.0320000
        k(   30) = (   0.2000000  -0.4000000   0.2000000), wk =   0.0320000
        k(   31) = (   0.2000000  -0.4000000   0.4000000), wk =   0.0320000
        k(   32) = (   0.2000000  -0.4000000  -0.4000000), wk =   0.0320000
        k(   33) = (   0.2000000  -0.4000000  -0.2000000), wk =   0.0320000
        k(   34) = (   0.2000000  -0.2000000   0.0000000), wk =   0.0320000
        k(   35) = (   0.2000000  -0.2000000   0.2000000), wk =   0.0320000
        k(   36) = (   0.2000000  -0.2000000   0.4000000), wk =   0.0320000
        k(   37) = (   0.2000000  -0.2000000  -0.4000000), wk =   0.0320000
        k(   38) = (   0.2000000  -0.2000000  -0.2000000), wk =   0.0320000
        k(   39) = (   0.4000000   0.0000000   0.0000000), wk =   0.0320000
        k(   40) = (   0.4000000   0.0000000   0.2000000), wk =   0.0320000
        k(   41) = (   0.4000000   0.0000000   0.4000000), wk =   0.0320000
        k(   42) = (   0.4000000   0.0000000  -0.4000000), wk =   0.0320000
        k(   43) = (   0.4000000   0.0000000  -0.2000000), wk =   0.0320000
        k(   44) = (   0.4000000   0.2000000   0.0000000), wk =   0.0320000
        k(   45) = (   0.4000000   0.2000000   0.2000000), wk =   0.0320000
        k(   46) = (   0.4000000   0.2000000   0.4000000), wk =   0.0320000
        k(   47) = (   0.4000000   0.2000000  -0.4000000), wk =   0.0320000
        k(   48) = (   0.4000000   0.2000000  -0.2000000), wk =   0.0320000
        k(   49) = (   0.4000000   0.4000000   0.0000000), wk =   0.0320000
        k(   50) = (   0.4000000   0.4000000   0.2000000), wk =   0.0320000
        k(   51) = (   0.4000000   0.4000000   0.4000000), wk =   0.0320000
        k(   52) = (   0.4000000   0.4000000  -0.4000000), wk =   0.0320000
        k(   53) = (   0.4000000   0.4000000  -0.2000000), wk =   0.0320000
        k(   54) = (   0.4000000  -0.4000000   0.0000000), wk =   0.0320000
        k(   55) = (   0.4000000  -0.4000000   0.2000000), wk =   0.0320000
        k(   56) = (   0.4000000  -0.4000000   0.4000000), wk =   0.0320000
        k(   57) = (   0.4000000  -0.4000000  -0.4000000), wk =   0.0320000
        k(   58) = (   0.4000000  -0.4000000  -0.2000000), wk =   0.0320000
        k(   59) = (   0.4000000  -0.2000000   0.0000000), wk =   0.0320000
        k(   60) = (   0.4000000  -0.2000000   0.2000000), wk =   0.0320000
        k(   61) = (   0.4000000  -0.2000000   0.4000000), wk =   0.0320000
        k(   62) = (   0.4000000  -0.2000000  -0.4000000), wk =   0.0320000
        k(   63) = (   0.4000000  -0.2000000  -0.2000000), wk =   0.0320000

                       cryst. coord.
        k(    1) = (   0.0000000   0.0000000   0.0000000), wk =   0.0160000
        k(    2) = (   0.0000000   0.0000000   0.2000000), wk =   0.0320000
        k(    3) = (   0.0000000   0.0000000   0.4000000), wk =   0.0320000
        k(    4) = (   0.0000000   0.2000000   0.0000000), wk =   0.0320000
        k(    5) = (   0.0000000   0.2000000   0.2000000), wk =   0.0320000
        k(    6) = (   0.0000000   0.2000000   0.4000000), wk =   0.0320000
        k(    7) = (   0.0000000   0.2000000  -0.4000000), wk =   0.0320000
        k(    8) = (   0.0000000   0.2000000  -0.2000000), wk =   0.0320000
        k(    9) = (   0.0000000   0.4000000   0.0000000), wk =   0.0320000
        k(   10) = (   0.0000000   0.4000000   0.2000000), wk =   0.0320000
        k(   11) = (   0.0000000   0.4000000   0.4000000), wk =   0.0320000
        k(   12) = (   0.0000000   0.4000000  -0.4000000), wk =   0.0320000
        k(   13) = (   0.0000000   0.4000000  -0.2000000), wk =   0.0320000
        k(   14) = (   0.2000000   0.0000000   0.0000000), wk =   0.0320000
        k(   15) = (   0.2000000   0.0000000   0.2000000), wk =   0.0320000
        k(   16) = (   0.2000000   0.0000000   0.4000000), wk =   0.0320000
        k(   17) = (   0.2000000   0.0000000  -0.4000000), wk =   0.0320000
        k(   18) = (   0.2000000   0.0000000  -0.2000000), wk =   0.0320000
        k(   19) = (   0.2000000   0.2000000   0.0000000), wk =   0.0320000
        k(   20) = (   0.2000000   0.2000000   0.2000000), wk =   0.0320000
        k(   21) = (   0.2000000   0.2000000   0.4000000), wk =   0.0320000
        k(   22) = (   0.2000000   0.2000000  -0.4000000), wk =   0.0320000
        k(   23) = (   0.2000000   0.2000000  -0.2000000), wk =   0.0320000
        k(   24) = (   0.2000000   0.4000000   0.0000000), wk =   0.0320000
        k(   25) = (   0.2000000   0.4000000   0.2000000), wk =   0.0320000
        k(   26) = (   0.2000000   0.4000000   0.4000000), wk =   0.0320000
        k(   27) = (   0.2000000   0.4000000  -0.4000000), wk =   0.0320000
        k(   28) = (   0.2000000   0.4000000  -0.2000000), wk =   0.0320000
        k(   29) = (   0.2000000  -0.4000000   0.0000000), wk =   0.0320000
        k(   30) = (   0.2000000  -0.4000000   0.2000000), wk =   0.0320000
        k(   31) = (   0.2000000  -0.4000000   0.4000000), wk =   0.0320000
        k(   32) = (   0.2000000  -0.4000000  -0.4000000), wk =   0.0320000
        k(   33) = (   0.2000000  -0.4000000  -0.2000000), wk =   0.0320000
        k(   34) = (   0.2000000  -0.2000000   0.0000000), wk =   0.0320000
        k(   35) = (   0.2000000  -0.2000000   0.2000000), wk =   0.0320000
        k(   36) = (   0.2000000  -0.2000000   0.4000000), wk =   0.0320000
        k(   37) = (   0.2000000  -0.2000000  -0.4000000), wk =   0.0320000
        k(   38) = (   0.2000000  -0.2000000  -0.2000000), wk =   0.0320000
        k(   39) = (   0.4000000   0.0000000   0.0000000), wk =   0.0320000
        k(   40) = (   0.4000000   0.0000000   0.2000000), wk =   0.0320000
        k(   41) = (   0.4000000   0.0000000   0.4000000), wk =   0.0320000
        k(   42) = (   0.4000000   0.0000000  -0.4000000), wk =   0.0320000
        k(   43) = (   0.4000000   0.0000000  -0.2000000), wk =   0.0320000
        k(   44) = (   0.4000000   0.2000000   0.0000000), wk =   0.0320000
        k(   45) = (   0.4000000   0.2000000   0.2000000), wk =   0.0320000
        k(   46) = (   0.4000000   0.2000000   0.4000000), wk =   0.0320000
        k(   47) = (   0.4000000   0.2000000  -0.4000000), wk =   0.0320000
        k(   48) = (   0.4000000   0.2000000  -0.2000000), wk =   0.0320000
        k(   49) = (   0.4000000   0.4000000   0.0000000), wk =   0.0320000
        k(   50) = (   0.4000000   0.4000000   0.2000000), wk =   0.0320000
        k(   51) = (   0.4000000   0.4000000   0.4000000), wk =   0.0320000
        k(   52) = (   0.4000000   0.4000000  -0.4000000), wk =   0.0320000
        k(   53) = (   0.4000000   0.4000000  -0.2000000), wk =   0.0320000
        k(   54) = (   0.4000000  -0.4000000   0.0000000), wk =   0.0320000
        k(   55) = (   0.4000000  -0.4000000   0.2000000), wk =   0.0320000
        k(   56) = (   0.4000000  -0.4000000   0.4000000), wk =   0.0320000
        k(   57) = (   0.4000000  -0.4000000  -0.4000000), wk =   0.0320000
        k(   58) = (   0.4000000  -0.4000000  -0.2000000), wk =   0.0320000
        k(   59) = (   0.4000000  -0.2000000   0.0000000), wk =   0.0320000
        k(   60) = (   0.4000000  -0.2000000   0.2000000), wk =   0.0320000
        k(   61) = (   0.4000000  -0.2000000   0.4000000), wk =   0.0320000
        k(   62) = (   0.4000000  -0.2000000  -0.4000000), wk =   0.0320000
        k(   63) = (   0.4000000  -0.2000000  -0.2000000), wk =   0.0320000

     Dense  grid:  3895379 G-vectors     FFT dimensions: ( 200, 200, 200)

     Smooth grid:   985619 G-vectors     FFT dimensions: ( 125, 125, 125)

     Dynamical RAM for                 wfc:      95.46 MB

     Dynamical RAM for     wfc (w. buffer):    1622.77 MB

     Dynamical RAM for           str. fact:       6.60 MB

     Dynamical RAM for           local pot:       0.00 MB

     Dynamical RAM for          nlocal pot:     954.99 MB

     Dynamical RAM for                qrad:       7.82 MB

     Dynamical RAM for          rho,v,vnew:      40.87 MB

     Dynamical RAM for               rhoin:      13.62 MB

     Dynamical RAM for            rho*nmix:     105.67 MB

     Dynamical RAM for           G-vectors:      25.60 MB

     Dynamical RAM for          h,s,v(r/c):      38.24 MB

     Dynamical RAM for          <psi|beta>:      31.88 MB

     Dynamical RAM for                 psi:     381.83 MB

     Dynamical RAM for                hpsi:     381.83 MB

     Dynamical RAM for                spsi:     381.83 MB

     Dynamical RAM for      wfcinit/wfcrot:     448.07 MB

     Dynamical RAM for           addusdens:     731.43 MB

     Dynamical RAM for          addusforce:    1566.22 MB

     Dynamical RAM for         addusstress:     334.34 MB

     Estimated static dynamical RAM per process >       2.76 GB

     Estimated max dynamical RAM per process >       4.29 GB

     Estimated total dynamical RAM >     154.42 GB

     Initial potential from superposition of free atoms

     starting charge  761.41829, renormalised to  762.00000
     Starting wfcs are 1016 randomized atomic wfcs
