LAMMPS data file via write_data, version 22 Sep 2017, timestep = 0

15 atoms
3 atom types

0.0000000000000000e+00 7.6463994463800002e+00 xlo xhi
0.0000000000000000e+00 6.6219758820100001e+00 ylo yhi
0.0000000000000000e+00 1.2394799097900000e+01 zlo zhi
-3.8231994586000000e+00 0.0000000000000000e+00 0.0000000000000000e+00 xy xz yz

Masses

1 24.305
2 26.9815
3 28.0855

Atoms # atomic

1 1 1.4373335922781261e+00 3.5279717968684805e+00 2.7139551251763319e+00 0 0 0
2 1 5.7076397652467135e+00 2.2893568210303372e-01 6.6264622582214006e-01 0 0 0
3 1 2.2522492988446752e+00 4.4443350345853654e+00 9.5417471505396395e-02 0 0 0
4 1 5.7442426945053682e-01 4.4262768474749609e-01 5.1746547795955262e+00 0 0 0
5 1 4.0538080910600902e+00 3.9001891240651401e+00 1.1532573425505648e+01 0 0 0
6 1 3.6769887553286020e+00 2.7547377079988706e+00 8.6911165474779661e+00 0 0 0
7 1 3.4329111668910883e+00 5.0089319948697746e+00 1.2283709292202579e+01 0 0 0
8 1 3.6708855910149163e-01 1.6358855423645910e+00 1.2178513401208207e+01 0 0 0
9 1 4.4654254828078699e+00 4.9887041698350272e+00 8.0754418426204211e+00 0 0 0
10 1 -6.9532552242437595e-01 2.8899058028556031e+00 9.5005487813647722e+00 0 0 0
11 1 1.6561922701718554e+00 1.5745365651798804e+00 3.4074150561991678e+00 0 0 0
12 1 2.9742575464881260e-01 1.1026066653323296e+00 6.0302852200726598e+00 0 0 0
13 1 -1.6401958599421779e-01 6.5335202699579966e+00 6.1227417694094033e+00 0 0 0
14 1 -6.4518234542579889e-01 6.0512770613657514e+00 6.5661125174805637e+00 0 0 0
15 1 1.5038078666821406e+00 6.2311465597025268e+00 6.2078091614350395e-01 0 0 0

Velocities

1 0.0000000000000000e+00 0.0000000000000000e+00 0.0000000000000000e+00
2 0.0000000000000000e+00 0.0000000000000000e+00 0.0000000000000000e+00
3 0.0000000000000000e+00 0.0000000000000000e+00 0.0000000000000000e+00
4 0.0000000000000000e+00 0.0000000000000000e+00 0.0000000000000000e+00
5 0.0000000000000000e+00 0.0000000000000000e+00 0.0000000000000000e+00
6 0.0000000000000000e+00 0.0000000000000000e+00 0.0000000000000000e+00
7 0.0000000000000000e+00 0.0000000000000000e+00 0.0000000000000000e+00
8 0.0000000000000000e+00 0.0000000000000000e+00 0.0000000000000000e+00
9 0.0000000000000000e+00 0.0000000000000000e+00 0.0000000000000000e+00
10 0.0000000000000000e+00 0.0000000000000000e+00 0.0000000000000000e+00
11 0.0000000000000000e+00 0.0000000000000000e+00 0.0000000000000000e+00
12 0.0000000000000000e+00 0.0000000000000000e+00 0.0000000000000000e+00
13 0.0000000000000000e+00 0.0000000000000000e+00 0.0000000000000000e+00
14 0.0000000000000000e+00 0.0000000000000000e+00 0.0000000000000000e+00
15 0.0000000000000000e+00 0.0000000000000000e+00 0.0000000000000000e+00
