
     Program PWSCF v.6.3 starts on 27Feb2020 at  2: 6:56 

     This program is part of the open-source Quantum ESPRESSO suite
     for quantum simulation of materials; please cite
         "P. Giannozzi et al., J. Phys.:Condens. Matter 21 395502 (2009);
         "P. Giannozzi et al., J. Phys.:Condens. Matter 29 465901 (2017);
          URL http://www.quantum-espresso.org", 
     in publications or presentations arising from this work. More details at
     http://www.quantum-espresso.org/quote

 *** WARNING: using old-style file format, will disappear from next version ***

     Parallel version (MPI & OpenMP), running on     324 processor cores
     Number of MPI processes:               324
     Threads/MPI process:                     1

     MPI processes distributed on     9 nodes
     K-points division:     npool     =      36
     R & G space division:  proc/nbgrp/npool/nimage =       9
     Reading input from aiida.in
Warning: card &IONS ignored
Warning: card   !PRESS_CONV_THR = 0.05                 ! JUST FOR VOLUME RELAXATIONS ignored
Warning: card / ignored

     Current dimensions of program PWSCF are:
     Max number of different atomic species (ntypx) = 10
     Max number of k-points (npk) =  40000
     Max angular momentum in pseudopotentials (lmaxx) =  3
               file Al.pbe-n-kjpaw_psl.1.0.0.UPF: wavefunction(s)  3S 3P renormalized
               file Mg.pbe-n-kjpaw_psl.0.3.0.UPF: wavefunction(s)  3S renormalized

     Subspace diagonalization in iterative solution of the eigenvalue problem:
     one sub-group per band group will be used
     scalapack distributed-memory algorithm (size of sub-group:  2*  2 procs)

     Found symmetry operation: I + (  0.5000 -0.5000  0.0000)
     This is a supercell, fractional translations are disabled
 
     Parallelization info
     --------------------
     sticks:   dense  smooth     PW     G-vecs:    dense   smooth      PW
     Min         751     300     85               458897   116118   17654
     Max         751     302     86               458909   116136   17688
     Sum        6759    2705    771              4130111  1045113  158985
 


     bravais-lattice index     =            0
     lattice parameter (alat)  =      27.6424  a.u.
     unit-cell volume          =   30563.1711 (a.u.)^3
     number of atoms/cell      =          264
     number of atomic types    =            3
     number of electrons       =       792.00
     number of Kohn-Sham states=          475
     kinetic-energy cutoff     =      40.0000  Ry
     charge density cutoff     =     400.0000  Ry
     convergence threshold     =      1.0E-12
     mixing beta               =       0.4000
     number of iterations used =            8  local-TF  mixing
     Exchange-correlation      = PBE ( 1  4  3  4 0 0)

     celldm(1)=  27.642418  celldm(2)=   0.000000  celldm(3)=   0.000000
     celldm(4)=   0.000000  celldm(5)=   0.000000  celldm(6)=   0.000000

     crystal axes: (cart. coord. in units of alat)
               a(1) = (   0.964764   0.000000  -0.263117 )  
               a(2) = (   0.000000   0.277352   0.000000 )  
               a(3) = (   0.000000   0.000000   5.407770 )  

     reciprocal axes: (cart. coord. in units 2 pi/alat)
               b(1) = (  1.036523  0.000000  0.000000 )  
               b(2) = (  0.000000  3.605529  0.000000 )  
               b(3) = (  0.050432  0.000000  0.184919 )  


     PseudoPot. # 1 for Al read from file:
     /users/aglensk/Dropbox/Albert/scripts/dotfiles/scripts/potentials/quantum_espresso/pseudo_SSSPefV1.1_alalloy/Al.pbe-n-kjpaw_psl.1.0.0.UPF
     MD5 check sum: cfc449ca30b5f3223ec38ddd88ac046d
     Pseudo is Projector augmented-wave + core cor, Zval =  3.0
     Generated using "atomic" code by A. Dal Corso v.5.1
     Shape of augmentation charge: PSQ
     Using radial grid of 1135 points,  6 beta functions with: 
                l(1) =   0
                l(2) =   0
                l(3) =   1
                l(4) =   1
                l(5) =   2
                l(6) =   2
     Q(r) pseudized with 0 coefficients 


     PseudoPot. # 2 for Mg read from file:
     /users/aglensk/Dropbox/Albert/scripts/dotfiles/scripts/potentials/quantum_espresso/pseudo_SSSPefV1.1_alalloy/Mg.pbe-n-kjpaw_psl.0.3.0.UPF
     MD5 check sum: 24ecedc7f3e3cbe212e682f4413594e4
     Pseudo is Projector augmented-wave + core cor, Zval =  2.0
     Generated using "atomic" code by A. Dal Corso v.5.0.99 svn rev. 10869
     Shape of augmentation charge: PSQ
     Using radial grid of 1129 points,  4 beta functions with: 
                l(1) =   0
                l(2) =   0
                l(3) =   1
                l(4) =   1
     Q(r) pseudized with 0 coefficients 


     PseudoPot. # 3 for Si read from file:
     /users/aglensk/Dropbox/Albert/scripts/dotfiles/scripts/potentials/quantum_espresso/pseudo_SSSPefV1.1_alalloy/Si.pbe-n-rrkjus_psl.1.0.0.UPF
     MD5 check sum: 0b0bb1205258b0d07b9f9672cf965d36
     Pseudo is Ultrasoft + core correction, Zval =  4.0
     Generated using "atomic" code by A. Dal Corso v.5.1
     Using radial grid of 1141 points,  6 beta functions with: 
                l(1) =   0
                l(2) =   0
                l(3) =   1
                l(4) =   1
                l(5) =   2
                l(6) =   2
     Q(r) pseudized with 0 coefficients 


     atomic species   valence    mass     pseudopotential
        Al             3.00    26.98154     Al( 1.00)
        Mg             2.00    24.30500     Mg( 1.00)
        Si             4.00    28.08500     Si( 1.00)

     No symmetry found


                                    s                        frac. trans.

      isym =  1     identity                                     

 cryst.   s( 1) = (     1          0          0      )
                  (     0          1          0      )
                  (     0          0          1      )

 cart.    s( 1) = (  1.0000000  0.0000000  0.0000000 )
                  (  0.0000000  1.0000000  0.0000000 )
                  ( -0.0000000  0.0000000  1.0000000 )


   Cartesian axes

     site n.     atom                  positions (alat units)
         1           Al  tau(   1) = (   0.0039857   0.0000000   0.3088916  )
         2           Mg  tau(   2) = (   0.0733743   0.1386760   0.4522372  )
         3           Mg  tau(   3) = (   0.1518879   0.1386760   0.2328102  )
         4           Mg  tau(   4) = (   0.3388164   0.0000000   0.2571860  )
         5           Mg  tau(   5) = (   0.4085761   0.0000000   0.0250163  )
         6           Si  tau(   6) = (   0.0550886   0.0000000   0.1383892  )
         7           Si  tau(   7) = (   0.1796121   0.0000000   0.3640664  )
         8           Al  tau(   8) = (   0.2151432   0.0000000   0.0757467  )
         9           Al  tau(   9) = (   0.2756433   0.1386760   0.4141228  )
        10           Si  tau(  10) = (   0.3131923   0.1386760   0.1260327  )
        11           Si  tau(  11) = (   0.4316445   0.1386760   0.3483993  )
        12           Al  tau(  12) = (   0.4863676   0.1386760   0.1773343  )
        13           Mg  tau(  13) = (   0.5557520   0.0000000   0.3206741  )
        14           Mg  tau(  14) = (   0.6342680   0.0000000   0.1012528  )
        15           Mg  tau(  15) = (   0.8212006   0.1386760   0.1256277  )
        16           Mg  tau(  16) = (   0.8909590   0.1386760  -0.1065402  )
        17           Si  tau(  17) = (   0.5374733   0.1386760   0.0068282  )
        18           Si  tau(  18) = (   0.6619945   0.1386760   0.2325071  )
        19           Al  tau(  19) = (   0.6975212   0.1386760  -0.0558120  )
        20           Al  tau(  20) = (   0.7580322   0.0000000   0.2825633  )
        21           Si  tau(  21) = (   0.7955740   0.0000000  -0.0055230  )
        22           Si  tau(  22) = (   0.9140189   0.0000000   0.2168430  )
        23           Al  tau(  23) = (   0.0030763   0.0000000   0.7731080  )
        24           Mg  tau(  24) = (   0.0719588   0.1386760   0.9144071  )
        25           Mg  tau(  25) = (   0.1498627   0.1386760   0.6932616  )
        26           Mg  tau(  26) = (   0.3382950   0.0000000   0.7212988  )
        27           Mg  tau(  27) = (   0.4163146   0.0000000   0.4996963  )
        28           Si  tau(  28) = (   0.0581271   0.0000000   0.6022793  )
        29           Si  tau(  29) = (   0.1781829   0.0000000   0.8253390  )
        30           Al  tau(  30) = (   0.2146306   0.0000000   0.5383231  )
        31           Al  tau(  31) = (   0.2738249   0.1386760   0.8769801  )
        32           Si  tau(  32) = (   0.3105008   0.1386760   0.5896495  )
        33           Si  tau(  33) = (   0.4301487   0.1386760   0.8125582  )
        34           Al  tau(  34) = (   0.4854578   0.1386760   0.6415509  )
        35           Mg  tau(  35) = (   0.5543390   0.0000000   0.7828501  )
        36           Mg  tau(  36) = (   0.6322455   0.0000000   0.5617021  )
        37           Mg  tau(  37) = (   0.8206755   0.1386760   0.5897414  )
        38           Mg  tau(  38) = (   0.8986963   0.1386760   0.3681390  )
        39           Si  tau(  39) = (   0.5405083   0.1386760   0.4707180  )
        40           Si  tau(  40) = (   0.6605635   0.1386760   0.6937814  )
        41           Al  tau(  41) = (   0.6970090   0.1386760   0.4067669  )
        42           Al  tau(  42) = (   0.7562086   0.0000000   0.7454203  )
        43           Si  tau(  43) = (   0.7928831   0.0000000   0.4580908  )
        44           Si  tau(  44) = (   0.9125284   0.0000000   0.6809988  )
        45           Al  tau(  45) = (   0.0017257   0.0000000   1.2361642  )
        46           Mg  tau(  46) = (   0.0702993   0.1386760   1.3780306  )
        47           Mg  tau(  47) = (   0.1489389   0.1386760   1.1565158  )
        48           Mg  tau(  48) = (   0.3368840   0.0000000   1.1841417  )
        49           Mg  tau(  49) = (   0.4153088   0.0000000   0.9628162  )
        50           Si  tau(  50) = (   0.0572148   0.0000000   1.0652857  )
        51           Si  tau(  51) = (   0.1766152   0.0000000   1.2884970  )
        52           Al  tau(  52) = (   0.2133840   0.0000000   1.0005534  )
        53           Al  tau(  53) = (   0.2721618   0.1386760   1.3402618  )
        54           Si  tau(  54) = (   0.3091007   0.1386760   1.0521657  )
        55           Si  tau(  55) = (   0.4283377   0.1386760   1.2754627  )
        56           Al  tau(  56) = (   0.4841078   0.1386760   1.1046097  )
        57           Mg  tau(  57) = (   0.5526815   0.0000000   1.2464767  )
        58           Mg  tau(  58) = (   0.6313213   0.0000000   1.0249592  )
        59           Mg  tau(  59) = (   0.8192624   0.1386760   1.0525827  )
        60           Mg  tau(  60) = (   0.8976902   0.1386760   0.8312548  )
        61           Si  tau(  61) = (   0.5395980   0.1386760   0.9337293  )
        62           Si  tau(  62) = (   0.6589957   0.1386760   1.1569417  )
        63           Al  tau(  63) = (   0.6957637   0.1386760   0.8689961  )
        64           Al  tau(  64) = (   0.7545447   0.0000000   1.2087036  )
        65           Si  tau(  65) = (   0.7914833   0.0000000   0.9206064  )
        66           Si  tau(  66) = (   0.9107172   0.0000000   1.1439015  )
        67           Al  tau(  67) = (   0.9643890   0.0000000   1.4362992  )
        68           Mg  tau(  68) = (   0.0683951   0.1386760   1.8412121  )
        69           Mg  tau(  69) = (   0.1467314   0.1386760   1.6196628  )
        70           Mg  tau(  70) = (   0.3349711   0.0000000   1.6477103  )
        71           Mg  tau(  71) = (   0.4133674   0.0000000   1.4260994  )
        72           Si  tau(  72) = (   0.0553051   0.0000000   1.5283699  )
        73           Si  tau(  73) = (   0.1746022   0.0000000   1.7517990  )
        74           Al  tau(  74) = (   0.2116097   0.0000000   1.4637534  )
        75           Al  tau(  75) = (   0.2702198   0.1386760   1.8036934  )
        76           Si  tau(  76) = (   0.3071275   0.1386760   1.5155870  )
        77           Si  tau(  77) = (   0.4266031   0.1386760   1.7391332  )
        78           Al  tau(  78) = (   0.4820069   0.1386760   1.5678607  )
        79           Mg  tau(  79) = (   0.5507773   0.0000000   1.7096564  )
        80           Mg  tau(  80) = (   0.6291135   0.0000000   1.4881062  )
        81           Mg  tau(  81) = (   0.8173520   0.1386760   1.5161512  )
        82           Mg  tau(  82) = (   0.8957495   0.1386760   1.2945366  )
        83           Si  tau(  83) = (   0.5376873   0.1386760   1.3968145  )
        84           Si  tau(  84) = (   0.6569840   0.1386760   1.6202420  )
        85           Al  tau(  85) = (   0.6939909   0.1386760   1.3321984  )
        86           Al  tau(  86) = (   0.7526029   0.0000000   1.6721350  )
        87           Si  tau(  87) = (   0.7895102   0.0000000   1.3840285  )
        88           Si  tau(  88) = (   0.9089830   0.0000000   1.6075733  )
        89           Al  tau(  89) = (   0.9628305   0.0000000   1.9006353  )
        90           Mg  tau(  90) = (   0.0671784   0.1386760   2.3061294  )
        91           Mg  tau(  91) = (   0.1453299   0.1386760   2.0837871  )
        92           Mg  tau(  92) = (   0.3337537   0.0000000   2.1117443  )
        93           Mg  tau(  93) = (   0.4116061   0.0000000   1.8896972  )
        94           Si  tau(  94) = (   0.0535073   0.0000000   1.9922527  )
        95           Si  tau(  95) = (   0.1732880   0.0000000   2.2160753  )
        96           Al  tau(  96) = (   0.2097190   0.0000000   1.9272746  )
        97           Al  tau(  97) = (   0.2690269   0.1386760   2.2682543  )
        98           Si  tau(  98) = (   0.3054196   0.1386760   1.9791346  )
        99           Si  tau(  99) = (   0.4256144   0.1386760   2.2040695  )
       100           Al  tau( 100) = (   0.4804482   0.1386760   2.0321964  )
       101           Mg  tau( 101) = (   0.5495601   0.0000000   2.1745729  )
       102           Mg  tau( 102) = (   0.6277119   0.0000000   1.9522298  )
       103           Mg  tau( 103) = (   0.8161351   0.1386760   1.9801852  )
       104           Mg  tau( 104) = (   0.8939882   0.1386760   1.7581362  )
       105           Si  tau( 105) = (   0.5358907   0.1386760   1.8606958  )
       106           Si  tau( 106) = (   0.6556701   0.1386760   2.0845178  )
       107           Al  tau( 107) = (   0.6921001   0.1386760   1.7957181  )
       108           Al  tau( 108) = (   0.7514102   0.0000000   2.1366953  )
       109           Si  tau( 109) = (   0.7878018   0.0000000   1.8475765  )
       110           Si  tau( 110) = (   0.9079952   0.0000000   2.0725097  )
       111           Al  tau( 111) = (   0.9622537   0.0000000   2.3686581  )
       112           Mg  tau( 112) = (   0.0757879   0.1386760   2.7861256  )
       113           Mg  tau( 113) = (   0.1448238   0.1386760   2.5514586  )
       114           Mg  tau( 114) = (   0.3318964   0.0000000   2.5764775  )
       115           Mg  tau( 115) = (   0.4107252   0.0000000   2.3558041  )
       116           Si  tau( 116) = (   0.0520597   0.0000000   2.4584063  )
       117           Si  tau( 117) = (   0.1706777   0.0000000   2.6840078  )
       118           Al  tau( 118) = (   0.2078985   0.0000000   2.3923085  )
       119           Al  tau( 119) = (   0.2691315   0.1386760   2.7350611  )
       120           Si  tau( 120) = (   0.3039739   0.1386760   2.4435301  )
       121           Si  tau( 121) = (   0.4290917   0.1386760   2.6719933  )
       122           Al  tau( 122) = (   0.4798714   0.1386760   2.5002178  )
       123           Mg  tau( 123) = (   0.5581710   0.0000000   2.6545682  )
       124           Mg  tau( 124) = (   0.6272069   0.0000000   2.4199014  )
       125           Mg  tau( 125) = (   0.8142788   0.1386760   2.4449194  )
       126           Mg  tau( 126) = (   0.8931074   0.1386760   2.2242438  )
       127           Si  tau( 127) = (   0.5344441   0.1386760   2.3268499  )
       128           Si  tau( 128) = (   0.6530604   0.1386760   2.5524504  )
       129           Al  tau( 129) = (   0.6902794   0.1386760   2.2607516  )
       130           Al  tau( 130) = (   0.7515119   0.0000000   2.6035032  )
       131           Si  tau( 131) = (   0.7863570   0.0000000   2.3119713  )
       132           Si  tau( 132) = (   0.9114760   0.0000000   2.5404335  )
       133           Al  tau( 133) = (   0.0486884   0.0000000   2.9530734  )
       134           Al  tau( 134) = (   0.0031532   0.1386760   3.0857562  )
       135           Al  tau( 135) = (   0.1750920   0.1386760   2.9930383  )
       136           Al  tau( 136) = (   0.1339395   0.0000000   3.1287835  )
       137           Al  tau( 137) = (   0.3082316   0.0000000   3.0424951  )
       138           Al  tau( 138) = (   0.2648125   0.1386760   3.1731199  )
       139           Al  tau( 139) = (   0.4409786   0.1386760   3.0860955  )
       140           Al  tau( 140) = (   0.5724832   0.0000000   3.1293564  )
       141           Al  tau( 141) = (   0.7021554   0.1386760   2.7322596  )
       142           Al  tau( 142) = (   0.8796619   0.1386760   2.6558937  )
       143           Al  tau( 143) = (   0.8327851   0.0000000   2.7822686  )
       144           Al  tau( 144) = (   0.9233610   0.0000000   2.9545374  )
       145           Al  tau( 145) = (   0.0901016   0.1386760   3.2609155  )
       146           Al  tau( 146) = (   0.2197727   0.0000000   2.8638179  )
       147           Al  tau( 147) = (   0.3972787   0.0000000   2.7874517  )
       148           Al  tau( 148) = (   0.3504023   0.1386760   2.9138267  )
       149           Al  tau( 149) = (   0.5310704   0.1386760   2.8215152  )
       150           Al  tau( 150) = (   0.4855348   0.0000000   2.9541972  )
       151           Al  tau( 151) = (   0.6574740   0.0000000   2.8614798  )
       152           Al  tau( 152) = (   0.6163212   0.1386760   2.9972245  )
       153           Al  tau( 153) = (   0.7471946   0.0000000   3.0415611  )
       154           Al  tau( 154) = (   0.7906141   0.1386760   2.9109368  )
       155           Al  tau( 155) = (   0.0458934   0.0000000   3.3917218  )
       156           Al  tau( 156) = (   0.0018463   0.1386760   3.5224386  )
       157           Al  tau( 157) = (   0.1773640   0.1386760   3.4351233  )
       158           Al  tau( 158) = (   0.1334151   0.0000000   3.5659670  )
       159           Al  tau( 159) = (   0.3088757   0.0000000   3.4783178  )
       160           Al  tau( 160) = (   0.2649069   0.1386760   3.6094712  )
       161           Al  tau( 161) = (   0.4403346   0.1386760   3.5219525  )
       162           Al  tau( 162) = (   0.5718100   0.0000000   3.5654677  )
       163           Al  tau( 163) = (   0.7036851   0.1386760   3.1726258  )
       164           Al  tau( 164) = (   0.8789831   0.1386760   3.0849134  )
       165           Al  tau( 165) = (   0.8351277   0.0000000   3.2157666  )
       166           Al  tau( 166) = (   0.9227162   0.0000000   3.3903938  )
       167           Al  tau( 167) = (   0.0894278   0.1386760   3.6970263  )
       168           Al  tau( 168) = (   0.2213033   0.0000000   3.3041847  )
       169           Al  tau( 169) = (   0.3966010   0.0000000   3.2164719  )
       170           Al  tau( 170) = (   0.3527458   0.1386760   3.3473253  )
       171           Al  tau( 171) = (   0.5282752   0.1386760   3.2601629  )
       172           Al  tau( 172) = (   0.4842284   0.0000000   3.3908800  )
       173           Al  tau( 173) = (   0.6597459   0.0000000   3.3035644  )
       174           Al  tau( 174) = (   0.6157971   0.1386760   3.4344082  )
       175           Al  tau( 175) = (   0.7472887   0.0000000   3.4779122  )
       176           Al  tau( 176) = (   0.7912575   0.1386760   3.3467589  )
       177           Al  tau( 177) = (   0.0453535   0.0000000   3.8281239  )
       178           Al  tau( 178) = (   0.0012054   0.1386760   3.9591965  )
       179           Al  tau( 179) = (   0.1767231   0.1386760   3.8716611  )
       180           Al  tau( 180) = (   0.1325180   0.0000000   4.0026788  )
       181           Al  tau( 181) = (   0.3080494   0.0000000   3.9151920  )
       182           Al  tau( 182) = (   0.2637754   0.1386760   4.0461059  )
       183           Al  tau( 183) = (   0.4393454   0.1386760   3.9586272  )
       184           Al  tau( 184) = (   0.5705852   0.0000000   4.0019998  )
       185           Al  tau( 185) = (   0.7032538   0.1386760   3.6090232  )
       186           Al  tau( 186) = (   0.8787144   0.1386760   3.5214946  )
       187           Al  tau( 187) = (   0.8346331   0.0000000   3.6526152  )
       188           Al  tau( 188) = (   0.9217269   0.0000000   3.8270688  )
       189           Al  tau( 189) = (   0.0882029   0.1386760   4.1335585  )
       190           Al  tau( 190) = (   0.2208720   0.0000000   3.7405822  )
       191           Al  tau( 191) = (   0.3963329   0.0000000   3.6530535  )
       192           Al  tau( 192) = (   0.3522517   0.1386760   3.7841742  )
       193           Al  tau( 193) = (   0.5277357   0.1386760   3.6965654  )
       194           Al  tau( 194) = (   0.4835876   0.0000000   3.8276382  )
       195           Al  tau( 195) = (   0.6591046   0.0000000   3.7401022  )
       196           Al  tau( 196) = (   0.6148996   0.1386760   3.8711203  )
       197           Al  tau( 197) = (   0.7461569   0.0000000   3.9145479  )
       198           Al  tau( 198) = (   0.7904307   0.1386760   3.7836332  )
       199           Al  tau( 199) = (   0.0439443   0.0000000   4.2645722  )
       200           Al  tau( 200) = (   0.9645299   0.1386760   4.1324857  )
       201           Al  tau( 201) = (   0.1752581   0.1386760   4.3080549  )
       202           Al  tau( 202) = (   0.1311381   0.0000000   4.4389352  )
       203           Al  tau( 203) = (   0.3066404   0.0000000   4.3515263  )
       204           Al  tau( 204) = (   0.2626692   0.1386760   4.4823386  )
       205           Al  tau( 205) = (   0.4381033   0.1386760   4.3948828  )
       206           Al  tau( 206) = (   0.5696192   0.0000000   4.4381789  )
       207           Al  tau( 207) = (   0.7018741   0.1386760   4.0454597  )
       208           Al  tau( 208) = (   0.8774125   0.1386760   3.9579509  )
       209           Al  tau( 209) = (   0.8331666   0.0000000   4.0890116  )
       210           Al  tau( 210) = (   0.9204872   0.0000000   4.2633252  )
       211           Al  tau( 211) = (   0.0872385   0.1386760   4.5697390  )
       212           Al  tau( 212) = (   0.2194911   0.0000000   4.1770178  )
       213           Al  tau( 213) = (   0.3950306   0.0000000   4.0895081  )
       214           Al  tau( 214) = (   0.3507828   0.1386760   4.2205686  )
       215           Al  tau( 215) = (   0.5263266   0.1386760   4.1330122  )
       216           Al  tau( 216) = (   0.4821463   0.0000000   4.2640423  )
       217           Al  tau( 217) = (   0.6576416   0.0000000   4.1764954  )
       218           Al  tau( 218) = (   0.6135194   0.1386760   4.3073751  )
       219           Al  tau( 219) = (   0.7450510   0.0000000   4.3507794  )
       220           Al  tau( 220) = (   0.7890247   0.1386760   4.2199679  )
       221           Al  tau( 221) = (   0.0434446   0.0000000   4.7004235  )
       222           Al  tau( 222) = (   0.9643543   0.1386760   4.5683142  )
       223           Al  tau( 223) = (   0.1749366   0.1386760   4.7438915  )
       224           Al  tau( 224) = (   0.1310130   0.0000000   4.8749314  )
       225           Al  tau( 225) = (   0.3063571   0.0000000   4.7870607  )
       226           Al  tau( 226) = (   0.2624833   0.1386760   4.9177518  )
       227           Al  tau( 227) = (   0.4377833   0.1386760   4.8304133  )
       228           Al  tau( 228) = (   0.5696980   0.0000000   4.8737558  )
       229           Al  tau( 229) = (   0.7012011   0.1386760   4.4814180  )
       230           Al  tau( 230) = (   0.8766126   0.1386760   4.3940616  )
       231           Al  tau( 231) = (   0.8328556   0.0000000   4.5247531  )
       232           Al  tau( 232) = (   0.9201650   0.0000000   4.6988569  )
       233           Al  tau( 233) = (   0.0873162   0.1386760   5.0053159  )
       234           Al  tau( 234) = (   0.2188203   0.0000000   4.6129776  )
       235           Al  tau( 235) = (   0.3942309   0.0000000   4.5256186  )
       236           Al  tau( 236) = (   0.3504747   0.1386760   4.6563110  )
       237           Al  tau( 237) = (   0.5258273   0.1386760   4.5688627  )
       238           Al  tau( 238) = (   0.4819734   0.0000000   4.6998702  )
       239           Al  tau( 239) = (   0.6573190   0.0000000   4.6123316  )
       240           Al  tau( 240) = (   0.6133963   0.1386760   4.7433728  )
       241           Al  tau( 241) = (   0.7448659   0.0000000   4.7861948  )
       242           Al  tau( 242) = (   0.7887385   0.1386760   4.6555025  )
       243           Al  tau( 243) = (   0.0430094   0.0000000   5.1351792  )
       244           Al  tau( 244) = (   0.9631960   0.1386760   5.0031075  )
       245           Al  tau( 245) = (   0.1757076   0.1386760   5.1782706  )
       246           Al  tau( 246) = (   0.1336293   0.0000000   5.3061126  )
       247           Al  tau( 247) = (   0.3091028   0.0000000   5.2275949  )
       248           Al  tau( 248) = (   0.2645205   0.1386760  -0.0523618  )
       249           Al  tau( 249) = (   0.4355031   0.1386760   5.2665104  )
       250           Al  tau( 250) = (   0.5694668   0.0000000  -0.1078742  )
       251           Al  tau( 251) = (   0.7016631   0.1386760   4.9170219  )
       252           Al  tau( 252) = (   0.8762146   0.1386760   4.8291421  )
       253           Al  tau( 253) = (   0.8323196   0.0000000   4.9607390  )
       254           Al  tau( 254) = (   0.9178861   0.0000000   5.1349547  )
       255           Al  tau( 255) = (   0.0870846   0.1386760   0.0236840  )
       256           Al  tau( 256) = (   0.2192804   0.0000000   5.0485784  )
       257           Al  tau( 257) = (   0.3938317   0.0000000   4.9606989  )
       258           Al  tau( 258) = (   0.3499379   0.1386760   5.0922951  )
       259           Al  tau( 259) = (   0.5253909   0.1386760   5.0036186  )
       260           Al  tau( 260) = (   0.4808147   0.0000000   5.1346625  )
       261           Al  tau( 261) = (   0.6580901   0.0000000   5.0467138  )
       262           Al  tau( 262) = (   0.6160116   0.1386760   5.1745541  )
       263           Al  tau( 263) = (   0.7469034   0.0000000  -0.1839203  )
       264           Al  tau( 264) = (   0.7914838   0.1386760   5.0960399  )

   Crystallographic axes

     site n.     atom                  positions (cryst. coord.)
         1           Al  tau(   1) = (  0.0041313  0.0000000  0.0573210  )
         2           Mg  tau(   2) = (  0.0760541  0.5000005  0.0873277  )
         3           Mg  tau(   3) = (  0.1574353  0.5000005  0.0507111  )
         4           Mg  tau(   4) = (  0.3511910  0.0000000  0.0646459  )
         5           Mg  tau(   5) = (  0.4234985  0.0000000  0.0252315  )
         6           Si  tau(   6) = (  0.0571006  0.0000000  0.0283691  )
         7           Si  tau(   7) = (  0.1861721  0.0000000  0.0763811  )
         8           Al  tau(   8) = (  0.2230009  0.0000000  0.0248572  )
         9           Al  tau(   9) = (  0.2857106  0.5000005  0.0904806  )
        10           Si  tau(  10) = (  0.3246310  0.5000005  0.0391009  )
        11           Si  tau(  11) = (  0.4474094  0.5000005  0.0861945  )
        12           Al  tau(  12) = (  0.5041312  0.5000005  0.0573212  )
        13           Mg  tau(  13) = (  0.5760497  0.0000000  0.0873267  )
        14           Mg  tau(  14) = (  0.6574334  0.0000000  0.0507112  )
        15           Mg  tau(  15) = (  0.8511933  0.5000005  0.0646461  )
        16           Mg  tau(  16) = (  0.9234995  0.5000005  0.0252319  )
        17           Si  tau(  17) = (  0.5571034  0.5000005  0.0283687  )
        18           Si  tau(  18) = (  0.6861726  0.5000005  0.0763810  )
        19           Al  tau(  19) = (  0.7229968  0.5000005  0.0248570  )
        20           Al  tau(  20) = (  0.7857178  0.0000000  0.0904807  )
        21           Si  tau(  21) = (  0.8246308  0.0000000  0.0391014  )
        22           Si  tau(  22) = (  0.9474016  0.0000000  0.0861946  )
        23           Al  tau(  23) = (  0.0031887  0.0000000  0.1431176  )
        24           Mg  tau(  24) = (  0.0745870  0.5000005  0.1727204  )
        25           Mg  tau(  25) = (  0.1553362  0.5000005  0.1357552  )
        26           Mg  tau(  26) = (  0.3506506  0.0000000  0.1504430  )
        27           Mg  tau(  27) = (  0.4315197  0.0000000  0.1133991  )
        28           Si  tau(  28) = (  0.0602501  0.0000000  0.1143044  )
        29           Si  tau(  29) = (  0.1846907  0.0000000  0.1616071  )
        30           Al  tau(  30) = (  0.2224696  0.0000000  0.1103706  )
        31           Al  tau(  31) = (  0.2838258  0.5000005  0.1759800  )
        32           Si  tau(  32) = (  0.3218412  0.5000005  0.1246967  )
        33           Si  tau(  33) = (  0.4458590  0.5000005  0.1719510  )
        34           Al  tau(  34) = (  0.5031882  0.5000005  0.1431178  )
        35           Mg  tau(  35) = (  0.5745851  0.0000000  0.1727206  )
        36           Mg  tau(  36) = (  0.6553370  0.0000000  0.1357551  )
        37           Mg  tau(  37) = (  0.8506490  0.5000005  0.1504431  )
        38           Mg  tau(  38) = (  0.9315194  0.5000005  0.1133993  )
        39           Si  tau(  39) = (  0.5602493  0.5000005  0.1143039  )
        40           Si  tau(  40) = (  0.6846892  0.5000005  0.1616072  )
        41           Al  tau(  41) = (  0.7224658  0.5000005  0.1103708  )
        42           Al  tau(  42) = (  0.7838276  0.0000000  0.1759799  )
        43           Si  tau(  43) = (  0.8218415  0.0000000  0.1246967  )
        44           Si  tau(  44) = (  0.9458566  0.0000000  0.1719507  )
        45           Al  tau(  45) = (  0.0017887  0.0000000  0.2286774  )
        46           Mg  tau(  46) = (  0.0728668  0.5000005  0.2583695  )
        47           Mg  tau(  47) = (  0.1543786  0.5000005  0.2213732  )
        48           Mg  tau(  48) = (  0.3491880  0.0000000  0.2359603  )
        49           Mg  tau(  49) = (  0.4304771  0.0000000  0.1989881  )
        50           Si  tau(  50) = (  0.0593044  0.0000000  0.1998772  )
        51           Si  tau(  51) = (  0.1830657  0.0000000  0.2471748  )
        52           Al  tau(  52) = (  0.2211774  0.0000000  0.1957829  )
        53           Al  tau(  53) = (  0.2821020  0.5000005  0.2615658  )
        54           Si  tau(  54) = (  0.3203900  0.5000005  0.2101542  )
        55           Si  tau(  55) = (  0.4439819  0.5000005  0.2574595  )
        56           Al  tau(  56) = (  0.5017888  0.5000005  0.2286781  )
        57           Mg  tau(  57) = (  0.5728670  0.0000000  0.2583704  )
        58           Mg  tau(  58) = (  0.6543791  0.0000000  0.2213736  )
        59           Mg  tau(  59) = (  0.8491843  0.5000005  0.2359600  )
        60           Mg  tau(  60) = (  0.9304766  0.5000005  0.1989876  )
        61           Si  tau(  61) = (  0.5593057  0.5000005  0.1998776  )
        62           Si  tau(  62) = (  0.6830642  0.5000005  0.2471754  )
        63           Al  tau(  63) = (  0.7211751  0.5000005  0.1957830  )
        64           Al  tau(  64) = (  0.7821030  0.0000000  0.2615659  )
        65           Si  tau(  65) = (  0.8203906  0.0000000  0.2101541  )
        66           Si  tau(  66) = (  0.9439793  0.0000000  0.2574589  )
        67           Al  tau(  67) = (  0.9996114  0.0000000  0.3142356  )
        68           Mg  tau(  68) = (  0.0708931  0.5000005  0.3439246  )
        69           Mg  tau(  69) = (  0.1520904  0.5000005  0.3069066  )
        70           Mg  tau(  70) = (  0.3472052  0.0000000  0.3215865  )
        71           Mg  tau(  71) = (  0.4284648  0.0000000  0.2845601  )
        72           Si  tau(  72) = (  0.0573251  0.0000000  0.2854140  )
        73           Si  tau(  73) = (  0.1809792  0.0000000  0.3327467  )
        74           Al  tau(  74) = (  0.2193383  0.0000000  0.2813479  )
        75           Al  tau(  75) = (  0.2800890  0.5000005  0.3471652  )
        76           Si  tau(  76) = (  0.3183447  0.5000005  0.2957502  )
        77           Si  tau(  77) = (  0.4421839  0.5000005  0.3431136  )
        78           Al  tau(  78) = (  0.4996112  0.5000005  0.3142361  )
        79           Mg  tau(  79) = (  0.5708934  0.0000000  0.3439251  )
        80           Mg  tau(  80) = (  0.6520906  0.0000000  0.3069070  )
        81           Mg  tau(  81) = (  0.8472042  0.5000005  0.3215863  )
        82           Mg  tau(  82) = (  0.9284649  0.5000005  0.2845593  )
        83           Si  tau(  83) = (  0.5573252  0.5000005  0.2854145  )
        84           Si  tau(  84) = (  0.6809790  0.5000005  0.3327470  )
        85           Al  tau(  85) = (  0.7193375  0.5000005  0.2813485  )
        86           Al  tau(  86) = (  0.7800902  0.0000000  0.3471653  )
        87           Si  tau(  87) = (  0.8183455  0.0000000  0.2957502  )
        88           Si  tau(  88) = (  0.9421817  0.0000000  0.3431132  )
        89           Al  tau(  89) = (  0.9979959  0.0000000  0.4000216  )
        90           Mg  tau(  90) = (  0.0696320  0.5000005  0.4298353  )
        91           Mg  tau(  91) = (  0.1506378  0.5000005  0.3926614  )
        92           Mg  tau(  92) = (  0.3459434  0.0000000  0.4073339  )
        93           Mg  tau(  93) = (  0.4266392  0.0000000  0.3701994  )
        94           Si  tau(  94) = (  0.0554615  0.0000000  0.3711041  )
        95           Si  tau(  95) = (  0.1796169  0.0000000  0.4185340  )
        96           Al  tau(  96) = (  0.2173786  0.0000000  0.3669665  )
        97           Al  tau(  97) = (  0.2788526  0.5000005  0.4330112  )
        98           Si  tau(  98) = (  0.3165744  0.5000005  0.3813828  )
        99           Si  tau(  99) = (  0.4411591  0.5000005  0.4290393  )
       100           Al  tau( 100) = (  0.4979956  0.5000005  0.4000221  )
       101           Mg  tau( 101) = (  0.5696317  0.0000000  0.4298357  )
       102           Mg  tau( 102) = (  0.6506379  0.0000000  0.3926616  )
       103           Mg  tau( 103) = (  0.8459428  0.5000005  0.4073337  )
       104           Mg  tau( 104) = (  0.9266393  0.5000005  0.3701989  )
       105           Si  tau( 105) = (  0.5554630  0.5000005  0.3711044  )
       106           Si  tau( 106) = (  0.6796171  0.5000005  0.4185342  )
       107           Al  tau( 107) = (  0.7173776  0.5000005  0.3669668  )
       108           Al  tau( 108) = (  0.7788540  0.0000000  0.4330112  )
       109           Si  tau( 109) = (  0.8165747  0.0000000  0.3813829  )
       110           Si  tau( 110) = (  0.9411579  0.0000000  0.4290390  )
       111           Al  tau( 111) = (  0.9973980  0.0000000  0.4865389  )
       112           Mg  tau( 112) = (  0.0785559  0.5000005  0.5190300  )
       113           Mg  tau( 113) = (  0.1501132  0.5000005  0.4791172  )
       114           Mg  tau( 114) = (  0.3440183  0.0000000  0.4931782  )
       115           Mg  tau( 115) = (  0.4257261  0.0000000  0.4563470  )
       116           Si  tau( 116) = (  0.0539610  0.0000000  0.4572318  )
       117           Si  tau( 117) = (  0.1769114  0.0000000  0.5049320  )
       118           Al  tau( 118) = (  0.2154916  0.0000000  0.4528684  )
       119           Al  tau( 119) = (  0.2789610  0.5000005  0.5193380  )
       120           Si  tau( 120) = (  0.3150759  0.5000005  0.4671855  )
       121           Si  tau( 121) = (  0.4447634  0.5000005  0.5157427  )
       122           Al  tau( 122) = (  0.4973977  0.5000005  0.4865391  )
       123           Mg  tau( 123) = (  0.5785571  0.0000000  0.5190303  )
       124           Mg  tau( 124) = (  0.6501143  0.0000000  0.4791175  )
       125           Mg  tau( 125) = (  0.8440187  0.5000005  0.4931783  )
       126           Mg  tau( 126) = (  0.9257263  0.5000005  0.4563467  )
       127           Si  tau( 127) = (  0.5539636  0.5000005  0.4572323  )
       128           Si  tau( 128) = (  0.6769121  0.5000005  0.5049322  )
       129           Al  tau( 129) = (  0.7154904  0.5000005  0.4528686  )
       130           Al  tau( 130) = (  0.7789593  0.0000000  0.5193380  )
       131           Si  tau( 131) = (  0.8150772  0.0000000  0.4671855  )
       132           Si  tau( 132) = (  0.9447658  0.0000000  0.5157426  )
       133           Al  tau( 133) = (  0.0504666  0.0000000  0.5485351  )
       134           Al  tau( 134) = (  0.0032684  0.5000005  0.5707743  )
       135           Al  tau( 135) = (  0.1814869  0.5000005  0.5623003  )
       136           Al  tau( 136) = (  0.1388313  0.0000000  0.5853267  )
       137           Al  tau( 137) = (  0.3194891  0.0000000  0.5781603  )
       138           Al  tau( 138) = (  0.2744843  0.5000005  0.6001256  )
       139           Al  tau( 139) = (  0.4570845  0.5000005  0.5929176  )
       140           Al  tau( 140) = (  0.5933920  0.0000000  0.6075495  )
       141           Al  tau( 141) = (  0.7278002  0.5000005  0.5406584  )
       142           Al  tau( 142) = (  0.9117897  0.5000005  0.5354889  )
       143           Al  tau( 143) = (  0.8632009  0.0000000  0.5564940  )
       144           Al  tau( 144) = (  0.9570849  0.0000000  0.5929177  )
       145           Al  tau( 145) = (  0.0933923  0.5000005  0.6075496  )
       146           Al  tau( 146) = (  0.2277995  0.0000000  0.5406583  )
       147           Al  tau( 147) = (  0.4117885  0.0000000  0.5354888  )
       148           Al  tau( 148) = (  0.3632000  0.5000005  0.5564938  )
       149           Al  tau( 149) = (  0.5504667  0.5000005  0.5485352  )
       150           Al  tau( 150) = (  0.5032680  0.0000000  0.5707742  )
       151           Al  tau( 151) = (  0.6814869  0.0000000  0.5623003  )
       152           Al  tau( 152) = (  0.6388310  0.5000005  0.5853266  )
       153           Al  tau( 153) = (  0.7744844  0.0000000  0.6001256  )
       154           Al  tau( 154) = (  0.8194897  0.5000005  0.5781604  )
       155           Al  tau( 155) = (  0.0475695  0.0000000  0.6295087  )
       156           Al  tau( 156) = (  0.0019138  0.5000005  0.6514593  )
       157           Al  tau( 157) = (  0.1838418  0.5000005  0.6441648  )
       158           Al  tau( 158) = (  0.1382878  0.0000000  0.6661438  )
       159           Al  tau( 159) = (  0.3201568  0.0000000  0.6587847  )
       160           Al  tau( 160) = (  0.2745821  0.5000005  0.6808200  )
       161           Al  tau( 161) = (  0.4564169  0.5000005  0.6734834  )
       162           Al  tau( 162) = (  0.5926942  0.0000000  0.6881608  )
       163           Al  tau( 163) = (  0.7293858  0.5000005  0.6221676  )
       164           Al  tau( 164) = (  0.9110862  0.5000005  0.6147886  )
       165           Al  tau( 165) = (  0.8656291  0.0000000  0.6367742  )
       166           Al  tau( 166) = (  0.9564165  0.0000000  0.6734834  )
       167           Al  tau( 167) = (  0.0926939  0.5000005  0.6881608  )
       168           Al  tau( 168) = (  0.2293859  0.0000000  0.6221677  )
       169           Al  tau( 169) = (  0.4110861  0.0000000  0.6147886  )
       170           Al  tau( 170) = (  0.3656291  0.5000005  0.6367742  )
       171           Al  tau( 171) = (  0.5475694  0.5000005  0.6295086  )
       172           Al  tau( 172) = (  0.5019138  0.0000000  0.6514593  )
       173           Al  tau( 173) = (  0.6838418  0.0000000  0.6441647  )
       174           Al  tau( 174) = (  0.6382879  0.5000005  0.6661438  )
       175           Al  tau( 175) = (  0.7745820  0.0000000  0.6808200  )
       176           Al  tau( 176) = (  0.8201566  0.5000005  0.6587847  )
       177           Al  tau( 177) = (  0.0470100  0.0000000  0.7101805  )
       178           Al  tau( 178) = (  0.0012495  0.5000005  0.7321918  )
       179           Al  tau( 179) = (  0.1831775  0.5000005  0.7248567  )
       180           Al  tau( 180) = (  0.1373580  0.0000000  0.7468550  )
       181           Al  tau( 181) = (  0.3193003  0.0000000  0.7395294  )
       182           Al  tau( 182) = (  0.2734092  0.5000005  0.7615051  )
       183           Al  tau( 183) = (  0.4553916  0.5000005  0.7541830  )
       184           Al  tau( 184) = (  0.5914247  0.0000000  0.7688222  )
       185           Al  tau( 185) = (  0.7289387  0.5000005  0.7028441  )
       186           Al  tau( 186) = (  0.9108077  0.5000005  0.6955073  )
       187           Al  tau( 187) = (  0.8651164  0.0000000  0.7175309  )
       188           Al  tau( 188) = (  0.9553911  0.0000000  0.7541830  )
       189           Al  tau( 189) = (  0.0914244  0.5000005  0.7688222  )
       190           Al  tau( 190) = (  0.2289389  0.0000000  0.7028442  )
       191           Al  tau( 191) = (  0.4108081  0.0000000  0.6955074  )
       192           Al  tau( 192) = (  0.3651170  0.5000005  0.7175310  )
       193           Al  tau( 193) = (  0.5470102  0.5000005  0.7101805  )
       194           Al  tau( 194) = (  0.5012496  0.0000000  0.7321919  )
       195           Al  tau( 195) = (  0.6831771  0.0000000  0.7248566  )
       196           Al  tau( 196) = (  0.6373575  0.5000005  0.7468549  )
       197           Al  tau( 197) = (  0.7734087  0.0000000  0.7615052  )
       198           Al  tau( 198) = (  0.8192996  0.5000005  0.7395293  )
       199           Al  tau( 199) = (  0.0455493  0.0000000  0.7908171  )
       200           Al  tau( 200) = (  0.9997574  0.5000005  0.8128191  )
       201           Al  tau( 201) = (  0.1816591  0.5000005  0.8054803  )
       202           Al  tau( 202) = (  0.1359276  0.0000000  0.8274575  )
       203           Al  tau( 203) = (  0.3178398  0.0000000  0.8201449  )
       204           Al  tau( 204) = (  0.2722627  0.5000005  0.8421170  )
       205           Al  tau( 205) = (  0.4541042  0.5000005  0.8347924  )
       206           Al  tau( 206) = (  0.5904234  0.0000000  0.8494313  )
       207           Al  tau( 207) = (  0.7275086  0.5000005  0.7834800  )
       208           Al  tau( 208) = (  0.9094582  0.5000005  0.7761507  )
       209           Al  tau( 209) = (  0.8635964  0.0000000  0.7981549  )
       210           Al  tau( 210) = (  0.9541061  0.0000000  0.8347926  )
       211           Al  tau( 211) = (  0.0904247  0.5000005  0.8494317  )
       212           Al  tau( 212) = (  0.2275076  0.0000000  0.7834798  )
       213           Al  tau( 213) = (  0.4094583  0.0000000  0.7761505  )
       214           Al  tau( 214) = (  0.3635945  0.5000005  0.7981546  )
       215           Al  tau( 215) = (  0.5455497  0.5000005  0.7908168  )
       216           Al  tau( 216) = (  0.4997557  0.0000000  0.8128187  )
       217           Al  tau( 217) = (  0.6816607  0.0000000  0.8054802  )
       218           Al  tau( 218) = (  0.6359270  0.5000005  0.8274572  )
       219           Al  tau( 219) = (  0.7722624  0.0000000  0.8421169  )
       220           Al  tau( 220) = (  0.8178422  0.5000005  0.8201451  )
       221           Al  tau( 221) = (  0.0450313  0.0000000  0.8713891  )
       222           Al  tau( 222) = (  0.9995754  0.5000005  0.8934032  )
       223           Al  tau( 223) = (  0.1813258  0.5000005  0.8860586  )
       224           Al  tau( 224) = (  0.1357980  0.0000000  0.9080752  )
       225           Al  tau( 225) = (  0.3175461  0.0000000  0.9006693  )
       226           Al  tau( 226) = (  0.2720700  0.5000005  0.9226239  )
       227           Al  tau( 227) = (  0.4537725  0.5000005  0.9153141  )
       228           Al  tau( 228) = (  0.5905050  0.0000000  0.9299818  )
       229           Al  tau( 229) = (  0.7268111  0.5000005  0.8640630  )
       230           Al  tau( 230) = (  0.9086291  0.5000005  0.8567556  )
       231           Al  tau( 231) = (  0.8632740  0.0000000  0.8787162  )
       232           Al  tau( 232) = (  0.9537722  0.0000000  0.9153145  )
       233           Al  tau( 233) = (  0.0905053  0.5000005  0.9299821  )
       234           Al  tau( 234) = (  0.2268123  0.0000000  0.8640633  )
       235           Al  tau( 235) = (  0.4086294  0.0000000  0.8567553  )
       236           Al  tau( 236) = (  0.3632751  0.5000005  0.8787161  )
       237           Al  tau( 237) = (  0.5450321  0.5000005  0.8713887  )
       238           Al  tau( 238) = (  0.4995765  0.0000000  0.8934028  )
       239           Al  tau( 239) = (  0.6813263  0.0000000  0.8860584  )
       240           Al  tau( 240) = (  0.6357993  0.5000005  0.9080753  )
       241           Al  tau( 241) = (  0.7720707  0.0000000  0.9226242  )
       242           Al  tau( 242) = (  0.8175456  0.5000005  0.9006693  )
       243           Al  tau( 243) = (  0.0445803  0.0000000  0.9517618  )
       244           Al  tau( 244) = (  0.9983748  0.5000005  0.9737464  )
       245           Al  tau( 245) = (  0.1821249  0.5000005  0.9664225  )
       246           Al  tau( 246) = (  0.1385099  0.0000000  0.9879408  )
       247           Al  tau( 247) = (  0.3203921  0.0000000  0.9822709  )
       248           Al  tau( 248) = (  0.2741815  0.5000005  0.0036577  )
       249           Al  tau( 249) = (  0.4514090  0.5000005  0.9958418  )
       250           Al  tau( 250) = (  0.5902655  0.0000000  0.0087716  )
       251           Al  tau( 251) = (  0.7272899  0.5000005  0.9446378  )
       252           Al  tau( 252) = (  0.9082166  0.5000005  0.9371902  )
       253           Al  tau( 253) = (  0.8627184  0.0000000  0.9593113  )
       254           Al  tau( 254) = (  0.9514101  0.0000000  0.9958424  )
       255           Al  tau( 255) = (  0.0902652  0.5000005  0.0087715  )
       256           Al  tau( 256) = (  0.2272892  0.0000000  0.9446374  )
       257           Al  tau( 257) = (  0.4082156  0.0000000  0.9371898  )
       258           Al  tau( 258) = (  0.3627187  0.5000005  0.9593108  )
       259           Al  tau( 259) = (  0.5445797  0.5000005  0.9517614  )
       260           Al  tau( 260) = (  0.4983755  0.0000000  0.9737458  )
       261           Al  tau( 261) = (  0.6821256  0.0000000  0.9664228  )
       262           Al  tau( 262) = (  0.6385101  0.5000005  0.9879408  )
       263           Al  tau( 263) = (  0.7741825  0.0000000  0.0036577  )
       264           Al  tau( 264) = (  0.8203912  0.5000005  0.9822715  )

     number of k points=   124  Methfessel-Paxton smearing, width (Ry)=  0.0441
                       cart. coord. in units 2pi/alat
        k(    1) = (   0.0000000   0.0000000   0.0000000), wk =   0.0083333
        k(    2) = (  -0.0252162   0.0000000  -0.0924595), wk =   0.0083333
        k(    3) = (   0.0000000   0.1802764   0.0000000), wk =   0.0166667
        k(    4) = (  -0.0252162   0.1802764  -0.0924595), wk =   0.0166667
        k(    5) = (   0.0000000   0.3605529   0.0000000), wk =   0.0166667
        k(    6) = (  -0.0252162   0.3605529  -0.0924595), wk =   0.0166667
        k(    7) = (   0.0000000   0.5408293   0.0000000), wk =   0.0166667
        k(    8) = (  -0.0252162   0.5408293  -0.0924595), wk =   0.0166667
        k(    9) = (   0.0000000   0.7211058   0.0000000), wk =   0.0166667
        k(   10) = (  -0.0252162   0.7211058  -0.0924595), wk =   0.0166667
        k(   11) = (   0.0000000   0.9013822   0.0000000), wk =   0.0166667
        k(   12) = (  -0.0252162   0.9013822  -0.0924595), wk =   0.0166667
        k(   13) = (   0.0000000   1.0816587   0.0000000), wk =   0.0166667
        k(   14) = (  -0.0252162   1.0816587  -0.0924595), wk =   0.0166667
        k(   15) = (   0.0000000   1.2619351   0.0000000), wk =   0.0166667
        k(   16) = (  -0.0252162   1.2619351  -0.0924595), wk =   0.0166667
        k(   17) = (   0.0000000   1.4422116   0.0000000), wk =   0.0166667
        k(   18) = (  -0.0252162   1.4422116  -0.0924595), wk =   0.0166667
        k(   19) = (   0.0000000   1.6224880   0.0000000), wk =   0.0166667
        k(   20) = (  -0.0252162   1.6224880  -0.0924595), wk =   0.0166667
        k(   21) = (   0.0000000  -1.8027644   0.0000000), wk =   0.0083333
        k(   22) = (  -0.0252162  -1.8027644  -0.0924595), wk =   0.0083333
        k(   23) = (   0.1727538   0.0000000   0.0000000), wk =   0.0166667
        k(   24) = (   0.1475376   0.0000000  -0.0924595), wk =   0.0166667
        k(   25) = (   0.1727538   0.1802764   0.0000000), wk =   0.0166667
        k(   26) = (   0.1475376   0.1802764  -0.0924595), wk =   0.0166667
        k(   27) = (   0.1727538   0.3605529   0.0000000), wk =   0.0166667
        k(   28) = (   0.1475376   0.3605529  -0.0924595), wk =   0.0166667
        k(   29) = (   0.1727538   0.5408293   0.0000000), wk =   0.0166667
        k(   30) = (   0.1475376   0.5408293  -0.0924595), wk =   0.0166667
        k(   31) = (   0.1727538   0.7211058   0.0000000), wk =   0.0166667
        k(   32) = (   0.1475376   0.7211058  -0.0924595), wk =   0.0166667
        k(   33) = (   0.1727538   0.9013822   0.0000000), wk =   0.0166667
        k(   34) = (   0.1475376   0.9013822  -0.0924595), wk =   0.0166667
        k(   35) = (   0.1727538   1.0816587   0.0000000), wk =   0.0166667
        k(   36) = (   0.1475376   1.0816587  -0.0924595), wk =   0.0166667
        k(   37) = (   0.1727538   1.2619351   0.0000000), wk =   0.0166667
        k(   38) = (   0.1475376   1.2619351  -0.0924595), wk =   0.0166667
        k(   39) = (   0.1727538   1.4422116   0.0000000), wk =   0.0166667
        k(   40) = (   0.1475376   1.4422116  -0.0924595), wk =   0.0166667
        k(   41) = (   0.1727538   1.6224880   0.0000000), wk =   0.0166667
        k(   42) = (   0.1475376   1.6224880  -0.0924595), wk =   0.0166667
        k(   43) = (   0.1727538  -1.8027644   0.0000000), wk =   0.0166667
        k(   44) = (   0.1475376  -1.8027644  -0.0924595), wk =   0.0166667
        k(   45) = (   0.1727538  -1.6224880   0.0000000), wk =   0.0166667
        k(   46) = (   0.1475376  -1.6224880  -0.0924595), wk =   0.0166667
        k(   47) = (   0.1727538  -1.4422116   0.0000000), wk =   0.0166667
        k(   48) = (   0.1475376  -1.4422116  -0.0924595), wk =   0.0166667
        k(   49) = (   0.1727538  -1.2619351   0.0000000), wk =   0.0166667
        k(   50) = (   0.1475376  -1.2619351  -0.0924595), wk =   0.0166667
        k(   51) = (   0.1727538  -1.0816587   0.0000000), wk =   0.0166667
        k(   52) = (   0.1475376  -1.0816587  -0.0924595), wk =   0.0166667
        k(   53) = (   0.1727538  -0.9013822   0.0000000), wk =   0.0166667
        k(   54) = (   0.1475376  -0.9013822  -0.0924595), wk =   0.0166667
        k(   55) = (   0.1727538  -0.7211058   0.0000000), wk =   0.0166667
        k(   56) = (   0.1475376  -0.7211058  -0.0924595), wk =   0.0166667
        k(   57) = (   0.1727538  -0.5408293   0.0000000), wk =   0.0166667
        k(   58) = (   0.1475376  -0.5408293  -0.0924595), wk =   0.0166667
        k(   59) = (   0.1727538  -0.3605529   0.0000000), wk =   0.0166667
        k(   60) = (   0.1475376  -0.3605529  -0.0924595), wk =   0.0166667
        k(   61) = (   0.1727538  -0.1802764   0.0000000), wk =   0.0166667
        k(   62) = (   0.1475376  -0.1802764  -0.0924595), wk =   0.0166667
        k(   63) = (   0.3455077   0.0000000   0.0000000), wk =   0.0166667
        k(   64) = (   0.3202915   0.0000000  -0.0924595), wk =   0.0166667
        k(   65) = (   0.3455077   0.1802764   0.0000000), wk =   0.0166667
        k(   66) = (   0.3202915   0.1802764  -0.0924595), wk =   0.0166667
        k(   67) = (   0.3455077   0.3605529   0.0000000), wk =   0.0166667
        k(   68) = (   0.3202915   0.3605529  -0.0924595), wk =   0.0166667
        k(   69) = (   0.3455077   0.5408293   0.0000000), wk =   0.0166667
        k(   70) = (   0.3202915   0.5408293  -0.0924595), wk =   0.0166667
        k(   71) = (   0.3455077   0.7211058   0.0000000), wk =   0.0166667
        k(   72) = (   0.3202915   0.7211058  -0.0924595), wk =   0.0166667
        k(   73) = (   0.3455077   0.9013822   0.0000000), wk =   0.0166667
        k(   74) = (   0.3202915   0.9013822  -0.0924595), wk =   0.0166667
        k(   75) = (   0.3455077   1.0816587   0.0000000), wk =   0.0166667
        k(   76) = (   0.3202915   1.0816587  -0.0924595), wk =   0.0166667
        k(   77) = (   0.3455077   1.2619351   0.0000000), wk =   0.0166667
        k(   78) = (   0.3202915   1.2619351  -0.0924595), wk =   0.0166667
        k(   79) = (   0.3455077   1.4422116   0.0000000), wk =   0.0166667
        k(   80) = (   0.3202915   1.4422116  -0.0924595), wk =   0.0166667
        k(   81) = (   0.3455077   1.6224880   0.0000000), wk =   0.0166667
        k(   82) = (   0.3202915   1.6224880  -0.0924595), wk =   0.0166667
        k(   83) = (   0.3455077  -1.8027644   0.0000000), wk =   0.0166667
        k(   84) = (   0.3202915  -1.8027644  -0.0924595), wk =   0.0166667
        k(   85) = (   0.3455077  -1.6224880   0.0000000), wk =   0.0166667
        k(   86) = (   0.3202915  -1.6224880  -0.0924595), wk =   0.0166667
        k(   87) = (   0.3455077  -1.4422116   0.0000000), wk =   0.0166667
        k(   88) = (   0.3202915  -1.4422116  -0.0924595), wk =   0.0166667
        k(   89) = (   0.3455077  -1.2619351   0.0000000), wk =   0.0166667
        k(   90) = (   0.3202915  -1.2619351  -0.0924595), wk =   0.0166667
        k(   91) = (   0.3455077  -1.0816587   0.0000000), wk =   0.0166667
        k(   92) = (   0.3202915  -1.0816587  -0.0924595), wk =   0.0166667
        k(   93) = (   0.3455077  -0.9013822   0.0000000), wk =   0.0166667
        k(   94) = (   0.3202915  -0.9013822  -0.0924595), wk =   0.0166667
        k(   95) = (   0.3455077  -0.7211058   0.0000000), wk =   0.0166667
        k(   96) = (   0.3202915  -0.7211058  -0.0924595), wk =   0.0166667
        k(   97) = (   0.3455077  -0.5408293   0.0000000), wk =   0.0166667
        k(   98) = (   0.3202915  -0.5408293  -0.0924595), wk =   0.0166667
        k(   99) = (   0.3455077  -0.3605529   0.0000000), wk =   0.0166667
        k(  100) = (   0.3202915  -0.3605529  -0.0924595), wk =   0.0166667
        k(  101) = (   0.3455077  -0.1802764   0.0000000), wk =   0.0166667
        k(  102) = (   0.3202915  -0.1802764  -0.0924595), wk =   0.0166667
        k(  103) = (  -0.5182615   0.0000000   0.0000000), wk =   0.0083333
        k(  104) = (  -0.5434777   0.0000000  -0.0924595), wk =   0.0083333
        k(  105) = (  -0.5182615   0.1802764   0.0000000), wk =   0.0166667
        k(  106) = (  -0.5434777   0.1802764  -0.0924595), wk =   0.0166667
        k(  107) = (  -0.5182615   0.3605529   0.0000000), wk =   0.0166667
        k(  108) = (  -0.5434777   0.3605529  -0.0924595), wk =   0.0166667
        k(  109) = (  -0.5182615   0.5408293   0.0000000), wk =   0.0166667
        k(  110) = (  -0.5434777   0.5408293  -0.0924595), wk =   0.0166667
        k(  111) = (  -0.5182615   0.7211058   0.0000000), wk =   0.0166667
        k(  112) = (  -0.5434777   0.7211058  -0.0924595), wk =   0.0166667
        k(  113) = (  -0.5182615   0.9013822   0.0000000), wk =   0.0166667
        k(  114) = (  -0.5434777   0.9013822  -0.0924595), wk =   0.0166667
        k(  115) = (  -0.5182615   1.0816587   0.0000000), wk =   0.0166667
        k(  116) = (  -0.5434777   1.0816587  -0.0924595), wk =   0.0166667
        k(  117) = (  -0.5182615   1.2619351   0.0000000), wk =   0.0166667
        k(  118) = (  -0.5434777   1.2619351  -0.0924595), wk =   0.0166667
        k(  119) = (  -0.5182615   1.4422116   0.0000000), wk =   0.0166667
        k(  120) = (  -0.5434777   1.4422116  -0.0924595), wk =   0.0166667
        k(  121) = (  -0.5182615   1.6224880   0.0000000), wk =   0.0166667
        k(  122) = (  -0.5434777   1.6224880  -0.0924595), wk =   0.0166667
        k(  123) = (  -0.5182615  -1.8027644   0.0000000), wk =   0.0083333
        k(  124) = (  -0.5434777  -1.8027644  -0.0924595), wk =   0.0083333

                       cryst. coord.
        k(    1) = (   0.0000000   0.0000000   0.0000000), wk =   0.0083333
        k(    2) = (   0.0000000   0.0000000  -0.5000000), wk =   0.0083333
        k(    3) = (   0.0000000   0.0500000   0.0000000), wk =   0.0166667
        k(    4) = (   0.0000000   0.0500000  -0.5000000), wk =   0.0166667
        k(    5) = (   0.0000000   0.1000000   0.0000000), wk =   0.0166667
        k(    6) = (   0.0000000   0.1000000  -0.5000000), wk =   0.0166667
        k(    7) = (   0.0000000   0.1500000   0.0000000), wk =   0.0166667
        k(    8) = (   0.0000000   0.1500000  -0.5000000), wk =   0.0166667
        k(    9) = (   0.0000000   0.2000000   0.0000000), wk =   0.0166667
        k(   10) = (   0.0000000   0.2000000  -0.5000000), wk =   0.0166667
        k(   11) = (   0.0000000   0.2500000   0.0000000), wk =   0.0166667
        k(   12) = (   0.0000000   0.2500000  -0.5000000), wk =   0.0166667
        k(   13) = (   0.0000000   0.3000000   0.0000000), wk =   0.0166667
        k(   14) = (   0.0000000   0.3000000  -0.5000000), wk =   0.0166667
        k(   15) = (   0.0000000   0.3500000   0.0000000), wk =   0.0166667
        k(   16) = (   0.0000000   0.3500000  -0.5000000), wk =   0.0166667
        k(   17) = (   0.0000000   0.4000000   0.0000000), wk =   0.0166667
        k(   18) = (   0.0000000   0.4000000  -0.5000000), wk =   0.0166667
        k(   19) = (   0.0000000   0.4500000   0.0000000), wk =   0.0166667
        k(   20) = (   0.0000000   0.4500000  -0.5000000), wk =   0.0166667
        k(   21) = (   0.0000000  -0.5000000   0.0000000), wk =   0.0083333
        k(   22) = (   0.0000000  -0.5000000  -0.5000000), wk =   0.0083333
        k(   23) = (   0.1666667   0.0000000   0.0000000), wk =   0.0166667
        k(   24) = (   0.1666667   0.0000000  -0.5000000), wk =   0.0166667
        k(   25) = (   0.1666667   0.0500000   0.0000000), wk =   0.0166667
        k(   26) = (   0.1666667   0.0500000  -0.5000000), wk =   0.0166667
        k(   27) = (   0.1666667   0.1000000   0.0000000), wk =   0.0166667
        k(   28) = (   0.1666667   0.1000000  -0.5000000), wk =   0.0166667
        k(   29) = (   0.1666667   0.1500000   0.0000000), wk =   0.0166667
        k(   30) = (   0.1666667   0.1500000  -0.5000000), wk =   0.0166667
        k(   31) = (   0.1666667   0.2000000   0.0000000), wk =   0.0166667
        k(   32) = (   0.1666667   0.2000000  -0.5000000), wk =   0.0166667
        k(   33) = (   0.1666667   0.2500000   0.0000000), wk =   0.0166667
        k(   34) = (   0.1666667   0.2500000  -0.5000000), wk =   0.0166667
        k(   35) = (   0.1666667   0.3000000   0.0000000), wk =   0.0166667
        k(   36) = (   0.1666667   0.3000000  -0.5000000), wk =   0.0166667
        k(   37) = (   0.1666667   0.3500000   0.0000000), wk =   0.0166667
        k(   38) = (   0.1666667   0.3500000  -0.5000000), wk =   0.0166667
        k(   39) = (   0.1666667   0.4000000   0.0000000), wk =   0.0166667
        k(   40) = (   0.1666667   0.4000000  -0.5000000), wk =   0.0166667
        k(   41) = (   0.1666667   0.4500000   0.0000000), wk =   0.0166667
        k(   42) = (   0.1666667   0.4500000  -0.5000000), wk =   0.0166667
        k(   43) = (   0.1666667  -0.5000000   0.0000000), wk =   0.0166667
        k(   44) = (   0.1666667  -0.5000000  -0.5000000), wk =   0.0166667
        k(   45) = (   0.1666667  -0.4500000   0.0000000), wk =   0.0166667
        k(   46) = (   0.1666667  -0.4500000  -0.5000000), wk =   0.0166667
        k(   47) = (   0.1666667  -0.4000000   0.0000000), wk =   0.0166667
        k(   48) = (   0.1666667  -0.4000000  -0.5000000), wk =   0.0166667
        k(   49) = (   0.1666667  -0.3500000   0.0000000), wk =   0.0166667
        k(   50) = (   0.1666667  -0.3500000  -0.5000000), wk =   0.0166667
        k(   51) = (   0.1666667  -0.3000000   0.0000000), wk =   0.0166667
        k(   52) = (   0.1666667  -0.3000000  -0.5000000), wk =   0.0166667
        k(   53) = (   0.1666667  -0.2500000   0.0000000), wk =   0.0166667
        k(   54) = (   0.1666667  -0.2500000  -0.5000000), wk =   0.0166667
        k(   55) = (   0.1666667  -0.2000000   0.0000000), wk =   0.0166667
        k(   56) = (   0.1666667  -0.2000000  -0.5000000), wk =   0.0166667
        k(   57) = (   0.1666667  -0.1500000   0.0000000), wk =   0.0166667
        k(   58) = (   0.1666667  -0.1500000  -0.5000000), wk =   0.0166667
        k(   59) = (   0.1666667  -0.1000000   0.0000000), wk =   0.0166667
        k(   60) = (   0.1666667  -0.1000000  -0.5000000), wk =   0.0166667
        k(   61) = (   0.1666667  -0.0500000   0.0000000), wk =   0.0166667
        k(   62) = (   0.1666667  -0.0500000  -0.5000000), wk =   0.0166667
        k(   63) = (   0.3333333   0.0000000   0.0000000), wk =   0.0166667
        k(   64) = (   0.3333333   0.0000000  -0.5000000), wk =   0.0166667
        k(   65) = (   0.3333333   0.0500000   0.0000000), wk =   0.0166667
        k(   66) = (   0.3333333   0.0500000  -0.5000000), wk =   0.0166667
        k(   67) = (   0.3333333   0.1000000   0.0000000), wk =   0.0166667
        k(   68) = (   0.3333333   0.1000000  -0.5000000), wk =   0.0166667
        k(   69) = (   0.3333333   0.1500000   0.0000000), wk =   0.0166667
        k(   70) = (   0.3333333   0.1500000  -0.5000000), wk =   0.0166667
        k(   71) = (   0.3333333   0.2000000   0.0000000), wk =   0.0166667
        k(   72) = (   0.3333333   0.2000000  -0.5000000), wk =   0.0166667
        k(   73) = (   0.3333333   0.2500000   0.0000000), wk =   0.0166667
        k(   74) = (   0.3333333   0.2500000  -0.5000000), wk =   0.0166667
        k(   75) = (   0.3333333   0.3000000   0.0000000), wk =   0.0166667
        k(   76) = (   0.3333333   0.3000000  -0.5000000), wk =   0.0166667
        k(   77) = (   0.3333333   0.3500000   0.0000000), wk =   0.0166667
        k(   78) = (   0.3333333   0.3500000  -0.5000000), wk =   0.0166667
        k(   79) = (   0.3333333   0.4000000   0.0000000), wk =   0.0166667
        k(   80) = (   0.3333333   0.4000000  -0.5000000), wk =   0.0166667
        k(   81) = (   0.3333333   0.4500000   0.0000000), wk =   0.0166667
        k(   82) = (   0.3333333   0.4500000  -0.5000000), wk =   0.0166667
        k(   83) = (   0.3333333  -0.5000000   0.0000000), wk =   0.0166667
        k(   84) = (   0.3333333  -0.5000000  -0.5000000), wk =   0.0166667
        k(   85) = (   0.3333333  -0.4500000   0.0000000), wk =   0.0166667
        k(   86) = (   0.3333333  -0.4500000  -0.5000000), wk =   0.0166667
        k(   87) = (   0.3333333  -0.4000000   0.0000000), wk =   0.0166667
        k(   88) = (   0.3333333  -0.4000000  -0.5000000), wk =   0.0166667
        k(   89) = (   0.3333333  -0.3500000   0.0000000), wk =   0.0166667
        k(   90) = (   0.3333333  -0.3500000  -0.5000000), wk =   0.0166667
        k(   91) = (   0.3333333  -0.3000000   0.0000000), wk =   0.0166667
        k(   92) = (   0.3333333  -0.3000000  -0.5000000), wk =   0.0166667
        k(   93) = (   0.3333333  -0.2500000   0.0000000), wk =   0.0166667
        k(   94) = (   0.3333333  -0.2500000  -0.5000000), wk =   0.0166667
        k(   95) = (   0.3333333  -0.2000000   0.0000000), wk =   0.0166667
        k(   96) = (   0.3333333  -0.2000000  -0.5000000), wk =   0.0166667
        k(   97) = (   0.3333333  -0.1500000   0.0000000), wk =   0.0166667
        k(   98) = (   0.3333333  -0.1500000  -0.5000000), wk =   0.0166667
        k(   99) = (   0.3333333  -0.1000000   0.0000000), wk =   0.0166667
        k(  100) = (   0.3333333  -0.1000000  -0.5000000), wk =   0.0166667
        k(  101) = (   0.3333333  -0.0500000   0.0000000), wk =   0.0166667
        k(  102) = (   0.3333333  -0.0500000  -0.5000000), wk =   0.0166667
        k(  103) = (  -0.5000000   0.0000000   0.0000000), wk =   0.0083333
        k(  104) = (  -0.5000000   0.0000000  -0.5000000), wk =   0.0083333
        k(  105) = (  -0.5000000   0.0500000   0.0000000), wk =   0.0166667
        k(  106) = (  -0.5000000   0.0500000  -0.5000000), wk =   0.0166667
        k(  107) = (  -0.5000000   0.1000000   0.0000000), wk =   0.0166667
        k(  108) = (  -0.5000000   0.1000000  -0.5000000), wk =   0.0166667
        k(  109) = (  -0.5000000   0.1500000   0.0000000), wk =   0.0166667
        k(  110) = (  -0.5000000   0.1500000  -0.5000000), wk =   0.0166667
        k(  111) = (  -0.5000000   0.2000000   0.0000000), wk =   0.0166667
        k(  112) = (  -0.5000000   0.2000000  -0.5000000), wk =   0.0166667
        k(  113) = (  -0.5000000   0.2500000   0.0000000), wk =   0.0166667
        k(  114) = (  -0.5000000   0.2500000  -0.5000000), wk =   0.0166667
        k(  115) = (  -0.5000000   0.3000000   0.0000000), wk =   0.0166667
        k(  116) = (  -0.5000000   0.3000000  -0.5000000), wk =   0.0166667
        k(  117) = (  -0.5000000   0.3500000   0.0000000), wk =   0.0166667
        k(  118) = (  -0.5000000   0.3500000  -0.5000000), wk =   0.0166667
        k(  119) = (  -0.5000000   0.4000000   0.0000000), wk =   0.0166667
        k(  120) = (  -0.5000000   0.4000000  -0.5000000), wk =   0.0166667
        k(  121) = (  -0.5000000   0.4500000   0.0000000), wk =   0.0166667
        k(  122) = (  -0.5000000   0.4500000  -0.5000000), wk =   0.0166667
        k(  123) = (  -0.5000000  -0.5000000   0.0000000), wk =   0.0083333
        k(  124) = (  -0.5000000  -0.5000000  -0.5000000), wk =   0.0083333

     Dense  grid:  4130111 G-vectors     FFT dimensions: ( 180,  50, 960)

     Smooth grid:  1045113 G-vectors     FFT dimensions: ( 120,  32, 625)

     Dynamical RAM for                 wfc:     105.15 MB

     Dynamical RAM for     wfc (w. buffer):     525.73 MB

     Dynamical RAM for           str. fact:      21.01 MB

     Dynamical RAM for           local pot:       0.00 MB

     Dynamical RAM for          nlocal pot:     945.65 MB

     Dynamical RAM for                qrad:      21.15 MB

     Dynamical RAM for          rho,v,vnew:      43.05 MB

     Dynamical RAM for               rhoin:      14.35 MB

     Dynamical RAM for            rho*nmix:     112.04 MB

     Dynamical RAM for           G-vectors:      27.14 MB

     Dynamical RAM for          h,s,v(r/c):      41.31 MB

     Dynamical RAM for          <psi|beta>:      30.96 MB

     Dynamical RAM for                 psi:     420.58 MB

     Dynamical RAM for                hpsi:     420.58 MB

     Dynamical RAM for                spsi:     420.58 MB

     Dynamical RAM for      wfcinit/wfcrot:     493.04 MB

     Dynamical RAM for           addusdens:      75.66 MB

     Dynamical RAM for          addusforce:     194.37 MB

     Dynamical RAM for         addusstress:      42.50 MB

     Estimated static dynamical RAM per process >       1.73 GB

     Estimated max dynamical RAM per process >       3.04 GB

     Estimated total dynamical RAM >     983.67 GB

     Initial potential from superposition of free atoms

     starting charge  791.54406, renormalised to  792.00000
     Starting wfcs are 1056 randomized atomic wfcs
     Checking if some PAW data can be deallocated... 
       PAW data deallocated on  140 nodes for type:  1
       PAW data deallocated on  252 nodes for type:  2

     total cpu time spent up to now is      397.1 secs

     Self-consistent Calculation

     iteration #  1     ecut=    40.00 Ry     beta= 0.40
     Davidson diagonalization with overlap
     ethr =  1.00E-02,  avg # of iterations =  3.0

     total cpu time spent up to now is     1016.1 secs

     total energy              =   -8799.94835081 Ry
     Harris-Foulkes estimate   =   -8803.55294803 Ry
     estimated scf accuracy    <    2281.51393832 Ry

     iteration #  2     ecut=    40.00 Ry     beta= 0.40
     Davidson diagonalization with overlap
     ethr =  1.00E-02,  avg # of iterations =  1.0

     total cpu time spent up to now is     1443.2 secs

     total energy              =   -8796.18749960 Ry
     Harris-Foulkes estimate   =   -8800.87289870 Ry
     estimated scf accuracy    <     995.10255650 Ry

     iteration #  3     ecut=    40.00 Ry     beta= 0.40
     Davidson diagonalization with overlap
     ethr =  1.00E-02,  avg # of iterations =  1.0

     total cpu time spent up to now is     1871.4 secs

     total energy              =   -8798.28316797 Ry
     Harris-Foulkes estimate   =   -8798.32614991 Ry
     estimated scf accuracy    <       8.03519617 Ry

     iteration #  4     ecut=    40.00 Ry     beta= 0.40
     Davidson diagonalization with overlap
     ethr =  1.01E-03,  avg # of iterations =  7.3

     total cpu time spent up to now is     2414.6 secs

     total energy              =   -8798.38492833 Ry
     Harris-Foulkes estimate   =   -8798.44610452 Ry
     estimated scf accuracy    <       1.95670013 Ry

     iteration #  5     ecut=    40.00 Ry     beta= 0.40
     Davidson diagonalization with overlap
     ethr =  2.47E-04,  avg # of iterations =  8.9

     total cpu time spent up to now is     3080.7 secs

     total energy              =   -8798.39833209 Ry
     Harris-Foulkes estimate   =   -8798.45571849 Ry
     estimated scf accuracy    <      11.01402053 Ry

     iteration #  6     ecut=    40.00 Ry     beta= 0.40
     Davidson diagonalization with overlap
     ethr =  2.47E-04,  avg # of iterations =  1.7

     total cpu time spent up to now is     3529.2 secs

     total energy              =   -8798.41241327 Ry
     Harris-Foulkes estimate   =   -8798.41917333 Ry
     estimated scf accuracy    <       1.55773241 Ry

     iteration #  7     ecut=    40.00 Ry     beta= 0.40
     Davidson diagonalization with overlap
     ethr =  1.97E-04,  avg # of iterations =  1.2

     total cpu time spent up to now is     3975.0 secs

     total energy              =   -8798.41735323 Ry
     Harris-Foulkes estimate   =   -8798.41890083 Ry
     estimated scf accuracy    <       0.33213294 Ry

     iteration #  8     ecut=    40.00 Ry     beta= 0.40
     Davidson diagonalization with overlap
     ethr =  4.19E-05,  avg # of iterations =  6.7

     total cpu time spent up to now is     4549.8 secs

     total energy              =   -8798.42049674 Ry
     Harris-Foulkes estimate   =   -8798.42055442 Ry
     estimated scf accuracy    <       0.00617911 Ry

     iteration #  9     ecut=    40.00 Ry     beta= 0.40
     Davidson diagonalization with overlap
     c_bands:  1 eigenvalues not converged
     c_bands:  2 eigenvalues not converged
     c_bands:  2 eigenvalues not converged
     ethr =  7.80E-07,  avg # of iterations = 13.5

     total cpu time spent up to now is     5661.3 secs

     total energy              =   -8798.42720956 Ry
     Harris-Foulkes estimate   =   -8798.42711895 Ry
     estimated scf accuracy    <       0.00231490 Ry

     iteration # 10     ecut=    40.00 Ry     beta= 0.40
     Davidson diagonalization with overlap
     c_bands:  1 eigenvalues not converged
     ethr =  2.92E-07,  avg # of iterations =  5.7

     total cpu time spent up to now is     6204.6 secs

     total energy              =   -8798.42852402 Ry
     Harris-Foulkes estimate   =   -8798.42722232 Ry
     estimated scf accuracy    <       0.00409883 Ry

     iteration # 11     ecut=    40.00 Ry     beta= 0.40
     Davidson diagonalization with overlap
     ethr =  2.92E-07,  avg # of iterations =  3.0

     total cpu time spent up to now is     6766.0 secs

     total energy              =   -8798.42516763 Ry
     Harris-Foulkes estimate   =   -8798.42881336 Ry
     estimated scf accuracy    <       0.03741214 Ry

     iteration # 12     ecut=    40.00 Ry     beta= 0.40
     Davidson diagonalization with overlap
     ethr =  2.92E-07,  avg # of iterations =  5.3

     total cpu time spent up to now is     7597.3 secs

     total energy              =   -8798.42664721 Ry
     Harris-Foulkes estimate   =   -8798.42777449 Ry
     estimated scf accuracy    <       0.00575097 Ry

     iteration # 13     ecut=    40.00 Ry     beta= 0.40
     Davidson diagonalization with overlap
     ethr =  2.92E-07,  avg # of iterations =  2.0

     total cpu time spent up to now is     8055.2 secs

     total energy              =   -8798.42669468 Ry
     Harris-Foulkes estimate   =   -8798.42684769 Ry
     estimated scf accuracy    <       0.00097343 Ry

     iteration # 14     ecut=    40.00 Ry     beta= 0.40
     Davidson diagonalization with overlap
     ethr =  1.23E-07,  avg # of iterations =  1.1

     total cpu time spent up to now is     8484.6 secs

     total energy              =   -8798.42670291 Ry
     Harris-Foulkes estimate   =   -8798.42673271 Ry
     estimated scf accuracy    <       0.00014635 Ry

     iteration # 15     ecut=    40.00 Ry     beta= 0.40
     Davidson diagonalization with overlap
     ethr =  1.85E-08,  avg # of iterations =  4.7

     total cpu time spent up to now is     9203.2 secs

     total energy              =   -8798.42674092 Ry
     Harris-Foulkes estimate   =   -8798.42674233 Ry
     estimated scf accuracy    <       0.00001669 Ry

     iteration # 16     ecut=    40.00 Ry     beta= 0.40
     Davidson diagonalization with overlap
     ethr =  2.11E-09,  avg # of iterations =  2.5

     total cpu time spent up to now is     9681.5 secs

     total energy              =   -8798.42673927 Ry
     Harris-Foulkes estimate   =   -8798.42674135 Ry
     estimated scf accuracy    <       0.00001184 Ry

     iteration # 17     ecut=    40.00 Ry     beta= 0.40
     Davidson diagonalization with overlap
     ethr =  1.49E-09,  avg # of iterations =  4.0

     total cpu time spent up to now is    10333.1 secs

     total energy              =   -8798.42673859 Ry
     Harris-Foulkes estimate   =   -8798.42674723 Ry
     estimated scf accuracy    <       0.00004596 Ry

     iteration # 18     ecut=    40.00 Ry     beta= 0.40
     Davidson diagonalization with overlap
     ethr =  1.49E-09,  avg # of iterations =  2.0

     total cpu time spent up to now is    10844.9 secs

     total energy              =   -8798.42673976 Ry
     Harris-Foulkes estimate   =   -8798.42674022 Ry
     estimated scf accuracy    <       0.00000769 Ry

     iteration # 19     ecut=    40.00 Ry     beta= 0.40
     Davidson diagonalization with overlap
     ethr =  9.71E-10,  avg # of iterations =  1.0

     total cpu time spent up to now is    11271.4 secs

     total energy              =   -8798.42673920 Ry
     Harris-Foulkes estimate   =   -8798.42673983 Ry
     estimated scf accuracy    <       0.00000434 Ry

     iteration # 20     ecut=    40.00 Ry     beta= 0.40
     Davidson diagonalization with overlap
     ethr =  5.48E-10,  avg # of iterations =  3.1

     total cpu time spent up to now is    11737.5 secs

     total energy              =   -8798.42673942 Ry
     Harris-Foulkes estimate   =   -8798.42673946 Ry
     estimated scf accuracy    <       0.00000033 Ry

     iteration # 21     ecut=    40.00 Ry     beta= 0.40
     Davidson diagonalization with overlap
     ethr =  4.14E-11,  avg # of iterations =  5.5

     total cpu time spent up to now is    12791.0 secs

     total energy              =   -8798.42673909 Ry
     Harris-Foulkes estimate   =   -8798.42673909 Ry
     estimated scf accuracy    <       0.00000006 Ry

     iteration # 22     ecut=    40.00 Ry     beta= 0.40
     Davidson diagonalization with overlap
     ethr =  7.66E-12,  avg # of iterations =  1.0

     total cpu time spent up to now is    13218.5 secs

     total energy              =   -8798.42673905 Ry
     Harris-Foulkes estimate   =   -8798.42673906 Ry
     estimated scf accuracy    <       0.00000002 Ry

     iteration # 23     ecut=    40.00 Ry     beta= 0.40
     Davidson diagonalization with overlap
     ethr =  3.09E-12,  avg # of iterations =  1.4

     total cpu time spent up to now is    13661.6 secs

     total energy              =   -8798.42673904 Ry
     Harris-Foulkes estimate   =   -8798.42673904 Ry
     estimated scf accuracy    <       0.00000001 Ry

     iteration # 24     ecut=    40.00 Ry     beta= 0.40
     Davidson diagonalization with overlap
     ethr =  1.45E-12,  avg # of iterations =  2.5

     total cpu time spent up to now is    14144.3 secs

     total energy              =   -8798.42673904 Ry
     Harris-Foulkes estimate   =   -8798.42673904 Ry
     estimated scf accuracy    <          2.9E-10 Ry

     iteration # 25     ecut=    40.00 Ry     beta= 0.40
     Davidson diagonalization with overlap
     ethr =  1.00E-13,  avg # of iterations =  4.7

     total cpu time spent up to now is    15032.4 secs

     total energy              =   -8798.42673902 Ry
     Harris-Foulkes estimate   =   -8798.42673902 Ry
     estimated scf accuracy    <          8.5E-10 Ry

     iteration # 26     ecut=    40.00 Ry     beta= 0.40
     Davidson diagonalization with overlap
     ethr =  1.00E-13,  avg # of iterations =  1.0

     total cpu time spent up to now is    15460.1 secs

     total energy              =   -8798.42673901 Ry
     Harris-Foulkes estimate   =   -8798.42673901 Ry
     estimated scf accuracy    <          3.0E-10 Ry

     iteration # 27     ecut=    40.00 Ry     beta= 0.40
     Davidson diagonalization with overlap
     ethr =  1.00E-13,  avg # of iterations =  1.0

     total cpu time spent up to now is    15888.3 secs

     total energy              =   -8798.42673901 Ry
     Harris-Foulkes estimate   =   -8798.42673901 Ry
     estimated scf accuracy    <          5.2E-11 Ry

     iteration # 28     ecut=    40.00 Ry     beta= 0.40
     Davidson diagonalization with overlap
     ethr =  1.00E-13,  avg # of iterations =  1.0

     total cpu time spent up to now is    16316.4 secs

     total energy              =   -8798.42673901 Ry
     Harris-Foulkes estimate   =   -8798.42673901 Ry
     estimated scf accuracy    <          5.2E-12 Ry

     iteration # 29     ecut=    40.00 Ry     beta= 0.40
     Davidson diagonalization with overlap
     ethr =  1.00E-13,  avg # of iterations =  1.0

     total cpu time spent up to now is    16744.1 secs

     total energy              =   -8798.42673901 Ry
     Harris-Foulkes estimate   =   -8798.42673901 Ry
     estimated scf accuracy    <          3.8E-12 Ry

     iteration # 30     ecut=    40.00 Ry     beta= 0.40
     Davidson diagonalization with overlap
     ethr =  1.00E-13,  avg # of iterations =  1.0

     total cpu time spent up to now is    17172.2 secs

     total energy              =   -8798.42673901 Ry
     Harris-Foulkes estimate   =   -8798.42673901 Ry
     estimated scf accuracy    <          1.9E-12 Ry

     iteration # 31     ecut=    40.00 Ry     beta= 0.40
     Davidson diagonalization with overlap
     ethr =  1.00E-13,  avg # of iterations =  1.0

     total cpu time spent up to now is    17600.2 secs

     total energy              =   -8798.42673901 Ry
     Harris-Foulkes estimate   =   -8798.42673901 Ry
     estimated scf accuracy    <          2.1E-12 Ry

     iteration # 32     ecut=    40.00 Ry     beta= 0.40
     Davidson diagonalization with overlap
     ethr =  1.00E-13,  avg # of iterations =  1.0

     total cpu time spent up to now is    18028.1 secs

     total energy              =   -8798.42673901 Ry
     Harris-Foulkes estimate   =   -8798.42673901 Ry
     estimated scf accuracy    <          2.0E-12 Ry

     iteration # 33     ecut=    40.00 Ry     beta= 0.40
     Davidson diagonalization with overlap
     ethr =  1.00E-13,  avg # of iterations =  1.0

     total cpu time spent up to now is    18455.6 secs

     total energy              =   -8798.42673900 Ry
     Harris-Foulkes estimate   =   -8798.42673900 Ry
     estimated scf accuracy    <          1.4E-12 Ry

     iteration # 34     ecut=    40.00 Ry     beta= 0.40
     Davidson diagonalization with overlap
     ethr =  1.00E-13,  avg # of iterations =  1.0

[...]
     atom   83 type  3   force =     0.00000002   -0.00000000    0.00000000
     atom   84 type  3   force =     0.00000002    0.00000000    0.00000001
     atom   85 type  1   force =     0.00000001   -0.00000000    0.00000000
     atom   86 type  1   force =     0.00000001   -0.00000000    0.00000002
     atom   87 type  3   force =    -0.00000001    0.00000000    0.00000002
     atom   88 type  3   force =    -0.00000000    0.00000000    0.00000004
     atom   89 type  1   force =     0.00000002   -0.00000000    0.00000006
     atom   90 type  2   force =     0.00000001    0.00000000    0.00000004
     atom   91 type  2   force =     0.00000002    0.00000000    0.00000004
     atom   92 type  2   force =     0.00000000   -0.00000000    0.00000005
     atom   93 type  2   force =     0.00000001    0.00000000    0.00000003
     atom   94 type  3   force =     0.00000002   -0.00000000    0.00000007
     atom   95 type  3   force =     0.00000003   -0.00000000    0.00000007
     atom   96 type  1   force =     0.00000001   -0.00000000    0.00000006
     atom   97 type  1   force =     0.00000002    0.00000000    0.00000006
     atom   98 type  3   force =     0.00000001    0.00000000    0.00000009
     atom   99 type  3   force =     0.00000001    0.00000000    0.00000010
     atom  100 type  1   force =     0.00000002    0.00000000    0.00000006
     atom  101 type  2   force =     0.00000001   -0.00000000    0.00000004
     atom  102 type  2   force =     0.00000002   -0.00000000    0.00000004
     atom  103 type  2   force =     0.00000000    0.00000000    0.00000004
     atom  104 type  2   force =     0.00000001    0.00000000    0.00000003
     atom  105 type  3   force =     0.00000003   -0.00000000    0.00000007
     atom  106 type  3   force =     0.00000004    0.00000000    0.00000007
     atom  107 type  1   force =     0.00000002    0.00000000    0.00000006
     atom  108 type  1   force =     0.00000002   -0.00000000    0.00000006
     atom  109 type  3   force =     0.00000002   -0.00000000    0.00000009
     atom  110 type  3   force =     0.00000001   -0.00000000    0.00000010
     atom  111 type  1   force =     0.00000001    0.00000000    0.00000003
     atom  112 type  2   force =     0.00000000   -0.00000000   -0.00000001
     atom  113 type  2   force =     0.00000000   -0.00000000    0.00000004
     atom  114 type  2   force =     0.00000001    0.00000000    0.00000001
     atom  115 type  2   force =     0.00000001   -0.00000000    0.00000005
     atom  116 type  3   force =     0.00000001    0.00000000    0.00000011
     atom  117 type  3   force =    -0.00000002    0.00000000   -0.00000002
     atom  118 type  1   force =     0.00000003   -0.00000000    0.00000007
     atom  119 type  1   force =    -0.00000001   -0.00000000   -0.00000002
     atom  120 type  3   force =     0.00000004   -0.00000000    0.00000009
     atom  121 type  3   force =     0.00000000   -0.00000000   -0.00000004
     atom  122 type  1   force =     0.00000001    0.00000000    0.00000003
     atom  123 type  2   force =    -0.00000000    0.00000000   -0.00000001
     atom  124 type  2   force =     0.00000000    0.00000000    0.00000004
     atom  125 type  2   force =     0.00000000   -0.00000000    0.00000001
     atom  126 type  2   force =     0.00000001   -0.00000000    0.00000005
     atom  127 type  3   force =     0.00000001   -0.00000000    0.00000012
     atom  128 type  3   force =    -0.00000002   -0.00000000   -0.00000001
     atom  129 type  1   force =     0.00000003   -0.00000000    0.00000007
     atom  130 type  1   force =    -0.00000002   -0.00000000   -0.00000002
     atom  131 type  3   force =     0.00000004    0.00000000    0.00000009
     atom  132 type  3   force =     0.00000000    0.00000000   -0.00000004
     atom  133 type  1   force =     0.00000001   -0.00000000    0.00000004
     atom  134 type  1   force =     0.00000003    0.00000000    0.00000011
     atom  135 type  1   force =     0.00000002    0.00000000    0.00000008
     atom  136 type  1   force =     0.00000004   -0.00000000    0.00000015
     atom  137 type  1   force =     0.00000004    0.00000000    0.00000014
     atom  138 type  1   force =     0.00000005   -0.00000000    0.00000017
     atom  139 type  1   force =     0.00000004   -0.00000000    0.00000016
     atom  140 type  1   force =     0.00000004    0.00000000    0.00000016
     atom  141 type  1   force =    -0.00000000   -0.00000000    0.00000001
     atom  142 type  1   force =     0.00000000   -0.00000000    0.00000001
     atom  143 type  1   force =     0.00000002    0.00000000    0.00000006
     atom  144 type  1   force =     0.00000005   -0.00000000    0.00000016
     atom  145 type  1   force =     0.00000005    0.00000000    0.00000017
     atom  146 type  1   force =     0.00000000   -0.00000000    0.00000001
     atom  147 type  1   force =     0.00000001    0.00000000    0.00000001
     atom  148 type  1   force =     0.00000002   -0.00000000    0.00000006
     atom  149 type  1   force =     0.00000001   -0.00000000    0.00000004
     atom  150 type  1   force =     0.00000003    0.00000000    0.00000011
     atom  151 type  1   force =     0.00000002    0.00000000    0.00000008
     atom  152 type  1   force =     0.00000003    0.00000000    0.00000015
     atom  153 type  1   force =     0.00000004   -0.00000000    0.00000016
     atom  154 type  1   force =     0.00000004   -0.00000000    0.00000013
     atom  155 type  1   force =     0.00000004   -0.00000000    0.00000014
     atom  156 type  1   force =     0.00000003    0.00000000    0.00000010
     atom  157 type  1   force =     0.00000003    0.00000000    0.00000011
     atom  158 type  1   force =     0.00000002    0.00000000    0.00000007
     atom  159 type  1   force =     0.00000002   -0.00000000    0.00000008
     atom  160 type  1   force =     0.00000001   -0.00000000    0.00000004
     atom  161 type  1   force =     0.00000001   -0.00000000    0.00000005
     atom  162 type  1   force =     0.00000000   -0.00000000    0.00000003
     atom  163 type  1   force =     0.00000004    0.00000000    0.00000015
     atom  164 type  1   force =     0.00000005    0.00000000    0.00000016
     atom  165 type  1   force =     0.00000004   -0.00000000    0.00000013
     atom  166 type  1   force =     0.00000002    0.00000000    0.00000005
     atom  167 type  1   force =     0.00000001   -0.00000000    0.00000003
     atom  168 type  1   force =     0.00000004   -0.00000000    0.00000015
     atom  169 type  1   force =     0.00000004    0.00000000    0.00000016
     atom  170 type  1   force =     0.00000003    0.00000000    0.00000013
     atom  171 type  1   force =     0.00000003   -0.00000000    0.00000014
     atom  172 type  1   force =     0.00000002    0.00000000    0.00000010
     atom  173 type  1   force =     0.00000003   -0.00000000    0.00000011
     atom  174 type  1   force =     0.00000001    0.00000000    0.00000006
     atom  175 type  1   force =     0.00000001   -0.00000000    0.00000004
     atom  176 type  1   force =     0.00000003    0.00000000    0.00000008
     atom  177 type  1   force =     0.00000001    0.00000000    0.00000001
     atom  178 type  1   force =     0.00000000   -0.00000000    0.00000000
     atom  179 type  1   force =     0.00000000   -0.00000000   -0.00000000
     atom  180 type  1   force =    -0.00000000   -0.00000000   -0.00000000
     atom  181 type  1   force =     0.00000001    0.00000000   -0.00000000
     atom  182 type  1   force =     0.00000001    0.00000000   -0.00000000
     atom  183 type  1   force =     0.00000001   -0.00000000    0.00000001
     atom  184 type  1   force =    -0.00000000    0.00000000    0.00000001
     atom  185 type  1   force =     0.00000000    0.00000000    0.00000002
     atom  186 type  1   force =     0.00000001   -0.00000000    0.00000002
     atom  187 type  1   force =     0.00000001   -0.00000000    0.00000001
     atom  188 type  1   force =    -0.00000000   -0.00000000    0.00000001
     atom  189 type  1   force =    -0.00000001    0.00000000    0.00000000
     atom  190 type  1   force =     0.00000000    0.00000000    0.00000002
     atom  191 type  1   force =     0.00000000    0.00000000    0.00000002
     atom  192 type  1   force =     0.00000000   -0.00000000    0.00000001
     atom  193 type  1   force =    -0.00000000    0.00000000    0.00000002
     atom  194 type  1   force =     0.00000000   -0.00000000    0.00000001
     atom  195 type  1   force =    -0.00000000   -0.00000000    0.00000001
     atom  196 type  1   force =    -0.00000000    0.00000000    0.00000001
     atom  197 type  1   force =    -0.00000000   -0.00000000    0.00000001
     atom  198 type  1   force =     0.00000000    0.00000000    0.00000001
     atom  199 type  1   force =    -0.00000001   -0.00000000   -0.00000000
     atom  200 type  1   force =    -0.00000001    0.00000000   -0.00000001
     atom  201 type  1   force =    -0.00000000    0.00000000    0.00000000
     atom  202 type  1   force =    -0.00000000   -0.00000000   -0.00000001
     atom  203 type  1   force =     0.00000000    0.00000000   -0.00000000
     atom  204 type  1   force =     0.00000000   -0.00000000   -0.00000001
     atom  205 type  1   force =    -0.00000001   -0.00000000   -0.00000001
     atom  206 type  1   force =    -0.00000001    0.00000000   -0.00000003
     atom  207 type  1   force =    -0.00000001   -0.00000000    0.00000000
     atom  208 type  1   force =    -0.00000000    0.00000000    0.00000000
     atom  209 type  1   force =    -0.00000001   -0.00000000   -0.00000001
     atom  210 type  1   force =    -0.00000001   -0.00000000   -0.00000001
     atom  211 type  1   force =    -0.00000000    0.00000000   -0.00000002
     atom  212 type  1   force =     0.00000000   -0.00000000    0.00000000
     atom  213 type  1   force =     0.00000002    0.00000000   -0.00000000
     atom  214 type  1   force =     0.00000001   -0.00000000   -0.00000000
     atom  215 type  1   force =     0.00000000   -0.00000000   -0.00000001
     atom  216 type  1   force =     0.00000000    0.00000000   -0.00000001
     atom  217 type  1   force =    -0.00000001    0.00000000   -0.00000001
     atom  218 type  1   force =    -0.00000001   -0.00000000   -0.00000002
     atom  219 type  1   force =    -0.00000000   -0.00000000   -0.00000003
     atom  220 type  1   force =    -0.00000001    0.00000000   -0.00000002
     atom  221 type  1   force =    -0.00000001   -0.00000000   -0.00000005
     atom  222 type  1   force =    -0.00000002    0.00000000   -0.00000009
     atom  223 type  1   force =    -0.00000002    0.00000000   -0.00000008
     atom  224 type  1   force =    -0.00000003    0.00000000   -0.00000013
     atom  225 type  1   force =    -0.00000003    0.00000000   -0.00000011
     atom  226 type  1   force =    -0.00000004   -0.00000000   -0.00000015
     atom  227 type  1   force =    -0.00000004    0.00000000   -0.00000014
     atom  228 type  1   force =    -0.00000004   -0.00000000   -0.00000016
     atom  229 type  1   force =    -0.00000001    0.00000000   -0.00000004
     atom  230 type  1   force =    -0.00000000    0.00000000   -0.00000003
     atom  231 type  1   force =    -0.00000001   -0.00000000   -0.00000006
     atom  232 type  1   force =    -0.00000003    0.00000000   -0.00000014
     atom  233 type  1   force =    -0.00000005   -0.00000000   -0.00000016
     atom  234 type  1   force =    -0.00000001    0.00000000   -0.00000003
     atom  235 type  1   force =    -0.00000001    0.00000000   -0.00000003
     atom  236 type  1   force =    -0.00000002   -0.00000000   -0.00000006
     atom  237 type  1   force =    -0.00000002   -0.00000000   -0.00000004
     atom  238 type  1   force =    -0.00000003    0.00000000   -0.00000009
     atom  239 type  1   force =    -0.00000003    0.00000000   -0.00000007
     atom  240 type  1   force =    -0.00000004   -0.00000000   -0.00000012
     atom  241 type  1   force =    -0.00000004   -0.00000000   -0.00000014
     atom  242 type  1   force =    -0.00000002    0.00000000   -0.00000010
     atom  243 type  1   force =    -0.00000005    0.00000000   -0.00000016
     atom  244 type  1   force =    -0.00000004   -0.00000000   -0.00000011
     atom  245 type  1   force =    -0.00000004   -0.00000000   -0.00000014
     atom  246 type  1   force =    -0.00000002    0.00000000   -0.00000007
     atom  247 type  1   force =    -0.00000002   -0.00000000   -0.00000008
     atom  248 type  1   force =     0.00000000   -0.00000000   -0.00000002
     atom  249 type  1   force =    -0.00000001    0.00000000   -0.00000005
     atom  250 type  1   force =    -0.00000000   -0.00000000   -0.00000001
     atom  251 type  1   force =    -0.00000004    0.00000000   -0.00000017
     atom  252 type  1   force =    -0.00000004   -0.00000000   -0.00000016
     atom  253 type  1   force =    -0.00000004   -0.00000000   -0.00000015
     atom  254 type  1   force =    -0.00000002   -0.00000000   -0.00000005
     atom  255 type  1   force =    -0.00000001   -0.00000000   -0.00000001
     atom  256 type  1   force =    -0.00000005    0.00000000   -0.00000017
     atom  257 type  1   force =    -0.00000004   -0.00000000   -0.00000017
     atom  258 type  1   force =    -0.00000004    0.00000000   -0.00000015
     atom  259 type  1   force =    -0.00000005    0.00000000   -0.00000016
     atom  260 type  1   force =    -0.00000003   -0.00000000   -0.00000011
     atom  261 type  1   force =    -0.00000004   -0.00000000   -0.00000014
     atom  262 type  1   force =    -0.00000002    0.00000000   -0.00000007
     atom  263 type  1   force =    -0.00000000   -0.00000000   -0.00000002
     atom  264 type  1   force =    -0.00000002    0.00000000   -0.00000009

     Total force =     0.013601     Total SCF correction =     0.000001


     Computing stress (Cartesian axis) and pressure

          total   stress  (Ry/bohr**3)                   (kbar)     P=    3.38
   0.00007397   0.00000000  -0.00003426         10.88      0.00     -5.04
   0.00000000   0.00002048  -0.00000000          0.00      3.01     -0.00
  -0.00003426  -0.00000000  -0.00002561         -5.04     -0.00     -3.77

     kinetic stress (kbar)   1482.15      0.00    -10.30
                                0.00   1487.71     -0.00
                              -10.30     -0.00   1476.65

     local   stress (kbar)   -602.08     -0.00    471.29
                               -0.00   -498.71     -0.00
                              471.29     -0.00   1247.62

     nonloc. stress (kbar)   1111.27     -0.00     -2.79
                               -0.00   1104.21      0.00
                               -2.79      0.00   1097.59

     hartree stress (kbar)    537.55      0.00   -246.83
                                0.00    539.74      0.00
                             -246.83      0.00   -365.74

     exc-cor stress (kbar)   1024.25      0.00     -0.04
                                0.00   1023.81      0.00
                               -0.04      0.00   1023.73

     corecor stress (kbar)  -1794.84     -0.00      0.55
                               -0.00  -1793.83     -0.00
                                0.55     -0.00  -1792.79

     ewald   stress (kbar)  -1747.42      0.00   -216.91
                                0.00  -1859.92     -0.00
                             -216.91     -0.00  -2690.82

     hubbard stress (kbar)      0.00      0.00      0.00
                                0.00      0.00      0.00
                                0.00      0.00      0.00

     london  stress (kbar)      0.00      0.00      0.00
                                0.00      0.00      0.00
                                0.00      0.00      0.00

     DFT-D3  stress (kbar)      0.00      0.00      0.00
                                0.00      0.00      0.00
                                0.00      0.00      0.00

     XDM     stress (kbar)      0.00      0.00      0.00
                                0.00      0.00      0.00
                                0.00      0.00      0.00

     dft-nl  stress (kbar)      0.00      0.00      0.00
                                0.00      0.00      0.00
                                0.00      0.00      0.00

     TS-vdW  stress (kbar)      0.00      0.00      0.00
                                0.00      0.00      0.00
                                0.00      0.00      0.00



     Writing output data file aiida.save/
 
     init_run     :    390.21s CPU    394.56s WALL (       1 calls)
     electrons    :  18324.52s CPU  18486.31s WALL (       1 calls)
     forces       :    173.13s CPU    174.10s WALL (       1 calls)
     stress       :   2297.26s CPU   2300.47s WALL (       1 calls)

     Called by init_run:
     wfcinit      :    361.86s CPU    365.83s WALL (       1 calls)
     wfcinit:atom :      0.64s CPU      1.29s WALL (       4 calls)
     wfcinit:wfcr :    356.14s CPU    358.46s WALL (       4 calls)
     potinit      :      9.64s CPU      9.78s WALL (       1 calls)
     hinit0       :     15.99s CPU     16.10s WALL (       1 calls)

     Called by electrons:
     c_bands      :  15909.94s CPU  16047.39s WALL (      34 calls)
     sum_band     :   2303.31s CPU   2314.67s WALL (      34 calls)
     v_of_rho     :     50.79s CPU     55.90s WALL (      35 calls)
     v_h          :      5.67s CPU      5.72s WALL (      35 calls)
     v_xc         :     47.56s CPU     52.75s WALL (      37 calls)
     newd         :     10.59s CPU     13.79s WALL (      35 calls)
     PAW_pot      :      6.32s CPU      6.69s WALL (      35 calls)
     mix_rho      :     35.81s CPU     38.75s WALL (      34 calls)

     Called by c_bands:
     init_us_2    :    209.82s CPU    210.42s WALL (     284 calls)
     cegterg      :  13922.33s CPU  14052.42s WALL (     136 calls)

     Called by sum_band:
     sum_band:bec :      4.02s CPU      4.02s WALL (     136 calls)
     addusdens    :      7.66s CPU     11.44s WALL (      34 calls)

     Called by *egterg:
     h_psi        :   9271.56s CPU   9327.17s WALL (     598 calls)
     s_psi        :   2532.04s CPU   2537.16s WALL (     598 calls)
     g_psi        :     12.39s CPU     12.40s WALL (     458 calls)
     cdiaghg      :    671.79s CPU    684.29s WALL (     594 calls)
     cegterg:over :    744.69s CPU    750.90s WALL (     458 calls)
     cegterg:upda :    468.26s CPU    486.98s WALL (     458 calls)
     cegterg:last :    276.18s CPU    276.39s WALL (     140 calls)
     cdiaghg:chol :     32.74s CPU     32.98s WALL (     594 calls)
     cdiaghg:inve :     14.85s CPU     14.86s WALL (     594 calls)
     cdiaghg:para :    165.80s CPU    168.88s WALL (    1188 calls)

     Called by h_psi:
     h_psi:pot    :   9258.74s CPU   9295.78s WALL (     598 calls)
     h_psi:calbec :   2529.41s CPU   2530.25s WALL (     598 calls)
     vloc_psi     :   4185.55s CPU   4215.72s WALL (     598 calls)
     add_vuspsi   :   2543.78s CPU   2549.81s WALL (     598 calls)

     General routines
     calbec       :   3777.15s CPU   3779.09s WALL (     754 calls)
     fft          :     54.51s CPU     59.58s WALL (     479 calls)
     ffts         :     16.22s CPU     16.30s WALL (     560 calls)
     fftw         :   4599.43s CPU   4633.04s WALL (  374094 calls)
     interpolate  :      4.89s CPU      5.78s WALL (      35 calls)
 
     Parallel routines
     fft_scatt_xy :    641.71s CPU    644.40s WALL (  375133 calls)
     fft_scatt_yz :   2414.98s CPU   2440.87s WALL (  375133 calls)

     PAW routines
     PAW_pot      :      6.32s CPU      6.69s WALL (      35 calls)
 
     PWSCF        :      5h59m CPU      6h 4m WALL

 
   This run was terminated on:   8:11:41  27Feb2020            

=------------------------------------------------------------------------------=
   JOB DONE.
=------------------------------------------------------------------------------=
