
     Program PWSCF v.6.3 starts on 22Feb2020 at  7:45:37 

     This program is part of the open-source Quantum ESPRESSO suite
     for quantum simulation of materials; please cite
         "P. Giannozzi et al., J. Phys.:Condens. Matter 21 395502 (2009);
         "P. Giannozzi et al., J. Phys.:Condens. Matter 29 465901 (2017);
          URL http://www.quantum-espresso.org", 
     in publications or presentations arising from this work. More details at
     http://www.quantum-espresso.org/quote

 *** WARNING: using old-style file format, will disappear from next version ***

     Parallel version (MPI & OpenMP), running on      36 processor cores
     Number of MPI processes:                36
     Threads/MPI process:                     1

     MPI processes distributed on     1 nodes
     K-points division:     npool     =       4
     R & G space division:  proc/nbgrp/npool/nimage =       9
     Reading input from aiida.in
Warning: card &IONS ignored
Warning: card   !PRESS_CONV_THR = 0.05                 ! JUST FOR VOLUME RELAXATIONS ignored
Warning: card / ignored

     Current dimensions of program PWSCF are:
     Max number of different atomic species (ntypx) = 10
     Max number of k-points (npk) =  40000
     Max angular momentum in pseudopotentials (lmaxx) =  3
               file Al.pbe-n-kjpaw_psl.1.0.0.UPF: wavefunction(s)  3S 3P renormalized
               file Mg.pbe-n-kjpaw_psl.0.3.0.UPF: wavefunction(s)  3S renormalized

     Subspace diagonalization in iterative solution of the eigenvalue problem:
     one sub-group per band group will be used
     scalapack distributed-memory algorithm (size of sub-group:  2*  2 procs)

     Found symmetry operation: I + ( -0.5000  0.5000 -0.0000)
     This is a supercell, fractional translations are disabled
 
     Parallelization info
     --------------------
     sticks:   dense  smooth     PW     G-vecs:    dense   smooth      PW
     Min         786     315     91                40309    10202    1592
     Max         787     316     92                40313    10204    1594
     Sum        7077    2841    821               362793    91827   14333
 


     bravais-lattice index     =            0
     lattice parameter (alat)  =      28.5890  a.u.
     unit-cell volume          =    2685.4529 (a.u.)^3
     number of atoms/cell      =           22
     number of atomic types    =            3
     number of electrons       =        66.00
     number of Kohn-Sham states=           40
     kinetic-energy cutoff     =      40.0000  Ry
     charge density cutoff     =     400.0000  Ry
     convergence threshold     =      1.0E-12
     mixing beta               =       0.4000
     number of iterations used =            8  local-TF  mixing
     Exchange-correlation      = PBE ( 1  4  3  4 0 0)

     celldm(1)=  28.588964  celldm(2)=   0.000000  celldm(3)=   0.000000
     celldm(4)=   0.000000  celldm(5)=   0.000000  celldm(6)=   0.000000

     crystal axes: (cart. coord. in units of alat)
               a(1) = (   0.958425   0.000000  -0.285344 )  
               a(2) = (   0.000000   0.272436   0.000000 )  
               a(3) = (   0.000000   0.000000   0.440148 )  

     reciprocal axes: (cart. coord. in units 2 pi/alat)
               b(1) = (  1.043378  0.000000  0.000000 )  
               b(2) = (  0.000000  3.670584  0.000000 )  
               b(3) = (  0.676411  0.000000  2.271961 )  


     PseudoPot. # 1 for Al read from file:
     /users/aglensk/Dropbox/Albert/scripts/dotfiles/scripts/potentials/quantum_espresso/pseudo_SSSPefV1.1_alalloy/Al.pbe-n-kjpaw_psl.1.0.0.UPF
     MD5 check sum: cfc449ca30b5f3223ec38ddd88ac046d
     Pseudo is Projector augmented-wave + core cor, Zval =  3.0
     Generated using "atomic" code by A. Dal Corso v.5.1
     Shape of augmentation charge: PSQ
     Using radial grid of 1135 points,  6 beta functions with: 
                l(1) =   0
                l(2) =   0
                l(3) =   1
                l(4) =   1
                l(5) =   2
                l(6) =   2
     Q(r) pseudized with 0 coefficients 


     PseudoPot. # 2 for Mg read from file:
     /users/aglensk/Dropbox/Albert/scripts/dotfiles/scripts/potentials/quantum_espresso/pseudo_SSSPefV1.1_alalloy/Mg.pbe-n-kjpaw_psl.0.3.0.UPF
     MD5 check sum: 24ecedc7f3e3cbe212e682f4413594e4
     Pseudo is Projector augmented-wave + core cor, Zval =  2.0
     Generated using "atomic" code by A. Dal Corso v.5.0.99 svn rev. 10869
     Shape of augmentation charge: PSQ
     Using radial grid of 1129 points,  4 beta functions with: 
                l(1) =   0
                l(2) =   0
                l(3) =   1
                l(4) =   1
     Q(r) pseudized with 0 coefficients 


     PseudoPot. # 3 for Si read from file:
     /users/aglensk/Dropbox/Albert/scripts/dotfiles/scripts/potentials/quantum_espresso/pseudo_SSSPefV1.1_alalloy/Si.pbe-n-rrkjus_psl.1.0.0.UPF
     MD5 check sum: 0b0bb1205258b0d07b9f9672cf965d36
     Pseudo is Ultrasoft + core correction, Zval =  4.0
     Generated using "atomic" code by A. Dal Corso v.5.1
     Using radial grid of 1141 points,  6 beta functions with: 
                l(1) =   0
                l(2) =   0
                l(3) =   1
                l(4) =   1
                l(5) =   2
                l(6) =   2
     Q(r) pseudized with 0 coefficients 


     atomic species   valence    mass     pseudopotential
        Al             3.00    26.98154     Al( 1.00)
        Mg             2.00    24.30500     Mg( 1.00)
        Si             4.00    28.08500     Si( 1.00)

     No symmetry found


                                    s                        frac. trans.

      isym =  1     identity                                     

 cryst.   s( 1) = (     1          0          0      )
                  (     0          1          0      )
                  (     0          0          1      )

 cart.    s( 1) = (  1.0000000  0.0000000  0.0000000 )
                  (  0.0000000  1.0000000  0.0000000 )
                  ( -0.0000000  0.0000000  1.0000000 )


   Cartesian axes

     site n.     atom                  positions (alat units)
         1           Al  tau(   1) = (   0.0013522   0.0000000   0.4347191  )
         2           Mg  tau(   2) = (   0.0702118   0.1362181   0.1266855  )
         3           Mg  tau(   3) = (   0.1482637   0.1362181   0.3525021  )
         4           Mg  tau(   4) = (   0.3336552   0.0000000  -0.0658877  )
         5           Mg  tau(   5) = (   0.4117078   0.0000000   0.1599320  )
         6           Si  tau(   6) = (   0.0566102   0.0000000   0.2707602  )
         7           Si  tau(   7) = (   0.1761953   0.0000000   0.0383579  )
         8           Al  tau(   8) = (   0.2101758   0.0000000   0.2051646  )
         9           Al  tau(   9) = (   0.2717402   0.1362181   0.0814500  )
        10           Si  tau(  10) = (   0.3057171   0.1362181   0.2482562  )
        11           Si  tau(  11) = (   0.4253041   0.1362181   0.0158577  )
        12           Al  tau(  12) = (   0.4805648   0.1362181   0.2920473  )
        13           Mg  tau(  13) = (   0.5494245   0.0000000  -0.0159862  )
        14           Mg  tau(  14) = (   0.6274764   0.0000000   0.2098303  )
        15           Mg  tau(  15) = (   0.8128678   0.1362181  -0.2085595  )
        16           Mg  tau(  16) = (   0.8909204   0.1362181   0.0172602  )
        17           Si  tau(  17) = (   0.5358228   0.1362181   0.1280884  )
        18           Si  tau(  18) = (   0.6554080   0.1362181  -0.1043139  )
        19           Al  tau(  19) = (   0.6893884   0.1362181   0.0624928  )
        20           Al  tau(  20) = (   0.7509529   0.0000000  -0.0612217  )
        21           Si  tau(  21) = (   0.7849298   0.0000000   0.1055844  )
        22           Si  tau(  22) = (   0.9045167   0.0000000  -0.1268141  )

   Crystallographic axes

     site n.     atom                  positions (cryst. coord.)
         1           Al  tau(   1) = (  0.0014108  0.0000000  0.9885795  )
         2           Mg  tau(   2) = (  0.0732575  0.5000000  0.3353166  )
         3           Mg  tau(   3) = (  0.1546951  0.5000000  0.9011583  )
         4           Mg  tau(   4) = (  0.3481285  0.0000000  0.0759939  )
         5           Mg  tau(   5) = (  0.4295669  0.0000000  0.6418430  )
         6           Si  tau(   6) = (  0.0590658  0.0000000  0.6534484  )
         7           Si  tau(   7) = (  0.1838384  0.0000000  0.2063281  )
         8           Al  tau(   8) = (  0.2192928  0.0000000  0.6082911  )
         9           Al  tau(   9) = (  0.2835278  0.5000000  0.3688594  )
        10           Si  tau(  10) = (  0.3189786  0.5000000  0.7708189  )
        11           Si  tau(  11) = (  0.4437530  0.5000000  0.3237084  )
        12           Al  tau(  12) = (  0.5014109  0.5000000  0.9885795  )
        13           Mg  tau(  13) = (  0.5732575  0.0000000  0.3353167  )
        14           Mg  tau(  14) = (  0.6546951  0.0000000  0.9011583  )
        15           Mg  tau(  15) = (  0.8481285  0.5000000  0.0759938  )
        16           Mg  tau(  16) = (  0.9295669  0.5000000  0.6418430  )
        17           Si  tau(  17) = (  0.5590658  0.5000000  0.6534484  )
        18           Si  tau(  18) = (  0.6838384  0.5000000  0.2063280  )
        19           Al  tau(  19) = (  0.7192928  0.5000000  0.6082912  )
        20           Al  tau(  20) = (  0.7835278  0.0000000  0.3688594  )
        21           Si  tau(  21) = (  0.8189786  0.0000000  0.7708188  )
        22           Si  tau(  22) = (  0.9437530  0.0000000  0.3237083  )

     number of k points=   782  Methfessel-Paxton smearing, width (Ry)=  0.0441
                       cart. coord. in units 2pi/alat
        k(    1) = (   0.0000000   0.0000000   0.0000000), wk =   0.0012821
        k(    2) = (   0.0520316   0.0000000   0.1747662), wk =   0.0025641
        k(    3) = (   0.1040632   0.0000000   0.3495325), wk =   0.0025641
        k(    4) = (   0.1560949   0.0000000   0.5242987), wk =   0.0025641
        k(    5) = (   0.2081265   0.0000000   0.6990649), wk =   0.0025641
        k(    6) = (   0.2601581   0.0000000   0.8738311), wk =   0.0025641
        k(    7) = (   0.3121897   0.0000000   1.0485974), wk =   0.0025641
        k(    8) = (   0.0000000   0.1835292   0.0000000), wk =   0.0025641
        k(    9) = (   0.0520316   0.1835292   0.1747662), wk =   0.0025641
        k(   10) = (   0.1040632   0.1835292   0.3495325), wk =   0.0025641
        k(   11) = (   0.1560949   0.1835292   0.5242987), wk =   0.0025641
        k(   12) = (   0.2081265   0.1835292   0.6990649), wk =   0.0025641
        k(   13) = (   0.2601581   0.1835292   0.8738311), wk =   0.0025641
        k(   14) = (   0.3121897   0.1835292   1.0485974), wk =   0.0025641
        k(   15) = (  -0.3121897   0.1835292  -1.0485974), wk =   0.0025641
        k(   16) = (  -0.2601581   0.1835292  -0.8738311), wk =   0.0025641
        k(   17) = (  -0.2081265   0.1835292  -0.6990649), wk =   0.0025641
        k(   18) = (  -0.1560949   0.1835292  -0.5242987), wk =   0.0025641
        k(   19) = (  -0.1040632   0.1835292  -0.3495325), wk =   0.0025641
        k(   20) = (  -0.0520316   0.1835292  -0.1747662), wk =   0.0025641
        k(   21) = (   0.0000000   0.3670584   0.0000000), wk =   0.0025641
        k(   22) = (   0.0520316   0.3670584   0.1747662), wk =   0.0025641
        k(   23) = (   0.1040632   0.3670584   0.3495325), wk =   0.0025641
        k(   24) = (   0.1560949   0.3670584   0.5242987), wk =   0.0025641
        k(   25) = (   0.2081265   0.3670584   0.6990649), wk =   0.0025641
        k(   26) = (   0.2601581   0.3670584   0.8738311), wk =   0.0025641
        k(   27) = (   0.3121897   0.3670584   1.0485974), wk =   0.0025641
        k(   28) = (  -0.3121897   0.3670584  -1.0485974), wk =   0.0025641
        k(   29) = (  -0.2601581   0.3670584  -0.8738311), wk =   0.0025641
        k(   30) = (  -0.2081265   0.3670584  -0.6990649), wk =   0.0025641
        k(   31) = (  -0.1560949   0.3670584  -0.5242987), wk =   0.0025641
        k(   32) = (  -0.1040632   0.3670584  -0.3495325), wk =   0.0025641
        k(   33) = (  -0.0520316   0.3670584  -0.1747662), wk =   0.0025641
        k(   34) = (   0.0000000   0.5505875   0.0000000), wk =   0.0025641
        k(   35) = (   0.0520316   0.5505875   0.1747662), wk =   0.0025641
        k(   36) = (   0.1040632   0.5505875   0.3495325), wk =   0.0025641
        k(   37) = (   0.1560949   0.5505875   0.5242987), wk =   0.0025641
        k(   38) = (   0.2081265   0.5505875   0.6990649), wk =   0.0025641
        k(   39) = (   0.2601581   0.5505875   0.8738311), wk =   0.0025641
        k(   40) = (   0.3121897   0.5505875   1.0485974), wk =   0.0025641
        k(   41) = (  -0.3121897   0.5505875  -1.0485974), wk =   0.0025641
        k(   42) = (  -0.2601581   0.5505875  -0.8738311), wk =   0.0025641
        k(   43) = (  -0.2081265   0.5505875  -0.6990649), wk =   0.0025641
        k(   44) = (  -0.1560949   0.5505875  -0.5242987), wk =   0.0025641
        k(   45) = (  -0.1040632   0.5505875  -0.3495325), wk =   0.0025641
        k(   46) = (  -0.0520316   0.5505875  -0.1747662), wk =   0.0025641
        k(   47) = (   0.0000000   0.7341167   0.0000000), wk =   0.0025641
        k(   48) = (   0.0520316   0.7341167   0.1747662), wk =   0.0025641
        k(   49) = (   0.1040632   0.7341167   0.3495325), wk =   0.0025641
        k(   50) = (   0.1560949   0.7341167   0.5242987), wk =   0.0025641
        k(   51) = (   0.2081265   0.7341167   0.6990649), wk =   0.0025641
        k(   52) = (   0.2601581   0.7341167   0.8738311), wk =   0.0025641
        k(   53) = (   0.3121897   0.7341167   1.0485974), wk =   0.0025641
        k(   54) = (  -0.3121897   0.7341167  -1.0485974), wk =   0.0025641
        k(   55) = (  -0.2601581   0.7341167  -0.8738311), wk =   0.0025641
        k(   56) = (  -0.2081265   0.7341167  -0.6990649), wk =   0.0025641
        k(   57) = (  -0.1560949   0.7341167  -0.5242987), wk =   0.0025641
        k(   58) = (  -0.1040632   0.7341167  -0.3495325), wk =   0.0025641
        k(   59) = (  -0.0520316   0.7341167  -0.1747662), wk =   0.0025641
        k(   60) = (   0.0000000   0.9176459   0.0000000), wk =   0.0025641
        k(   61) = (   0.0520316   0.9176459   0.1747662), wk =   0.0025641
        k(   62) = (   0.1040632   0.9176459   0.3495325), wk =   0.0025641
        k(   63) = (   0.1560949   0.9176459   0.5242987), wk =   0.0025641
        k(   64) = (   0.2081265   0.9176459   0.6990649), wk =   0.0025641
        k(   65) = (   0.2601581   0.9176459   0.8738311), wk =   0.0025641
        k(   66) = (   0.3121897   0.9176459   1.0485974), wk =   0.0025641
        k(   67) = (  -0.3121897   0.9176459  -1.0485974), wk =   0.0025641
        k(   68) = (  -0.2601581   0.9176459  -0.8738311), wk =   0.0025641
        k(   69) = (  -0.2081265   0.9176459  -0.6990649), wk =   0.0025641
        k(   70) = (  -0.1560949   0.9176459  -0.5242987), wk =   0.0025641
        k(   71) = (  -0.1040632   0.9176459  -0.3495325), wk =   0.0025641
        k(   72) = (  -0.0520316   0.9176459  -0.1747662), wk =   0.0025641
        k(   73) = (   0.0000000   1.1011751   0.0000000), wk =   0.0025641
        k(   74) = (   0.0520316   1.1011751   0.1747662), wk =   0.0025641
        k(   75) = (   0.1040632   1.1011751   0.3495325), wk =   0.0025641
        k(   76) = (   0.1560949   1.1011751   0.5242987), wk =   0.0025641
        k(   77) = (   0.2081265   1.1011751   0.6990649), wk =   0.0025641
        k(   78) = (   0.2601581   1.1011751   0.8738311), wk =   0.0025641
        k(   79) = (   0.3121897   1.1011751   1.0485974), wk =   0.0025641
        k(   80) = (  -0.3121897   1.1011751  -1.0485974), wk =   0.0025641
        k(   81) = (  -0.2601581   1.1011751  -0.8738311), wk =   0.0025641
        k(   82) = (  -0.2081265   1.1011751  -0.6990649), wk =   0.0025641
        k(   83) = (  -0.1560949   1.1011751  -0.5242987), wk =   0.0025641
        k(   84) = (  -0.1040632   1.1011751  -0.3495325), wk =   0.0025641
        k(   85) = (  -0.0520316   1.1011751  -0.1747662), wk =   0.0025641
        k(   86) = (   0.0000000   1.2847042   0.0000000), wk =   0.0025641
        k(   87) = (   0.0520316   1.2847042   0.1747662), wk =   0.0025641
        k(   88) = (   0.1040632   1.2847042   0.3495325), wk =   0.0025641
        k(   89) = (   0.1560949   1.2847042   0.5242987), wk =   0.0025641
        k(   90) = (   0.2081265   1.2847042   0.6990649), wk =   0.0025641
        k(   91) = (   0.2601581   1.2847042   0.8738311), wk =   0.0025641
        k(   92) = (   0.3121897   1.2847042   1.0485974), wk =   0.0025641
        k(   93) = (  -0.3121897   1.2847042  -1.0485974), wk =   0.0025641
        k(   94) = (  -0.2601581   1.2847042  -0.8738311), wk =   0.0025641
        k(   95) = (  -0.2081265   1.2847042  -0.6990649), wk =   0.0025641
        k(   96) = (  -0.1560949   1.2847042  -0.5242987), wk =   0.0025641
        k(   97) = (  -0.1040632   1.2847042  -0.3495325), wk =   0.0025641
        k(   98) = (  -0.0520316   1.2847042  -0.1747662), wk =   0.0025641
        k(   99) = (   0.0000000   1.4682334   0.0000000), wk =   0.0025641
        k(  100) = (   0.0520316   1.4682334   0.1747662), wk =   0.0025641
        k(  101) = (   0.1040632   1.4682334   0.3495325), wk =   0.0025641
        k(  102) = (   0.1560949   1.4682334   0.5242987), wk =   0.0025641
        k(  103) = (   0.2081265   1.4682334   0.6990649), wk =   0.0025641
        k(  104) = (   0.2601581   1.4682334   0.8738311), wk =   0.0025641
        k(  105) = (   0.3121897   1.4682334   1.0485974), wk =   0.0025641
        k(  106) = (  -0.3121897   1.4682334  -1.0485974), wk =   0.0025641
        k(  107) = (  -0.2601581   1.4682334  -0.8738311), wk =   0.0025641
        k(  108) = (  -0.2081265   1.4682334  -0.6990649), wk =   0.0025641
        k(  109) = (  -0.1560949   1.4682334  -0.5242987), wk =   0.0025641
        k(  110) = (  -0.1040632   1.4682334  -0.3495325), wk =   0.0025641
        k(  111) = (  -0.0520316   1.4682334  -0.1747662), wk =   0.0025641
        k(  112) = (   0.0000000   1.6517626   0.0000000), wk =   0.0025641
        k(  113) = (   0.0520316   1.6517626   0.1747662), wk =   0.0025641
        k(  114) = (   0.1040632   1.6517626   0.3495325), wk =   0.0025641
        k(  115) = (   0.1560949   1.6517626   0.5242987), wk =   0.0025641
        k(  116) = (   0.2081265   1.6517626   0.6990649), wk =   0.0025641
        k(  117) = (   0.2601581   1.6517626   0.8738311), wk =   0.0025641
        k(  118) = (   0.3121897   1.6517626   1.0485974), wk =   0.0025641
        k(  119) = (  -0.3121897   1.6517626  -1.0485974), wk =   0.0025641
        k(  120) = (  -0.2601581   1.6517626  -0.8738311), wk =   0.0025641
        k(  121) = (  -0.2081265   1.6517626  -0.6990649), wk =   0.0025641
        k(  122) = (  -0.1560949   1.6517626  -0.5242987), wk =   0.0025641
        k(  123) = (  -0.1040632   1.6517626  -0.3495325), wk =   0.0025641
        k(  124) = (  -0.0520316   1.6517626  -0.1747662), wk =   0.0025641
        k(  125) = (   0.0000000  -1.8352918   0.0000000), wk =   0.0012821
        k(  126) = (   0.0520316  -1.8352918   0.1747662), wk =   0.0025641
        k(  127) = (   0.1040632  -1.8352918   0.3495325), wk =   0.0025641
        k(  128) = (   0.1560949  -1.8352918   0.5242987), wk =   0.0025641
        k(  129) = (   0.2081265  -1.8352918   0.6990649), wk =   0.0025641
        k(  130) = (   0.2601581  -1.8352918   0.8738311), wk =   0.0025641
        k(  131) = (   0.3121897  -1.8352918   1.0485974), wk =   0.0025641
        k(  132) = (   0.1738964   0.0000000   0.0000000), wk =   0.0025641
        k(  133) = (   0.2259280   0.0000000   0.1747662), wk =   0.0025641
        k(  134) = (   0.2779596   0.0000000   0.3495325), wk =   0.0025641
        k(  135) = (   0.3299912   0.0000000   0.5242987), wk =   0.0025641
        k(  136) = (   0.3820228   0.0000000   0.6990649), wk =   0.0025641
        k(  137) = (   0.4340544   0.0000000   0.8738311), wk =   0.0025641
        k(  138) = (   0.4860861   0.0000000   1.0485974), wk =   0.0025641
        k(  139) = (  -0.1382934   0.0000000  -1.0485974), wk =   0.0025641
        k(  140) = (  -0.0862617   0.0000000  -0.8738311), wk =   0.0025641
        k(  141) = (  -0.0342301   0.0000000  -0.6990649), wk =   0.0025641
        k(  142) = (   0.0178015   0.0000000  -0.5242987), wk =   0.0025641
        k(  143) = (   0.0698331   0.0000000  -0.3495325), wk =   0.0025641
        k(  144) = (   0.1218647   0.0000000  -0.1747662), wk =   0.0025641
        k(  145) = (   0.1738964   0.1835292   0.0000000), wk =   0.0025641
        k(  146) = (   0.2259280   0.1835292   0.1747662), wk =   0.0025641
        k(  147) = (   0.2779596   0.1835292   0.3495325), wk =   0.0025641
        k(  148) = (   0.3299912   0.1835292   0.5242987), wk =   0.0025641
        k(  149) = (   0.3820228   0.1835292   0.6990649), wk =   0.0025641
        k(  150) = (   0.4340544   0.1835292   0.8738311), wk =   0.0025641
        k(  151) = (   0.4860861   0.1835292   1.0485974), wk =   0.0025641
        k(  152) = (  -0.1382934   0.1835292  -1.0485974), wk =   0.0025641
        k(  153) = (  -0.0862617   0.1835292  -0.8738311), wk =   0.0025641
        k(  154) = (  -0.0342301   0.1835292  -0.6990649), wk =   0.0025641
        k(  155) = (   0.0178015   0.1835292  -0.5242987), wk =   0.0025641
        k(  156) = (   0.0698331   0.1835292  -0.3495325), wk =   0.0025641
        k(  157) = (   0.1218647   0.1835292  -0.1747662), wk =   0.0025641
        k(  158) = (   0.1738964   0.3670584   0.0000000), wk =   0.0025641
        k(  159) = (   0.2259280   0.3670584   0.1747662), wk =   0.0025641
        k(  160) = (   0.2779596   0.3670584   0.3495325), wk =   0.0025641
        k(  161) = (   0.3299912   0.3670584   0.5242987), wk =   0.0025641
        k(  162) = (   0.3820228   0.3670584   0.6990649), wk =   0.0025641
        k(  163) = (   0.4340544   0.3670584   0.8738311), wk =   0.0025641
        k(  164) = (   0.4860861   0.3670584   1.0485974), wk =   0.0025641
        k(  165) = (  -0.1382934   0.3670584  -1.0485974), wk =   0.0025641
        k(  166) = (  -0.0862617   0.3670584  -0.8738311), wk =   0.0025641
        k(  167) = (  -0.0342301   0.3670584  -0.6990649), wk =   0.0025641
        k(  168) = (   0.0178015   0.3670584  -0.5242987), wk =   0.0025641
        k(  169) = (   0.0698331   0.3670584  -0.3495325), wk =   0.0025641
        k(  170) = (   0.1218647   0.3670584  -0.1747662), wk =   0.0025641
        k(  171) = (   0.1738964   0.5505875   0.0000000), wk =   0.0025641
        k(  172) = (   0.2259280   0.5505875   0.1747662), wk =   0.0025641
        k(  173) = (   0.2779596   0.5505875   0.3495325), wk =   0.0025641
        k(  174) = (   0.3299912   0.5505875   0.5242987), wk =   0.0025641
        k(  175) = (   0.3820228   0.5505875   0.6990649), wk =   0.0025641
        k(  176) = (   0.4340544   0.5505875   0.8738311), wk =   0.0025641
        k(  177) = (   0.4860861   0.5505875   1.0485974), wk =   0.0025641
        k(  178) = (  -0.1382934   0.5505875  -1.0485974), wk =   0.0025641
        k(  179) = (  -0.0862617   0.5505875  -0.8738311), wk =   0.0025641
        k(  180) = (  -0.0342301   0.5505875  -0.6990649), wk =   0.0025641
        k(  181) = (   0.0178015   0.5505875  -0.5242987), wk =   0.0025641
        k(  182) = (   0.0698331   0.5505875  -0.3495325), wk =   0.0025641
        k(  183) = (   0.1218647   0.5505875  -0.1747662), wk =   0.0025641
        k(  184) = (   0.1738964   0.7341167   0.0000000), wk =   0.0025641
        k(  185) = (   0.2259280   0.7341167   0.1747662), wk =   0.0025641
        k(  186) = (   0.2779596   0.7341167   0.3495325), wk =   0.0025641
        k(  187) = (   0.3299912   0.7341167   0.5242987), wk =   0.0025641
        k(  188) = (   0.3820228   0.7341167   0.6990649), wk =   0.0025641
        k(  189) = (   0.4340544   0.7341167   0.8738311), wk =   0.0025641
        k(  190) = (   0.4860861   0.7341167   1.0485974), wk =   0.0025641
        k(  191) = (  -0.1382934   0.7341167  -1.0485974), wk =   0.0025641
        k(  192) = (  -0.0862617   0.7341167  -0.8738311), wk =   0.0025641
        k(  193) = (  -0.0342301   0.7341167  -0.6990649), wk =   0.0025641
        k(  194) = (   0.0178015   0.7341167  -0.5242987), wk =   0.0025641
        k(  195) = (   0.0698331   0.7341167  -0.3495325), wk =   0.0025641
        k(  196) = (   0.1218647   0.7341167  -0.1747662), wk =   0.0025641
        k(  197) = (   0.1738964   0.9176459   0.0000000), wk =   0.0025641
        k(  198) = (   0.2259280   0.9176459   0.1747662), wk =   0.0025641
        k(  199) = (   0.2779596   0.9176459   0.3495325), wk =   0.0025641
        k(  200) = (   0.3299912   0.9176459   0.5242987), wk =   0.0025641
        k(  201) = (   0.3820228   0.9176459   0.6990649), wk =   0.0025641
        k(  202) = (   0.4340544   0.9176459   0.8738311), wk =   0.0025641
        k(  203) = (   0.4860861   0.9176459   1.0485974), wk =   0.0025641
        k(  204) = (  -0.1382934   0.9176459  -1.0485974), wk =   0.0025641
        k(  205) = (  -0.0862617   0.9176459  -0.8738311), wk =   0.0025641
        k(  206) = (  -0.0342301   0.9176459  -0.6990649), wk =   0.0025641
        k(  207) = (   0.0178015   0.9176459  -0.5242987), wk =   0.0025641
        k(  208) = (   0.0698331   0.9176459  -0.3495325), wk =   0.0025641
        k(  209) = (   0.1218647   0.9176459  -0.1747662), wk =   0.0025641
        k(  210) = (   0.1738964   1.1011751   0.0000000), wk =   0.0025641
        k(  211) = (   0.2259280   1.1011751   0.1747662), wk =   0.0025641
        k(  212) = (   0.2779596   1.1011751   0.3495325), wk =   0.0025641
        k(  213) = (   0.3299912   1.1011751   0.5242987), wk =   0.0025641
        k(  214) = (   0.3820228   1.1011751   0.6990649), wk =   0.0025641
        k(  215) = (   0.4340544   1.1011751   0.8738311), wk =   0.0025641
        k(  216) = (   0.4860861   1.1011751   1.0485974), wk =   0.0025641
        k(  217) = (  -0.1382934   1.1011751  -1.0485974), wk =   0.0025641
        k(  218) = (  -0.0862617   1.1011751  -0.8738311), wk =   0.0025641
        k(  219) = (  -0.0342301   1.1011751  -0.6990649), wk =   0.0025641
        k(  220) = (   0.0178015   1.1011751  -0.5242987), wk =   0.0025641
        k(  221) = (   0.0698331   1.1011751  -0.3495325), wk =   0.0025641
        k(  222) = (   0.1218647   1.1011751  -0.1747662), wk =   0.0025641
        k(  223) = (   0.1738964   1.2847042   0.0000000), wk =   0.0025641
        k(  224) = (   0.2259280   1.2847042   0.1747662), wk =   0.0025641
        k(  225) = (   0.2779596   1.2847042   0.3495325), wk =   0.0025641
        k(  226) = (   0.3299912   1.2847042   0.5242987), wk =   0.0025641
        k(  227) = (   0.3820228   1.2847042   0.6990649), wk =   0.0025641
        k(  228) = (   0.4340544   1.2847042   0.8738311), wk =   0.0025641
        k(  229) = (   0.4860861   1.2847042   1.0485974), wk =   0.0025641
        k(  230) = (  -0.1382934   1.2847042  -1.0485974), wk =   0.0025641
        k(  231) = (  -0.0862617   1.2847042  -0.8738311), wk =   0.0025641
        k(  232) = (  -0.0342301   1.2847042  -0.6990649), wk =   0.0025641
        k(  233) = (   0.0178015   1.2847042  -0.5242987), wk =   0.0025641
        k(  234) = (   0.0698331   1.2847042  -0.3495325), wk =   0.0025641
        k(  235) = (   0.1218647   1.2847042  -0.1747662), wk =   0.0025641
        k(  236) = (   0.1738964   1.4682334   0.0000000), wk =   0.0025641
        k(  237) = (   0.2259280   1.4682334   0.1747662), wk =   0.0025641
        k(  238) = (   0.2779596   1.4682334   0.3495325), wk =   0.0025641
        k(  239) = (   0.3299912   1.4682334   0.5242987), wk =   0.0025641
        k(  240) = (   0.3820228   1.4682334   0.6990649), wk =   0.0025641
        k(  241) = (   0.4340544   1.4682334   0.8738311), wk =   0.0025641
        k(  242) = (   0.4860861   1.4682334   1.0485974), wk =   0.0025641
        k(  243) = (  -0.1382934   1.4682334  -1.0485974), wk =   0.0025641
        k(  244) = (  -0.0862617   1.4682334  -0.8738311), wk =   0.0025641
        k(  245) = (  -0.0342301   1.4682334  -0.6990649), wk =   0.0025641
        k(  246) = (   0.0178015   1.4682334  -0.5242987), wk =   0.0025641
        k(  247) = (   0.0698331   1.4682334  -0.3495325), wk =   0.0025641
        k(  248) = (   0.1218647   1.4682334  -0.1747662), wk =   0.0025641
        k(  249) = (   0.1738964   1.6517626   0.0000000), wk =   0.0025641
        k(  250) = (   0.2259280   1.6517626   0.1747662), wk =   0.0025641
        k(  251) = (   0.2779596   1.6517626   0.3495325), wk =   0.0025641
        k(  252) = (   0.3299912   1.6517626   0.5242987), wk =   0.0025641
        k(  253) = (   0.3820228   1.6517626   0.6990649), wk =   0.0025641
        k(  254) = (   0.4340544   1.6517626   0.8738311), wk =   0.0025641
        k(  255) = (   0.4860861   1.6517626   1.0485974), wk =   0.0025641
        k(  256) = (  -0.1382934   1.6517626  -1.0485974), wk =   0.0025641
        k(  257) = (  -0.0862617   1.6517626  -0.8738311), wk =   0.0025641
        k(  258) = (  -0.0342301   1.6517626  -0.6990649), wk =   0.0025641
        k(  259) = (   0.0178015   1.6517626  -0.5242987), wk =   0.0025641
        k(  260) = (   0.0698331   1.6517626  -0.3495325), wk =   0.0025641
        k(  261) = (   0.1218647   1.6517626  -0.1747662), wk =   0.0025641
        k(  262) = (   0.1738964  -1.8352918   0.0000000), wk =   0.0025641
        k(  263) = (   0.2259280  -1.8352918   0.1747662), wk =   0.0025641
        k(  264) = (   0.2779596  -1.8352918   0.3495325), wk =   0.0025641
        k(  265) = (   0.3299912  -1.8352918   0.5242987), wk =   0.0025641
        k(  266) = (   0.3820228  -1.8352918   0.6990649), wk =   0.0025641
        k(  267) = (   0.4340544  -1.8352918   0.8738311), wk =   0.0025641
        k(  268) = (   0.4860861  -1.8352918   1.0485974), wk =   0.0025641
        k(  269) = (  -0.1382934  -1.8352918  -1.0485974), wk =   0.0025641
        k(  270) = (  -0.0862617  -1.8352918  -0.8738311), wk =   0.0025641
        k(  271) = (  -0.0342301  -1.8352918  -0.6990649), wk =   0.0025641
        k(  272) = (   0.0178015  -1.8352918  -0.5242987), wk =   0.0025641
        k(  273) = (   0.0698331  -1.8352918  -0.3495325), wk =   0.0025641
        k(  274) = (   0.1218647  -1.8352918  -0.1747662), wk =   0.0025641
        k(  275) = (   0.1738964  -1.6517626   0.0000000), wk =   0.0025641
        k(  276) = (   0.2259280  -1.6517626   0.1747662), wk =   0.0025641
        k(  277) = (   0.2779596  -1.6517626   0.3495325), wk =   0.0025641
        k(  278) = (   0.3299912  -1.6517626   0.5242987), wk =   0.0025641
        k(  279) = (   0.3820228  -1.6517626   0.6990649), wk =   0.0025641
        k(  280) = (   0.4340544  -1.6517626   0.8738311), wk =   0.0025641
        k(  281) = (   0.4860861  -1.6517626   1.0485974), wk =   0.0025641
        k(  282) = (  -0.1382934  -1.6517626  -1.0485974), wk =   0.0025641
        k(  283) = (  -0.0862617  -1.6517626  -0.8738311), wk =   0.0025641
        k(  284) = (  -0.0342301  -1.6517626  -0.6990649), wk =   0.0025641
        k(  285) = (   0.0178015  -1.6517626  -0.5242987), wk =   0.0025641
        k(  286) = (   0.0698331  -1.6517626  -0.3495325), wk =   0.0025641
        k(  287) = (   0.1218647  -1.6517626  -0.1747662), wk =   0.0025641
        k(  288) = (   0.1738964  -1.4682334   0.0000000), wk =   0.0025641
        k(  289) = (   0.2259280  -1.4682334   0.1747662), wk =   0.0025641
        k(  290) = (   0.2779596  -1.4682334   0.3495325), wk =   0.0025641
        k(  291) = (   0.3299912  -1.4682334   0.5242987), wk =   0.0025641
        k(  292) = (   0.3820228  -1.4682334   0.6990649), wk =   0.0025641
        k(  293) = (   0.4340544  -1.4682334   0.8738311), wk =   0.0025641
        k(  294) = (   0.4860861  -1.4682334   1.0485974), wk =   0.0025641
        k(  295) = (  -0.1382934  -1.4682334  -1.0485974), wk =   0.0025641
        k(  296) = (  -0.0862617  -1.4682334  -0.8738311), wk =   0.0025641
        k(  297) = (  -0.0342301  -1.4682334  -0.6990649), wk =   0.0025641
        k(  298) = (   0.0178015  -1.4682334  -0.5242987), wk =   0.0025641
        k(  299) = (   0.0698331  -1.4682334  -0.3495325), wk =   0.0025641
        k(  300) = (   0.1218647  -1.4682334  -0.1747662), wk =   0.0025641
        k(  301) = (   0.1738964  -1.2847042   0.0000000), wk =   0.0025641
        k(  302) = (   0.2259280  -1.2847042   0.1747662), wk =   0.0025641
        k(  303) = (   0.2779596  -1.2847042   0.3495325), wk =   0.0025641
        k(  304) = (   0.3299912  -1.2847042   0.5242987), wk =   0.0025641
        k(  305) = (   0.3820228  -1.2847042   0.6990649), wk =   0.0025641
        k(  306) = (   0.4340544  -1.2847042   0.8738311), wk =   0.0025641
        k(  307) = (   0.4860861  -1.2847042   1.0485974), wk =   0.0025641
        k(  308) = (  -0.1382934  -1.2847042  -1.0485974), wk =   0.0025641
        k(  309) = (  -0.0862617  -1.2847042  -0.8738311), wk =   0.0025641
        k(  310) = (  -0.0342301  -1.2847042  -0.6990649), wk =   0.0025641
        k(  311) = (   0.0178015  -1.2847042  -0.5242987), wk =   0.0025641
        k(  312) = (   0.0698331  -1.2847042  -0.3495325), wk =   0.0025641
        k(  313) = (   0.1218647  -1.2847042  -0.1747662), wk =   0.0025641
        k(  314) = (   0.1738964  -1.1011751   0.0000000), wk =   0.0025641
        k(  315) = (   0.2259280  -1.1011751   0.1747662), wk =   0.0025641
        k(  316) = (   0.2779596  -1.1011751   0.3495325), wk =   0.0025641
        k(  317) = (   0.3299912  -1.1011751   0.5242987), wk =   0.0025641
        k(  318) = (   0.3820228  -1.1011751   0.6990649), wk =   0.0025641
        k(  319) = (   0.4340544  -1.1011751   0.8738311), wk =   0.0025641
        k(  320) = (   0.4860861  -1.1011751   1.0485974), wk =   0.0025641
        k(  321) = (  -0.1382934  -1.1011751  -1.0485974), wk =   0.0025641
        k(  322) = (  -0.0862617  -1.1011751  -0.8738311), wk =   0.0025641
        k(  323) = (  -0.0342301  -1.1011751  -0.6990649), wk =   0.0025641
        k(  324) = (   0.0178015  -1.1011751  -0.5242987), wk =   0.0025641
        k(  325) = (   0.0698331  -1.1011751  -0.3495325), wk =   0.0025641
        k(  326) = (   0.1218647  -1.1011751  -0.1747662), wk =   0.0025641
        k(  327) = (   0.1738964  -0.9176459   0.0000000), wk =   0.0025641
        k(  328) = (   0.2259280  -0.9176459   0.1747662), wk =   0.0025641
        k(  329) = (   0.2779596  -0.9176459   0.3495325), wk =   0.0025641
        k(  330) = (   0.3299912  -0.9176459   0.5242987), wk =   0.0025641
        k(  331) = (   0.3820228  -0.9176459   0.6990649), wk =   0.0025641
        k(  332) = (   0.4340544  -0.9176459   0.8738311), wk =   0.0025641
        k(  333) = (   0.4860861  -0.9176459   1.0485974), wk =   0.0025641
        k(  334) = (  -0.1382934  -0.9176459  -1.0485974), wk =   0.0025641
        k(  335) = (  -0.0862617  -0.9176459  -0.8738311), wk =   0.0025641
        k(  336) = (  -0.0342301  -0.9176459  -0.6990649), wk =   0.0025641
        k(  337) = (   0.0178015  -0.9176459  -0.5242987), wk =   0.0025641
        k(  338) = (   0.0698331  -0.9176459  -0.3495325), wk =   0.0025641
        k(  339) = (   0.1218647  -0.9176459  -0.1747662), wk =   0.0025641
        k(  340) = (   0.1738964  -0.7341167   0.0000000), wk =   0.0025641
        k(  341) = (   0.2259280  -0.7341167   0.1747662), wk =   0.0025641
        k(  342) = (   0.2779596  -0.7341167   0.3495325), wk =   0.0025641
        k(  343) = (   0.3299912  -0.7341167   0.5242987), wk =   0.0025641
        k(  344) = (   0.3820228  -0.7341167   0.6990649), wk =   0.0025641
        k(  345) = (   0.4340544  -0.7341167   0.8738311), wk =   0.0025641
        k(  346) = (   0.4860861  -0.7341167   1.0485974), wk =   0.0025641
        k(  347) = (  -0.1382934  -0.7341167  -1.0485974), wk =   0.0025641
        k(  348) = (  -0.0862617  -0.7341167  -0.8738311), wk =   0.0025641
        k(  349) = (  -0.0342301  -0.7341167  -0.6990649), wk =   0.0025641
        k(  350) = (   0.0178015  -0.7341167  -0.5242987), wk =   0.0025641
        k(  351) = (   0.0698331  -0.7341167  -0.3495325), wk =   0.0025641
        k(  352) = (   0.1218647  -0.7341167  -0.1747662), wk =   0.0025641
        k(  353) = (   0.1738964  -0.5505875   0.0000000), wk =   0.0025641
        k(  354) = (   0.2259280  -0.5505875   0.1747662), wk =   0.0025641
        k(  355) = (   0.2779596  -0.5505875   0.3495325), wk =   0.0025641
        k(  356) = (   0.3299912  -0.5505875   0.5242987), wk =   0.0025641
        k(  357) = (   0.3820228  -0.5505875   0.6990649), wk =   0.0025641
        k(  358) = (   0.4340544  -0.5505875   0.8738311), wk =   0.0025641
        k(  359) = (   0.4860861  -0.5505875   1.0485974), wk =   0.0025641
        k(  360) = (  -0.1382934  -0.5505875  -1.0485974), wk =   0.0025641
        k(  361) = (  -0.0862617  -0.5505875  -0.8738311), wk =   0.0025641
        k(  362) = (  -0.0342301  -0.5505875  -0.6990649), wk =   0.0025641
        k(  363) = (   0.0178015  -0.5505875  -0.5242987), wk =   0.0025641
        k(  364) = (   0.0698331  -0.5505875  -0.3495325), wk =   0.0025641
        k(  365) = (   0.1218647  -0.5505875  -0.1747662), wk =   0.0025641
        k(  366) = (   0.1738964  -0.3670584   0.0000000), wk =   0.0025641
        k(  367) = (   0.2259280  -0.3670584   0.1747662), wk =   0.0025641
        k(  368) = (   0.2779596  -0.3670584   0.3495325), wk =   0.0025641
        k(  369) = (   0.3299912  -0.3670584   0.5242987), wk =   0.0025641
        k(  370) = (   0.3820228  -0.3670584   0.6990649), wk =   0.0025641
        k(  371) = (   0.4340544  -0.3670584   0.8738311), wk =   0.0025641
        k(  372) = (   0.4860861  -0.3670584   1.0485974), wk =   0.0025641
        k(  373) = (  -0.1382934  -0.3670584  -1.0485974), wk =   0.0025641
        k(  374) = (  -0.0862617  -0.3670584  -0.8738311), wk =   0.0025641
        k(  375) = (  -0.0342301  -0.3670584  -0.6990649), wk =   0.0025641
        k(  376) = (   0.0178015  -0.3670584  -0.5242987), wk =   0.0025641
        k(  377) = (   0.0698331  -0.3670584  -0.3495325), wk =   0.0025641
        k(  378) = (   0.1218647  -0.3670584  -0.1747662), wk =   0.0025641
        k(  379) = (   0.1738964  -0.1835292   0.0000000), wk =   0.0025641
        k(  380) = (   0.2259280  -0.1835292   0.1747662), wk =   0.0025641
        k(  381) = (   0.2779596  -0.1835292   0.3495325), wk =   0.0025641
        k(  382) = (   0.3299912  -0.1835292   0.5242987), wk =   0.0025641
        k(  383) = (   0.3820228  -0.1835292   0.6990649), wk =   0.0025641
        k(  384) = (   0.4340544  -0.1835292   0.8738311), wk =   0.0025641
        k(  385) = (   0.4860861  -0.1835292   1.0485974), wk =   0.0025641
        k(  386) = (  -0.1382934  -0.1835292  -1.0485974), wk =   0.0025641
        k(  387) = (  -0.0862617  -0.1835292  -0.8738311), wk =   0.0025641
        k(  388) = (  -0.0342301  -0.1835292  -0.6990649), wk =   0.0025641
        k(  389) = (   0.0178015  -0.1835292  -0.5242987), wk =   0.0025641
        k(  390) = (   0.0698331  -0.1835292  -0.3495325), wk =   0.0025641
        k(  391) = (   0.1218647  -0.1835292  -0.1747662), wk =   0.0025641
        k(  392) = (   0.3477927   0.0000000   0.0000000), wk =   0.0025641
        k(  393) = (   0.3998243   0.0000000   0.1747662), wk =   0.0025641
        k(  394) = (   0.4518559   0.0000000   0.3495325), wk =   0.0025641
        k(  395) = (   0.5038876   0.0000000   0.5242987), wk =   0.0025641
        k(  396) = (   0.5559192   0.0000000   0.6990649), wk =   0.0025641
        k(  397) = (   0.6079508   0.0000000   0.8738311), wk =   0.0025641
        k(  398) = (   0.6599824   0.0000000   1.0485974), wk =   0.0025641
        k(  399) = (   0.0356030   0.0000000  -1.0485974), wk =   0.0025641
        k(  400) = (   0.0876346   0.0000000  -0.8738311), wk =   0.0025641
        k(  401) = (   0.1396662   0.0000000  -0.6990649), wk =   0.0025641
        k(  402) = (   0.1916979   0.0000000  -0.5242987), wk =   0.0025641
        k(  403) = (   0.2437295   0.0000000  -0.3495325), wk =   0.0025641
        k(  404) = (   0.2957611   0.0000000  -0.1747662), wk =   0.0025641
        k(  405) = (   0.3477927   0.1835292   0.0000000), wk =   0.0025641
        k(  406) = (   0.3998243   0.1835292   0.1747662), wk =   0.0025641
        k(  407) = (   0.4518559   0.1835292   0.3495325), wk =   0.0025641
        k(  408) = (   0.5038876   0.1835292   0.5242987), wk =   0.0025641
        k(  409) = (   0.5559192   0.1835292   0.6990649), wk =   0.0025641
        k(  410) = (   0.6079508   0.1835292   0.8738311), wk =   0.0025641
        k(  411) = (   0.6599824   0.1835292   1.0485974), wk =   0.0025641
        k(  412) = (   0.0356030   0.1835292  -1.0485974), wk =   0.0025641
        k(  413) = (   0.0876346   0.1835292  -0.8738311), wk =   0.0025641
        k(  414) = (   0.1396662   0.1835292  -0.6990649), wk =   0.0025641
        k(  415) = (   0.1916979   0.1835292  -0.5242987), wk =   0.0025641
        k(  416) = (   0.2437295   0.1835292  -0.3495325), wk =   0.0025641
        k(  417) = (   0.2957611   0.1835292  -0.1747662), wk =   0.0025641
        k(  418) = (   0.3477927   0.3670584   0.0000000), wk =   0.0025641
        k(  419) = (   0.3998243   0.3670584   0.1747662), wk =   0.0025641
        k(  420) = (   0.4518559   0.3670584   0.3495325), wk =   0.0025641
        k(  421) = (   0.5038876   0.3670584   0.5242987), wk =   0.0025641
        k(  422) = (   0.5559192   0.3670584   0.6990649), wk =   0.0025641
        k(  423) = (   0.6079508   0.3670584   0.8738311), wk =   0.0025641
        k(  424) = (   0.6599824   0.3670584   1.0485974), wk =   0.0025641
        k(  425) = (   0.0356030   0.3670584  -1.0485974), wk =   0.0025641
        k(  426) = (   0.0876346   0.3670584  -0.8738311), wk =   0.0025641
        k(  427) = (   0.1396662   0.3670584  -0.6990649), wk =   0.0025641
        k(  428) = (   0.1916979   0.3670584  -0.5242987), wk =   0.0025641
        k(  429) = (   0.2437295   0.3670584  -0.3495325), wk =   0.0025641
        k(  430) = (   0.2957611   0.3670584  -0.1747662), wk =   0.0025641
        k(  431) = (   0.3477927   0.5505875   0.0000000), wk =   0.0025641
        k(  432) = (   0.3998243   0.5505875   0.1747662), wk =   0.0025641
        k(  433) = (   0.4518559   0.5505875   0.3495325), wk =   0.0025641
        k(  434) = (   0.5038876   0.5505875   0.5242987), wk =   0.0025641
        k(  435) = (   0.5559192   0.5505875   0.6990649), wk =   0.0025641
        k(  436) = (   0.6079508   0.5505875   0.8738311), wk =   0.0025641
        k(  437) = (   0.6599824   0.5505875   1.0485974), wk =   0.0025641
        k(  438) = (   0.0356030   0.5505875  -1.0485974), wk =   0.0025641
        k(  439) = (   0.0876346   0.5505875  -0.8738311), wk =   0.0025641
        k(  440) = (   0.1396662   0.5505875  -0.6990649), wk =   0.0025641
        k(  441) = (   0.1916979   0.5505875  -0.5242987), wk =   0.0025641
        k(  442) = (   0.2437295   0.5505875  -0.3495325), wk =   0.0025641
        k(  443) = (   0.2957611   0.5505875  -0.1747662), wk =   0.0025641
        k(  444) = (   0.3477927   0.7341167   0.0000000), wk =   0.0025641
        k(  445) = (   0.3998243   0.7341167   0.1747662), wk =   0.0025641
        k(  446) = (   0.4518559   0.7341167   0.3495325), wk =   0.0025641
        k(  447) = (   0.5038876   0.7341167   0.5242987), wk =   0.0025641
        k(  448) = (   0.5559192   0.7341167   0.6990649), wk =   0.0025641
        k(  449) = (   0.6079508   0.7341167   0.8738311), wk =   0.0025641
        k(  450) = (   0.6599824   0.7341167   1.0485974), wk =   0.0025641
        k(  451) = (   0.0356030   0.7341167  -1.0485974), wk =   0.0025641
        k(  452) = (   0.0876346   0.7341167  -0.8738311), wk =   0.0025641
        k(  453) = (   0.1396662   0.7341167  -0.6990649), wk =   0.0025641
        k(  454) = (   0.1916979   0.7341167  -0.5242987), wk =   0.0025641
        k(  455) = (   0.2437295   0.7341167  -0.3495325), wk =   0.0025641
        k(  456) = (   0.2957611   0.7341167  -0.1747662), wk =   0.0025641
        k(  457) = (   0.3477927   0.9176459   0.0000000), wk =   0.0025641
        k(  458) = (   0.3998243   0.9176459   0.1747662), wk =   0.0025641
        k(  459) = (   0.4518559   0.9176459   0.3495325), wk =   0.0025641
        k(  460) = (   0.5038876   0.9176459   0.5242987), wk =   0.0025641
        k(  461) = (   0.5559192   0.9176459   0.6990649), wk =   0.0025641
        k(  462) = (   0.6079508   0.9176459   0.8738311), wk =   0.0025641
        k(  463) = (   0.6599824   0.9176459   1.0485974), wk =   0.0025641
        k(  464) = (   0.0356030   0.9176459  -1.0485974), wk =   0.0025641
        k(  465) = (   0.0876346   0.9176459  -0.8738311), wk =   0.0025641
        k(  466) = (   0.1396662   0.9176459  -0.6990649), wk =   0.0025641
        k(  467) = (   0.1916979   0.9176459  -0.5242987), wk =   0.0025641
        k(  468) = (   0.2437295   0.9176459  -0.3495325), wk =   0.0025641
        k(  469) = (   0.2957611   0.9176459  -0.1747662), wk =   0.0025641
        k(  470) = (   0.3477927   1.1011751   0.0000000), wk =   0.0025641
        k(  471) = (   0.3998243   1.1011751   0.1747662), wk =   0.0025641
        k(  472) = (   0.4518559   1.1011751   0.3495325), wk =   0.0025641
        k(  473) = (   0.5038876   1.1011751   0.5242987), wk =   0.0025641
        k(  474) = (   0.5559192   1.1011751   0.6990649), wk =   0.0025641
        k(  475) = (   0.6079508   1.1011751   0.8738311), wk =   0.0025641
        k(  476) = (   0.6599824   1.1011751   1.0485974), wk =   0.0025641
        k(  477) = (   0.0356030   1.1011751  -1.0485974), wk =   0.0025641
        k(  478) = (   0.0876346   1.1011751  -0.8738311), wk =   0.0025641
        k(  479) = (   0.1396662   1.1011751  -0.6990649), wk =   0.0025641
        k(  480) = (   0.1916979   1.1011751  -0.5242987), wk =   0.0025641
        k(  481) = (   0.2437295   1.1011751  -0.3495325), wk =   0.0025641
        k(  482) = (   0.2957611   1.1011751  -0.1747662), wk =   0.0025641
        k(  483) = (   0.3477927   1.2847042   0.0000000), wk =   0.0025641
        k(  484) = (   0.3998243   1.2847042   0.1747662), wk =   0.0025641
        k(  485) = (   0.4518559   1.2847042   0.3495325), wk =   0.0025641
        k(  486) = (   0.5038876   1.2847042   0.5242987), wk =   0.0025641
        k(  487) = (   0.5559192   1.2847042   0.6990649), wk =   0.0025641
        k(  488) = (   0.6079508   1.2847042   0.8738311), wk =   0.0025641
        k(  489) = (   0.6599824   1.2847042   1.0485974), wk =   0.0025641
        k(  490) = (   0.0356030   1.2847042  -1.0485974), wk =   0.0025641
        k(  491) = (   0.0876346   1.2847042  -0.8738311), wk =   0.0025641
        k(  492) = (   0.1396662   1.2847042  -0.6990649), wk =   0.0025641
        k(  493) = (   0.1916979   1.2847042  -0.5242987), wk =   0.0025641
        k(  494) = (   0.2437295   1.2847042  -0.3495325), wk =   0.0025641
        k(  495) = (   0.2957611   1.2847042  -0.1747662), wk =   0.0025641
        k(  496) = (   0.3477927   1.4682334   0.0000000), wk =   0.0025641
        k(  497) = (   0.3998243   1.4682334   0.1747662), wk =   0.0025641
        k(  498) = (   0.4518559   1.4682334   0.3495325), wk =   0.0025641
        k(  499) = (   0.5038876   1.4682334   0.5242987), wk =   0.0025641
        k(  500) = (   0.5559192   1.4682334   0.6990649), wk =   0.0025641
        k(  501) = (   0.6079508   1.4682334   0.8738311), wk =   0.0025641
        k(  502) = (   0.6599824   1.4682334   1.0485974), wk =   0.0025641
        k(  503) = (   0.0356030   1.4682334  -1.0485974), wk =   0.0025641
        k(  504) = (   0.0876346   1.4682334  -0.8738311), wk =   0.0025641
        k(  505) = (   0.1396662   1.4682334  -0.6990649), wk =   0.0025641
        k(  506) = (   0.1916979   1.4682334  -0.5242987), wk =   0.0025641
        k(  507) = (   0.2437295   1.4682334  -0.3495325), wk =   0.0025641
        k(  508) = (   0.2957611   1.4682334  -0.1747662), wk =   0.0025641
        k(  509) = (   0.3477927   1.6517626   0.0000000), wk =   0.0025641
        k(  510) = (   0.3998243   1.6517626   0.1747662), wk =   0.0025641
        k(  511) = (   0.4518559   1.6517626   0.3495325), wk =   0.0025641
        k(  512) = (   0.5038876   1.6517626   0.5242987), wk =   0.0025641
        k(  513) = (   0.5559192   1.6517626   0.6990649), wk =   0.0025641
        k(  514) = (   0.6079508   1.6517626   0.8738311), wk =   0.0025641
        k(  515) = (   0.6599824   1.6517626   1.0485974), wk =   0.0025641
        k(  516) = (   0.0356030   1.6517626  -1.0485974), wk =   0.0025641
        k(  517) = (   0.0876346   1.6517626  -0.8738311), wk =   0.0025641
        k(  518) = (   0.1396662   1.6517626  -0.6990649), wk =   0.0025641
        k(  519) = (   0.1916979   1.6517626  -0.5242987), wk =   0.0025641
        k(  520) = (   0.2437295   1.6517626  -0.3495325), wk =   0.0025641
        k(  521) = (   0.2957611   1.6517626  -0.1747662), wk =   0.0025641
        k(  522) = (   0.3477927  -1.8352918   0.0000000), wk =   0.0025641
        k(  523) = (   0.3998243  -1.8352918   0.1747662), wk =   0.0025641
        k(  524) = (   0.4518559  -1.8352918   0.3495325), wk =   0.0025641
        k(  525) = (   0.5038876  -1.8352918   0.5242987), wk =   0.0025641
        k(  526) = (   0.5559192  -1.8352918   0.6990649), wk =   0.0025641
        k(  527) = (   0.6079508  -1.8352918   0.8738311), wk =   0.0025641
        k(  528) = (   0.6599824  -1.8352918   1.0485974), wk =   0.0025641
        k(  529) = (   0.0356030  -1.8352918  -1.0485974), wk =   0.0025641
        k(  530) = (   0.0876346  -1.8352918  -0.8738311), wk =   0.0025641
        k(  531) = (   0.1396662  -1.8352918  -0.6990649), wk =   0.0025641
        k(  532) = (   0.1916979  -1.8352918  -0.5242987), wk =   0.0025641
        k(  533) = (   0.2437295  -1.8352918  -0.3495325), wk =   0.0025641
        k(  534) = (   0.2957611  -1.8352918  -0.1747662), wk =   0.0025641
        k(  535) = (   0.3477927  -1.6517626   0.0000000), wk =   0.0025641
        k(  536) = (   0.3998243  -1.6517626   0.1747662), wk =   0.0025641
        k(  537) = (   0.4518559  -1.6517626   0.3495325), wk =   0.0025641
        k(  538) = (   0.5038876  -1.6517626   0.5242987), wk =   0.0025641
        k(  539) = (   0.5559192  -1.6517626   0.6990649), wk =   0.0025641
        k(  540) = (   0.6079508  -1.6517626   0.8738311), wk =   0.0025641
        k(  541) = (   0.6599824  -1.6517626   1.0485974), wk =   0.0025641
        k(  542) = (   0.0356030  -1.6517626  -1.0485974), wk =   0.0025641
        k(  543) = (   0.0876346  -1.6517626  -0.8738311), wk =   0.0025641
        k(  544) = (   0.1396662  -1.6517626  -0.6990649), wk =   0.0025641
        k(  545) = (   0.1916979  -1.6517626  -0.5242987), wk =   0.0025641
        k(  546) = (   0.2437295  -1.6517626  -0.3495325), wk =   0.0025641
        k(  547) = (   0.2957611  -1.6517626  -0.1747662), wk =   0.0025641
        k(  548) = (   0.3477927  -1.4682334   0.0000000), wk =   0.0025641
        k(  549) = (   0.3998243  -1.4682334   0.1747662), wk =   0.0025641
        k(  550) = (   0.4518559  -1.4682334   0.3495325), wk =   0.0025641
        k(  551) = (   0.5038876  -1.4682334   0.5242987), wk =   0.0025641
        k(  552) = (   0.5559192  -1.4682334   0.6990649), wk =   0.0025641
        k(  553) = (   0.6079508  -1.4682334   0.8738311), wk =   0.0025641
        k(  554) = (   0.6599824  -1.4682334   1.0485974), wk =   0.0025641
        k(  555) = (   0.0356030  -1.4682334  -1.0485974), wk =   0.0025641
        k(  556) = (   0.0876346  -1.4682334  -0.8738311), wk =   0.0025641
        k(  557) = (   0.1396662  -1.4682334  -0.6990649), wk =   0.0025641
        k(  558) = (   0.1916979  -1.4682334  -0.5242987), wk =   0.0025641
        k(  559) = (   0.2437295  -1.4682334  -0.3495325), wk =   0.0025641
        k(  560) = (   0.2957611  -1.4682334  -0.1747662), wk =   0.0025641
        k(  561) = (   0.3477927  -1.2847042   0.0000000), wk =   0.0025641
        k(  562) = (   0.3998243  -1.2847042   0.1747662), wk =   0.0025641
        k(  563) = (   0.4518559  -1.2847042   0.3495325), wk =   0.0025641
        k(  564) = (   0.5038876  -1.2847042   0.5242987), wk =   0.0025641
        k(  565) = (   0.5559192  -1.2847042   0.6990649), wk =   0.0025641
        k(  566) = (   0.6079508  -1.2847042   0.8738311), wk =   0.0025641
        k(  567) = (   0.6599824  -1.2847042   1.0485974), wk =   0.0025641
        k(  568) = (   0.0356030  -1.2847042  -1.0485974), wk =   0.0025641
        k(  569) = (   0.0876346  -1.2847042  -0.8738311), wk =   0.0025641
        k(  570) = (   0.1396662  -1.2847042  -0.6990649), wk =   0.0025641
        k(  571) = (   0.1916979  -1.2847042  -0.5242987), wk =   0.0025641
        k(  572) = (   0.2437295  -1.2847042  -0.3495325), wk =   0.0025641
        k(  573) = (   0.2957611  -1.2847042  -0.1747662), wk =   0.0025641
        k(  574) = (   0.3477927  -1.1011751   0.0000000), wk =   0.0025641
        k(  575) = (   0.3998243  -1.1011751   0.1747662), wk =   0.0025641
        k(  576) = (   0.4518559  -1.1011751   0.3495325), wk =   0.0025641
        k(  577) = (   0.5038876  -1.1011751   0.5242987), wk =   0.0025641
        k(  578) = (   0.5559192  -1.1011751   0.6990649), wk =   0.0025641
        k(  579) = (   0.6079508  -1.1011751   0.8738311), wk =   0.0025641
        k(  580) = (   0.6599824  -1.1011751   1.0485974), wk =   0.0025641
        k(  581) = (   0.0356030  -1.1011751  -1.0485974), wk =   0.0025641
        k(  582) = (   0.0876346  -1.1011751  -0.8738311), wk =   0.0025641
        k(  583) = (   0.1396662  -1.1011751  -0.6990649), wk =   0.0025641
        k(  584) = (   0.1916979  -1.1011751  -0.5242987), wk =   0.0025641
        k(  585) = (   0.2437295  -1.1011751  -0.3495325), wk =   0.0025641
        k(  586) = (   0.2957611  -1.1011751  -0.1747662), wk =   0.0025641
        k(  587) = (   0.3477927  -0.9176459   0.0000000), wk =   0.0025641
        k(  588) = (   0.3998243  -0.9176459   0.1747662), wk =   0.0025641
        k(  589) = (   0.4518559  -0.9176459   0.3495325), wk =   0.0025641
        k(  590) = (   0.5038876  -0.9176459   0.5242987), wk =   0.0025641
        k(  591) = (   0.5559192  -0.9176459   0.6990649), wk =   0.0025641
        k(  592) = (   0.6079508  -0.9176459   0.8738311), wk =   0.0025641
        k(  593) = (   0.6599824  -0.9176459   1.0485974), wk =   0.0025641
        k(  594) = (   0.0356030  -0.9176459  -1.0485974), wk =   0.0025641
        k(  595) = (   0.0876346  -0.9176459  -0.8738311), wk =   0.0025641
        k(  596) = (   0.1396662  -0.9176459  -0.6990649), wk =   0.0025641
        k(  597) = (   0.1916979  -0.9176459  -0.5242987), wk =   0.0025641
        k(  598) = (   0.2437295  -0.9176459  -0.3495325), wk =   0.0025641
        k(  599) = (   0.2957611  -0.9176459  -0.1747662), wk =   0.0025641
        k(  600) = (   0.3477927  -0.7341167   0.0000000), wk =   0.0025641
        k(  601) = (   0.3998243  -0.7341167   0.1747662), wk =   0.0025641
        k(  602) = (   0.4518559  -0.7341167   0.3495325), wk =   0.0025641
        k(  603) = (   0.5038876  -0.7341167   0.5242987), wk =   0.0025641
        k(  604) = (   0.5559192  -0.7341167   0.6990649), wk =   0.0025641
        k(  605) = (   0.6079508  -0.7341167   0.8738311), wk =   0.0025641
        k(  606) = (   0.6599824  -0.7341167   1.0485974), wk =   0.0025641
        k(  607) = (   0.0356030  -0.7341167  -1.0485974), wk =   0.0025641
        k(  608) = (   0.0876346  -0.7341167  -0.8738311), wk =   0.0025641
        k(  609) = (   0.1396662  -0.7341167  -0.6990649), wk =   0.0025641
        k(  610) = (   0.1916979  -0.7341167  -0.5242987), wk =   0.0025641
        k(  611) = (   0.2437295  -0.7341167  -0.3495325), wk =   0.0025641
        k(  612) = (   0.2957611  -0.7341167  -0.1747662), wk =   0.0025641
        k(  613) = (   0.3477927  -0.5505875   0.0000000), wk =   0.0025641
        k(  614) = (   0.3998243  -0.5505875   0.1747662), wk =   0.0025641
        k(  615) = (   0.4518559  -0.5505875   0.3495325), wk =   0.0025641
        k(  616) = (   0.5038876  -0.5505875   0.5242987), wk =   0.0025641
        k(  617) = (   0.5559192  -0.5505875   0.6990649), wk =   0.0025641
        k(  618) = (   0.6079508  -0.5505875   0.8738311), wk =   0.0025641
        k(  619) = (   0.6599824  -0.5505875   1.0485974), wk =   0.0025641
        k(  620) = (   0.0356030  -0.5505875  -1.0485974), wk =   0.0025641
        k(  621) = (   0.0876346  -0.5505875  -0.8738311), wk =   0.0025641
        k(  622) = (   0.1396662  -0.5505875  -0.6990649), wk =   0.0025641
        k(  623) = (   0.1916979  -0.5505875  -0.5242987), wk =   0.0025641
        k(  624) = (   0.2437295  -0.5505875  -0.3495325), wk =   0.0025641
        k(  625) = (   0.2957611  -0.5505875  -0.1747662), wk =   0.0025641
        k(  626) = (   0.3477927  -0.3670584   0.0000000), wk =   0.0025641
        k(  627) = (   0.3998243  -0.3670584   0.1747662), wk =   0.0025641
        k(  628) = (   0.4518559  -0.3670584   0.3495325), wk =   0.0025641
        k(  629) = (   0.5038876  -0.3670584   0.5242987), wk =   0.0025641
        k(  630) = (   0.5559192  -0.3670584   0.6990649), wk =   0.0025641
        k(  631) = (   0.6079508  -0.3670584   0.8738311), wk =   0.0025641
        k(  632) = (   0.6599824  -0.3670584   1.0485974), wk =   0.0025641
        k(  633) = (   0.0356030  -0.3670584  -1.0485974), wk =   0.0025641
        k(  634) = (   0.0876346  -0.3670584  -0.8738311), wk =   0.0025641
        k(  635) = (   0.1396662  -0.3670584  -0.6990649), wk =   0.0025641
        k(  636) = (   0.1916979  -0.3670584  -0.5242987), wk =   0.0025641
        k(  637) = (   0.2437295  -0.3670584  -0.3495325), wk =   0.0025641
        k(  638) = (   0.2957611  -0.3670584  -0.1747662), wk =   0.0025641
        k(  639) = (   0.3477927  -0.1835292   0.0000000), wk =   0.0025641
        k(  640) = (   0.3998243  -0.1835292   0.1747662), wk =   0.0025641
        k(  641) = (   0.4518559  -0.1835292   0.3495325), wk =   0.0025641
        k(  642) = (   0.5038876  -0.1835292   0.5242987), wk =   0.0025641
        k(  643) = (   0.5559192  -0.1835292   0.6990649), wk =   0.0025641
        k(  644) = (   0.6079508  -0.1835292   0.8738311), wk =   0.0025641
        k(  645) = (   0.6599824  -0.1835292   1.0485974), wk =   0.0025641
        k(  646) = (   0.0356030  -0.1835292  -1.0485974), wk =   0.0025641
        k(  647) = (   0.0876346  -0.1835292  -0.8738311), wk =   0.0025641
        k(  648) = (   0.1396662  -0.1835292  -0.6990649), wk =   0.0025641
        k(  649) = (   0.1916979  -0.1835292  -0.5242987), wk =   0.0025641
        k(  650) = (   0.2437295  -0.1835292  -0.3495325), wk =   0.0025641
        k(  651) = (   0.2957611  -0.1835292  -0.1747662), wk =   0.0025641
        k(  652) = (  -0.5216891   0.0000000   0.0000000), wk =   0.0012821
        k(  653) = (  -0.4696575   0.0000000   0.1747662), wk =   0.0025641
        k(  654) = (  -0.4176258   0.0000000   0.3495325), wk =   0.0025641
        k(  655) = (  -0.3655942   0.0000000   0.5242987), wk =   0.0025641
        k(  656) = (  -0.3135626   0.0000000   0.6990649), wk =   0.0025641
        k(  657) = (  -0.2615310   0.0000000   0.8738311), wk =   0.0025641
        k(  658) = (  -0.2094994   0.0000000   1.0485974), wk =   0.0025641
        k(  659) = (  -0.5216891   0.1835292   0.0000000), wk =   0.0025641
        k(  660) = (  -0.4696575   0.1835292   0.1747662), wk =   0.0025641
        k(  661) = (  -0.4176258   0.1835292   0.3495325), wk =   0.0025641
        k(  662) = (  -0.3655942   0.1835292   0.5242987), wk =   0.0025641
        k(  663) = (  -0.3135626   0.1835292   0.6990649), wk =   0.0025641
        k(  664) = (  -0.2615310   0.1835292   0.8738311), wk =   0.0025641
        k(  665) = (  -0.2094994   0.1835292   1.0485974), wk =   0.0025641
        k(  666) = (  -0.8338788   0.1835292  -1.0485974), wk =   0.0025641
        k(  667) = (  -0.7818472   0.1835292  -0.8738311), wk =   0.0025641
        k(  668) = (  -0.7298155   0.1835292  -0.6990649), wk =   0.0025641
        k(  669) = (  -0.6777839   0.1835292  -0.5242987), wk =   0.0025641
        k(  670) = (  -0.6257523   0.1835292  -0.3495325), wk =   0.0025641
        k(  671) = (  -0.5737207   0.1835292  -0.1747662), wk =   0.0025641
        k(  672) = (  -0.5216891   0.3670584   0.0000000), wk =   0.0025641
        k(  673) = (  -0.4696575   0.3670584   0.1747662), wk =   0.0025641
        k(  674) = (  -0.4176258   0.3670584   0.3495325), wk =   0.0025641
        k(  675) = (  -0.3655942   0.3670584   0.5242987), wk =   0.0025641
        k(  676) = (  -0.3135626   0.3670584   0.6990649), wk =   0.0025641
        k(  677) = (  -0.2615310   0.3670584   0.8738311), wk =   0.0025641
        k(  678) = (  -0.2094994   0.3670584   1.0485974), wk =   0.0025641
        k(  679) = (  -0.8338788   0.3670584  -1.0485974), wk =   0.0025641
        k(  680) = (  -0.7818472   0.3670584  -0.8738311), wk =   0.0025641
        k(  681) = (  -0.7298155   0.3670584  -0.6990649), wk =   0.0025641
        k(  682) = (  -0.6777839   0.3670584  -0.5242987), wk =   0.0025641
        k(  683) = (  -0.6257523   0.3670584  -0.3495325), wk =   0.0025641
        k(  684) = (  -0.5737207   0.3670584  -0.1747662), wk =   0.0025641
        k(  685) = (  -0.5216891   0.5505875   0.0000000), wk =   0.0025641
        k(  686) = (  -0.4696575   0.5505875   0.1747662), wk =   0.0025641
        k(  687) = (  -0.4176258   0.5505875   0.3495325), wk =   0.0025641
        k(  688) = (  -0.3655942   0.5505875   0.5242987), wk =   0.0025641
        k(  689) = (  -0.3135626   0.5505875   0.6990649), wk =   0.0025641
        k(  690) = (  -0.2615310   0.5505875   0.8738311), wk =   0.0025641
        k(  691) = (  -0.2094994   0.5505875   1.0485974), wk =   0.0025641
        k(  692) = (  -0.8338788   0.5505875  -1.0485974), wk =   0.0025641
        k(  693) = (  -0.7818472   0.5505875  -0.8738311), wk =   0.0025641
        k(  694) = (  -0.7298155   0.5505875  -0.6990649), wk =   0.0025641
        k(  695) = (  -0.6777839   0.5505875  -0.5242987), wk =   0.0025641
        k(  696) = (  -0.6257523   0.5505875  -0.3495325), wk =   0.0025641
        k(  697) = (  -0.5737207   0.5505875  -0.1747662), wk =   0.0025641
        k(  698) = (  -0.5216891   0.7341167   0.0000000), wk =   0.0025641
        k(  699) = (  -0.4696575   0.7341167   0.1747662), wk =   0.0025641
        k(  700) = (  -0.4176258   0.7341167   0.3495325), wk =   0.0025641
        k(  701) = (  -0.3655942   0.7341167   0.5242987), wk =   0.0025641
        k(  702) = (  -0.3135626   0.7341167   0.6990649), wk =   0.0025641
        k(  703) = (  -0.2615310   0.7341167   0.8738311), wk =   0.0025641
        k(  704) = (  -0.2094994   0.7341167   1.0485974), wk =   0.0025641
        k(  705) = (  -0.8338788   0.7341167  -1.0485974), wk =   0.0025641
        k(  706) = (  -0.7818472   0.7341167  -0.8738311), wk =   0.0025641
        k(  707) = (  -0.7298155   0.7341167  -0.6990649), wk =   0.0025641
        k(  708) = (  -0.6777839   0.7341167  -0.5242987), wk =   0.0025641
        k(  709) = (  -0.6257523   0.7341167  -0.3495325), wk =   0.0025641
        k(  710) = (  -0.5737207   0.7341167  -0.1747662), wk =   0.0025641
        k(  711) = (  -0.5216891   0.9176459   0.0000000), wk =   0.0025641
        k(  712) = (  -0.4696575   0.9176459   0.1747662), wk =   0.0025641
        k(  713) = (  -0.4176258   0.9176459   0.3495325), wk =   0.0025641
        k(  714) = (  -0.3655942   0.9176459   0.5242987), wk =   0.0025641
        k(  715) = (  -0.3135626   0.9176459   0.6990649), wk =   0.0025641
        k(  716) = (  -0.2615310   0.9176459   0.8738311), wk =   0.0025641
        k(  717) = (  -0.2094994   0.9176459   1.0485974), wk =   0.0025641
        k(  718) = (  -0.8338788   0.9176459  -1.0485974), wk =   0.0025641
        k(  719) = (  -0.7818472   0.9176459  -0.8738311), wk =   0.0025641
        k(  720) = (  -0.7298155   0.9176459  -0.6990649), wk =   0.0025641
        k(  721) = (  -0.6777839   0.9176459  -0.5242987), wk =   0.0025641
        k(  722) = (  -0.6257523   0.9176459  -0.3495325), wk =   0.0025641
        k(  723) = (  -0.5737207   0.9176459  -0.1747662), wk =   0.0025641
        k(  724) = (  -0.5216891   1.1011751   0.0000000), wk =   0.0025641
        k(  725) = (  -0.4696575   1.1011751   0.1747662), wk =   0.0025641
        k(  726) = (  -0.4176258   1.1011751   0.3495325), wk =   0.0025641
        k(  727) = (  -0.3655942   1.1011751   0.5242987), wk =   0.0025641
        k(  728) = (  -0.3135626   1.1011751   0.6990649), wk =   0.0025641
        k(  729) = (  -0.2615310   1.1011751   0.8738311), wk =   0.0025641
        k(  730) = (  -0.2094994   1.1011751   1.0485974), wk =   0.0025641
        k(  731) = (  -0.8338788   1.1011751  -1.0485974), wk =   0.0025641
        k(  732) = (  -0.7818472   1.1011751  -0.8738311), wk =   0.0025641
        k(  733) = (  -0.7298155   1.1011751  -0.6990649), wk =   0.0025641
        k(  734) = (  -0.6777839   1.1011751  -0.5242987), wk =   0.0025641
        k(  735) = (  -0.6257523   1.1011751  -0.3495325), wk =   0.0025641
        k(  736) = (  -0.5737207   1.1011751  -0.1747662), wk =   0.0025641
        k(  737) = (  -0.5216891   1.2847042   0.0000000), wk =   0.0025641
        k(  738) = (  -0.4696575   1.2847042   0.1747662), wk =   0.0025641
        k(  739) = (  -0.4176258   1.2847042   0.3495325), wk =   0.0025641
        k(  740) = (  -0.3655942   1.2847042   0.5242987), wk =   0.0025641
        k(  741) = (  -0.3135626   1.2847042   0.6990649), wk =   0.0025641
        k(  742) = (  -0.2615310   1.2847042   0.8738311), wk =   0.0025641
        k(  743) = (  -0.2094994   1.2847042   1.0485974), wk =   0.0025641
        k(  744) = (  -0.8338788   1.2847042  -1.0485974), wk =   0.0025641
        k(  745) = (  -0.7818472   1.2847042  -0.8738311), wk =   0.0025641
        k(  746) = (  -0.7298155   1.2847042  -0.6990649), wk =   0.0025641
        k(  747) = (  -0.6777839   1.2847042  -0.5242987), wk =   0.0025641
        k(  748) = (  -0.6257523   1.2847042  -0.3495325), wk =   0.0025641
        k(  749) = (  -0.5737207   1.2847042  -0.1747662), wk =   0.0025641
        k(  750) = (  -0.5216891   1.4682334   0.0000000), wk =   0.0025641
        k(  751) = (  -0.4696575   1.4682334   0.1747662), wk =   0.0025641
        k(  752) = (  -0.4176258   1.4682334   0.3495325), wk =   0.0025641
        k(  753) = (  -0.3655942   1.4682334   0.5242987), wk =   0.0025641
        k(  754) = (  -0.3135626   1.4682334   0.6990649), wk =   0.0025641
        k(  755) = (  -0.2615310   1.4682334   0.8738311), wk =   0.0025641
        k(  756) = (  -0.2094994   1.4682334   1.0485974), wk =   0.0025641
        k(  757) = (  -0.8338788   1.4682334  -1.0485974), wk =   0.0025641
        k(  758) = (  -0.7818472   1.4682334  -0.8738311), wk =   0.0025641
        k(  759) = (  -0.7298155   1.4682334  -0.6990649), wk =   0.0025641
        k(  760) = (  -0.6777839   1.4682334  -0.5242987), wk =   0.0025641
        k(  761) = (  -0.6257523   1.4682334  -0.3495325), wk =   0.0025641
        k(  762) = (  -0.5737207   1.4682334  -0.1747662), wk =   0.0025641
        k(  763) = (  -0.5216891   1.6517626   0.0000000), wk =   0.0025641
        k(  764) = (  -0.4696575   1.6517626   0.1747662), wk =   0.0025641
        k(  765) = (  -0.4176258   1.6517626   0.3495325), wk =   0.0025641
        k(  766) = (  -0.3655942   1.6517626   0.5242987), wk =   0.0025641
        k(  767) = (  -0.3135626   1.6517626   0.6990649), wk =   0.0025641
        k(  768) = (  -0.2615310   1.6517626   0.8738311), wk =   0.0025641
        k(  769) = (  -0.2094994   1.6517626   1.0485974), wk =   0.0025641
        k(  770) = (  -0.8338788   1.6517626  -1.0485974), wk =   0.0025641
        k(  771) = (  -0.7818472   1.6517626  -0.8738311), wk =   0.0025641
        k(  772) = (  -0.7298155   1.6517626  -0.6990649), wk =   0.0025641
        k(  773) = (  -0.6777839   1.6517626  -0.5242987), wk =   0.0025641
        k(  774) = (  -0.6257523   1.6517626  -0.3495325), wk =   0.0025641
        k(  775) = (  -0.5737207   1.6517626  -0.1747662), wk =   0.0025641
        k(  776) = (  -0.5216891  -1.8352918   0.0000000), wk =   0.0012821
        k(  777) = (  -0.4696575  -1.8352918   0.1747662), wk =   0.0025641
        k(  778) = (  -0.4176258  -1.8352918   0.3495325), wk =   0.0025641
        k(  779) = (  -0.3655942  -1.8352918   0.5242987), wk =   0.0025641
        k(  780) = (  -0.3135626  -1.8352918   0.6990649), wk =   0.0025641
        k(  781) = (  -0.2615310  -1.8352918   0.8738311), wk =   0.0025641
        k(  782) = (  -0.2094994  -1.8352918   1.0485974), wk =   0.0025641

                       cryst. coord.
        k(    1) = (   0.0000000   0.0000000   0.0000000), wk =   0.0012821
        k(    2) = (  -0.0000000   0.0000000   0.0769231), wk =   0.0025641
        k(    3) = (  -0.0000000   0.0000000   0.1538462), wk =   0.0025641
        k(    4) = (  -0.0000000   0.0000000   0.2307692), wk =   0.0025641
        k(    5) = (  -0.0000000   0.0000000   0.3076923), wk =   0.0025641
        k(    6) = (  -0.0000000   0.0000000   0.3846154), wk =   0.0025641
        k(    7) = (  -0.0000000   0.0000000   0.4615385), wk =   0.0025641
        k(    8) = (   0.0000000   0.0500000   0.0000000), wk =   0.0025641
        k(    9) = (  -0.0000000   0.0500000   0.0769231), wk =   0.0025641
        k(   10) = (  -0.0000000   0.0500000   0.1538462), wk =   0.0025641
        k(   11) = (  -0.0000000   0.0500000   0.2307692), wk =   0.0025641
        k(   12) = (  -0.0000000   0.0500000   0.3076923), wk =   0.0025641
        k(   13) = (  -0.0000000   0.0500000   0.3846154), wk =   0.0025641
        k(   14) = (  -0.0000000   0.0500000   0.4615385), wk =   0.0025641
        k(   15) = (   0.0000000   0.0500000  -0.4615385), wk =   0.0025641
        k(   16) = (   0.0000000   0.0500000  -0.3846154), wk =   0.0025641
        k(   17) = (   0.0000000   0.0500000  -0.3076923), wk =   0.0025641
        k(   18) = (   0.0000000   0.0500000  -0.2307692), wk =   0.0025641
        k(   19) = (   0.0000000   0.0500000  -0.1538462), wk =   0.0025641
        k(   20) = (   0.0000000   0.0500000  -0.0769231), wk =   0.0025641
        k(   21) = (   0.0000000   0.1000000   0.0000000), wk =   0.0025641
        k(   22) = (  -0.0000000   0.1000000   0.0769231), wk =   0.0025641
        k(   23) = (  -0.0000000   0.1000000   0.1538462), wk =   0.0025641
        k(   24) = (  -0.0000000   0.1000000   0.2307692), wk =   0.0025641
        k(   25) = (  -0.0000000   0.1000000   0.3076923), wk =   0.0025641
        k(   26) = (  -0.0000000   0.1000000   0.3846154), wk =   0.0025641
        k(   27) = (  -0.0000000   0.1000000   0.4615385), wk =   0.0025641
        k(   28) = (   0.0000000   0.1000000  -0.4615385), wk =   0.0025641
        k(   29) = (   0.0000000   0.1000000  -0.3846154), wk =   0.0025641
        k(   30) = (   0.0000000   0.1000000  -0.3076923), wk =   0.0025641
        k(   31) = (   0.0000000   0.1000000  -0.2307692), wk =   0.0025641
        k(   32) = (   0.0000000   0.1000000  -0.1538462), wk =   0.0025641
        k(   33) = (   0.0000000   0.1000000  -0.0769231), wk =   0.0025641
        k(   34) = (   0.0000000   0.1500000   0.0000000), wk =   0.0025641
        k(   35) = (  -0.0000000   0.1500000   0.0769231), wk =   0.0025641
        k(   36) = (  -0.0000000   0.1500000   0.1538462), wk =   0.0025641
        k(   37) = (  -0.0000000   0.1500000   0.2307692), wk =   0.0025641
        k(   38) = (  -0.0000000   0.1500000   0.3076923), wk =   0.0025641
        k(   39) = (  -0.0000000   0.1500000   0.3846154), wk =   0.0025641
        k(   40) = (  -0.0000000   0.1500000   0.4615385), wk =   0.0025641
        k(   41) = (   0.0000000   0.1500000  -0.4615385), wk =   0.0025641
        k(   42) = (   0.0000000   0.1500000  -0.3846154), wk =   0.0025641
        k(   43) = (   0.0000000   0.1500000  -0.3076923), wk =   0.0025641
        k(   44) = (   0.0000000   0.1500000  -0.2307692), wk =   0.0025641
        k(   45) = (   0.0000000   0.1500000  -0.1538462), wk =   0.0025641
        k(   46) = (   0.0000000   0.1500000  -0.0769231), wk =   0.0025641
        k(   47) = (   0.0000000   0.2000000   0.0000000), wk =   0.0025641
        k(   48) = (  -0.0000000   0.2000000   0.0769231), wk =   0.0025641
        k(   49) = (  -0.0000000   0.2000000   0.1538462), wk =   0.0025641
        k(   50) = (  -0.0000000   0.2000000   0.2307692), wk =   0.0025641
        k(   51) = (  -0.0000000   0.2000000   0.3076923), wk =   0.0025641
        k(   52) = (  -0.0000000   0.2000000   0.3846154), wk =   0.0025641
        k(   53) = (  -0.0000000   0.2000000   0.4615385), wk =   0.0025641
        k(   54) = (   0.0000000   0.2000000  -0.4615385), wk =   0.0025641
        k(   55) = (   0.0000000   0.2000000  -0.3846154), wk =   0.0025641
        k(   56) = (   0.0000000   0.2000000  -0.3076923), wk =   0.0025641
        k(   57) = (   0.0000000   0.2000000  -0.2307692), wk =   0.0025641
        k(   58) = (   0.0000000   0.2000000  -0.1538462), wk =   0.0025641
        k(   59) = (   0.0000000   0.2000000  -0.0769231), wk =   0.0025641
        k(   60) = (   0.0000000   0.2500000   0.0000000), wk =   0.0025641
        k(   61) = (  -0.0000000   0.2500000   0.0769231), wk =   0.0025641
        k(   62) = (  -0.0000000   0.2500000   0.1538462), wk =   0.0025641
        k(   63) = (  -0.0000000   0.2500000   0.2307692), wk =   0.0025641
        k(   64) = (  -0.0000000   0.2500000   0.3076923), wk =   0.0025641
        k(   65) = (  -0.0000000   0.2500000   0.3846154), wk =   0.0025641
        k(   66) = (  -0.0000000   0.2500000   0.4615385), wk =   0.0025641
        k(   67) = (   0.0000000   0.2500000  -0.4615385), wk =   0.0025641
        k(   68) = (   0.0000000   0.2500000  -0.3846154), wk =   0.0025641
        k(   69) = (   0.0000000   0.2500000  -0.3076923), wk =   0.0025641
        k(   70) = (   0.0000000   0.2500000  -0.2307692), wk =   0.0025641
        k(   71) = (   0.0000000   0.2500000  -0.1538462), wk =   0.0025641
        k(   72) = (   0.0000000   0.2500000  -0.0769231), wk =   0.0025641
        k(   73) = (   0.0000000   0.3000000   0.0000000), wk =   0.0025641
        k(   74) = (  -0.0000000   0.3000000   0.0769231), wk =   0.0025641
        k(   75) = (  -0.0000000   0.3000000   0.1538462), wk =   0.0025641
        k(   76) = (  -0.0000000   0.3000000   0.2307692), wk =   0.0025641
        k(   77) = (  -0.0000000   0.3000000   0.3076923), wk =   0.0025641
        k(   78) = (  -0.0000000   0.3000000   0.3846154), wk =   0.0025641
        k(   79) = (  -0.0000000   0.3000000   0.4615385), wk =   0.0025641
        k(   80) = (   0.0000000   0.3000000  -0.4615385), wk =   0.0025641
        k(   81) = (   0.0000000   0.3000000  -0.3846154), wk =   0.0025641
        k(   82) = (   0.0000000   0.3000000  -0.3076923), wk =   0.0025641
        k(   83) = (   0.0000000   0.3000000  -0.2307692), wk =   0.0025641
        k(   84) = (   0.0000000   0.3000000  -0.1538462), wk =   0.0025641
        k(   85) = (   0.0000000   0.3000000  -0.0769231), wk =   0.0025641
        k(   86) = (   0.0000000   0.3500000   0.0000000), wk =   0.0025641
        k(   87) = (  -0.0000000   0.3500000   0.0769231), wk =   0.0025641
        k(   88) = (  -0.0000000   0.3500000   0.1538462), wk =   0.0025641
        k(   89) = (  -0.0000000   0.3500000   0.2307692), wk =   0.0025641
        k(   90) = (  -0.0000000   0.3500000   0.3076923), wk =   0.0025641
        k(   91) = (  -0.0000000   0.3500000   0.3846154), wk =   0.0025641
        k(   92) = (  -0.0000000   0.3500000   0.4615385), wk =   0.0025641
        k(   93) = (   0.0000000   0.3500000  -0.4615385), wk =   0.0025641
        k(   94) = (   0.0000000   0.3500000  -0.3846154), wk =   0.0025641
        k(   95) = (   0.0000000   0.3500000  -0.3076923), wk =   0.0025641
        k(   96) = (   0.0000000   0.3500000  -0.2307692), wk =   0.0025641
        k(   97) = (   0.0000000   0.3500000  -0.1538462), wk =   0.0025641
        k(   98) = (   0.0000000   0.3500000  -0.0769231), wk =   0.0025641
        k(   99) = (   0.0000000   0.4000000   0.0000000), wk =   0.0025641
        k(  100) = (  -0.0000000   0.4000000   0.0769231), wk =   0.0025641
        k(  101) = (  -0.0000000   0.4000000   0.1538462), wk =   0.0025641
        k(  102) = (  -0.0000000   0.4000000   0.2307692), wk =   0.0025641
        k(  103) = (  -0.0000000   0.4000000   0.3076923), wk =   0.0025641
        k(  104) = (  -0.0000000   0.4000000   0.3846154), wk =   0.0025641
        k(  105) = (  -0.0000000   0.4000000   0.4615385), wk =   0.0025641
        k(  106) = (   0.0000000   0.4000000  -0.4615385), wk =   0.0025641
        k(  107) = (   0.0000000   0.4000000  -0.3846154), wk =   0.0025641
        k(  108) = (   0.0000000   0.4000000  -0.3076923), wk =   0.0025641
        k(  109) = (   0.0000000   0.4000000  -0.2307692), wk =   0.0025641
        k(  110) = (   0.0000000   0.4000000  -0.1538462), wk =   0.0025641
        k(  111) = (   0.0000000   0.4000000  -0.0769231), wk =   0.0025641
        k(  112) = (   0.0000000   0.4500000   0.0000000), wk =   0.0025641
        k(  113) = (  -0.0000000   0.4500000   0.0769231), wk =   0.0025641
        k(  114) = (  -0.0000000   0.4500000   0.1538462), wk =   0.0025641
        k(  115) = (  -0.0000000   0.4500000   0.2307692), wk =   0.0025641
        k(  116) = (  -0.0000000   0.4500000   0.3076923), wk =   0.0025641
        k(  117) = (  -0.0000000   0.4500000   0.3846154), wk =   0.0025641
        k(  118) = (  -0.0000000   0.4500000   0.4615385), wk =   0.0025641
        k(  119) = (   0.0000000   0.4500000  -0.4615385), wk =   0.0025641
        k(  120) = (   0.0000000   0.4500000  -0.3846154), wk =   0.0025641
        k(  121) = (   0.0000000   0.4500000  -0.3076923), wk =   0.0025641
        k(  122) = (   0.0000000   0.4500000  -0.2307692), wk =   0.0025641
        k(  123) = (   0.0000000   0.4500000  -0.1538462), wk =   0.0025641
        k(  124) = (   0.0000000   0.4500000  -0.0769231), wk =   0.0025641
        k(  125) = (   0.0000000  -0.5000000   0.0000000), wk =   0.0012821
        k(  126) = (  -0.0000000  -0.5000000   0.0769231), wk =   0.0025641
        k(  127) = (  -0.0000000  -0.5000000   0.1538462), wk =   0.0025641
        k(  128) = (  -0.0000000  -0.5000000   0.2307692), wk =   0.0025641
        k(  129) = (  -0.0000000  -0.5000000   0.3076923), wk =   0.0025641
        k(  130) = (  -0.0000000  -0.5000000   0.3846154), wk =   0.0025641
        k(  131) = (  -0.0000000  -0.5000000   0.4615385), wk =   0.0025641
        k(  132) = (   0.1666667   0.0000000   0.0000000), wk =   0.0025641
        k(  133) = (   0.1666667   0.0000000   0.0769231), wk =   0.0025641
        k(  134) = (   0.1666667   0.0000000   0.1538462), wk =   0.0025641
        k(  135) = (   0.1666667   0.0000000   0.2307692), wk =   0.0025641
        k(  136) = (   0.1666667   0.0000000   0.3076923), wk =   0.0025641
        k(  137) = (   0.1666667   0.0000000   0.3846154), wk =   0.0025641
        k(  138) = (   0.1666667   0.0000000   0.4615385), wk =   0.0025641
        k(  139) = (   0.1666667   0.0000000  -0.4615385), wk =   0.0025641
        k(  140) = (   0.1666667   0.0000000  -0.3846154), wk =   0.0025641
        k(  141) = (   0.1666667   0.0000000  -0.3076923), wk =   0.0025641
        k(  142) = (   0.1666667   0.0000000  -0.2307692), wk =   0.0025641
[...]

          k =-0.2095-1.8353 1.0486 ( 11466 PWs)   bands (ev):

    -2.9041  -2.9041  -2.0998  -2.0998  -1.7334  -1.7334  -1.1418  -1.1418
     0.2419   0.2419   0.8081   0.8081   1.0995   1.0995   1.9517   1.9517
     2.0559   2.0559   3.0302   3.0302   3.4859   3.4859   4.0020   4.0020
     4.3689   4.3689   4.7919   4.7919   5.2665   5.2665   5.7744   5.7744
     6.3969   6.3969   6.7205   6.7205   7.0037   7.0037   7.3038   7.3038

     occupation numbers 
     1.0000   1.0000   1.0000   1.0000   1.0000   1.0000   1.0000   1.0000
     1.0000   1.0000   1.0000   1.0000   1.0000   1.0000   1.0000   1.0000
     1.0000   1.0000   1.0000   1.0000   1.0000   1.0000   1.0000   1.0000
     1.0000   1.0000   1.0000   1.0000   1.0010   1.0010   1.0195   1.0195
     0.9373   0.9373   0.5849   0.5849   0.2086   0.2086  -0.0061  -0.0061

     the Fermi energy is     6.7810 ev

!    total energy              =    -597.36814499 Ry
     Harris-Foulkes estimate   =    -597.36814499 Ry
     estimated scf accuracy    <          7.2E-13 Ry

     The total energy is the sum of the following terms:

     one-electron contribution =      48.72321873 Ry
     hartree contribution      =       6.72855406 Ry
     xc contribution           =     -77.80361641 Ry
     ewald contribution        =    -116.66514523 Ry
     one-center paw contrib.   =    -458.35065978 Ry
      -> PAW hartree energy AE =       1.24939963 Ry
      -> PAW hartree energy PS =      -1.24496336 Ry
      -> PAW xc energy AE      =     -36.50897419 Ry
      -> PAW xc energy PS      =       1.83071700 Ry
      -> total E_H with PAW    =       6.73299033 Ry
      -> total E_XC with PAW   =    -112.48187359 Ry
     smearing contrib. (-TS)   =      -0.00049635 Ry

     convergence has been achieved in  16 iterations

     Forces acting on atoms (cartesian axes, Ry/au):

     atom    1 type  1   force =    -0.00000067   -0.00000002   -0.00000004
     atom    2 type  2   force =    -0.00086900    0.00000002   -0.00006104
     atom    3 type  2   force =    -0.00162868   -0.00000001   -0.00065869
     atom    4 type  2   force =     0.00163163   -0.00000001    0.00065891
     atom    5 type  2   force =     0.00086835   -0.00000000    0.00006202
     atom    6 type  3   force =    -0.00051975    0.00000007   -0.00009744
     atom    7 type  3   force =     0.00087552    0.00000005    0.00086833
     atom    8 type  1   force =    -0.00078721    0.00000001   -0.00118770
     atom    9 type  1   force =     0.00078648   -0.00000001    0.00118727
     atom   10 type  3   force =    -0.00087594   -0.00000002   -0.00086932
     atom   11 type  3   force =     0.00051953    0.00000000    0.00009773
     atom   12 type  1   force =    -0.00000076    0.00000001    0.00000003
     atom   13 type  2   force =    -0.00086909   -0.00000000   -0.00006111
     atom   14 type  2   force =    -0.00162860    0.00000001   -0.00065864
     atom   15 type  2   force =     0.00163156    0.00000001    0.00065874
     atom   16 type  2   force =     0.00086833   -0.00000003    0.00006221
     atom   17 type  3   force =    -0.00051994    0.00000001   -0.00009759
     atom   18 type  3   force =     0.00087554   -0.00000001    0.00086840
     atom   19 type  1   force =    -0.00078696   -0.00000002   -0.00118771
     atom   20 type  1   force =     0.00078618    0.00000001    0.00118719
     atom   21 type  3   force =    -0.00087612    0.00000001   -0.00086919
     atom   22 type  3   force =     0.00051960   -0.00000007    0.00009766
     The non-local contrib.  to forces
     atom    1 type  1   force =    -0.00000564   -0.00000002    0.00000030
     atom    2 type  2   force =     0.01213941    0.00000011    0.01032624
     atom    3 type  2   force =     0.00899503    0.00000004    0.01235687
     atom    4 type  2   force =    -0.00900883    0.00000003   -0.01235497
     atom    5 type  2   force =    -0.01215775    0.00000003   -0.01032389
     atom    6 type  3   force =    -0.03087908    0.00000004   -0.04020264
     atom    7 type  3   force =     0.00636028   -0.00000003    0.01801584
     atom    8 type  1   force =     0.00688442   -0.00000001   -0.00262232
     atom    9 type  1   force =    -0.00689516   -0.00000002    0.00262104
     atom   10 type  3   force =    -0.00635086    0.00000006   -0.01801432
     atom   11 type  3   force =     0.03088657   -0.00000004    0.04019944
     atom   12 type  1   force =    -0.00000640    0.00000001   -0.00000016
     atom   13 type  2   force =     0.01213929   -0.00000005    0.01032538
     atom   14 type  2   force =     0.00899495    0.00000003    0.01235688
     atom   15 type  2   force =    -0.00900865   -0.00000009   -0.01235488
     atom   16 type  2   force =    -0.01215781   -0.00000011   -0.01032422
     atom   17 type  3   force =    -0.03087869    0.00000007   -0.04020222
     atom   18 type  3   force =     0.00636041   -0.00000003    0.01801604
     atom   19 type  1   force =     0.00688449   -0.00000001   -0.00262253
     atom   20 type  1   force =    -0.00689548    0.00000001    0.00262064
     atom   21 type  3   force =    -0.00635070    0.00000004   -0.01801412
     atom   22 type  3   force =     0.03088644   -0.00000007    0.04019948
     The ionic contribution  to forces
     atom    1 type  1   force =    -0.00005256   -0.00000000    0.00000381
     atom    2 type  2   force =    -0.06454553    0.00000000   -0.13156866
     atom    3 type  2   force =    -0.02399804    0.00000000    0.07594227
     atom    4 type  2   force =     0.02399588   -0.00000000   -0.07593945
     atom    5 type  2   force =     0.06450124   -0.00000000    0.13158782
     atom    6 type  3   force =     0.27985077   -0.00000000    0.47380538
     atom    7 type  3   force =    -0.22184731   -0.00000000   -0.58833530
     atom    8 type  1   force =    -0.01662534   -0.00000000    0.30410877
     atom    9 type  1   force =     0.01661509    0.00000000   -0.30413152
     atom   10 type  3   force =     0.22193789    0.00000000    0.58836702
     atom   11 type  3   force =    -0.27983231    0.00000000   -0.47384083
     atom   12 type  1   force =    -0.00005367    0.00000000    0.00000449
     atom   13 type  2   force =    -0.06454568   -0.00000000   -0.13156901
     atom   14 type  2   force =    -0.02399801   -0.00000000    0.07594258
     atom   15 type  2   force =     0.02399595    0.00000000   -0.07593913
     atom   16 type  2   force =     0.06450197    0.00000000    0.13158753
     atom   17 type  3   force =     0.27985047    0.00000000    0.47380551
     atom   18 type  3   force =    -0.22184703    0.00000000   -0.58833486
     atom   19 type  1   force =    -0.01662543    0.00000000    0.30410828
     atom   20 type  1   force =     0.01661507   -0.00000000   -0.30413202
     atom   21 type  3   force =     0.22193816   -0.00000000    0.58836720
     atom   22 type  3   force =    -0.27983160   -0.00000000   -0.47383986
     The local contribution  to forces
     atom    1 type  1   force =     0.00005364   -0.00000001   -0.00000409
     atom    2 type  2   force =     0.05318032   -0.00000008    0.12225107
     atom    3 type  2   force =     0.01441638   -0.00000004   -0.08743070
     atom    4 type  2   force =    -0.01440521   -0.00000003    0.08742654
     atom    5 type  2   force =    -0.05312669   -0.00000002   -0.12227117
     atom    6 type  3   force =    -0.25248068    0.00000003   -0.43766415
     atom    7 type  3   force =     0.21697015    0.00000007    0.57288027
     atom    8 type  1   force =     0.00978160    0.00000001   -0.30262361
     atom    9 type  1   force =    -0.00976883    0.00000000    0.30264710
     atom   10 type  3   force =    -0.21705804   -0.00000007   -0.57291171
     atom   11 type  3   force =     0.25246556    0.00000003    0.43769970
     atom   12 type  1   force =     0.00005539    0.00000000   -0.00000426
     atom   13 type  2   force =     0.05318050    0.00000004    0.12225215
     atom   14 type  2   force =     0.01441649   -0.00000002   -0.08743099
     atom   15 type  2   force =    -0.01440559    0.00000009    0.08742597
     atom   16 type  2   force =    -0.05312746    0.00000007   -0.12227039
     atom   17 type  3   force =    -0.25248087   -0.00000006   -0.43766484
     atom   18 type  3   force =     0.21696974    0.00000001    0.57287977
     atom   19 type  1   force =     0.00978182   -0.00000001   -0.30262297
     atom   20 type  1   force =    -0.00976892   -0.00000001    0.30264789
     atom   21 type  3   force =    -0.21705876   -0.00000003   -0.57291198
     atom   22 type  3   force =     0.25246487   -0.00000001    0.43769865
     The core correction contribution to forces
     atom    1 type  1   force =     0.00000077    0.00000000   -0.00000003
     atom    2 type  2   force =    -0.00164643   -0.00000001   -0.00106955
     atom    3 type  2   force =    -0.00104523   -0.00000000   -0.00152713
     atom    4 type  2   force =     0.00104679   -0.00000000    0.00152690
     atom    5 type  2   force =     0.00164861   -0.00000000    0.00106921
     atom    6 type  3   force =     0.00298593   -0.00000000    0.00396384
     atom    7 type  3   force =    -0.00061078    0.00000000   -0.00169254
     atom    8 type  1   force =    -0.00083115    0.00000000   -0.00005039
     atom    9 type  1   force =     0.00083247    0.00000000    0.00005060
     atom   10 type  3   force =     0.00059208   -0.00000001    0.00168984
     atom   11 type  3   force =    -0.00300310    0.00000000   -0.00396035
     atom   12 type  1   force =     0.00000085   -0.00000000    0.00000001
     atom   13 type  2   force =    -0.00164642    0.00000000   -0.00106947
     atom   14 type  2   force =    -0.00104522   -0.00000000   -0.00152713
     atom   15 type  2   force =     0.00104678    0.00000001    0.00152689
     atom   16 type  2   force =     0.00164861    0.00000001    0.00106924
     atom   17 type  3   force =     0.00298588   -0.00000001    0.00396379
     atom   18 type  3   force =    -0.00061079    0.00000000   -0.00169256
     atom   19 type  1   force =    -0.00083115    0.00000000   -0.00005037
     atom   20 type  1   force =     0.00083251   -0.00000000    0.00005064
     atom   21 type  3   force =     0.00059206   -0.00000000    0.00168982
     atom   22 type  3   force =    -0.00300309    0.00000001   -0.00396035
     The Hubbard contrib.    to forces
     atom    1 type  1   force =     0.00000000    0.00000000    0.00000000
     atom    2 type  2   force =     0.00000000    0.00000000    0.00000000
     atom    3 type  2   force =     0.00000000    0.00000000    0.00000000
     atom    4 type  2   force =     0.00000000    0.00000000    0.00000000
     atom    5 type  2   force =     0.00000000    0.00000000    0.00000000
     atom    6 type  3   force =     0.00000000    0.00000000    0.00000000
     atom    7 type  3   force =     0.00000000    0.00000000    0.00000000
     atom    8 type  1   force =     0.00000000    0.00000000    0.00000000
     atom    9 type  1   force =     0.00000000    0.00000000    0.00000000
     atom   10 type  3   force =     0.00000000    0.00000000    0.00000000
     atom   11 type  3   force =     0.00000000    0.00000000    0.00000000
     atom   12 type  1   force =     0.00000000    0.00000000    0.00000000
     atom   13 type  2   force =     0.00000000    0.00000000    0.00000000
     atom   14 type  2   force =     0.00000000    0.00000000    0.00000000
     atom   15 type  2   force =     0.00000000    0.00000000    0.00000000
     atom   16 type  2   force =     0.00000000    0.00000000    0.00000000
     atom   17 type  3   force =     0.00000000    0.00000000    0.00000000
     atom   18 type  3   force =     0.00000000    0.00000000    0.00000000
     atom   19 type  1   force =     0.00000000    0.00000000    0.00000000
     atom   20 type  1   force =     0.00000000    0.00000000    0.00000000
     atom   21 type  3   force =     0.00000000    0.00000000    0.00000000
     atom   22 type  3   force =     0.00000000    0.00000000    0.00000000
     The SCF correction term to forces
     atom    1 type  1   force =     0.00000002   -0.00000000    0.00000001
     atom    2 type  2   force =     0.00000013   -0.00000000   -0.00000009
     atom    3 type  2   force =     0.00000006   -0.00000000    0.00000006
     atom    4 type  2   force =    -0.00000010   -0.00000000   -0.00000006
     atom    5 type  2   force =    -0.00000017   -0.00000000    0.00000011
     atom    6 type  3   force =     0.00000021    0.00000000    0.00000018
     atom    7 type  3   force =     0.00000006    0.00000000    0.00000011
     atom    8 type  1   force =     0.00000015    0.00000000   -0.00000010
     atom    9 type  1   force =    -0.00000020    0.00000000    0.00000010
     atom   10 type  3   force =    -0.00000012   -0.00000000   -0.00000011
     atom   11 type  3   force =    -0.00000029    0.00000000   -0.00000019
     atom   12 type  1   force =    -0.00000004    0.00000000   -0.00000001
     atom   13 type  2   force =     0.00000011   -0.00000000   -0.00000011
     atom   14 type  2   force =     0.00000008    0.00000000    0.00000006
     atom   15 type  2   force =    -0.00000003    0.00000000   -0.00000006
     atom   16 type  2   force =    -0.00000009    0.00000000    0.00000010
     atom   17 type  3   force =     0.00000016    0.00000000    0.00000022
     atom   18 type  3   force =     0.00000010    0.00000000    0.00000006
     atom   19 type  1   force =     0.00000021    0.00000000   -0.00000008
     atom   20 type  1   force =    -0.00000011   -0.00000000    0.00000008
     atom   21 type  3   force =     0.00000001   -0.00000000   -0.00000006
     atom   22 type  3   force =    -0.00000013   -0.00000000   -0.00000021

     Total force =     0.005543     Total SCF correction =     0.000001


     Computing stress (Cartesian axis) and pressure

          total   stress  (Ry/bohr**3)                   (kbar)     P=   -4.77
  -0.00002397   0.00000000  -0.00000931         -3.53      0.00     -1.37
   0.00000000  -0.00001916  -0.00000000          0.00     -2.82     -0.00
  -0.00000931  -0.00000000  -0.00005414         -1.37     -0.00     -7.96

     kinetic stress (kbar)   1459.09      0.00    -14.61
                                0.00   1480.85     -0.00
                              -14.61     -0.00   1457.19

     local   stress (kbar)    -49.20      0.00   -123.71
                                0.00    488.62      0.00
                             -123.71      0.00     17.66

     nonloc. stress (kbar)   1131.58     -0.00      3.42
                               -0.00   1126.95     -0.00
                                3.42     -0.00   1125.74

     hartree stress (kbar)    184.38      0.00     29.69
                                0.00     21.37      0.00
                               29.69      0.00    162.83

     exc-cor stress (kbar)   1484.05     -0.00      0.22
                               -0.00   1483.50     -0.00
                                0.22     -0.00   1483.66

     corecor stress (kbar)  -2227.69      0.00     -0.28
                                0.00  -2227.29      0.00
                               -0.28      0.00  -2226.85

     ewald   stress (kbar)  -1985.73     -0.00    103.91
                               -0.00  -2376.82     -0.00
                              103.91     -0.00  -2028.19

     hubbard stress (kbar)      0.00      0.00      0.00
                                0.00      0.00      0.00
                                0.00      0.00      0.00

     london  stress (kbar)      0.00      0.00      0.00
                                0.00      0.00      0.00
                                0.00      0.00      0.00

     DFT-D3  stress (kbar)      0.00      0.00      0.00
                                0.00      0.00      0.00
                                0.00      0.00      0.00

     XDM     stress (kbar)      0.00      0.00      0.00
                                0.00      0.00      0.00
                                0.00      0.00      0.00

     dft-nl  stress (kbar)      0.00      0.00      0.00
                                0.00      0.00      0.00
                                0.00      0.00      0.00

     TS-vdW  stress (kbar)      0.00      0.00      0.00
                                0.00      0.00      0.00
                                0.00      0.00      0.00



     Writing output data file aiida.save/
 
     init_run     :     23.89s CPU     24.35s WALL (       1 calls)
     electrons    :    806.03s CPU    817.25s WALL (       1 calls)
     forces       :      9.74s CPU      9.85s WALL (       1 calls)
     stress       :     70.97s CPU     72.06s WALL (       1 calls)

     Called by init_run:
     wfcinit      :     21.36s CPU     21.73s WALL (       1 calls)
     wfcinit:atom :      0.17s CPU      0.19s WALL (     196 calls)
     wfcinit:wfcr :     19.84s CPU     20.13s WALL (     196 calls)
     potinit      :      0.86s CPU      0.87s WALL (       1 calls)
     hinit0       :      1.49s CPU      1.51s WALL (       1 calls)

     Called by electrons:
     c_bands      :    722.89s CPU    731.29s WALL (      17 calls)
     sum_band     :     77.91s CPU     79.81s WALL (      17 calls)
     v_of_rho     :      1.32s CPU      1.39s WALL (      17 calls)
     v_h          :      0.08s CPU      0.09s WALL (      17 calls)
     v_xc         :      1.35s CPU      1.43s WALL (      19 calls)
     newd         :      1.31s CPU      2.05s WALL (      17 calls)
     PAW_pot      :      2.07s CPU      2.14s WALL (      17 calls)
     mix_rho      :      0.51s CPU      0.55s WALL (      17 calls)

     Called by c_bands:
     init_us_2    :     24.43s CPU     24.77s WALL (    7252 calls)
     cegterg      :    567.38s CPU    574.70s WALL (    3332 calls)

     Called by sum_band:
     sum_band:bec :      0.51s CPU      0.51s WALL (    3332 calls)
     addusdens    :      1.33s CPU      2.16s WALL (      17 calls)

     Called by *egterg:
     h_psi        :    387.46s CPU    393.71s WALL (   16180 calls)
     s_psi        :     58.32s CPU     58.44s WALL (   16180 calls)
     g_psi        :      2.66s CPU      2.69s WALL (   12652 calls)
     cdiaghg      :     64.46s CPU     65.29s WALL (   15788 calls)
     cegterg:over :     28.12s CPU     28.25s WALL (   12652 calls)
     cegterg:upda :     23.82s CPU     24.02s WALL (   12652 calls)
     cegterg:last :      9.73s CPU      9.78s WALL (    3826 calls)
     cdiaghg:chol :      4.34s CPU      4.37s WALL (   15788 calls)
     cdiaghg:inve :      0.86s CPU      0.87s WALL (   15788 calls)
     cdiaghg:para :      8.46s CPU      8.51s WALL (   31576 calls)

     Called by h_psi:
     h_psi:pot    :    385.34s CPU    391.58s WALL (   16180 calls)
     h_psi:calbec :     56.90s CPU     57.53s WALL (   16180 calls)
     vloc_psi     :    269.40s CPU    274.87s WALL (   16180 calls)
     add_vuspsi   :     58.88s CPU     59.06s WALL (   16180 calls)

     General routines
     calbec       :    110.64s CPU    112.49s WALL (   20492 calls)
     fft          :      1.05s CPU      1.08s WALL (     246 calls)
     ffts         :      0.19s CPU      0.20s WALL (     265 calls)
     fftw         :    284.42s CPU    290.03s WALL (  938198 calls)
     interpolate  :      0.11s CPU      0.11s WALL (      17 calls)
 
     Parallel routines
     fft_scatt_xy :     35.82s CPU     36.56s WALL (  938709 calls)
     fft_scatt_yz :    110.12s CPU    112.44s WALL (  938709 calls)

     PAW routines
     PAW_pot      :      2.07s CPU      2.14s WALL (      17 calls)
 
     PWSCF        :  15m34.72s CPU  16m 4.25s WALL

 
   This run was terminated on:   8: 1:42  22Feb2020            

=------------------------------------------------------------------------------=
   JOB DONE.
=------------------------------------------------------------------------------=
