begin
comment 4 atoms, species Al4
lattice      7.6433162309    -0.3821658115    -0.0000000000
lattice     -0.3821658115     7.6433162309    -0.0000000000
lattice     -0.0000000000    -0.0000000000     7.6624724119
atom      0.0000000000     0.0000000000     0.0000000000   Al  0.0 0.0    8.78138811e-14 -6.44610077e-15  2.30315101e-13
atom     -0.1910829058     3.8216581154     3.8312362060   Al  0.0 0.0    1.02195377e-13  7.05009068e-14 -2.30080916e-13
atom      3.8216581154    -0.1910829058     3.8312362060   Al  0.0 0.0   -1.02103321e-13 -7.05621201e-14 -2.29860258e-13
atom      3.6305752097     3.6305752097    -0.0000000000   Al  0.0 0.0   -8.78875270e-14  6.57286698e-15  2.30429214e-13
energy -7.900236921638395e+01
charge 0.0000
end
begin
comment 4 atoms, species Al4
lattice      7.6433162309    -0.2972400756    -0.0000000000
lattice     -0.2972400756     7.6433162309    -0.0000000000
lattice     -0.0000000000    -0.0000000000     7.6548930754
atom      0.0000000000     0.0000000000     0.0000000000   Al  0.0 0.0    1.10167791e-13 -1.77306666e-13  1.91557099e-13
atom     -0.1486200378     3.8216581154     3.8274465377   Al  0.0 0.0    2.47491839e-13  2.72156729e-13 -1.91354828e-13
atom      3.8216581154    -0.1486200378     3.8274465377   Al  0.0 0.0   -2.47505712e-13 -2.72094137e-13 -1.91866100e-13
atom      3.6730380776     3.6730380776    -0.0000000000   Al  0.0 0.0   -1.10104162e-13  1.77271714e-13  1.91846426e-13
energy -7.900364835780653e+01
charge 0.0000
end
begin
comment 4 atoms, species Al4
lattice      7.6433162309    -0.2123143397    -0.0000000000
lattice     -0.2123143397     7.6433162309    -0.0000000000
lattice     -0.0000000000    -0.0000000000     7.6492184056
atom      0.0000000000     0.0000000000     0.0000000000   Al  0.0 0.0    1.23669640e-13  4.88564239e-15  1.99800023e-13
atom     -0.1061571699     3.8216581154     3.8246092028   Al  0.0 0.0    1.25894425e-13  4.27567111e-14 -2.00147064e-13
atom      3.8216581154    -0.1061571699     3.8246092028   Al  0.0 0.0   -1.25941828e-13 -4.25970824e-14 -2.00141758e-13
atom      3.7155009456     3.7155009456    -0.0000000000   Al  0.0 0.0   -1.23554783e-13 -4.94957929e-15  2.00109801e-13
energy -7.900457692034711e+01
charge 0.0000
end
begin
comment 4 atoms, species Al4
lattice      7.6433162309    -0.1273886038    -0.0000000000
lattice     -0.1273886038     7.6433162309    -0.0000000000
lattice     -0.0000000000    -0.0000000000     7.6454399642
atom      0.0000000000     0.0000000000     0.0000000000   Al  0.0 0.0   -1.36795155e-13 -4.24246079e-14 -6.84867390e-14
atom     -0.0636943019     3.8216581154     3.8227199821   Al  0.0 0.0   -1.31926435e-13  1.16961918e-14  6.82527683e-14
atom      3.8216581154    -0.0636943019     3.8227199821   Al  0.0 0.0    1.31882636e-13 -1.18624396e-14  6.81878058e-14
atom      3.7579638135     3.7579638135    -0.0000000000   Al  0.0 0.0    1.36786454e-13  4.24207885e-14 -6.84864500e-14
energy -7.900518527785439e+01
charge 0.0000
end
begin
comment 4 atoms, species Al4
lattice      7.6433162309    -0.0424628679    -0.0000000000
lattice     -0.0424628679     7.6433162309    -0.0000000000
lattice     -0.0000000000    -0.0000000000     7.6435521430
atom      0.0000000000     0.0000000000     0.0000000000   Al  0.0 0.0   -6.01400702e-14  1.22129705e-14  5.75264166e-14
atom     -0.0212314340     3.8216581154     3.8217760715   Al  0.0 0.0   -6.25127267e-14 -1.69048039e-14 -5.74290891e-14
atom      3.8216581154    -0.0212314340     3.8217760715   Al  0.0 0.0    6.23744535e-14  1.68881435e-14 -5.76627609e-14
atom      3.8004266815     3.8004266815    -0.0000000000   Al  0.0 0.0    6.02492298e-14 -1.19959070e-14  5.75391875e-14
energy -7.900548725269590e+01
charge 0.0000
end
begin
comment 4 atoms, species Al4
lattice      7.6433162309     0.0424628679    -0.0000000000
lattice      0.0424628679     7.6433162309    -0.0000000000
lattice     -0.0000000000    -0.0000000000     7.6435521430
atom      0.0000000000     0.0000000000     0.0000000000   Al  0.0 0.0   -6.25073823e-14  1.67200768e-14  5.76875809e-14
atom      0.0212314340     3.8216581154     3.8217760715   Al  0.0 0.0   -6.01806841e-14 -1.22865035e-14 -5.73502085e-14
atom      3.8216581154     0.0212314340     3.8217760715   Al  0.0 0.0    6.02764627e-14  1.21462151e-14 -5.74227762e-14
atom      3.8428895494     3.8428895494    -0.0000000000   Al  0.0 0.0    6.23681867e-14 -1.66770614e-14  5.74127999e-14
energy -7.900548725269590e+01
charge 0.0000
end
begin
comment 4 atoms, species Al4
lattice      7.6433162309     0.1273886038    -0.0000000000
lattice      0.1273886038     7.6433162309    -0.0000000000
lattice     -0.0000000000    -0.0000000000     7.6454399642
atom      0.0000000000     0.0000000000     0.0000000000   Al  0.0 0.0   -1.31980958e-13 -1.16637995e-14 -6.83536393e-14
atom      0.0636943019     3.8216581154     3.8227199821   Al  0.0 0.0   -1.36795964e-13  4.22140419e-14  6.83085423e-14
atom      3.8216581154     0.0636943019     3.8227199821   Al  0.0 0.0    1.36754852e-13 -4.23162498e-14  6.82954734e-14
atom      3.8853524174     3.8853524174    -0.0000000000   Al  0.0 0.0    1.31946762e-13  1.17073611e-14 -6.84640655e-14
energy -7.900518527785439e+01
charge 0.0000
end
begin
comment 4 atoms, species Al4
lattice      7.6433162309     0.2123143397    -0.0000000000
lattice      0.2123143397     7.6433162309    -0.0000000000
lattice     -0.0000000000    -0.0000000000     7.6492184056
atom      0.0000000000     0.0000000000     0.0000000000   Al  0.0 0.0    1.26002112e-13 -4.26678986e-14  2.00183910e-13
atom      0.1061571699     3.8216581154     3.8246092028   Al  0.0 0.0    1.23778326e-13 -5.06607754e-15 -1.99853452e-13
atom      3.8216581154     0.1061571699     3.8246092028   Al  0.0 0.0   -1.23770259e-13  5.11584370e-15 -2.00024237e-13
atom      3.9278152853     3.9278152853    -0.0000000000   Al  0.0 0.0   -1.25923806e-13  4.26626492e-14  1.99963657e-13
energy -7.900457692034711e+01
charge 0.0000
end
begin
comment 4 atoms, species Al4
lattice      7.6433162309     0.2972400756    -0.0000000000
lattice      0.2972400756     7.6433162309    -0.0000000000
lattice     -0.0000000000    -0.0000000000     7.6548930754
atom      0.0000000000     0.0000000000     0.0000000000   Al  0.0 0.0    2.47552710e-13 -2.72194064e-13  1.91292203e-13
atom      0.1486200378     3.8216581154     3.8274465377   Al  0.0 0.0    1.10058312e-13  1.77177157e-13 -1.91414256e-13
atom      3.8216581154     0.1486200378     3.8274465377   Al  0.0 0.0   -1.10042816e-13 -1.77408962e-13 -1.91719178e-13
atom      3.9702781533     3.9702781533    -0.0000000000   Al  0.0 0.0   -2.47572832e-13  2.72322584e-13  1.91817177e-13
energy -7.900364835780653e+01
charge 0.0000
end
begin
comment 4 atoms, species Al4
lattice      7.6433162309     0.3821658115    -0.0000000000
lattice      0.3821658115     7.6433162309    -0.0000000000
lattice     -0.0000000000    -0.0000000000     7.6624724119
atom      0.0000000000     0.0000000000     0.0000000000   Al  0.0 0.0    1.02298824e-13 -7.04945860e-14  2.30230919e-13
atom      0.1910829058     3.8216581154     3.8312362060   Al  0.0 0.0    8.79350307e-14  6.44425440e-15 -2.30158090e-13
atom      3.8216581154     0.1910829058     3.8312362060   Al  0.0 0.0   -8.80147784e-14 -6.52329460e-15 -2.29972079e-13
atom      4.0127410212     4.0127410212    -0.0000000000   Al  0.0 0.0   -1.02145269e-13  7.07221530e-14  2.30226653e-13
energy -7.900236921638395e+01
charge 0.0000
end
