
     Program PWSCF v.6.3 starts on 22Feb2020 at 14:12:43 

     This program is part of the open-source Quantum ESPRESSO suite
     for quantum simulation of materials; please cite
         "P. Giannozzi et al., J. Phys.:Condens. Matter 21 395502 (2009);
         "P. Giannozzi et al., J. Phys.:Condens. Matter 29 465901 (2017);
          URL http://www.quantum-espresso.org", 
     in publications or presentations arising from this work. More details at
     http://www.quantum-espresso.org/quote

 *** WARNING: using old-style file format, will disappear from next version ***

     Parallel version (MPI & OpenMP), running on      36 processor cores
     Number of MPI processes:                36
     Threads/MPI process:                     1

     MPI processes distributed on     1 nodes
     K-points division:     npool     =       4
     R & G space division:  proc/nbgrp/npool/nimage =       9
     Reading input from aiida.in
Warning: card &IONS ignored
Warning: card   !PRESS_CONV_THR = 0.05                 ! JUST FOR VOLUME RELAXATIONS ignored
Warning: card / ignored

     Current dimensions of program PWSCF are:
     Max number of different atomic species (ntypx) = 10
     Max number of k-points (npk) =  40000
     Max angular momentum in pseudopotentials (lmaxx) =  3
               file Al.pbe-n-kjpaw_psl.1.0.0.UPF: wavefunction(s)  3S 3P renormalized
               file Mg.pbe-n-kjpaw_psl.0.3.0.UPF: wavefunction(s)  3S renormalized

     Subspace diagonalization in iterative solution of the eigenvalue problem:
     one sub-group per band group will be used
     scalapack distributed-memory algorithm (size of sub-group:  2*  2 procs)

 
     Parallelization info
     --------------------
     sticks:   dense  smooth     PW     G-vecs:    dense   smooth      PW
     Min        1456     583    166               331500    83885   12672
     Max        1457     584    167               331506    83894   12677
     Sum       13105    5251   1499              2983521   754991  114069
 


     bravais-lattice index     =            0
     lattice parameter (alat)  =      53.6663  a.u.
     unit-cell volume          =   22080.4333 (a.u.)^3
     number of atoms/cell      =          196
     number of atomic types    =            3
     number of electrons       =       592.00
     number of Kohn-Sham states=          355
     kinetic-energy cutoff     =      40.0000  Ry
     charge density cutoff     =     400.0000  Ry
     convergence threshold     =      1.0E-12
     mixing beta               =       0.4000
     number of iterations used =            8  local-TF  mixing
     Exchange-correlation      = SLA PW PBX PBC ( 1  4  3  4 0 0)

     celldm(1)=  53.666328  celldm(2)=   0.000000  celldm(3)=   0.000000
     celldm(4)=   0.000000  celldm(5)=   0.000000  celldm(6)=   0.000000

     crystal axes: (cart. coord. in units of alat)
               a(1) = (   1.000000   0.000000   0.000000 )  
               a(2) = (   0.000000   0.142857   0.000000 )  
               a(3) = (   0.000000   0.000000   1.000000 )  

     reciprocal axes: (cart. coord. in units 2 pi/alat)
               b(1) = (  1.000000  0.000000  0.000000 )  
               b(2) = (  0.000000  7.000000  0.000000 )  
               b(3) = (  0.000000  0.000000  1.000000 )  


     PseudoPot. # 1 for Al read from file:
     /users/aglensk/Dropbox/Albert/scripts/dotfiles/scripts/potentials/quantum_espresso/pseudo_SSSPefV1.1_alalloy/Al.pbe-n-kjpaw_psl.1.0.0.UPF
     MD5 check sum: cfc449ca30b5f3223ec38ddd88ac046d
     Pseudo is Projector augmented-wave + core cor, Zval =  3.0
     Generated using "atomic" code by A. Dal Corso v.5.1
     Shape of augmentation charge: PSQ
     Using radial grid of 1135 points,  6 beta functions with: 
                l(1) =   0
                l(2) =   0
                l(3) =   1
                l(4) =   1
                l(5) =   2
                l(6) =   2
     Q(r) pseudized with 0 coefficients 


     PseudoPot. # 2 for Si read from file:
     /users/aglensk/Dropbox/Albert/scripts/dotfiles/scripts/potentials/quantum_espresso/pseudo_SSSPefV1.1_alalloy/Si.pbe-n-rrkjus_psl.1.0.0.UPF
     MD5 check sum: 0b0bb1205258b0d07b9f9672cf965d36
     Pseudo is Ultrasoft + core correction, Zval =  4.0
     Generated using "atomic" code by A. Dal Corso v.5.1
     Using radial grid of 1141 points,  6 beta functions with: 
                l(1) =   0
                l(2) =   0
                l(3) =   1
                l(4) =   1
                l(5) =   2
                l(6) =   2
     Q(r) pseudized with 0 coefficients 


     PseudoPot. # 3 for Mg read from file:
     /users/aglensk/Dropbox/Albert/scripts/dotfiles/scripts/potentials/quantum_espresso/pseudo_SSSPefV1.1_alalloy/Mg.pbe-n-kjpaw_psl.0.3.0.UPF
     MD5 check sum: 24ecedc7f3e3cbe212e682f4413594e4
     Pseudo is Projector augmented-wave + core cor, Zval =  2.0
     Generated using "atomic" code by A. Dal Corso v.5.0.99 svn rev. 10869
     Shape of augmentation charge: PSQ
     Using radial grid of 1129 points,  4 beta functions with: 
                l(1) =   0
                l(2) =   0
                l(3) =   1
                l(4) =   1
     Q(r) pseudized with 0 coefficients 


     atomic species   valence    mass     pseudopotential
        Al             3.00    26.98154     Al( 1.00)
        Si             4.00    28.08500     Si( 1.00)
        Mg             2.00    24.30500     Mg( 1.00)

     No symmetry found


                                    s                        frac. trans.

      isym =  1     identity                                     

 cryst.   s( 1) = (     1          0          0      )
                  (     0          1          0      )
                  (     0          0          1      )

 cart.    s( 1) = (  1.0000000  0.0000000  0.0000000 )
                  (  0.0000000  1.0000000  0.0000000 )
                  (  0.0000000  0.0000000  1.0000000 )


   Cartesian axes

     site n.     atom                  positions (alat units)
         1           Al  tau(   1) = (   0.0674720   0.0712900   0.9950818  )
         2           Al  tau(   2) = (   0.9973055   0.1427172   0.9960009  )
         3           Al  tau(   3) = (   0.0682536   0.1427276   0.0683544  )
         4           Al  tau(   4) = (   0.9960787   0.0712913   0.0665697  )
         5           Al  tau(   5) = (   0.0645198   0.0713024   0.1368674  )
         6           Al  tau(   6) = (   0.9954484   0.1427285   0.1387025  )
         7           Al  tau(   7) = (   0.0590028   0.1427458   0.2114780  )
         8           Al  tau(   8) = (   0.9921664   0.0713051   0.2114225  )
         9           Al  tau(   9) = (   0.0646376   0.0713130   0.2863187  )
        10           Al  tau(  10) = (   0.9956341   0.1427378   0.2842997  )
        11           Al  tau(  11) = (   0.0672424   0.1427445   0.3551084  )
        12           Al  tau(  12) = (   0.9965362   0.0713056   0.3571965  )
        13           Al  tau(  13) = (   0.0657478   0.0713094   0.4295642  )
        14           Al  tau(  14) = (   0.9968108   0.1427340   0.4287545  )
        15           Al  tau(  15) = (   0.0669529   0.1427327   0.5013274  )
        16           Al  tau(  16) = (   0.9970761   0.0712964   0.5007035  )
        17           Al  tau(  17) = (   0.0679173   0.0712938   0.5724872  )
        18           Al  tau(  18) = (   0.9974280   0.1427219   0.5719349  )
        19           Al  tau(  19) = (   0.0685449   0.1427200   0.6429839  )
        20           Al  tau(  20) = (   0.9976597   0.0712843   0.6427425  )
        21           Al  tau(  21) = (   0.0688877   0.0712840   0.7133393  )
        22           Al  tau(  22) = (   0.9978475   0.1427122   0.7134203  )
        23           Al  tau(  23) = (   0.0689710   0.1427136   0.7839443  )
        24           Al  tau(  24) = (   0.9978998   0.0712794   0.7838812  )
        25           Al  tau(  25) = (   0.0688552   0.0712830   0.8543833  )
        26           Al  tau(  26) = (   0.9978671   0.1427111   0.8544797  )
        27           Al  tau(  27) = (   0.0687268   0.1427176   0.9252204  )
        28           Al  tau(  28) = (   0.9974894   0.0712827   0.9250292  )
        29           Al  tau(  29) = (   0.2108624   0.0713109   0.9928266  )
        30           Al  tau(  30) = (   0.1398989   0.1427284   0.9961806  )
        31           Si  tau(  31) = (   0.2127864   0.1427509   0.0583018  )
        32           Al  tau(  32) = (   0.1351285   0.0713007   0.0651277  )
        33           Si  tau(  33) = (   0.2077543   0.0713374   0.1152619  )
        34           Mg  tau(  34) = (   0.1461706   0.1427535   0.1466350  )
        35           Mg  tau(  35) = (   0.2070838   0.0713489   0.2127716  )
        36           Si  tau(  36) = (   0.1155951   0.0713208   0.2116322  )
        37           Si  tau(  37) = (   0.2125286   0.0713549   0.3104535  )
        38           Mg  tau(  38) = (   0.1468746   0.1427604   0.2763359  )
        39           Si  tau(  39) = (   0.2044205   0.1427779   0.3633603  )
        40           Al  tau(  40) = (   0.1346743   0.0713218   0.3580995  )
        41           Al  tau(  41) = (   0.2020973   0.0713371   0.4317939  )
        42           Al  tau(  42) = (   0.1341594   0.1427532   0.4289194  )
        43           Al  tau(  43) = (   0.2083115   0.1427519   0.5034086  )
        44           Al  tau(  44) = (   0.1374804   0.0713103   0.5020251  )
        45           Al  tau(  45) = (   0.2116740   0.0713119   0.5712301  )
        46           Al  tau(  46) = (   0.1388082   0.1427322   0.5727041  )
        47           Al  tau(  47) = (   0.2106815   0.1427322   0.6436079  )
        48           Al  tau(  48) = (   0.1398392   0.0712947   0.6429805  )
        49           Al  tau(  49) = (   0.2113693   0.0712949   0.7134839  )
        50           Al  tau(  50) = (   0.1398647   0.1427203   0.7136150  )
        51           Al  tau(  51) = (   0.2114866   0.1427244   0.7838496  )
        52           Al  tau(  52) = (   0.1401594   0.0712864   0.7839319  )
        53           Al  tau(  53) = (   0.2113751   0.0712951   0.8538454  )
        54           Al  tau(  54) = (   0.1401682   0.1427207   0.8545199  )
        55           Al  tau(  55) = (   0.2115748   0.1427325   0.9240103  )
        56           Al  tau(  56) = (   0.1395399   0.0712926   0.9247108  )
        57           Al  tau(  57) = (   0.3533684   0.0713150   0.9932391  )
        58           Al  tau(  58) = (   0.2846685   0.1427461   0.9962724  )
        59           Mg  tau(  59) = (   0.3647145   0.1427704   0.0747430  )
        60           Al  tau(  60) = (   0.2827171   0.0713259   0.0632500  )
        61           Si  tau(  61) = (   0.3368854   0.0713525   0.1351889  )
        62           Mg  tau(  62) = (   0.2667349   0.1427783   0.1482275  )
        63           Mg  tau(  63) = (   0.3703265   0.1427978   0.1983090  )
        64           Si  tau(  64) = (   0.2988102   0.0713632   0.2098277  )
        65           Si  tau(  65) = (   0.3512479   0.0713803   0.2750651  )
        66           Mg  tau(  66) = (   0.2699498   0.1427927   0.2719406  )
        67           Si  tau(  67) = (   0.3531997   0.1428081   0.3265059  )
        68           Mg  tau(  68) = (   0.2931668   0.0713675   0.3657222  )
        69           Mg  tau(  69) = (   0.3533158   0.1427953   0.4271547  )
        70           Si  tau(  70) = (   0.2603703   0.1427797   0.4285677  )
        71           Si  tau(  71) = (   0.3548814   0.1427724   0.5233934  )
        72           Mg  tau(  72) = (   0.2920045   0.0713420   0.4930416  )
        73           Si  tau(  73) = (   0.3550143   0.0713321   0.5803870  )
        74           Al  tau(  74) = (   0.2800201   0.1427462   0.5735669  )
        75           Al  tau(  75) = (   0.3548596   0.1427494   0.6453336  )
        76           Al  tau(  76) = (   0.2832271   0.0713089   0.6425678  )
        77           Al  tau(  77) = (   0.3550187   0.0713074   0.7143902  )
        78           Al  tau(  78) = (   0.2829251   0.1427328   0.7136836  )
        79           Al  tau(  79) = (   0.3550778   0.1427341   0.7841163  )
        80           Al  tau(  80) = (   0.2831608   0.0712963   0.7836622  )
        81           Al  tau(  81) = (   0.3550161   0.0713028   0.8538702  )
        82           Al  tau(  82) = (   0.2831764   0.1427307   0.8540998  )
        83           Al  tau(  83) = (   0.3557741   0.1427379   0.9244785  )
        84           Al  tau(  84) = (   0.2830109   0.0713053   0.9237285  )
        85           Al  tau(  85) = (   0.5027929   0.0713083   0.9941014  )
        86           Si  tau(  86) = (   0.4275507   0.1427462   0.9873510  )
        87           Mg  tau(  87) = (   0.4911065   0.1427643   0.0747093  )
        88           Si  tau(  88) = (   0.4281110   0.0713366   0.0443668  )
        89           Si  tau(  89) = (   0.5230636   0.0713486   0.1391416  )
        90           Mg  tau(  90) = (   0.4301459   0.0713620   0.1406860  )
        91           Mg  tau(  91) = (   0.4904465   0.1427945   0.2020259  )
        92           Si  tau(  92) = (   0.4304813   0.0713793   0.2413817  )
        93           Mg  tau(  93) = (   0.5137080   0.0713684   0.2959367  )
        94           Si  tau(  94) = (   0.4324364   0.1428089   0.2928435  )
        95           Si  tau(  95) = (   0.4848051   0.1427982   0.3581201  )
        96           Mg  tau(  96) = (   0.4132608   0.0713735   0.3695928  )
        97           Mg  tau(  97) = (   0.5167681   0.0713588   0.4197322  )
        98           Si  tau(  98) = (   0.4465611   0.1427887   0.4327488  )
        99           Al  tau(  99) = (   0.5005270   0.1427702   0.5046840  )
       100           Mg  tau( 100) = (   0.4184108   0.0713515   0.4931550  )
       101           Al  tau( 101) = (   0.4981797   0.0713293   0.5716654  )
       102           Al  tau( 102) = (   0.4295150   0.1427580   0.5745742  )
       103           Al  tau( 103) = (   0.4996193   0.1427466   0.6441239  )
       104           Al  tau( 104) = (   0.4266961   0.0713172   0.6433061  )
       105           Al  tau( 105) = (   0.4992307   0.0713047   0.7136877  )
       106           Al  tau( 106) = (   0.4273340   0.1427389   0.7138591  )
       107           Al  tau( 107) = (   0.4991642   0.1427315   0.7840240  )
       108           Al  tau( 108) = (   0.4271482   0.0713024   0.7835233  )
       109           Al  tau( 109) = (   0.4994191   0.0712992   0.8540072  )
       110           Al  tau( 110) = (   0.4272773   0.1427351   0.8533143  )
       111           Al  tau( 111) = (   0.4992411   0.1427334   0.9251361  )
       112           Al  tau( 112) = (   0.4276159   0.0713098   0.9223813  )
       113           Al  tau( 113) = (   0.6440272   0.0712977   0.9948437  )
       114           Al  tau( 114) = (   0.5710627   0.1427376   0.9963539  )
       115           Al  tau( 115) = (   0.6456053   0.1427382   0.0654905  )
       116           Al  tau( 116) = (   0.5747173   0.0713172   0.0641465  )
       117           Al  tau( 117) = (   0.6491345   0.0713222   0.1386489  )
       118           Al  tau( 118) = (   0.5812243   0.1427719   0.1358552  )
       119           Al  tau( 119) = (   0.6487742   0.1427557   0.2094893  )
       120           Si  tau( 120) = (   0.5790567   0.0713535   0.2043524  )
       121           Mg  tau( 121) = (   0.6367065   0.0713374   0.2913206  )
       122           Si  tau( 122) = (   0.5710022   0.1427882   0.2573165  )
       123           Si  tau( 123) = (   0.6679187   0.1427573   0.3560546  )
       124           Mg  tau( 124) = (   0.5764566   0.1427863   0.3551323  )
       125           Mg  tau( 125) = (   0.6373311   0.0713350   0.4212010  )
       126           Si  tau( 126) = (   0.5756817   0.1427764   0.4526899  )
       127           Al  tau( 127) = (   0.6482329   0.1427431   0.5027594  )
       128           Si  tau( 128) = (   0.5703452   0.0713397   0.5097299  )
       129           Al  tau( 129) = (   0.6431417   0.0713104   0.5717243  )
       130           Al  tau( 130) = (   0.5720893   0.1427551   0.5750947  )
       131           Al  tau( 131) = (   0.6432839   0.1427332   0.6431467  )
       132           Al  tau( 132) = (   0.5711077   0.0713129   0.6438357  )
       133           Al  tau( 133) = (   0.6424490   0.0712941   0.7132800  )
       134           Al  tau( 134) = (   0.5711493   0.1427340   0.7139688  )
       135           Al  tau( 135) = (   0.6423917   0.1427229   0.7838122  )
       136           Al  tau( 136) = (   0.5709471   0.0712957   0.7838839  )
       137           Al  tau( 137) = (   0.6426469   0.0712893   0.8540756  )
       138           Al  tau( 138) = (   0.5710173   0.1427262   0.8542183  )
       139           Al  tau( 139) = (   0.6427817   0.1427224   0.9246228  )
       140           Al  tau( 140) = (   0.5718712   0.0712970   0.9239838  )
       141           Al  tau( 141) = (   0.7855610   0.0712869   0.9956016  )
       142           Al  tau( 142) = (   0.7149936   0.1427232   0.9950427  )
       143           Al  tau( 143) = (   0.7860440   0.1427261   0.0668185  )
       144           Al  tau( 144) = (   0.7161602   0.0712997   0.0661937  )
       145           Al  tau( 145) = (   0.7864686   0.0713015   0.1387329  )
       146           Al  tau( 146) = (   0.7175154   0.1427410   0.1379829  )
       147           Al  tau( 147) = (   0.7868412   0.1427376   0.2102848  )
       148           Al  tau( 148) = (   0.7161693   0.0713175   0.2124187  )
       149           Al  tau( 149) = (   0.7877893   0.0713091   0.2831696  )
       150           Al  tau( 150) = (   0.7188153   0.1427481   0.2813038  )
       151           Al  tau( 151) = (   0.7912728   0.1427427   0.3560952  )
       152           Al  tau( 152) = (   0.7244550   0.0713169   0.3560797  )
       153           Al  tau( 153) = (   0.7879009   0.0713058   0.4288983  )
       154           Al  tau( 154) = (   0.7189033   0.1427431   0.4308423  )
       155           Al  tau( 155) = (   0.7871438   0.1427293   0.5011523  )
       156           Al  tau( 156) = (   0.7150469   0.0713072   0.4994350  )
       157           Al  tau( 157) = (   0.7857554   0.0712936   0.5717552  )
       158           Al  tau( 158) = (   0.7156291   0.1427309   0.5727885  )
       159           Al  tau( 159) = (   0.7854704   0.1427200   0.6427846  )
       160           Al  tau( 160) = (   0.7141768   0.0712928   0.6426097  )
       161           Al  tau( 161) = (   0.7849478   0.0712840   0.7133075  )
       162           Al  tau( 162) = (   0.7139167   0.1427198   0.7134067  )
       163           Al  tau( 163) = (   0.7848385   0.1427117   0.7838593  )
       164           Al  tau( 164) = (   0.7136748   0.0712845   0.7838031  )
       165           Al  tau( 165) = (   0.7848872   0.0712794   0.8542637  )
       166           Al  tau( 166) = (   0.7137650   0.1427163   0.8543193  )
       167           Al  tau( 167) = (   0.7851665   0.1427135   0.9248224  )
       168           Al  tau( 168) = (   0.7141653   0.0712859   0.9245841  )
       169           Al  tau( 169) = (   0.9264473   0.0712850   0.9959000  )
       170           Al  tau( 170) = (   0.8559954   0.1427165   0.9959955  )
       171           Al  tau( 171) = (   0.9260580   0.1427201   0.0670011  )
       172           Al  tau( 172) = (   0.8558462   0.0712893   0.0671787  )
       173           Al  tau( 173) = (   0.9253816   0.0712947   0.1385321  )
       174           Al  tau( 174) = (   0.8560795   0.1427281   0.1387139  )
       175           Al  tau( 175) = (   0.9247636   0.1427330   0.2110829  )
       176           Al  tau( 176) = (   0.8560214   0.0713010   0.2108930  )
       177           Al  tau( 177) = (   0.9261043   0.0713037   0.2842297  )
       178           Al  tau( 178) = (   0.8573216   0.1427355   0.2832465  )
       179           Al  tau( 179) = (   0.9273773   0.1427339   0.3565610  )
       180           Al  tau( 180) = (   0.8586452   0.0713044   0.3564098  )
       181           Al  tau( 181) = (   0.9272283   0.0712992   0.4287925  )
       182           Al  tau( 182) = (   0.8579525   0.1427318   0.4290168  )
       183           Al  tau( 183) = (   0.9273261   0.1427266   0.5003721  )
       184           Al  tau( 184) = (   0.8571227   0.0712944   0.5006280  )
       185           Al  tau( 185) = (   0.9270213   0.0712874   0.5716167  )
       186           Al  tau( 186) = (   0.8566128   0.1427199   0.5717947  )
       187           Al  tau( 187) = (   0.9268612   0.1427142   0.6425842  )
       188           Al  tau( 188) = (   0.8559992   0.0712842   0.6424786  )
       189           Al  tau( 189) = (   0.9268299   0.0712797   0.7133589  )
       190           Al  tau( 190) = (   0.8559513   0.1427133   0.7133265  )
       191           Al  tau( 191) = (   0.9268919   0.1427083   0.7839515  )
       192           Al  tau( 192) = (   0.8558900   0.0712780   0.7837993  )
       193           Al  tau( 193) = (   0.9268717   0.0712774   0.8544385  )
       194           Al  tau( 194) = (   0.8559727   0.1427075   0.8543522  )
       195           Al  tau( 195) = (   0.9269268   0.1427118   0.9252485  )
       196           Al  tau( 196) = (   0.8560404   0.0712797   0.9250600  )

   Crystallographic axes

     site n.     atom                  positions (cryst. coord.)
         1           Al  tau(   1) = (  0.0674720  0.4990301  0.9950818  )
         2           Al  tau(   2) = (  0.9973055  0.9990203  0.9960009  )
         3           Al  tau(   3) = (  0.0682536  0.9990930  0.0683544  )
         4           Al  tau(   4) = (  0.9960787  0.4990390  0.0665697  )
         5           Al  tau(   5) = (  0.0645198  0.4991170  0.1368674  )
         6           Al  tau(   6) = (  0.9954484  0.9990997  0.1387025  )
         7           Al  tau(   7) = (  0.0590028  0.9992204  0.2114780  )
         8           Al  tau(   8) = (  0.9921664  0.4991356  0.2114225  )
         9           Al  tau(   9) = (  0.0646376  0.4991913  0.2863187  )
        10           Al  tau(  10) = (  0.9956341  0.9991643  0.2842997  )
        11           Al  tau(  11) = (  0.0672424  0.9992114  0.3551084  )
        12           Al  tau(  12) = (  0.9965362  0.4991395  0.3571965  )
        13           Al  tau(  13) = (  0.0657478  0.4991655  0.4295642  )
        14           Al  tau(  14) = (  0.9968108  0.9991381  0.4287545  )
        15           Al  tau(  15) = (  0.0669529  0.9991292  0.5013274  )
        16           Al  tau(  16) = (  0.9970761  0.4990750  0.5007035  )
        17           Al  tau(  17) = (  0.0679173  0.4990567  0.5724872  )
        18           Al  tau(  18) = (  0.9974280  0.9990536  0.5719349  )
        19           Al  tau(  19) = (  0.0685449  0.9990400  0.6429839  )
        20           Al  tau(  20) = (  0.9976597  0.4989902  0.6427425  )
        21           Al  tau(  21) = (  0.0688877  0.4989883  0.7133393  )
        22           Al  tau(  22) = (  0.9978475  0.9989857  0.7134203  )
        23           Al  tau(  23) = (  0.0689710  0.9989953  0.7839443  )
        24           Al  tau(  24) = (  0.9978998  0.4989556  0.7838812  )
        25           Al  tau(  25) = (  0.0688552  0.4989810  0.8543833  )
        26           Al  tau(  26) = (  0.9978671  0.9989775  0.8544797  )
        27           Al  tau(  27) = (  0.0687268  0.9990230  0.9252204  )
        28           Al  tau(  28) = (  0.9974894  0.4989791  0.9250292  )
        29           Al  tau(  29) = (  0.2108624  0.4991763  0.9928266  )
        30           Al  tau(  30) = (  0.1398989  0.9990988  0.9961806  )
        31           Si  tau(  31) = (  0.2127864  0.9992565  0.0583018  )
        32           Al  tau(  32) = (  0.1351285  0.4991047  0.0651277  )
        33           Si  tau(  33) = (  0.2077543  0.4993619  0.1152619  )
        34           Mg  tau(  34) = (  0.1461706  0.9992744  0.1466350  )
        35           Mg  tau(  35) = (  0.2070838  0.4994420  0.2127716  )
        36           Si  tau(  36) = (  0.1155951  0.4992460  0.2116322  )
        37           Si  tau(  37) = (  0.2125286  0.4994845  0.3104535  )
        38           Mg  tau(  38) = (  0.1468746  0.9993226  0.2763359  )
        39           Si  tau(  39) = (  0.2044205  0.9994456  0.3633603  )
        40           Al  tau(  40) = (  0.1346743  0.4992525  0.3580995  )
        41           Al  tau(  41) = (  0.2020973  0.4993597  0.4317939  )
        42           Al  tau(  42) = (  0.1341594  0.9992727  0.4289194  )
        43           Al  tau(  43) = (  0.2083115  0.9992632  0.5034086  )
        44           Al  tau(  44) = (  0.1374804  0.4991719  0.5020251  )
        45           Al  tau(  45) = (  0.2116740  0.4991832  0.5712301  )
        46           Al  tau(  46) = (  0.1388082  0.9991253  0.5727041  )
        47           Al  tau(  47) = (  0.2106815  0.9991256  0.6436079  )
        48           Al  tau(  48) = (  0.1398392  0.4990628  0.6429805  )
        49           Al  tau(  49) = (  0.2113693  0.4990641  0.7134839  )
        50           Al  tau(  50) = (  0.1398647  0.9990420  0.7136150  )
        51           Al  tau(  51) = (  0.2114866  0.9990709  0.7838496  )
        52           Al  tau(  52) = (  0.1401594  0.4990046  0.7839319  )
        53           Al  tau(  53) = (  0.2113751  0.4990660  0.8538454  )
        54           Al  tau(  54) = (  0.1401682  0.9990451  0.8545199  )
        55           Al  tau(  55) = (  0.2115748  0.9991273  0.9240103  )
        56           Al  tau(  56) = (  0.1395399  0.4990482  0.9247108  )
        57           Al  tau(  57) = (  0.3533684  0.4992049  0.9932391  )
        58           Al  tau(  58) = (  0.2846685  0.9992230  0.9962724  )
        59           Mg  tau(  59) = (  0.3647145  0.9993926  0.0747430  )
        60           Al  tau(  60) = (  0.2827171  0.4992813  0.0632500  )
        61           Si  tau(  61) = (  0.3368854  0.4994672  0.1351889  )
        62           Mg  tau(  62) = (  0.2667349  0.9994483  0.1482275  )
        63           Mg  tau(  63) = (  0.3703265  0.9995843  0.1983090  )
        64           Si  tau(  64) = (  0.2988102  0.4995422  0.2098277  )
        65           Si  tau(  65) = (  0.3512479  0.4996624  0.2750651  )
        66           Mg  tau(  66) = (  0.2699498  0.9995490  0.2719406  )
        67           Si  tau(  67) = (  0.3531997  0.9996571  0.3265059  )
        68           Mg  tau(  68) = (  0.2931668  0.4995727  0.3657222  )
        69           Mg  tau(  69) = (  0.3533158  0.9995671  0.4271547  )
        70           Si  tau(  70) = (  0.2603703  0.9994579  0.4285677  )
        71           Si  tau(  71) = (  0.3548814  0.9994068  0.5233934  )
        72           Mg  tau(  72) = (  0.2920045  0.4993939  0.4930416  )
        73           Si  tau(  73) = (  0.3550143  0.4993245  0.5803870  )
        74           Al  tau(  74) = (  0.2800201  0.9992234  0.5735669  )
        75           Al  tau(  75) = (  0.3548596  0.9992461  0.6453336  )
        76           Al  tau(  76) = (  0.2832271  0.4991622  0.6425678  )
        77           Al  tau(  77) = (  0.3550187  0.4991519  0.7143902  )
        78           Al  tau(  78) = (  0.2829251  0.9991299  0.7136836  )
        79           Al  tau(  79) = (  0.3550778  0.9991387  0.7841163  )
        80           Al  tau(  80) = (  0.2831608  0.4990744  0.7836622  )
        81           Al  tau(  81) = (  0.3550161  0.4991196  0.8538702  )
        82           Al  tau(  82) = (  0.2831764  0.9991150  0.8540998  )
        83           Al  tau(  83) = (  0.3557741  0.9991655  0.9244785  )
        84           Al  tau(  84) = (  0.2830109  0.4991374  0.9237285  )
        85           Al  tau(  85) = (  0.5027929  0.4991583  0.9941014  )
        86           Si  tau(  86) = (  0.4275507  0.9992234  0.9873510  )
        87           Mg  tau(  87) = (  0.4911065  0.9993502  0.0747093  )
        88           Si  tau(  88) = (  0.4281110  0.4993564  0.0443668  )
        89           Si  tau(  89) = (  0.5230636  0.4994402  0.1391416  )
        90           Mg  tau(  90) = (  0.4301459  0.4995340  0.1406860  )
        91           Mg  tau(  91) = (  0.4904465  0.9995616  0.2020259  )
        92           Si  tau(  92) = (  0.4304813  0.4996551  0.2413817  )
        93           Mg  tau(  93) = (  0.5137080  0.4995786  0.2959367  )
        94           Si  tau(  94) = (  0.4324364  0.9996620  0.2928435  )
        95           Si  tau(  95) = (  0.4848051  0.9995873  0.3581201  )
        96           Mg  tau(  96) = (  0.4132608  0.4996146  0.3695928  )
        97           Mg  tau(  97) = (  0.5167681  0.4995116  0.4197322  )
        98           Si  tau(  98) = (  0.4465611  0.9995209  0.4327488  )
        99           Al  tau(  99) = (  0.5005270  0.9993911  0.5046840  )
       100           Mg  tau( 100) = (  0.4184108  0.4994608  0.4931550  )
       101           Al  tau( 101) = (  0.4981797  0.4993049  0.5716654  )
       102           Al  tau( 102) = (  0.4295150  0.9993057  0.5745742  )
       103           Al  tau( 103) = (  0.4996193  0.9992265  0.6441239  )
       104           Al  tau( 104) = (  0.4266961  0.4992205  0.6433061  )
       105           Al  tau( 105) = (  0.4992307  0.4991331  0.7136877  )
       106           Al  tau( 106) = (  0.4273340  0.9991723  0.7138591  )
       107           Al  tau( 107) = (  0.4991642  0.9991209  0.7840240  )
       108           Al  tau( 108) = (  0.4271482  0.4991166  0.7835233  )
       109           Al  tau( 109) = (  0.4994191  0.4990941  0.8540072  )
       110           Al  tau( 110) = (  0.4272773  0.9991455  0.8533143  )
       111           Al  tau( 111) = (  0.4992411  0.9991338  0.9251361  )
       112           Al  tau( 112) = (  0.4276159  0.4991687  0.9223813  )
       113           Al  tau( 113) = (  0.6440272  0.4990838  0.9948437  )
       114           Al  tau( 114) = (  0.5710627  0.9991634  0.9963539  )
       115           Al  tau( 115) = (  0.6456053  0.9991673  0.0654905  )
       116           Al  tau( 116) = (  0.5747173  0.4992203  0.0641465  )
       117           Al  tau( 117) = (  0.6491345  0.4992556  0.1386489  )
       118           Al  tau( 118) = (  0.5812243  0.9994030  0.1358552  )
       119           Al  tau( 119) = (  0.6487742  0.9992898  0.2094893  )
       120           Si  tau( 120) = (  0.5790567  0.4994749  0.2043524  )
       121           Mg  tau( 121) = (  0.6367065  0.4993619  0.2913206  )
       122           Si  tau( 122) = (  0.5710022  0.9995173  0.2573165  )
       123           Si  tau( 123) = (  0.6679187  0.9993009  0.3560546  )
       124           Mg  tau( 124) = (  0.5764566  0.9995045  0.3551323  )
       125           Mg  tau( 125) = (  0.6373311  0.4993447  0.4212010  )
       126           Si  tau( 126) = (  0.5756817  0.9994348  0.4526899  )
       127           Al  tau( 127) = (  0.6482329  0.9992017  0.5027594  )
       128           Si  tau( 128) = (  0.5703452  0.4993777  0.5097299  )
       129           Al  tau( 129) = (  0.6431417  0.4991725  0.5717243  )
       130           Al  tau( 130) = (  0.5720893  0.9992855  0.5750947  )
       131           Al  tau( 131) = (  0.6432839  0.9991325  0.6431467  )
       132           Al  tau( 132) = (  0.5711077  0.4991904  0.6438357  )
       133           Al  tau( 133) = (  0.6424490  0.4990590  0.7132800  )
       134           Al  tau( 134) = (  0.5711493  0.9991383  0.7139688  )
       135           Al  tau( 135) = (  0.6423917  0.9990602  0.7838122  )
       136           Al  tau( 136) = (  0.5709471  0.4990700  0.7838839  )
       137           Al  tau( 137) = (  0.6426469  0.4990254  0.8540756  )
       138           Al  tau( 138) = (  0.5710173  0.9990833  0.8542183  )
       139           Al  tau( 139) = (  0.6427817  0.9990570  0.9246228  )
       140           Al  tau( 140) = (  0.5718712  0.4990791  0.9239838  )
       141           Al  tau( 141) = (  0.7855610  0.4990083  0.9956016  )
       142           Al  tau( 142) = (  0.7149936  0.9990623  0.9950427  )
       143           Al  tau( 143) = (  0.7860440  0.9990826  0.0668185  )
       144           Al  tau( 144) = (  0.7161602  0.4990979  0.0661937  )
       145           Al  tau( 145) = (  0.7864686  0.4991106  0.1387329  )
       146           Al  tau( 146) = (  0.7175154  0.9991873  0.1379829  )
       147           Al  tau( 147) = (  0.7868412  0.9991635  0.2102848  )
       148           Al  tau( 148) = (  0.7161693  0.4992223  0.2124187  )
       149           Al  tau( 149) = (  0.7877893  0.4991638  0.2831696  )
       150           Al  tau( 150) = (  0.7188153  0.9992366  0.2813038  )
       151           Al  tau( 151) = (  0.7912728  0.9991989  0.3560952  )
       152           Al  tau( 152) = (  0.7244550  0.4992183  0.3560797  )
       153           Al  tau( 153) = (  0.7879009  0.4991404  0.4288983  )
       154           Al  tau( 154) = (  0.7189033  0.9992016  0.4308423  )
       155           Al  tau( 155) = (  0.7871438  0.9991053  0.5011523  )
       156           Al  tau( 156) = (  0.7150469  0.4991503  0.4994350  )
       157           Al  tau( 157) = (  0.7857554  0.4990553  0.5717552  )
       158           Al  tau( 158) = (  0.7156291  0.9991166  0.5727885  )
       159           Al  tau( 159) = (  0.7854704  0.9990397  0.6427846  )
       160           Al  tau( 160) = (  0.7141768  0.4990498  0.6426097  )
       161           Al  tau( 161) = (  0.7849478  0.4989882  0.7133075  )
       162           Al  tau( 162) = (  0.7139167  0.9990387  0.7134067  )
       163           Al  tau( 163) = (  0.7848385  0.9989818  0.7838593  )
       164           Al  tau( 164) = (  0.7136748  0.4989919  0.7838031  )
       165           Al  tau( 165) = (  0.7848872  0.4989560  0.8542637  )
       166           Al  tau( 166) = (  0.7137650  0.9990143  0.8543193  )
       167           Al  tau( 167) = (  0.7851665  0.9989945  0.9248224  )
       168           Al  tau( 168) = (  0.7141653  0.4990013  0.9245841  )
       169           Al  tau( 169) = (  0.9264473  0.4989950  0.9959000  )
       170           Al  tau( 170) = (  0.8559954  0.9990157  0.9959955  )
       171           Al  tau( 171) = (  0.9260580  0.9990405  0.0670011  )
       172           Al  tau( 172) = (  0.8558462  0.4990250  0.0671787  )
       173           Al  tau( 173) = (  0.9253816  0.4990632  0.1385321  )
       174           Al  tau( 174) = (  0.8560795  0.9990967  0.1387139  )
       175           Al  tau( 175) = (  0.9247636  0.9991313  0.2110829  )
       176           Al  tau( 176) = (  0.8560214  0.4991072  0.2108930  )
       177           Al  tau( 177) = (  0.9261043  0.4991261  0.2842297  )
       178           Al  tau( 178) = (  0.8573216  0.9991486  0.2832465  )
       179           Al  tau( 179) = (  0.9273773  0.9991372  0.3565610  )
       180           Al  tau( 180) = (  0.8586452  0.4991306  0.3564098  )
       181           Al  tau( 181) = (  0.9272283  0.4990946  0.4287925  )
       182           Al  tau( 182) = (  0.8579525  0.9991224  0.4290168  )
       183           Al  tau( 183) = (  0.9273261  0.9990859  0.5003721  )
       184           Al  tau( 184) = (  0.8571227  0.4990611  0.5006280  )
       185           Al  tau( 185) = (  0.9270213  0.4990116  0.5716167  )
       186           Al  tau( 186) = (  0.8566128  0.9990393  0.5717947  )
       187           Al  tau( 187) = (  0.9268612  0.9989993  0.6425842  )
       188           Al  tau( 188) = (  0.8559992  0.4989894  0.6424786  )
       189           Al  tau( 189) = (  0.9268299  0.4989578  0.7133589  )
       190           Al  tau( 190) = (  0.8559513  0.9989929  0.7133265  )
       191           Al  tau( 191) = (  0.9268919  0.9989582  0.7839515  )
       192           Al  tau( 192) = (  0.8558900  0.4989458  0.7837993  )
       193           Al  tau( 193) = (  0.9268717  0.4989415  0.8544385  )
       194           Al  tau( 194) = (  0.8559727  0.9989523  0.8543522  )
       195           Al  tau( 195) = (  0.9269268  0.9989823  0.9252485  )
       196           Al  tau( 196) = (  0.8560404  0.4989579  0.9250600  )

     number of k points=    91  Methfessel-Paxton smearing, width (Ry)=  0.0441
                       cart. coord. in units 2pi/alat
        k(    1) = (   0.0000000   0.0000000   0.0000000), wk =   0.0111111
        k(    2) = (   0.0000000   0.0000000   0.3333333), wk =   0.0222222
        k(    3) = (   0.0000000   0.3500000   0.0000000), wk =   0.0222222
        k(    4) = (   0.0000000   0.3500000   0.3333333), wk =   0.0222222
        k(    5) = (   0.0000000   0.3500000  -0.3333333), wk =   0.0222222
        k(    6) = (   0.0000000   0.7000000   0.0000000), wk =   0.0222222
        k(    7) = (   0.0000000   0.7000000   0.3333333), wk =   0.0222222
        k(    8) = (   0.0000000   0.7000000  -0.3333333), wk =   0.0222222
        k(    9) = (   0.0000000   1.0500000   0.0000000), wk =   0.0222222
        k(   10) = (   0.0000000   1.0500000   0.3333333), wk =   0.0222222
        k(   11) = (   0.0000000   1.0500000  -0.3333333), wk =   0.0222222
        k(   12) = (   0.0000000   1.4000001   0.0000000), wk =   0.0222222
        k(   13) = (   0.0000000   1.4000001   0.3333333), wk =   0.0222222
        k(   14) = (   0.0000000   1.4000001  -0.3333333), wk =   0.0222222
        k(   15) = (   0.0000000   1.7500001   0.0000000), wk =   0.0222222
        k(   16) = (   0.0000000   1.7500001   0.3333333), wk =   0.0222222
        k(   17) = (   0.0000000   1.7500001  -0.3333333), wk =   0.0222222
        k(   18) = (   0.0000000   2.1000001   0.0000000), wk =   0.0222222
        k(   19) = (   0.0000000   2.1000001   0.3333333), wk =   0.0222222
        k(   20) = (   0.0000000   2.1000001  -0.3333333), wk =   0.0222222
        k(   21) = (   0.0000000   2.4500001   0.0000000), wk =   0.0222222
        k(   22) = (   0.0000000   2.4500001   0.3333333), wk =   0.0222222
        k(   23) = (   0.0000000   2.4500001  -0.3333333), wk =   0.0222222
        k(   24) = (   0.0000000   2.8000001   0.0000000), wk =   0.0222222
        k(   25) = (   0.0000000   2.8000001   0.3333333), wk =   0.0222222
        k(   26) = (   0.0000000   2.8000001  -0.3333333), wk =   0.0222222
        k(   27) = (   0.0000000   3.1500001   0.0000000), wk =   0.0222222
        k(   28) = (   0.0000000   3.1500001   0.3333333), wk =   0.0222222
        k(   29) = (   0.0000000   3.1500001  -0.3333333), wk =   0.0222222
        k(   30) = (   0.0000000  -3.5000001   0.0000000), wk =   0.0111111
        k(   31) = (   0.0000000  -3.5000001   0.3333333), wk =   0.0222222
        k(   32) = (   0.3333333   0.0000000   0.0000000), wk =   0.0222222
        k(   33) = (   0.3333333   0.0000000   0.3333333), wk =   0.0222222
        k(   34) = (   0.3333333   0.0000000  -0.3333333), wk =   0.0222222
        k(   35) = (   0.3333333   0.3500000   0.0000000), wk =   0.0222222
        k(   36) = (   0.3333333   0.3500000   0.3333333), wk =   0.0222222
        k(   37) = (   0.3333333   0.3500000  -0.3333333), wk =   0.0222222
        k(   38) = (   0.3333333   0.7000000   0.0000000), wk =   0.0222222
        k(   39) = (   0.3333333   0.7000000   0.3333333), wk =   0.0222222
        k(   40) = (   0.3333333   0.7000000  -0.3333333), wk =   0.0222222
        k(   41) = (   0.3333333   1.0500000   0.0000000), wk =   0.0222222
        k(   42) = (   0.3333333   1.0500000   0.3333333), wk =   0.0222222
        k(   43) = (   0.3333333   1.0500000  -0.3333333), wk =   0.0222222
        k(   44) = (   0.3333333   1.4000001   0.0000000), wk =   0.0222222
        k(   45) = (   0.3333333   1.4000001   0.3333333), wk =   0.0222222
        k(   46) = (   0.3333333   1.4000001  -0.3333333), wk =   0.0222222
        k(   47) = (   0.3333333   1.7500001   0.0000000), wk =   0.0222222
        k(   48) = (   0.3333333   1.7500001   0.3333333), wk =   0.0222222
        k(   49) = (   0.3333333   1.7500001  -0.3333333), wk =   0.0222222
        k(   50) = (   0.3333333   2.1000001   0.0000000), wk =   0.0222222
        k(   51) = (   0.3333333   2.1000001   0.3333333), wk =   0.0222222
        k(   52) = (   0.3333333   2.1000001  -0.3333333), wk =   0.0222222
        k(   53) = (   0.3333333   2.4500001   0.0000000), wk =   0.0222222
        k(   54) = (   0.3333333   2.4500001   0.3333333), wk =   0.0222222
        k(   55) = (   0.3333333   2.4500001  -0.3333333), wk =   0.0222222
        k(   56) = (   0.3333333   2.8000001   0.0000000), wk =   0.0222222
        k(   57) = (   0.3333333   2.8000001   0.3333333), wk =   0.0222222
        k(   58) = (   0.3333333   2.8000001  -0.3333333), wk =   0.0222222
        k(   59) = (   0.3333333   3.1500001   0.0000000), wk =   0.0222222
        k(   60) = (   0.3333333   3.1500001   0.3333333), wk =   0.0222222
        k(   61) = (   0.3333333   3.1500001  -0.3333333), wk =   0.0222222
        k(   62) = (   0.3333333  -3.5000001   0.0000000), wk =   0.0222222
        k(   63) = (   0.3333333  -3.5000001   0.3333333), wk =   0.0222222
        k(   64) = (   0.3333333  -3.5000001  -0.3333333), wk =   0.0222222
        k(   65) = (   0.3333333  -3.1500001   0.0000000), wk =   0.0222222
        k(   66) = (   0.3333333  -3.1500001   0.3333333), wk =   0.0222222
        k(   67) = (   0.3333333  -3.1500001  -0.3333333), wk =   0.0222222
        k(   68) = (   0.3333333  -2.8000001   0.0000000), wk =   0.0222222
        k(   69) = (   0.3333333  -2.8000001   0.3333333), wk =   0.0222222
        k(   70) = (   0.3333333  -2.8000001  -0.3333333), wk =   0.0222222
        k(   71) = (   0.3333333  -2.4500001   0.0000000), wk =   0.0222222
        k(   72) = (   0.3333333  -2.4500001   0.3333333), wk =   0.0222222
        k(   73) = (   0.3333333  -2.4500001  -0.3333333), wk =   0.0222222
        k(   74) = (   0.3333333  -2.1000001   0.0000000), wk =   0.0222222
        k(   75) = (   0.3333333  -2.1000001   0.3333333), wk =   0.0222222
        k(   76) = (   0.3333333  -2.1000001  -0.3333333), wk =   0.0222222
        k(   77) = (   0.3333333  -1.7500001   0.0000000), wk =   0.0222222
        k(   78) = (   0.3333333  -1.7500001   0.3333333), wk =   0.0222222
        k(   79) = (   0.3333333  -1.7500001  -0.3333333), wk =   0.0222222
        k(   80) = (   0.3333333  -1.4000001   0.0000000), wk =   0.0222222
        k(   81) = (   0.3333333  -1.4000001   0.3333333), wk =   0.0222222
        k(   82) = (   0.3333333  -1.4000001  -0.3333333), wk =   0.0222222
        k(   83) = (   0.3333333  -1.0500000   0.0000000), wk =   0.0222222
        k(   84) = (   0.3333333  -1.0500000   0.3333333), wk =   0.0222222
        k(   85) = (   0.3333333  -1.0500000  -0.3333333), wk =   0.0222222
        k(   86) = (   0.3333333  -0.7000000   0.0000000), wk =   0.0222222
        k(   87) = (   0.3333333  -0.7000000   0.3333333), wk =   0.0222222
        k(   88) = (   0.3333333  -0.7000000  -0.3333333), wk =   0.0222222
        k(   89) = (   0.3333333  -0.3500000   0.0000000), wk =   0.0222222
        k(   90) = (   0.3333333  -0.3500000   0.3333333), wk =   0.0222222
        k(   91) = (   0.3333333  -0.3500000  -0.3333333), wk =   0.0222222

                       cryst. coord.
        k(    1) = (   0.0000000   0.0000000   0.0000000), wk =   0.0111111
        k(    2) = (   0.0000000   0.0000000   0.3333333), wk =   0.0222222
        k(    3) = (   0.0000000   0.0500000   0.0000000), wk =   0.0222222
        k(    4) = (   0.0000000   0.0500000   0.3333333), wk =   0.0222222
        k(    5) = (   0.0000000   0.0500000  -0.3333333), wk =   0.0222222
        k(    6) = (   0.0000000   0.1000000   0.0000000), wk =   0.0222222
        k(    7) = (   0.0000000   0.1000000   0.3333333), wk =   0.0222222
        k(    8) = (   0.0000000   0.1000000  -0.3333333), wk =   0.0222222
        k(    9) = (   0.0000000   0.1500000   0.0000000), wk =   0.0222222
        k(   10) = (   0.0000000   0.1500000   0.3333333), wk =   0.0222222
        k(   11) = (   0.0000000   0.1500000  -0.3333333), wk =   0.0222222
        k(   12) = (   0.0000000   0.2000000   0.0000000), wk =   0.0222222
        k(   13) = (   0.0000000   0.2000000   0.3333333), wk =   0.0222222
        k(   14) = (   0.0000000   0.2000000  -0.3333333), wk =   0.0222222
        k(   15) = (   0.0000000   0.2500000   0.0000000), wk =   0.0222222
        k(   16) = (   0.0000000   0.2500000   0.3333333), wk =   0.0222222
        k(   17) = (   0.0000000   0.2500000  -0.3333333), wk =   0.0222222
        k(   18) = (   0.0000000   0.3000000   0.0000000), wk =   0.0222222
        k(   19) = (   0.0000000   0.3000000   0.3333333), wk =   0.0222222
        k(   20) = (   0.0000000   0.3000000  -0.3333333), wk =   0.0222222
        k(   21) = (   0.0000000   0.3500000   0.0000000), wk =   0.0222222
        k(   22) = (   0.0000000   0.3500000   0.3333333), wk =   0.0222222
        k(   23) = (   0.0000000   0.3500000  -0.3333333), wk =   0.0222222
        k(   24) = (   0.0000000   0.4000000   0.0000000), wk =   0.0222222
        k(   25) = (   0.0000000   0.4000000   0.3333333), wk =   0.0222222
        k(   26) = (   0.0000000   0.4000000  -0.3333333), wk =   0.0222222
        k(   27) = (   0.0000000   0.4500000   0.0000000), wk =   0.0222222
        k(   28) = (   0.0000000   0.4500000   0.3333333), wk =   0.0222222
        k(   29) = (   0.0000000   0.4500000  -0.3333333), wk =   0.0222222
        k(   30) = (   0.0000000  -0.5000000   0.0000000), wk =   0.0111111
        k(   31) = (   0.0000000  -0.5000000   0.3333333), wk =   0.0222222
        k(   32) = (   0.3333333   0.0000000   0.0000000), wk =   0.0222222
        k(   33) = (   0.3333333   0.0000000   0.3333333), wk =   0.0222222
        k(   34) = (   0.3333333   0.0000000  -0.3333333), wk =   0.0222222
        k(   35) = (   0.3333333   0.0500000   0.0000000), wk =   0.0222222
        k(   36) = (   0.3333333   0.0500000   0.3333333), wk =   0.0222222
        k(   37) = (   0.3333333   0.0500000  -0.3333333), wk =   0.0222222
        k(   38) = (   0.3333333   0.1000000   0.0000000), wk =   0.0222222
        k(   39) = (   0.3333333   0.1000000   0.3333333), wk =   0.0222222
        k(   40) = (   0.3333333   0.1000000  -0.3333333), wk =   0.0222222
        k(   41) = (   0.3333333   0.1500000   0.0000000), wk =   0.0222222
        k(   42) = (   0.3333333   0.1500000   0.3333333), wk =   0.0222222
        k(   43) = (   0.3333333   0.1500000  -0.3333333), wk =   0.0222222
        k(   44) = (   0.3333333   0.2000000   0.0000000), wk =   0.0222222
        k(   45) = (   0.3333333   0.2000000   0.3333333), wk =   0.0222222
        k(   46) = (   0.3333333   0.2000000  -0.3333333), wk =   0.0222222
        k(   47) = (   0.3333333   0.2500000   0.0000000), wk =   0.0222222
        k(   48) = (   0.3333333   0.2500000   0.3333333), wk =   0.0222222
        k(   49) = (   0.3333333   0.2500000  -0.3333333), wk =   0.0222222
        k(   50) = (   0.3333333   0.3000000   0.0000000), wk =   0.0222222
        k(   51) = (   0.3333333   0.3000000   0.3333333), wk =   0.0222222
        k(   52) = (   0.3333333   0.3000000  -0.3333333), wk =   0.0222222
        k(   53) = (   0.3333333   0.3500000   0.0000000), wk =   0.0222222
        k(   54) = (   0.3333333   0.3500000   0.3333333), wk =   0.0222222
        k(   55) = (   0.3333333   0.3500000  -0.3333333), wk =   0.0222222
        k(   56) = (   0.3333333   0.4000000   0.0000000), wk =   0.0222222
        k(   57) = (   0.3333333   0.4000000   0.3333333), wk =   0.0222222
        k(   58) = (   0.3333333   0.4000000  -0.3333333), wk =   0.0222222
        k(   59) = (   0.3333333   0.4500000   0.0000000), wk =   0.0222222
        k(   60) = (   0.3333333   0.4500000   0.3333333), wk =   0.0222222
        k(   61) = (   0.3333333   0.4500000  -0.3333333), wk =   0.0222222
        k(   62) = (   0.3333333  -0.5000000   0.0000000), wk =   0.0222222
        k(   63) = (   0.3333333  -0.5000000   0.3333333), wk =   0.0222222
        k(   64) = (   0.3333333  -0.5000000  -0.3333333), wk =   0.0222222
        k(   65) = (   0.3333333  -0.4500000   0.0000000), wk =   0.0222222
        k(   66) = (   0.3333333  -0.4500000   0.3333333), wk =   0.0222222
        k(   67) = (   0.3333333  -0.4500000  -0.3333333), wk =   0.0222222
        k(   68) = (   0.3333333  -0.4000000   0.0000000), wk =   0.0222222
        k(   69) = (   0.3333333  -0.4000000   0.3333333), wk =   0.0222222
        k(   70) = (   0.3333333  -0.4000000  -0.3333333), wk =   0.0222222
        k(   71) = (   0.3333333  -0.3500000   0.0000000), wk =   0.0222222
        k(   72) = (   0.3333333  -0.3500000   0.3333333), wk =   0.0222222
        k(   73) = (   0.3333333  -0.3500000  -0.3333333), wk =   0.0222222
        k(   74) = (   0.3333333  -0.3000000   0.0000000), wk =   0.0222222
        k(   75) = (   0.3333333  -0.3000000   0.3333333), wk =   0.0222222
        k(   76) = (   0.3333333  -0.3000000  -0.3333333), wk =   0.0222222
        k(   77) = (   0.3333333  -0.2500000   0.0000000), wk =   0.0222222
        k(   78) = (   0.3333333  -0.2500000   0.3333333), wk =   0.0222222
        k(   79) = (   0.3333333  -0.2500000  -0.3333333), wk =   0.0222222
        k(   80) = (   0.3333333  -0.2000000   0.0000000), wk =   0.0222222
        k(   81) = (   0.3333333  -0.2000000   0.3333333), wk =   0.0222222
        k(   82) = (   0.3333333  -0.2000000  -0.3333333), wk =   0.0222222
        k(   83) = (   0.3333333  -0.1500000   0.0000000), wk =   0.0222222
        k(   84) = (   0.3333333  -0.1500000   0.3333333), wk =   0.0222222
        k(   85) = (   0.3333333  -0.1500000  -0.3333333), wk =   0.0222222
        k(   86) = (   0.3333333  -0.1000000   0.0000000), wk =   0.0222222
        k(   87) = (   0.3333333  -0.1000000   0.3333333), wk =   0.0222222
        k(   88) = (   0.3333333  -0.1000000  -0.3333333), wk =   0.0222222
        k(   89) = (   0.3333333  -0.0500000   0.0000000), wk =   0.0222222
        k(   90) = (   0.3333333  -0.0500000   0.3333333), wk =   0.0222222
        k(   91) = (   0.3333333  -0.0500000  -0.3333333), wk =   0.0222222

     Dense  grid:  2983521 G-vectors     FFT dimensions: ( 360,  50, 360)

     Smooth grid:   754991 G-vectors     FFT dimensions: ( 225,  32, 225)

     Dynamical RAM for                 wfc:      56.77 MB

     Dynamical RAM for     wfc (w. buffer):    1362.58 MB

     Dynamical RAM for           str. fact:      15.17 MB

     Dynamical RAM for           local pot:       0.00 MB

     Dynamical RAM for          nlocal pot:     532.24 MB

     Dynamical RAM for                qrad:      41.06 MB

     Dynamical RAM for          rho,v,vnew:      31.65 MB

     Dynamical RAM for               rhoin:      10.55 MB

     Dynamical RAM for            rho*nmix:      80.93 MB

     Dynamical RAM for           G-vectors:      19.61 MB

     Dynamical RAM for          h,s,v(r/c):      23.08 MB

     Dynamical RAM for          <psi|beta>:      18.03 MB

     Dynamical RAM for                 psi:     227.10 MB

     Dynamical RAM for                hpsi:     227.10 MB

     Dynamical RAM for                spsi:     227.10 MB

     Dynamical RAM for      wfcinit/wfcrot:     264.84 MB

     Dynamical RAM for           addusdens:     431.22 MB

     Dynamical RAM for          addusforce:     979.55 MB

     Dynamical RAM for         addusstress:     256.08 MB

     Estimated static dynamical RAM per process >       2.09 GB

     Estimated max dynamical RAM per process >       3.05 GB

     Estimated total dynamical RAM >     109.72 GB

     Initial potential from superposition of free atoms

     starting charge  591.61999, renormalised to  592.00000
     Starting wfcs are  784 randomized atomic wfcs
