
     Program PWSCF v.6.3 starts on 22Feb2020 at 14:12:37 

     This program is part of the open-source Quantum ESPRESSO suite
     for quantum simulation of materials; please cite
         "P. Giannozzi et al., J. Phys.:Condens. Matter 21 395502 (2009);
         "P. Giannozzi et al., J. Phys.:Condens. Matter 29 465901 (2017);
          URL http://www.quantum-espresso.org", 
     in publications or presentations arising from this work. More details at
     http://www.quantum-espresso.org/quote

 *** WARNING: using old-style file format, will disappear from next version ***

     Parallel version (MPI & OpenMP), running on      36 processor cores
     Number of MPI processes:                36
     Threads/MPI process:                     1

     MPI processes distributed on     1 nodes
     K-points division:     npool     =       4
     R & G space division:  proc/nbgrp/npool/nimage =       9
     Reading input from aiida.in
Warning: card &IONS ignored
Warning: card   !PRESS_CONV_THR = 0.05                 ! JUST FOR VOLUME RELAXATIONS ignored
Warning: card / ignored

     Current dimensions of program PWSCF are:
     Max number of different atomic species (ntypx) = 10
     Max number of k-points (npk) =  40000
     Max angular momentum in pseudopotentials (lmaxx) =  3
               file Mg.pbe-n-kjpaw_psl.0.3.0.UPF: wavefunction(s)  3S renormalized

     Subspace diagonalization in iterative solution of the eigenvalue problem:
     one sub-group per band group will be used
     scalapack distributed-memory algorithm (size of sub-group:  2*  2 procs)

 
     Parallelization info
     --------------------
     sticks:   dense  smooth     PW     G-vecs:    dense   smooth      PW
     Min         781     312     91                40855    10343    1616
     Max         782     313     91                40858    10346    1617
     Sum        7035    2813    819               367703    93099   14549
 


     bravais-lattice index     =            0
     lattice parameter (alat)  =      28.6518  a.u.
     unit-cell volume          =    2720.3610 (a.u.)^3
     number of atoms/cell      =           22
     number of atomic types    =            2
     number of electrons       =        68.00
     number of Kohn-Sham states=           41
     kinetic-energy cutoff     =      40.0000  Ry
     charge density cutoff     =     400.0000  Ry
     convergence threshold     =      1.0E-12
     mixing beta               =       0.4000
     number of iterations used =            8  local-TF  mixing
     Exchange-correlation      = PBE ( 1  4  3  4 0 0)

     celldm(1)=  28.651769  celldm(2)=   0.000000  celldm(3)=   0.000000
     celldm(4)=   0.000000  celldm(5)=   0.000000  celldm(6)=   0.000000

     crystal axes: (cart. coord. in units of alat)
               a(1) = (   0.940513   0.000000  -0.339757 )  
               a(2) = (   0.000000   0.269138   0.000000 )  
               a(3) = (   0.000000   0.000000   0.456912 )  

     reciprocal axes: (cart. coord. in units 2 pi/alat)
               b(1) = (  1.063249  0.000000  0.000000 )  
               b(2) = (  0.000000  3.715569  0.000000 )  
               b(3) = (  0.790625  0.000000  2.188605 )  


     PseudoPot. # 1 for Mg read from file:
     /users/aglensk/Dropbox/Albert/scripts/dotfiles/scripts/potentials/quantum_espresso/pseudo_SSSPefV1.1_alalloy/Mg.pbe-n-kjpaw_psl.0.3.0.UPF
     MD5 check sum: 24ecedc7f3e3cbe212e682f4413594e4
     Pseudo is Projector augmented-wave + core cor, Zval =  2.0
     Generated using "atomic" code by A. Dal Corso v.5.0.99 svn rev. 10869
     Shape of augmentation charge: PSQ
     Using radial grid of 1129 points,  4 beta functions with: 
                l(1) =   0
                l(2) =   0
                l(3) =   1
                l(4) =   1
     Q(r) pseudized with 0 coefficients 


     PseudoPot. # 2 for Si read from file:
     /users/aglensk/Dropbox/Albert/scripts/dotfiles/scripts/potentials/quantum_espresso/pseudo_SSSPefV1.1_alalloy/Si.pbe-n-rrkjus_psl.1.0.0.UPF
     MD5 check sum: 0b0bb1205258b0d07b9f9672cf965d36
     Pseudo is Ultrasoft + core correction, Zval =  4.0
     Generated using "atomic" code by A. Dal Corso v.5.1
     Using radial grid of 1141 points,  6 beta functions with: 
                l(1) =   0
                l(2) =   0
                l(3) =   1
                l(4) =   1
                l(5) =   2
                l(6) =   2
     Q(r) pseudized with 0 coefficients 


     atomic species   valence    mass     pseudopotential
        Mg             2.00    24.30500     Mg( 1.00)
        Si             4.00    28.08500     Si( 1.00)

     No symmetry found


                                    s                        frac. trans.

      isym =  1     identity                                     

 cryst.   s( 1) = (     1          0          0      )
                  (     0          1          0      )
                  (     0          0          1      )

 cart.    s( 1) = (  1.0000000  0.0000000  0.0000000 )
                  (  0.0000000  1.0000000  0.0000000 )
                  (  0.0000000  0.0000000  1.0000000 )


   Cartesian axes

     site n.     atom                  positions (alat units)
         1           Mg  tau(   1) = (   0.0008543   0.0000000   0.4512218  )
         2           Mg  tau(   2) = (   0.0742033   0.1345689   0.1383023  )
         3           Mg  tau(   3) = (   0.1480683   0.1345689   0.3676285  )
         4           Mg  tau(   4) = (   0.3239018   0.0000000  -0.0920148  )
         5           Mg  tau(   5) = (   0.3977636   0.0000000   0.1373156  )
         6           Si  tau(   6) = (   0.0551562   0.0000000   0.2804823  )
         7           Si  tau(   7) = (   0.1819523   0.0000000   0.0467444  )
         8           Si  tau(   8) = (   0.1975419   0.0000000   0.2120314  )
         9           Si  tau(   9) = (   0.2744214   0.1345689   0.0635838  )
        10           Si  tau(  10) = (   0.2900117   0.1345689   0.2288706  )
        11           Si  tau(  11) = (   0.4168067   0.1345689  -0.0048667  )
        12           Mg  tau(  12) = (   0.4711159   0.1345689   0.2813068  )
        13           Mg  tau(  13) = (   0.5444392   0.0000000  -0.0316197  )
        14           Mg  tau(  14) = (   0.6183166   0.0000000   0.1977215  )
        15           Mg  tau(  15) = (   0.7941669   0.1345689  -0.2618644  )
        16           Mg  tau(  16) = (   0.8680412   0.1345689  -0.0325190  )
        17           Si  tau(  17) = (   0.5253970   0.1345689   0.1105694  )
        18           Si  tau(  18) = (   0.6522146   0.1345689  -0.1231445  )
        19           Si  tau(  19) = (   0.6677917   0.1345689   0.0421420  )
        20           Si  tau(  20) = (   0.7446849   0.0000000  -0.1062832  )
        21           Si  tau(  21) = (   0.7602628   0.0000000   0.0590030  )
        22           Si  tau(  22) = (   0.8870792   0.0000000  -0.1747105  )

   Crystallographic axes

     site n.     atom                  positions (cryst. coord.)
         1           Mg  tau(   1) = (  0.0009084  0.0000000  0.9882217  )
         2           Mg  tau(   2) = (  0.0788966  0.4999999  0.3613562  )
         3           Mg  tau(   3) = (  0.1574335  0.4999999  0.9216601  )
         4           Mg  tau(   4) = (  0.3443883  0.0000000  0.0547007  )
         5           Mg  tau(   5) = (  0.4229218  0.0000000  0.6150115  )
         6           Si  tau(   6) = (  0.0586448  0.0000000  0.6574727  )
         7           Si  tau(   7) = (  0.1934606  0.0000000  0.2461610  )
         8           Si  tau(   8) = (  0.2100363  0.0000000  0.6202346  )
         9           Si  tau(   9) = (  0.2917783  0.4999999  0.3561242  )
        10           Si  tau(  10) = (  0.3083547  0.4999999  0.7301979  )
        11           Si  tau(  11) = (  0.4431693  0.4999999  0.3188864  )
        12           Mg  tau(  12) = (  0.5009136  0.4999999  0.9881455  )
        13           Mg  tau(  13) = (  0.5788744  0.0000000  0.3612441  )
        14           Mg  tau(  14) = (  0.6574246  0.0000000  0.9215908  )
        15           Mg  tau(  15) = (  0.8443973  0.4999999  0.0547703  )
        16           Mg  tau(  16) = (  0.9229440  0.4999999  0.6151237  )
        17           Si  tau(  17) = (  0.5586279  0.4999999  0.6573847  )
        18           Si  tau(  18) = (  0.6934666  0.4999999  0.2461424  )
        19           Si  tau(  19) = (  0.7100289  0.4999999  0.6202048  )
        20           Si  tau(  20) = (  0.7917856  0.0000000  0.3561543  )
        21           Si  tau(  21) = (  0.8083487  0.0000000  0.7302168  )
        22           Si  tau(  22) = (  0.9431861  0.0000000  0.3189744  )

     number of k points=   782  Methfessel-Paxton smearing, width (Ry)=  0.0441
                       cart. coord. in units 2pi/alat
        k(    1) = (   0.0000000   0.0000000   0.0000000), wk =   0.0012821
        k(    2) = (   0.0608173   0.0000000   0.1683542), wk =   0.0025641
        k(    3) = (   0.1216346   0.0000000   0.3367085), wk =   0.0025641
        k(    4) = (   0.1824519   0.0000000   0.5050627), wk =   0.0025641
        k(    5) = (   0.2432692   0.0000000   0.6734170), wk =   0.0025641
        k(    6) = (   0.3040865   0.0000000   0.8417712), wk =   0.0025641
        k(    7) = (   0.3649038   0.0000000   1.0101254), wk =   0.0025641
        k(    8) = (   0.0000000   0.1857785   0.0000000), wk =   0.0025641
        k(    9) = (   0.0608173   0.1857785   0.1683542), wk =   0.0025641
        k(   10) = (   0.1216346   0.1857785   0.3367085), wk =   0.0025641
        k(   11) = (   0.1824519   0.1857785   0.5050627), wk =   0.0025641
        k(   12) = (   0.2432692   0.1857785   0.6734170), wk =   0.0025641
        k(   13) = (   0.3040865   0.1857785   0.8417712), wk =   0.0025641
        k(   14) = (   0.3649038   0.1857785   1.0101254), wk =   0.0025641
        k(   15) = (  -0.3649038   0.1857785  -1.0101254), wk =   0.0025641
        k(   16) = (  -0.3040865   0.1857785  -0.8417712), wk =   0.0025641
        k(   17) = (  -0.2432692   0.1857785  -0.6734170), wk =   0.0025641
        k(   18) = (  -0.1824519   0.1857785  -0.5050627), wk =   0.0025641
        k(   19) = (  -0.1216346   0.1857785  -0.3367085), wk =   0.0025641
        k(   20) = (  -0.0608173   0.1857785  -0.1683542), wk =   0.0025641
        k(   21) = (   0.0000000   0.3715569   0.0000000), wk =   0.0025641
        k(   22) = (   0.0608173   0.3715569   0.1683542), wk =   0.0025641
        k(   23) = (   0.1216346   0.3715569   0.3367085), wk =   0.0025641
        k(   24) = (   0.1824519   0.3715569   0.5050627), wk =   0.0025641
        k(   25) = (   0.2432692   0.3715569   0.6734170), wk =   0.0025641
        k(   26) = (   0.3040865   0.3715569   0.8417712), wk =   0.0025641
        k(   27) = (   0.3649038   0.3715569   1.0101254), wk =   0.0025641
        k(   28) = (  -0.3649038   0.3715569  -1.0101254), wk =   0.0025641
        k(   29) = (  -0.3040865   0.3715569  -0.8417712), wk =   0.0025641
        k(   30) = (  -0.2432692   0.3715569  -0.6734170), wk =   0.0025641
        k(   31) = (  -0.1824519   0.3715569  -0.5050627), wk =   0.0025641
        k(   32) = (  -0.1216346   0.3715569  -0.3367085), wk =   0.0025641
        k(   33) = (  -0.0608173   0.3715569  -0.1683542), wk =   0.0025641
        k(   34) = (   0.0000000   0.5573354   0.0000000), wk =   0.0025641
        k(   35) = (   0.0608173   0.5573354   0.1683542), wk =   0.0025641
        k(   36) = (   0.1216346   0.5573354   0.3367085), wk =   0.0025641
        k(   37) = (   0.1824519   0.5573354   0.5050627), wk =   0.0025641
        k(   38) = (   0.2432692   0.5573354   0.6734170), wk =   0.0025641
        k(   39) = (   0.3040865   0.5573354   0.8417712), wk =   0.0025641
        k(   40) = (   0.3649038   0.5573354   1.0101254), wk =   0.0025641
        k(   41) = (  -0.3649038   0.5573354  -1.0101254), wk =   0.0025641
        k(   42) = (  -0.3040865   0.5573354  -0.8417712), wk =   0.0025641
        k(   43) = (  -0.2432692   0.5573354  -0.6734170), wk =   0.0025641
        k(   44) = (  -0.1824519   0.5573354  -0.5050627), wk =   0.0025641
        k(   45) = (  -0.1216346   0.5573354  -0.3367085), wk =   0.0025641
        k(   46) = (  -0.0608173   0.5573354  -0.1683542), wk =   0.0025641
        k(   47) = (   0.0000000   0.7431139   0.0000000), wk =   0.0025641
        k(   48) = (   0.0608173   0.7431139   0.1683542), wk =   0.0025641
        k(   49) = (   0.1216346   0.7431139   0.3367085), wk =   0.0025641
        k(   50) = (   0.1824519   0.7431139   0.5050627), wk =   0.0025641
        k(   51) = (   0.2432692   0.7431139   0.6734170), wk =   0.0025641
        k(   52) = (   0.3040865   0.7431139   0.8417712), wk =   0.0025641
        k(   53) = (   0.3649038   0.7431139   1.0101254), wk =   0.0025641
        k(   54) = (  -0.3649038   0.7431139  -1.0101254), wk =   0.0025641
        k(   55) = (  -0.3040865   0.7431139  -0.8417712), wk =   0.0025641
        k(   56) = (  -0.2432692   0.7431139  -0.6734170), wk =   0.0025641
        k(   57) = (  -0.1824519   0.7431139  -0.5050627), wk =   0.0025641
        k(   58) = (  -0.1216346   0.7431139  -0.3367085), wk =   0.0025641
        k(   59) = (  -0.0608173   0.7431139  -0.1683542), wk =   0.0025641
        k(   60) = (   0.0000000   0.9288923   0.0000000), wk =   0.0025641
        k(   61) = (   0.0608173   0.9288923   0.1683542), wk =   0.0025641
        k(   62) = (   0.1216346   0.9288923   0.3367085), wk =   0.0025641
        k(   63) = (   0.1824519   0.9288923   0.5050627), wk =   0.0025641
        k(   64) = (   0.2432692   0.9288923   0.6734170), wk =   0.0025641
        k(   65) = (   0.3040865   0.9288923   0.8417712), wk =   0.0025641
        k(   66) = (   0.3649038   0.9288923   1.0101254), wk =   0.0025641
        k(   67) = (  -0.3649038   0.9288923  -1.0101254), wk =   0.0025641
        k(   68) = (  -0.3040865   0.9288923  -0.8417712), wk =   0.0025641
        k(   69) = (  -0.2432692   0.9288923  -0.6734170), wk =   0.0025641
        k(   70) = (  -0.1824519   0.9288923  -0.5050627), wk =   0.0025641
        k(   71) = (  -0.1216346   0.9288923  -0.3367085), wk =   0.0025641
        k(   72) = (  -0.0608173   0.9288923  -0.1683542), wk =   0.0025641
        k(   73) = (   0.0000000   1.1146708   0.0000000), wk =   0.0025641
        k(   74) = (   0.0608173   1.1146708   0.1683542), wk =   0.0025641
        k(   75) = (   0.1216346   1.1146708   0.3367085), wk =   0.0025641
        k(   76) = (   0.1824519   1.1146708   0.5050627), wk =   0.0025641
        k(   77) = (   0.2432692   1.1146708   0.6734170), wk =   0.0025641
        k(   78) = (   0.3040865   1.1146708   0.8417712), wk =   0.0025641
        k(   79) = (   0.3649038   1.1146708   1.0101254), wk =   0.0025641
        k(   80) = (  -0.3649038   1.1146708  -1.0101254), wk =   0.0025641
        k(   81) = (  -0.3040865   1.1146708  -0.8417712), wk =   0.0025641
        k(   82) = (  -0.2432692   1.1146708  -0.6734170), wk =   0.0025641
        k(   83) = (  -0.1824519   1.1146708  -0.5050627), wk =   0.0025641
        k(   84) = (  -0.1216346   1.1146708  -0.3367085), wk =   0.0025641
        k(   85) = (  -0.0608173   1.1146708  -0.1683542), wk =   0.0025641
        k(   86) = (   0.0000000   1.3004493   0.0000000), wk =   0.0025641
        k(   87) = (   0.0608173   1.3004493   0.1683542), wk =   0.0025641
        k(   88) = (   0.1216346   1.3004493   0.3367085), wk =   0.0025641
        k(   89) = (   0.1824519   1.3004493   0.5050627), wk =   0.0025641
        k(   90) = (   0.2432692   1.3004493   0.6734170), wk =   0.0025641
        k(   91) = (   0.3040865   1.3004493   0.8417712), wk =   0.0025641
        k(   92) = (   0.3649038   1.3004493   1.0101254), wk =   0.0025641
        k(   93) = (  -0.3649038   1.3004493  -1.0101254), wk =   0.0025641
        k(   94) = (  -0.3040865   1.3004493  -0.8417712), wk =   0.0025641
        k(   95) = (  -0.2432692   1.3004493  -0.6734170), wk =   0.0025641
        k(   96) = (  -0.1824519   1.3004493  -0.5050627), wk =   0.0025641
        k(   97) = (  -0.1216346   1.3004493  -0.3367085), wk =   0.0025641
        k(   98) = (  -0.0608173   1.3004493  -0.1683542), wk =   0.0025641
        k(   99) = (   0.0000000   1.4862277   0.0000000), wk =   0.0025641
        k(  100) = (   0.0608173   1.4862277   0.1683542), wk =   0.0025641
        k(  101) = (   0.1216346   1.4862277   0.3367085), wk =   0.0025641
        k(  102) = (   0.1824519   1.4862277   0.5050627), wk =   0.0025641
        k(  103) = (   0.2432692   1.4862277   0.6734170), wk =   0.0025641
        k(  104) = (   0.3040865   1.4862277   0.8417712), wk =   0.0025641
        k(  105) = (   0.3649038   1.4862277   1.0101254), wk =   0.0025641
        k(  106) = (  -0.3649038   1.4862277  -1.0101254), wk =   0.0025641
        k(  107) = (  -0.3040865   1.4862277  -0.8417712), wk =   0.0025641
        k(  108) = (  -0.2432692   1.4862277  -0.6734170), wk =   0.0025641
        k(  109) = (  -0.1824519   1.4862277  -0.5050627), wk =   0.0025641
        k(  110) = (  -0.1216346   1.4862277  -0.3367085), wk =   0.0025641
        k(  111) = (  -0.0608173   1.4862277  -0.1683542), wk =   0.0025641
        k(  112) = (   0.0000000   1.6720062   0.0000000), wk =   0.0025641
        k(  113) = (   0.0608173   1.6720062   0.1683542), wk =   0.0025641
        k(  114) = (   0.1216346   1.6720062   0.3367085), wk =   0.0025641
        k(  115) = (   0.1824519   1.6720062   0.5050627), wk =   0.0025641
        k(  116) = (   0.2432692   1.6720062   0.6734170), wk =   0.0025641
        k(  117) = (   0.3040865   1.6720062   0.8417712), wk =   0.0025641
        k(  118) = (   0.3649038   1.6720062   1.0101254), wk =   0.0025641
        k(  119) = (  -0.3649038   1.6720062  -1.0101254), wk =   0.0025641
        k(  120) = (  -0.3040865   1.6720062  -0.8417712), wk =   0.0025641
        k(  121) = (  -0.2432692   1.6720062  -0.6734170), wk =   0.0025641
        k(  122) = (  -0.1824519   1.6720062  -0.5050627), wk =   0.0025641
        k(  123) = (  -0.1216346   1.6720062  -0.3367085), wk =   0.0025641
        k(  124) = (  -0.0608173   1.6720062  -0.1683542), wk =   0.0025641
        k(  125) = (   0.0000000  -1.8577846   0.0000000), wk =   0.0012821
        k(  126) = (   0.0608173  -1.8577846   0.1683542), wk =   0.0025641
        k(  127) = (   0.1216346  -1.8577846   0.3367085), wk =   0.0025641
        k(  128) = (   0.1824519  -1.8577846   0.5050627), wk =   0.0025641
        k(  129) = (   0.2432692  -1.8577846   0.6734170), wk =   0.0025641
        k(  130) = (   0.3040865  -1.8577846   0.8417712), wk =   0.0025641
        k(  131) = (   0.3649038  -1.8577846   1.0101254), wk =   0.0025641
        k(  132) = (   0.1772082   0.0000000   0.0000000), wk =   0.0025641
        k(  133) = (   0.2380255   0.0000000   0.1683542), wk =   0.0025641
        k(  134) = (   0.2988428   0.0000000   0.3367085), wk =   0.0025641
        k(  135) = (   0.3596601   0.0000000   0.5050627), wk =   0.0025641
        k(  136) = (   0.4204774   0.0000000   0.6734170), wk =   0.0025641
        k(  137) = (   0.4812947   0.0000000   0.8417712), wk =   0.0025641
        k(  138) = (   0.5421119   0.0000000   1.0101254), wk =   0.0025641
        k(  139) = (  -0.1876956   0.0000000  -1.0101254), wk =   0.0025641
        k(  140) = (  -0.1268783   0.0000000  -0.8417712), wk =   0.0025641
        k(  141) = (  -0.0660610   0.0000000  -0.6734170), wk =   0.0025641
        k(  142) = (  -0.0052437   0.0000000  -0.5050627), wk =   0.0025641
        k(  143) = (   0.0555736   0.0000000  -0.3367085), wk =   0.0025641
        k(  144) = (   0.1163909   0.0000000  -0.1683542), wk =   0.0025641
        k(  145) = (   0.1772082   0.1857785   0.0000000), wk =   0.0025641
        k(  146) = (   0.2380255   0.1857785   0.1683542), wk =   0.0025641
        k(  147) = (   0.2988428   0.1857785   0.3367085), wk =   0.0025641
        k(  148) = (   0.3596601   0.1857785   0.5050627), wk =   0.0025641
        k(  149) = (   0.4204774   0.1857785   0.6734170), wk =   0.0025641
        k(  150) = (   0.4812947   0.1857785   0.8417712), wk =   0.0025641
        k(  151) = (   0.5421119   0.1857785   1.0101254), wk =   0.0025641
        k(  152) = (  -0.1876956   0.1857785  -1.0101254), wk =   0.0025641
        k(  153) = (  -0.1268783   0.1857785  -0.8417712), wk =   0.0025641
        k(  154) = (  -0.0660610   0.1857785  -0.6734170), wk =   0.0025641
        k(  155) = (  -0.0052437   0.1857785  -0.5050627), wk =   0.0025641
        k(  156) = (   0.0555736   0.1857785  -0.3367085), wk =   0.0025641
        k(  157) = (   0.1163909   0.1857785  -0.1683542), wk =   0.0025641
        k(  158) = (   0.1772082   0.3715569   0.0000000), wk =   0.0025641
        k(  159) = (   0.2380255   0.3715569   0.1683542), wk =   0.0025641
        k(  160) = (   0.2988428   0.3715569   0.3367085), wk =   0.0025641
        k(  161) = (   0.3596601   0.3715569   0.5050627), wk =   0.0025641
        k(  162) = (   0.4204774   0.3715569   0.6734170), wk =   0.0025641
        k(  163) = (   0.4812947   0.3715569   0.8417712), wk =   0.0025641
        k(  164) = (   0.5421119   0.3715569   1.0101254), wk =   0.0025641
        k(  165) = (  -0.1876956   0.3715569  -1.0101254), wk =   0.0025641
        k(  166) = (  -0.1268783   0.3715569  -0.8417712), wk =   0.0025641
        k(  167) = (  -0.0660610   0.3715569  -0.6734170), wk =   0.0025641
        k(  168) = (  -0.0052437   0.3715569  -0.5050627), wk =   0.0025641
        k(  169) = (   0.0555736   0.3715569  -0.3367085), wk =   0.0025641
        k(  170) = (   0.1163909   0.3715569  -0.1683542), wk =   0.0025641
        k(  171) = (   0.1772082   0.5573354   0.0000000), wk =   0.0025641
        k(  172) = (   0.2380255   0.5573354   0.1683542), wk =   0.0025641
        k(  173) = (   0.2988428   0.5573354   0.3367085), wk =   0.0025641
        k(  174) = (   0.3596601   0.5573354   0.5050627), wk =   0.0025641
        k(  175) = (   0.4204774   0.5573354   0.6734170), wk =   0.0025641
        k(  176) = (   0.4812947   0.5573354   0.8417712), wk =   0.0025641
        k(  177) = (   0.5421119   0.5573354   1.0101254), wk =   0.0025641
        k(  178) = (  -0.1876956   0.5573354  -1.0101254), wk =   0.0025641
        k(  179) = (  -0.1268783   0.5573354  -0.8417712), wk =   0.0025641
        k(  180) = (  -0.0660610   0.5573354  -0.6734170), wk =   0.0025641
        k(  181) = (  -0.0052437   0.5573354  -0.5050627), wk =   0.0025641
        k(  182) = (   0.0555736   0.5573354  -0.3367085), wk =   0.0025641
        k(  183) = (   0.1163909   0.5573354  -0.1683542), wk =   0.0025641
        k(  184) = (   0.1772082   0.7431139   0.0000000), wk =   0.0025641
        k(  185) = (   0.2380255   0.7431139   0.1683542), wk =   0.0025641
        k(  186) = (   0.2988428   0.7431139   0.3367085), wk =   0.0025641
        k(  187) = (   0.3596601   0.7431139   0.5050627), wk =   0.0025641
        k(  188) = (   0.4204774   0.7431139   0.6734170), wk =   0.0025641
        k(  189) = (   0.4812947   0.7431139   0.8417712), wk =   0.0025641
        k(  190) = (   0.5421119   0.7431139   1.0101254), wk =   0.0025641
        k(  191) = (  -0.1876956   0.7431139  -1.0101254), wk =   0.0025641
        k(  192) = (  -0.1268783   0.7431139  -0.8417712), wk =   0.0025641
        k(  193) = (  -0.0660610   0.7431139  -0.6734170), wk =   0.0025641
        k(  194) = (  -0.0052437   0.7431139  -0.5050627), wk =   0.0025641
        k(  195) = (   0.0555736   0.7431139  -0.3367085), wk =   0.0025641
        k(  196) = (   0.1163909   0.7431139  -0.1683542), wk =   0.0025641
        k(  197) = (   0.1772082   0.9288923   0.0000000), wk =   0.0025641
        k(  198) = (   0.2380255   0.9288923   0.1683542), wk =   0.0025641
        k(  199) = (   0.2988428   0.9288923   0.3367085), wk =   0.0025641
        k(  200) = (   0.3596601   0.9288923   0.5050627), wk =   0.0025641
        k(  201) = (   0.4204774   0.9288923   0.6734170), wk =   0.0025641
        k(  202) = (   0.4812947   0.9288923   0.8417712), wk =   0.0025641
        k(  203) = (   0.5421119   0.9288923   1.0101254), wk =   0.0025641
        k(  204) = (  -0.1876956   0.9288923  -1.0101254), wk =   0.0025641
        k(  205) = (  -0.1268783   0.9288923  -0.8417712), wk =   0.0025641
        k(  206) = (  -0.0660610   0.9288923  -0.6734170), wk =   0.0025641
        k(  207) = (  -0.0052437   0.9288923  -0.5050627), wk =   0.0025641
        k(  208) = (   0.0555736   0.9288923  -0.3367085), wk =   0.0025641
        k(  209) = (   0.1163909   0.9288923  -0.1683542), wk =   0.0025641
        k(  210) = (   0.1772082   1.1146708   0.0000000), wk =   0.0025641
        k(  211) = (   0.2380255   1.1146708   0.1683542), wk =   0.0025641
        k(  212) = (   0.2988428   1.1146708   0.3367085), wk =   0.0025641
        k(  213) = (   0.3596601   1.1146708   0.5050627), wk =   0.0025641
        k(  214) = (   0.4204774   1.1146708   0.6734170), wk =   0.0025641
        k(  215) = (   0.4812947   1.1146708   0.8417712), wk =   0.0025641
        k(  216) = (   0.5421119   1.1146708   1.0101254), wk =   0.0025641
        k(  217) = (  -0.1876956   1.1146708  -1.0101254), wk =   0.0025641
        k(  218) = (  -0.1268783   1.1146708  -0.8417712), wk =   0.0025641
        k(  219) = (  -0.0660610   1.1146708  -0.6734170), wk =   0.0025641
        k(  220) = (  -0.0052437   1.1146708  -0.5050627), wk =   0.0025641
        k(  221) = (   0.0555736   1.1146708  -0.3367085), wk =   0.0025641
        k(  222) = (   0.1163909   1.1146708  -0.1683542), wk =   0.0025641
        k(  223) = (   0.1772082   1.3004493   0.0000000), wk =   0.0025641
        k(  224) = (   0.2380255   1.3004493   0.1683542), wk =   0.0025641
        k(  225) = (   0.2988428   1.3004493   0.3367085), wk =   0.0025641
        k(  226) = (   0.3596601   1.3004493   0.5050627), wk =   0.0025641
        k(  227) = (   0.4204774   1.3004493   0.6734170), wk =   0.0025641
        k(  228) = (   0.4812947   1.3004493   0.8417712), wk =   0.0025641
        k(  229) = (   0.5421119   1.3004493   1.0101254), wk =   0.0025641
        k(  230) = (  -0.1876956   1.3004493  -1.0101254), wk =   0.0025641
        k(  231) = (  -0.1268783   1.3004493  -0.8417712), wk =   0.0025641
        k(  232) = (  -0.0660610   1.3004493  -0.6734170), wk =   0.0025641
        k(  233) = (  -0.0052437   1.3004493  -0.5050627), wk =   0.0025641
        k(  234) = (   0.0555736   1.3004493  -0.3367085), wk =   0.0025641
        k(  235) = (   0.1163909   1.3004493  -0.1683542), wk =   0.0025641
        k(  236) = (   0.1772082   1.4862277   0.0000000), wk =   0.0025641
        k(  237) = (   0.2380255   1.4862277   0.1683542), wk =   0.0025641
        k(  238) = (   0.2988428   1.4862277   0.3367085), wk =   0.0025641
        k(  239) = (   0.3596601   1.4862277   0.5050627), wk =   0.0025641
        k(  240) = (   0.4204774   1.4862277   0.6734170), wk =   0.0025641
        k(  241) = (   0.4812947   1.4862277   0.8417712), wk =   0.0025641
        k(  242) = (   0.5421119   1.4862277   1.0101254), wk =   0.0025641
        k(  243) = (  -0.1876956   1.4862277  -1.0101254), wk =   0.0025641
        k(  244) = (  -0.1268783   1.4862277  -0.8417712), wk =   0.0025641
        k(  245) = (  -0.0660610   1.4862277  -0.6734170), wk =   0.0025641
        k(  246) = (  -0.0052437   1.4862277  -0.5050627), wk =   0.0025641
        k(  247) = (   0.0555736   1.4862277  -0.3367085), wk =   0.0025641
        k(  248) = (   0.1163909   1.4862277  -0.1683542), wk =   0.0025641
        k(  249) = (   0.1772082   1.6720062   0.0000000), wk =   0.0025641
        k(  250) = (   0.2380255   1.6720062   0.1683542), wk =   0.0025641
        k(  251) = (   0.2988428   1.6720062   0.3367085), wk =   0.0025641
        k(  252) = (   0.3596601   1.6720062   0.5050627), wk =   0.0025641
        k(  253) = (   0.4204774   1.6720062   0.6734170), wk =   0.0025641
        k(  254) = (   0.4812947   1.6720062   0.8417712), wk =   0.0025641
        k(  255) = (   0.5421119   1.6720062   1.0101254), wk =   0.0025641
        k(  256) = (  -0.1876956   1.6720062  -1.0101254), wk =   0.0025641
        k(  257) = (  -0.1268783   1.6720062  -0.8417712), wk =   0.0025641
        k(  258) = (  -0.0660610   1.6720062  -0.6734170), wk =   0.0025641
        k(  259) = (  -0.0052437   1.6720062  -0.5050627), wk =   0.0025641
        k(  260) = (   0.0555736   1.6720062  -0.3367085), wk =   0.0025641
        k(  261) = (   0.1163909   1.6720062  -0.1683542), wk =   0.0025641
        k(  262) = (   0.1772082  -1.8577846   0.0000000), wk =   0.0025641
        k(  263) = (   0.2380255  -1.8577846   0.1683542), wk =   0.0025641
        k(  264) = (   0.2988428  -1.8577846   0.3367085), wk =   0.0025641
        k(  265) = (   0.3596601  -1.8577846   0.5050627), wk =   0.0025641
        k(  266) = (   0.4204774  -1.8577846   0.6734170), wk =   0.0025641
        k(  267) = (   0.4812947  -1.8577846   0.8417712), wk =   0.0025641
        k(  268) = (   0.5421119  -1.8577846   1.0101254), wk =   0.0025641
        k(  269) = (  -0.1876956  -1.8577846  -1.0101254), wk =   0.0025641
        k(  270) = (  -0.1268783  -1.8577846  -0.8417712), wk =   0.0025641
        k(  271) = (  -0.0660610  -1.8577846  -0.6734170), wk =   0.0025641
        k(  272) = (  -0.0052437  -1.8577846  -0.5050627), wk =   0.0025641
        k(  273) = (   0.0555736  -1.8577846  -0.3367085), wk =   0.0025641
        k(  274) = (   0.1163909  -1.8577846  -0.1683542), wk =   0.0025641
        k(  275) = (   0.1772082  -1.6720062   0.0000000), wk =   0.0025641
        k(  276) = (   0.2380255  -1.6720062   0.1683542), wk =   0.0025641
        k(  277) = (   0.2988428  -1.6720062   0.3367085), wk =   0.0025641
        k(  278) = (   0.3596601  -1.6720062   0.5050627), wk =   0.0025641
        k(  279) = (   0.4204774  -1.6720062   0.6734170), wk =   0.0025641
        k(  280) = (   0.4812947  -1.6720062   0.8417712), wk =   0.0025641
        k(  281) = (   0.5421119  -1.6720062   1.0101254), wk =   0.0025641
        k(  282) = (  -0.1876956  -1.6720062  -1.0101254), wk =   0.0025641
        k(  283) = (  -0.1268783  -1.6720062  -0.8417712), wk =   0.0025641
        k(  284) = (  -0.0660610  -1.6720062  -0.6734170), wk =   0.0025641
        k(  285) = (  -0.0052437  -1.6720062  -0.5050627), wk =   0.0025641
        k(  286) = (   0.0555736  -1.6720062  -0.3367085), wk =   0.0025641
        k(  287) = (   0.1163909  -1.6720062  -0.1683542), wk =   0.0025641
        k(  288) = (   0.1772082  -1.4862277   0.0000000), wk =   0.0025641
        k(  289) = (   0.2380255  -1.4862277   0.1683542), wk =   0.0025641
        k(  290) = (   0.2988428  -1.4862277   0.3367085), wk =   0.0025641
        k(  291) = (   0.3596601  -1.4862277   0.5050627), wk =   0.0025641
        k(  292) = (   0.4204774  -1.4862277   0.6734170), wk =   0.0025641
        k(  293) = (   0.4812947  -1.4862277   0.8417712), wk =   0.0025641
        k(  294) = (   0.5421119  -1.4862277   1.0101254), wk =   0.0025641
        k(  295) = (  -0.1876956  -1.4862277  -1.0101254), wk =   0.0025641
        k(  296) = (  -0.1268783  -1.4862277  -0.8417712), wk =   0.0025641
        k(  297) = (  -0.0660610  -1.4862277  -0.6734170), wk =   0.0025641
        k(  298) = (  -0.0052437  -1.4862277  -0.5050627), wk =   0.0025641
        k(  299) = (   0.0555736  -1.4862277  -0.3367085), wk =   0.0025641
        k(  300) = (   0.1163909  -1.4862277  -0.1683542), wk =   0.0025641
        k(  301) = (   0.1772082  -1.3004493   0.0000000), wk =   0.0025641
        k(  302) = (   0.2380255  -1.3004493   0.1683542), wk =   0.0025641
        k(  303) = (   0.2988428  -1.3004493   0.3367085), wk =   0.0025641
        k(  304) = (   0.3596601  -1.3004493   0.5050627), wk =   0.0025641
        k(  305) = (   0.4204774  -1.3004493   0.6734170), wk =   0.0025641
        k(  306) = (   0.4812947  -1.3004493   0.8417712), wk =   0.0025641
        k(  307) = (   0.5421119  -1.3004493   1.0101254), wk =   0.0025641
        k(  308) = (  -0.1876956  -1.3004493  -1.0101254), wk =   0.0025641
        k(  309) = (  -0.1268783  -1.3004493  -0.8417712), wk =   0.0025641
        k(  310) = (  -0.0660610  -1.3004493  -0.6734170), wk =   0.0025641
        k(  311) = (  -0.0052437  -1.3004493  -0.5050627), wk =   0.0025641
        k(  312) = (   0.0555736  -1.3004493  -0.3367085), wk =   0.0025641
        k(  313) = (   0.1163909  -1.3004493  -0.1683542), wk =   0.0025641
        k(  314) = (   0.1772082  -1.1146708   0.0000000), wk =   0.0025641
        k(  315) = (   0.2380255  -1.1146708   0.1683542), wk =   0.0025641
        k(  316) = (   0.2988428  -1.1146708   0.3367085), wk =   0.0025641
        k(  317) = (   0.3596601  -1.1146708   0.5050627), wk =   0.0025641
        k(  318) = (   0.4204774  -1.1146708   0.6734170), wk =   0.0025641
        k(  319) = (   0.4812947  -1.1146708   0.8417712), wk =   0.0025641
        k(  320) = (   0.5421119  -1.1146708   1.0101254), wk =   0.0025641
        k(  321) = (  -0.1876956  -1.1146708  -1.0101254), wk =   0.0025641
        k(  322) = (  -0.1268783  -1.1146708  -0.8417712), wk =   0.0025641
        k(  323) = (  -0.0660610  -1.1146708  -0.6734170), wk =   0.0025641
        k(  324) = (  -0.0052437  -1.1146708  -0.5050627), wk =   0.0025641
        k(  325) = (   0.0555736  -1.1146708  -0.3367085), wk =   0.0025641
        k(  326) = (   0.1163909  -1.1146708  -0.1683542), wk =   0.0025641
        k(  327) = (   0.1772082  -0.9288923   0.0000000), wk =   0.0025641
        k(  328) = (   0.2380255  -0.9288923   0.1683542), wk =   0.0025641
        k(  329) = (   0.2988428  -0.9288923   0.3367085), wk =   0.0025641
        k(  330) = (   0.3596601  -0.9288923   0.5050627), wk =   0.0025641
        k(  331) = (   0.4204774  -0.9288923   0.6734170), wk =   0.0025641
        k(  332) = (   0.4812947  -0.9288923   0.8417712), wk =   0.0025641
        k(  333) = (   0.5421119  -0.9288923   1.0101254), wk =   0.0025641
        k(  334) = (  -0.1876956  -0.9288923  -1.0101254), wk =   0.0025641
        k(  335) = (  -0.1268783  -0.9288923  -0.8417712), wk =   0.0025641
        k(  336) = (  -0.0660610  -0.9288923  -0.6734170), wk =   0.0025641
        k(  337) = (  -0.0052437  -0.9288923  -0.5050627), wk =   0.0025641
        k(  338) = (   0.0555736  -0.9288923  -0.3367085), wk =   0.0025641
        k(  339) = (   0.1163909  -0.9288923  -0.1683542), wk =   0.0025641
        k(  340) = (   0.1772082  -0.7431139   0.0000000), wk =   0.0025641
        k(  341) = (   0.2380255  -0.7431139   0.1683542), wk =   0.0025641
        k(  342) = (   0.2988428  -0.7431139   0.3367085), wk =   0.0025641
        k(  343) = (   0.3596601  -0.7431139   0.5050627), wk =   0.0025641
        k(  344) = (   0.4204774  -0.7431139   0.6734170), wk =   0.0025641
        k(  345) = (   0.4812947  -0.7431139   0.8417712), wk =   0.0025641
        k(  346) = (   0.5421119  -0.7431139   1.0101254), wk =   0.0025641
        k(  347) = (  -0.1876956  -0.7431139  -1.0101254), wk =   0.0025641
        k(  348) = (  -0.1268783  -0.7431139  -0.8417712), wk =   0.0025641
        k(  349) = (  -0.0660610  -0.7431139  -0.6734170), wk =   0.0025641
        k(  350) = (  -0.0052437  -0.7431139  -0.5050627), wk =   0.0025641
        k(  351) = (   0.0555736  -0.7431139  -0.3367085), wk =   0.0025641
        k(  352) = (   0.1163909  -0.7431139  -0.1683542), wk =   0.0025641
        k(  353) = (   0.1772082  -0.5573354   0.0000000), wk =   0.0025641
        k(  354) = (   0.2380255  -0.5573354   0.1683542), wk =   0.0025641
        k(  355) = (   0.2988428  -0.5573354   0.3367085), wk =   0.0025641
        k(  356) = (   0.3596601  -0.5573354   0.5050627), wk =   0.0025641
        k(  357) = (   0.4204774  -0.5573354   0.6734170), wk =   0.0025641
        k(  358) = (   0.4812947  -0.5573354   0.8417712), wk =   0.0025641
        k(  359) = (   0.5421119  -0.5573354   1.0101254), wk =   0.0025641
        k(  360) = (  -0.1876956  -0.5573354  -1.0101254), wk =   0.0025641
        k(  361) = (  -0.1268783  -0.5573354  -0.8417712), wk =   0.0025641
        k(  362) = (  -0.0660610  -0.5573354  -0.6734170), wk =   0.0025641
        k(  363) = (  -0.0052437  -0.5573354  -0.5050627), wk =   0.0025641
        k(  364) = (   0.0555736  -0.5573354  -0.3367085), wk =   0.0025641
        k(  365) = (   0.1163909  -0.5573354  -0.1683542), wk =   0.0025641
        k(  366) = (   0.1772082  -0.3715569   0.0000000), wk =   0.0025641
        k(  367) = (   0.2380255  -0.3715569   0.1683542), wk =   0.0025641
        k(  368) = (   0.2988428  -0.3715569   0.3367085), wk =   0.0025641
        k(  369) = (   0.3596601  -0.3715569   0.5050627), wk =   0.0025641
        k(  370) = (   0.4204774  -0.3715569   0.6734170), wk =   0.0025641
        k(  371) = (   0.4812947  -0.3715569   0.8417712), wk =   0.0025641
        k(  372) = (   0.5421119  -0.3715569   1.0101254), wk =   0.0025641
        k(  373) = (  -0.1876956  -0.3715569  -1.0101254), wk =   0.0025641
        k(  374) = (  -0.1268783  -0.3715569  -0.8417712), wk =   0.0025641
        k(  375) = (  -0.0660610  -0.3715569  -0.6734170), wk =   0.0025641
        k(  376) = (  -0.0052437  -0.3715569  -0.5050627), wk =   0.0025641
        k(  377) = (   0.0555736  -0.3715569  -0.3367085), wk =   0.0025641
        k(  378) = (   0.1163909  -0.3715569  -0.1683542), wk =   0.0025641
        k(  379) = (   0.1772082  -0.1857785   0.0000000), wk =   0.0025641
        k(  380) = (   0.2380255  -0.1857785   0.1683542), wk =   0.0025641
        k(  381) = (   0.2988428  -0.1857785   0.3367085), wk =   0.0025641
        k(  382) = (   0.3596601  -0.1857785   0.5050627), wk =   0.0025641
        k(  383) = (   0.4204774  -0.1857785   0.6734170), wk =   0.0025641
        k(  384) = (   0.4812947  -0.1857785   0.8417712), wk =   0.0025641
        k(  385) = (   0.5421119  -0.1857785   1.0101254), wk =   0.0025641
        k(  386) = (  -0.1876956  -0.1857785  -1.0101254), wk =   0.0025641
        k(  387) = (  -0.1268783  -0.1857785  -0.8417712), wk =   0.0025641
        k(  388) = (  -0.0660610  -0.1857785  -0.6734170), wk =   0.0025641
        k(  389) = (  -0.0052437  -0.1857785  -0.5050627), wk =   0.0025641
        k(  390) = (   0.0555736  -0.1857785  -0.3367085), wk =   0.0025641
        k(  391) = (   0.1163909  -0.1857785  -0.1683542), wk =   0.0025641
        k(  392) = (   0.3544164   0.0000000   0.0000000), wk =   0.0025641
        k(  393) = (   0.4152337   0.0000000   0.1683542), wk =   0.0025641
        k(  394) = (   0.4760510   0.0000000   0.3367085), wk =   0.0025641
        k(  395) = (   0.5368682   0.0000000   0.5050627), wk =   0.0025641
        k(  396) = (   0.5976855   0.0000000   0.6734170), wk =   0.0025641
        k(  397) = (   0.6585028   0.0000000   0.8417712), wk =   0.0025641
        k(  398) = (   0.7193201   0.0000000   1.0101254), wk =   0.0025641
        k(  399) = (  -0.0104874   0.0000000  -1.0101254), wk =   0.0025641
        k(  400) = (   0.0503299   0.0000000  -0.8417712), wk =   0.0025641
        k(  401) = (   0.1111472   0.0000000  -0.6734170), wk =   0.0025641
        k(  402) = (   0.1719645   0.0000000  -0.5050627), wk =   0.0025641
        k(  403) = (   0.2327818   0.0000000  -0.3367085), wk =   0.0025641
        k(  404) = (   0.2935991   0.0000000  -0.1683542), wk =   0.0025641
        k(  405) = (   0.3544164   0.1857785   0.0000000), wk =   0.0025641
        k(  406) = (   0.4152337   0.1857785   0.1683542), wk =   0.0025641
        k(  407) = (   0.4760510   0.1857785   0.3367085), wk =   0.0025641
        k(  408) = (   0.5368682   0.1857785   0.5050627), wk =   0.0025641
        k(  409) = (   0.5976855   0.1857785   0.6734170), wk =   0.0025641
        k(  410) = (   0.6585028   0.1857785   0.8417712), wk =   0.0025641
        k(  411) = (   0.7193201   0.1857785   1.0101254), wk =   0.0025641
        k(  412) = (  -0.0104874   0.1857785  -1.0101254), wk =   0.0025641
        k(  413) = (   0.0503299   0.1857785  -0.8417712), wk =   0.0025641
        k(  414) = (   0.1111472   0.1857785  -0.6734170), wk =   0.0025641
        k(  415) = (   0.1719645   0.1857785  -0.5050627), wk =   0.0025641
        k(  416) = (   0.2327818   0.1857785  -0.3367085), wk =   0.0025641
        k(  417) = (   0.2935991   0.1857785  -0.1683542), wk =   0.0025641
        k(  418) = (   0.3544164   0.3715569   0.0000000), wk =   0.0025641
        k(  419) = (   0.4152337   0.3715569   0.1683542), wk =   0.0025641
        k(  420) = (   0.4760510   0.3715569   0.3367085), wk =   0.0025641
        k(  421) = (   0.5368682   0.3715569   0.5050627), wk =   0.0025641
        k(  422) = (   0.5976855   0.3715569   0.6734170), wk =   0.0025641
        k(  423) = (   0.6585028   0.3715569   0.8417712), wk =   0.0025641
        k(  424) = (   0.7193201   0.3715569   1.0101254), wk =   0.0025641
        k(  425) = (  -0.0104874   0.3715569  -1.0101254), wk =   0.0025641
        k(  426) = (   0.0503299   0.3715569  -0.8417712), wk =   0.0025641
        k(  427) = (   0.1111472   0.3715569  -0.6734170), wk =   0.0025641
        k(  428) = (   0.1719645   0.3715569  -0.5050627), wk =   0.0025641
        k(  429) = (   0.2327818   0.3715569  -0.3367085), wk =   0.0025641
        k(  430) = (   0.2935991   0.3715569  -0.1683542), wk =   0.0025641
        k(  431) = (   0.3544164   0.5573354   0.0000000), wk =   0.0025641
        k(  432) = (   0.4152337   0.5573354   0.1683542), wk =   0.0025641
        k(  433) = (   0.4760510   0.5573354   0.3367085), wk =   0.0025641
        k(  434) = (   0.5368682   0.5573354   0.5050627), wk =   0.0025641
        k(  435) = (   0.5976855   0.5573354   0.6734170), wk =   0.0025641
        k(  436) = (   0.6585028   0.5573354   0.8417712), wk =   0.0025641
        k(  437) = (   0.7193201   0.5573354   1.0101254), wk =   0.0025641
        k(  438) = (  -0.0104874   0.5573354  -1.0101254), wk =   0.0025641
        k(  439) = (   0.0503299   0.5573354  -0.8417712), wk =   0.0025641
        k(  440) = (   0.1111472   0.5573354  -0.6734170), wk =   0.0025641
        k(  441) = (   0.1719645   0.5573354  -0.5050627), wk =   0.0025641
        k(  442) = (   0.2327818   0.5573354  -0.3367085), wk =   0.0025641
        k(  443) = (   0.2935991   0.5573354  -0.1683542), wk =   0.0025641
        k(  444) = (   0.3544164   0.7431139   0.0000000), wk =   0.0025641
        k(  445) = (   0.4152337   0.7431139   0.1683542), wk =   0.0025641
        k(  446) = (   0.4760510   0.7431139   0.3367085), wk =   0.0025641
        k(  447) = (   0.5368682   0.7431139   0.5050627), wk =   0.0025641
        k(  448) = (   0.5976855   0.7431139   0.6734170), wk =   0.0025641
        k(  449) = (   0.6585028   0.7431139   0.8417712), wk =   0.0025641
        k(  450) = (   0.7193201   0.7431139   1.0101254), wk =   0.0025641
        k(  451) = (  -0.0104874   0.7431139  -1.0101254), wk =   0.0025641
        k(  452) = (   0.0503299   0.7431139  -0.8417712), wk =   0.0025641
        k(  453) = (   0.1111472   0.7431139  -0.6734170), wk =   0.0025641
        k(  454) = (   0.1719645   0.7431139  -0.5050627), wk =   0.0025641
        k(  455) = (   0.2327818   0.7431139  -0.3367085), wk =   0.0025641
        k(  456) = (   0.2935991   0.7431139  -0.1683542), wk =   0.0025641
        k(  457) = (   0.3544164   0.9288923   0.0000000), wk =   0.0025641
        k(  458) = (   0.4152337   0.9288923   0.1683542), wk =   0.0025641
        k(  459) = (   0.4760510   0.9288923   0.3367085), wk =   0.0025641
        k(  460) = (   0.5368682   0.9288923   0.5050627), wk =   0.0025641
        k(  461) = (   0.5976855   0.9288923   0.6734170), wk =   0.0025641
        k(  462) = (   0.6585028   0.9288923   0.8417712), wk =   0.0025641
        k(  463) = (   0.7193201   0.9288923   1.0101254), wk =   0.0025641
        k(  464) = (  -0.0104874   0.9288923  -1.0101254), wk =   0.0025641
        k(  465) = (   0.0503299   0.9288923  -0.8417712), wk =   0.0025641
        k(  466) = (   0.1111472   0.9288923  -0.6734170), wk =   0.0025641
        k(  467) = (   0.1719645   0.9288923  -0.5050627), wk =   0.0025641
        k(  468) = (   0.2327818   0.9288923  -0.3367085), wk =   0.0025641
        k(  469) = (   0.2935991   0.9288923  -0.1683542), wk =   0.0025641
        k(  470) = (   0.3544164   1.1146708   0.0000000), wk =   0.0025641
        k(  471) = (   0.4152337   1.1146708   0.1683542), wk =   0.0025641
        k(  472) = (   0.4760510   1.1146708   0.3367085), wk =   0.0025641
        k(  473) = (   0.5368682   1.1146708   0.5050627), wk =   0.0025641
        k(  474) = (   0.5976855   1.1146708   0.6734170), wk =   0.0025641
        k(  475) = (   0.6585028   1.1146708   0.8417712), wk =   0.0025641
        k(  476) = (   0.7193201   1.1146708   1.0101254), wk =   0.0025641
        k(  477) = (  -0.0104874   1.1146708  -1.0101254), wk =   0.0025641
        k(  478) = (   0.0503299   1.1146708  -0.8417712), wk =   0.0025641
        k(  479) = (   0.1111472   1.1146708  -0.6734170), wk =   0.0025641
        k(  480) = (   0.1719645   1.1146708  -0.5050627), wk =   0.0025641
        k(  481) = (   0.2327818   1.1146708  -0.3367085), wk =   0.0025641
        k(  482) = (   0.2935991   1.1146708  -0.1683542), wk =   0.0025641
        k(  483) = (   0.3544164   1.3004493   0.0000000), wk =   0.0025641
        k(  484) = (   0.4152337   1.3004493   0.1683542), wk =   0.0025641
        k(  485) = (   0.4760510   1.3004493   0.3367085), wk =   0.0025641
        k(  486) = (   0.5368682   1.3004493   0.5050627), wk =   0.0025641
        k(  487) = (   0.5976855   1.3004493   0.6734170), wk =   0.0025641
        k(  488) = (   0.6585028   1.3004493   0.8417712), wk =   0.0025641
        k(  489) = (   0.7193201   1.3004493   1.0101254), wk =   0.0025641
        k(  490) = (  -0.0104874   1.3004493  -1.0101254), wk =   0.0025641
        k(  491) = (   0.0503299   1.3004493  -0.8417712), wk =   0.0025641
        k(  492) = (   0.1111472   1.3004493  -0.6734170), wk =   0.0025641
        k(  493) = (   0.1719645   1.3004493  -0.5050627), wk =   0.0025641
        k(  494) = (   0.2327818   1.3004493  -0.3367085), wk =   0.0025641
        k(  495) = (   0.2935991   1.3004493  -0.1683542), wk =   0.0025641
        k(  496) = (   0.3544164   1.4862277   0.0000000), wk =   0.0025641
        k(  497) = (   0.4152337   1.4862277   0.1683542), wk =   0.0025641
        k(  498) = (   0.4760510   1.4862277   0.3367085), wk =   0.0025641
        k(  499) = (   0.5368682   1.4862277   0.5050627), wk =   0.0025641
        k(  500) = (   0.5976855   1.4862277   0.6734170), wk =   0.0025641
        k(  501) = (   0.6585028   1.4862277   0.8417712), wk =   0.0025641
        k(  502) = (   0.7193201   1.4862277   1.0101254), wk =   0.0025641
        k(  503) = (  -0.0104874   1.4862277  -1.0101254), wk =   0.0025641
        k(  504) = (   0.0503299   1.4862277  -0.8417712), wk =   0.0025641
        k(  505) = (   0.1111472   1.4862277  -0.6734170), wk =   0.0025641
        k(  506) = (   0.1719645   1.4862277  -0.5050627), wk =   0.0025641
        k(  507) = (   0.2327818   1.4862277  -0.3367085), wk =   0.0025641
        k(  508) = (   0.2935991   1.4862277  -0.1683542), wk =   0.0025641
        k(  509) = (   0.3544164   1.6720062   0.0000000), wk =   0.0025641
        k(  510) = (   0.4152337   1.6720062   0.1683542), wk =   0.0025641
        k(  511) = (   0.4760510   1.6720062   0.3367085), wk =   0.0025641
        k(  512) = (   0.5368682   1.6720062   0.5050627), wk =   0.0025641
        k(  513) = (   0.5976855   1.6720062   0.6734170), wk =   0.0025641
        k(  514) = (   0.6585028   1.6720062   0.8417712), wk =   0.0025641
        k(  515) = (   0.7193201   1.6720062   1.0101254), wk =   0.0025641
        k(  516) = (  -0.0104874   1.6720062  -1.0101254), wk =   0.0025641
        k(  517) = (   0.0503299   1.6720062  -0.8417712), wk =   0.0025641
        k(  518) = (   0.1111472   1.6720062  -0.6734170), wk =   0.0025641
        k(  519) = (   0.1719645   1.6720062  -0.5050627), wk =   0.0025641
        k(  520) = (   0.2327818   1.6720062  -0.3367085), wk =   0.0025641
        k(  521) = (   0.2935991   1.6720062  -0.1683542), wk =   0.0025641
        k(  522) = (   0.3544164  -1.8577846   0.0000000), wk =   0.0025641
        k(  523) = (   0.4152337  -1.8577846   0.1683542), wk =   0.0025641
        k(  524) = (   0.4760510  -1.8577846   0.3367085), wk =   0.0025641
        k(  525) = (   0.5368682  -1.8577846   0.5050627), wk =   0.0025641
        k(  526) = (   0.5976855  -1.8577846   0.6734170), wk =   0.0025641
        k(  527) = (   0.6585028  -1.8577846   0.8417712), wk =   0.0025641
        k(  528) = (   0.7193201  -1.8577846   1.0101254), wk =   0.0025641
        k(  529) = (  -0.0104874  -1.8577846  -1.0101254), wk =   0.0025641
        k(  530) = (   0.0503299  -1.8577846  -0.8417712), wk =   0.0025641
        k(  531) = (   0.1111472  -1.8577846  -0.6734170), wk =   0.0025641
        k(  532) = (   0.1719645  -1.8577846  -0.5050627), wk =   0.0025641
        k(  533) = (   0.2327818  -1.8577846  -0.3367085), wk =   0.0025641
        k(  534) = (   0.2935991  -1.8577846  -0.1683542), wk =   0.0025641
        k(  535) = (   0.3544164  -1.6720062   0.0000000), wk =   0.0025641
        k(  536) = (   0.4152337  -1.6720062   0.1683542), wk =   0.0025641
        k(  537) = (   0.4760510  -1.6720062   0.3367085), wk =   0.0025641
        k(  538) = (   0.5368682  -1.6720062   0.5050627), wk =   0.0025641
        k(  539) = (   0.5976855  -1.6720062   0.6734170), wk =   0.0025641
        k(  540) = (   0.6585028  -1.6720062   0.8417712), wk =   0.0025641
        k(  541) = (   0.7193201  -1.6720062   1.0101254), wk =   0.0025641
        k(  542) = (  -0.0104874  -1.6720062  -1.0101254), wk =   0.0025641
        k(  543) = (   0.0503299  -1.6720062  -0.8417712), wk =   0.0025641
        k(  544) = (   0.1111472  -1.6720062  -0.6734170), wk =   0.0025641
        k(  545) = (   0.1719645  -1.6720062  -0.5050627), wk =   0.0025641
        k(  546) = (   0.2327818  -1.6720062  -0.3367085), wk =   0.0025641
        k(  547) = (   0.2935991  -1.6720062  -0.1683542), wk =   0.0025641
        k(  548) = (   0.3544164  -1.4862277   0.0000000), wk =   0.0025641
        k(  549) = (   0.4152337  -1.4862277   0.1683542), wk =   0.0025641
        k(  550) = (   0.4760510  -1.4862277   0.3367085), wk =   0.0025641
        k(  551) = (   0.5368682  -1.4862277   0.5050627), wk =   0.0025641
        k(  552) = (   0.5976855  -1.4862277   0.6734170), wk =   0.0025641
        k(  553) = (   0.6585028  -1.4862277   0.8417712), wk =   0.0025641
        k(  554) = (   0.7193201  -1.4862277   1.0101254), wk =   0.0025641
        k(  555) = (  -0.0104874  -1.4862277  -1.0101254), wk =   0.0025641
        k(  556) = (   0.0503299  -1.4862277  -0.8417712), wk =   0.0025641
        k(  557) = (   0.1111472  -1.4862277  -0.6734170), wk =   0.0025641
        k(  558) = (   0.1719645  -1.4862277  -0.5050627), wk =   0.0025641
        k(  559) = (   0.2327818  -1.4862277  -0.3367085), wk =   0.0025641
        k(  560) = (   0.2935991  -1.4862277  -0.1683542), wk =   0.0025641
        k(  561) = (   0.3544164  -1.3004493   0.0000000), wk =   0.0025641
        k(  562) = (   0.4152337  -1.3004493   0.1683542), wk =   0.0025641
        k(  563) = (   0.4760510  -1.3004493   0.3367085), wk =   0.0025641
        k(  564) = (   0.5368682  -1.3004493   0.5050627), wk =   0.0025641
        k(  565) = (   0.5976855  -1.3004493   0.6734170), wk =   0.0025641
        k(  566) = (   0.6585028  -1.3004493   0.8417712), wk =   0.0025641
        k(  567) = (   0.7193201  -1.3004493   1.0101254), wk =   0.0025641
        k(  568) = (  -0.0104874  -1.3004493  -1.0101254), wk =   0.0025641
        k(  569) = (   0.0503299  -1.3004493  -0.8417712), wk =   0.0025641
        k(  570) = (   0.1111472  -1.3004493  -0.6734170), wk =   0.0025641
        k(  571) = (   0.1719645  -1.3004493  -0.5050627), wk =   0.0025641
        k(  572) = (   0.2327818  -1.3004493  -0.3367085), wk =   0.0025641
        k(  573) = (   0.2935991  -1.3004493  -0.1683542), wk =   0.0025641
        k(  574) = (   0.3544164  -1.1146708   0.0000000), wk =   0.0025641
        k(  575) = (   0.4152337  -1.1146708   0.1683542), wk =   0.0025641
        k(  576) = (   0.4760510  -1.1146708   0.3367085), wk =   0.0025641
        k(  577) = (   0.5368682  -1.1146708   0.5050627), wk =   0.0025641
        k(  578) = (   0.5976855  -1.1146708   0.6734170), wk =   0.0025641
        k(  579) = (   0.6585028  -1.1146708   0.8417712), wk =   0.0025641
        k(  580) = (   0.7193201  -1.1146708   1.0101254), wk =   0.0025641
        k(  581) = (  -0.0104874  -1.1146708  -1.0101254), wk =   0.0025641
        k(  582) = (   0.0503299  -1.1146708  -0.8417712), wk =   0.0025641
        k(  583) = (   0.1111472  -1.1146708  -0.6734170), wk =   0.0025641
        k(  584) = (   0.1719645  -1.1146708  -0.5050627), wk =   0.0025641
        k(  585) = (   0.2327818  -1.1146708  -0.3367085), wk =   0.0025641
        k(  586) = (   0.2935991  -1.1146708  -0.1683542), wk =   0.0025641
        k(  587) = (   0.3544164  -0.9288923   0.0000000), wk =   0.0025641
        k(  588) = (   0.4152337  -0.9288923   0.1683542), wk =   0.0025641
        k(  589) = (   0.4760510  -0.9288923   0.3367085), wk =   0.0025641
        k(  590) = (   0.5368682  -0.9288923   0.5050627), wk =   0.0025641
        k(  591) = (   0.5976855  -0.9288923   0.6734170), wk =   0.0025641
        k(  592) = (   0.6585028  -0.9288923   0.8417712), wk =   0.0025641
        k(  593) = (   0.7193201  -0.9288923   1.0101254), wk =   0.0025641
        k(  594) = (  -0.0104874  -0.9288923  -1.0101254), wk =   0.0025641
        k(  595) = (   0.0503299  -0.9288923  -0.8417712), wk =   0.0025641
        k(  596) = (   0.1111472  -0.9288923  -0.6734170), wk =   0.0025641
        k(  597) = (   0.1719645  -0.9288923  -0.5050627), wk =   0.0025641
        k(  598) = (   0.2327818  -0.9288923  -0.3367085), wk =   0.0025641
        k(  599) = (   0.2935991  -0.9288923  -0.1683542), wk =   0.0025641
        k(  600) = (   0.3544164  -0.7431139   0.0000000), wk =   0.0025641
        k(  601) = (   0.4152337  -0.7431139   0.1683542), wk =   0.0025641
        k(  602) = (   0.4760510  -0.7431139   0.3367085), wk =   0.0025641
        k(  603) = (   0.5368682  -0.7431139   0.5050627), wk =   0.0025641
        k(  604) = (   0.5976855  -0.7431139   0.6734170), wk =   0.0025641
        k(  605) = (   0.6585028  -0.7431139   0.8417712), wk =   0.0025641
        k(  606) = (   0.7193201  -0.7431139   1.0101254), wk =   0.0025641
        k(  607) = (  -0.0104874  -0.7431139  -1.0101254), wk =   0.0025641
        k(  608) = (   0.0503299  -0.7431139  -0.8417712), wk =   0.0025641
        k(  609) = (   0.1111472  -0.7431139  -0.6734170), wk =   0.0025641
        k(  610) = (   0.1719645  -0.7431139  -0.5050627), wk =   0.0025641
        k(  611) = (   0.2327818  -0.7431139  -0.3367085), wk =   0.0025641
        k(  612) = (   0.2935991  -0.7431139  -0.1683542), wk =   0.0025641
        k(  613) = (   0.3544164  -0.5573354   0.0000000), wk =   0.0025641
        k(  614) = (   0.4152337  -0.5573354   0.1683542), wk =   0.0025641
        k(  615) = (   0.4760510  -0.5573354   0.3367085), wk =   0.0025641
        k(  616) = (   0.5368682  -0.5573354   0.5050627), wk =   0.0025641
        k(  617) = (   0.5976855  -0.5573354   0.6734170), wk =   0.0025641
        k(  618) = (   0.6585028  -0.5573354   0.8417712), wk =   0.0025641
        k(  619) = (   0.7193201  -0.5573354   1.0101254), wk =   0.0025641
        k(  620) = (  -0.0104874  -0.5573354  -1.0101254), wk =   0.0025641
        k(  621) = (   0.0503299  -0.5573354  -0.8417712), wk =   0.0025641
        k(  622) = (   0.1111472  -0.5573354  -0.6734170), wk =   0.0025641
        k(  623) = (   0.1719645  -0.5573354  -0.5050627), wk =   0.0025641
        k(  624) = (   0.2327818  -0.5573354  -0.3367085), wk =   0.0025641
        k(  625) = (   0.2935991  -0.5573354  -0.1683542), wk =   0.0025641
        k(  626) = (   0.3544164  -0.3715569   0.0000000), wk =   0.0025641
        k(  627) = (   0.4152337  -0.3715569   0.1683542), wk =   0.0025641
        k(  628) = (   0.4760510  -0.3715569   0.3367085), wk =   0.0025641
        k(  629) = (   0.5368682  -0.3715569   0.5050627), wk =   0.0025641
        k(  630) = (   0.5976855  -0.3715569   0.6734170), wk =   0.0025641
        k(  631) = (   0.6585028  -0.3715569   0.8417712), wk =   0.0025641
        k(  632) = (   0.7193201  -0.3715569   1.0101254), wk =   0.0025641
        k(  633) = (  -0.0104874  -0.3715569  -1.0101254), wk =   0.0025641
        k(  634) = (   0.0503299  -0.3715569  -0.8417712), wk =   0.0025641
        k(  635) = (   0.1111472  -0.3715569  -0.6734170), wk =   0.0025641
        k(  636) = (   0.1719645  -0.3715569  -0.5050627), wk =   0.0025641
        k(  637) = (   0.2327818  -0.3715569  -0.3367085), wk =   0.0025641
        k(  638) = (   0.2935991  -0.3715569  -0.1683542), wk =   0.0025641
        k(  639) = (   0.3544164  -0.1857785   0.0000000), wk =   0.0025641
        k(  640) = (   0.4152337  -0.1857785   0.1683542), wk =   0.0025641
        k(  641) = (   0.4760510  -0.1857785   0.3367085), wk =   0.0025641
        k(  642) = (   0.5368682  -0.1857785   0.5050627), wk =   0.0025641
        k(  643) = (   0.5976855  -0.1857785   0.6734170), wk =   0.0025641
        k(  644) = (   0.6585028  -0.1857785   0.8417712), wk =   0.0025641
        k(  645) = (   0.7193201  -0.1857785   1.0101254), wk =   0.0025641
        k(  646) = (  -0.0104874  -0.1857785  -1.0101254), wk =   0.0025641
        k(  647) = (   0.0503299  -0.1857785  -0.8417712), wk =   0.0025641
        k(  648) = (   0.1111472  -0.1857785  -0.6734170), wk =   0.0025641
        k(  649) = (   0.1719645  -0.1857785  -0.5050627), wk =   0.0025641
        k(  650) = (   0.2327818  -0.1857785  -0.3367085), wk =   0.0025641
        k(  651) = (   0.2935991  -0.1857785  -0.1683542), wk =   0.0025641
        k(  652) = (  -0.5316246   0.0000000   0.0000000), wk =   0.0012821
        k(  653) = (  -0.4708073   0.0000000   0.1683542), wk =   0.0025641
        k(  654) = (  -0.4099900   0.0000000   0.3367085), wk =   0.0025641
        k(  655) = (  -0.3491727   0.0000000   0.5050627), wk =   0.0025641
        k(  656) = (  -0.2883554   0.0000000   0.6734170), wk =   0.0025641
        k(  657) = (  -0.2275381   0.0000000   0.8417712), wk =   0.0025641
        k(  658) = (  -0.1667208   0.0000000   1.0101254), wk =   0.0025641
        k(  659) = (  -0.5316246   0.1857785   0.0000000), wk =   0.0025641
        k(  660) = (  -0.4708073   0.1857785   0.1683542), wk =   0.0025641
        k(  661) = (  -0.4099900   0.1857785   0.3367085), wk =   0.0025641
        k(  662) = (  -0.3491727   0.1857785   0.5050627), wk =   0.0025641
        k(  663) = (  -0.2883554   0.1857785   0.6734170), wk =   0.0025641
        k(  664) = (  -0.2275381   0.1857785   0.8417712), wk =   0.0025641
        k(  665) = (  -0.1667208   0.1857785   1.0101254), wk =   0.0025641
        k(  666) = (  -0.8965283   0.1857785  -1.0101254), wk =   0.0025641
        k(  667) = (  -0.8357110   0.1857785  -0.8417712), wk =   0.0025641
        k(  668) = (  -0.7748937   0.1857785  -0.6734170), wk =   0.0025641
        k(  669) = (  -0.7140764   0.1857785  -0.5050627), wk =   0.0025641
        k(  670) = (  -0.6532591   0.1857785  -0.3367085), wk =   0.0025641
        k(  671) = (  -0.5924418   0.1857785  -0.1683542), wk =   0.0025641
        k(  672) = (  -0.5316246   0.3715569   0.0000000), wk =   0.0025641
        k(  673) = (  -0.4708073   0.3715569   0.1683542), wk =   0.0025641
        k(  674) = (  -0.4099900   0.3715569   0.3367085), wk =   0.0025641
        k(  675) = (  -0.3491727   0.3715569   0.5050627), wk =   0.0025641
        k(  676) = (  -0.2883554   0.3715569   0.6734170), wk =   0.0025641
        k(  677) = (  -0.2275381   0.3715569   0.8417712), wk =   0.0025641
        k(  678) = (  -0.1667208   0.3715569   1.0101254), wk =   0.0025641
        k(  679) = (  -0.8965283   0.3715569  -1.0101254), wk =   0.0025641
        k(  680) = (  -0.8357110   0.3715569  -0.8417712), wk =   0.0025641
        k(  681) = (  -0.7748937   0.3715569  -0.6734170), wk =   0.0025641
        k(  682) = (  -0.7140764   0.3715569  -0.5050627), wk =   0.0025641
        k(  683) = (  -0.6532591   0.3715569  -0.3367085), wk =   0.0025641
        k(  684) = (  -0.5924418   0.3715569  -0.1683542), wk =   0.0025641
        k(  685) = (  -0.5316246   0.5573354   0.0000000), wk =   0.0025641
        k(  686) = (  -0.4708073   0.5573354   0.1683542), wk =   0.0025641
        k(  687) = (  -0.4099900   0.5573354   0.3367085), wk =   0.0025641
        k(  688) = (  -0.3491727   0.5573354   0.5050627), wk =   0.0025641
        k(  689) = (  -0.2883554   0.5573354   0.6734170), wk =   0.0025641
        k(  690) = (  -0.2275381   0.5573354   0.8417712), wk =   0.0025641
        k(  691) = (  -0.1667208   0.5573354   1.0101254), wk =   0.0025641
        k(  692) = (  -0.8965283   0.5573354  -1.0101254), wk =   0.0025641
        k(  693) = (  -0.8357110   0.5573354  -0.8417712), wk =   0.0025641
        k(  694) = (  -0.7748937   0.5573354  -0.6734170), wk =   0.0025641
        k(  695) = (  -0.7140764   0.5573354  -0.5050627), wk =   0.0025641
        k(  696) = (  -0.6532591   0.5573354  -0.3367085), wk =   0.0025641
        k(  697) = (  -0.5924418   0.5573354  -0.1683542), wk =   0.0025641
        k(  698) = (  -0.5316246   0.7431139   0.0000000), wk =   0.0025641
        k(  699) = (  -0.4708073   0.7431139   0.1683542), wk =   0.0025641
        k(  700) = (  -0.4099900   0.7431139   0.3367085), wk =   0.0025641
        k(  701) = (  -0.3491727   0.7431139   0.5050627), wk =   0.0025641
        k(  702) = (  -0.2883554   0.7431139   0.6734170), wk =   0.0025641
        k(  703) = (  -0.2275381   0.7431139   0.8417712), wk =   0.0025641
        k(  704) = (  -0.1667208   0.7431139   1.0101254), wk =   0.0025641
        k(  705) = (  -0.8965283   0.7431139  -1.0101254), wk =   0.0025641
        k(  706) = (  -0.8357110   0.7431139  -0.8417712), wk =   0.0025641
        k(  707) = (  -0.7748937   0.7431139  -0.6734170), wk =   0.0025641
        k(  708) = (  -0.7140764   0.7431139  -0.5050627), wk =   0.0025641
        k(  709) = (  -0.6532591   0.7431139  -0.3367085), wk =   0.0025641
        k(  710) = (  -0.5924418   0.7431139  -0.1683542), wk =   0.0025641
        k(  711) = (  -0.5316246   0.9288923   0.0000000), wk =   0.0025641
        k(  712) = (  -0.4708073   0.9288923   0.1683542), wk =   0.0025641
        k(  713) = (  -0.4099900   0.9288923   0.3367085), wk =   0.0025641
        k(  714) = (  -0.3491727   0.9288923   0.5050627), wk =   0.0025641
        k(  715) = (  -0.2883554   0.9288923   0.6734170), wk =   0.0025641
        k(  716) = (  -0.2275381   0.9288923   0.8417712), wk =   0.0025641
        k(  717) = (  -0.1667208   0.9288923   1.0101254), wk =   0.0025641
        k(  718) = (  -0.8965283   0.9288923  -1.0101254), wk =   0.0025641
        k(  719) = (  -0.8357110   0.9288923  -0.8417712), wk =   0.0025641
        k(  720) = (  -0.7748937   0.9288923  -0.6734170), wk =   0.0025641
        k(  721) = (  -0.7140764   0.9288923  -0.5050627), wk =   0.0025641
        k(  722) = (  -0.6532591   0.9288923  -0.3367085), wk =   0.0025641
        k(  723) = (  -0.5924418   0.9288923  -0.1683542), wk =   0.0025641
        k(  724) = (  -0.5316246   1.1146708   0.0000000), wk =   0.0025641
        k(  725) = (  -0.4708073   1.1146708   0.1683542), wk =   0.0025641
        k(  726) = (  -0.4099900   1.1146708   0.3367085), wk =   0.0025641
        k(  727) = (  -0.3491727   1.1146708   0.5050627), wk =   0.0025641
        k(  728) = (  -0.2883554   1.1146708   0.6734170), wk =   0.0025641
        k(  729) = (  -0.2275381   1.1146708   0.8417712), wk =   0.0025641
        k(  730) = (  -0.1667208   1.1146708   1.0101254), wk =   0.0025641
        k(  731) = (  -0.8965283   1.1146708  -1.0101254), wk =   0.0025641
        k(  732) = (  -0.8357110   1.1146708  -0.8417712), wk =   0.0025641
        k(  733) = (  -0.7748937   1.1146708  -0.6734170), wk =   0.0025641
        k(  734) = (  -0.7140764   1.1146708  -0.5050627), wk =   0.0025641
        k(  735) = (  -0.6532591   1.1146708  -0.3367085), wk =   0.0025641
        k(  736) = (  -0.5924418   1.1146708  -0.1683542), wk =   0.0025641
        k(  737) = (  -0.5316246   1.3004493   0.0000000), wk =   0.0025641
        k(  738) = (  -0.4708073   1.3004493   0.1683542), wk =   0.0025641
        k(  739) = (  -0.4099900   1.3004493   0.3367085), wk =   0.0025641
        k(  740) = (  -0.3491727   1.3004493   0.5050627), wk =   0.0025641
        k(  741) = (  -0.2883554   1.3004493   0.6734170), wk =   0.0025641
        k(  742) = (  -0.2275381   1.3004493   0.8417712), wk =   0.0025641
        k(  743) = (  -0.1667208   1.3004493   1.0101254), wk =   0.0025641
        k(  744) = (  -0.8965283   1.3004493  -1.0101254), wk =   0.0025641
        k(  745) = (  -0.8357110   1.3004493  -0.8417712), wk =   0.0025641
        k(  746) = (  -0.7748937   1.3004493  -0.6734170), wk =   0.0025641
        k(  747) = (  -0.7140764   1.3004493  -0.5050627), wk =   0.0025641
        k(  748) = (  -0.6532591   1.3004493  -0.3367085), wk =   0.0025641
        k(  749) = (  -0.5924418   1.3004493  -0.1683542), wk =   0.0025641
        k(  750) = (  -0.5316246   1.4862277   0.0000000), wk =   0.0025641
        k(  751) = (  -0.4708073   1.4862277   0.1683542), wk =   0.0025641
        k(  752) = (  -0.4099900   1.4862277   0.3367085), wk =   0.0025641
        k(  753) = (  -0.3491727   1.4862277   0.5050627), wk =   0.0025641
        k(  754) = (  -0.2883554   1.4862277   0.6734170), wk =   0.0025641
        k(  755) = (  -0.2275381   1.4862277   0.8417712), wk =   0.0025641
        k(  756) = (  -0.1667208   1.4862277   1.0101254), wk =   0.0025641
        k(  757) = (  -0.8965283   1.4862277  -1.0101254), wk =   0.0025641
        k(  758) = (  -0.8357110   1.4862277  -0.8417712), wk =   0.0025641
        k(  759) = (  -0.7748937   1.4862277  -0.6734170), wk =   0.0025641
        k(  760) = (  -0.7140764   1.4862277  -0.5050627), wk =   0.0025641
        k(  761) = (  -0.6532591   1.4862277  -0.3367085), wk =   0.0025641
        k(  762) = (  -0.5924418   1.4862277  -0.1683542), wk =   0.0025641
        k(  763) = (  -0.5316246   1.6720062   0.0000000), wk =   0.0025641
        k(  764) = (  -0.4708073   1.6720062   0.1683542), wk =   0.0025641
        k(  765) = (  -0.4099900   1.6720062   0.3367085), wk =   0.0025641
        k(  766) = (  -0.3491727   1.6720062   0.5050627), wk =   0.0025641
        k(  767) = (  -0.2883554   1.6720062   0.6734170), wk =   0.0025641
        k(  768) = (  -0.2275381   1.6720062   0.8417712), wk =   0.0025641
        k(  769) = (  -0.1667208   1.6720062   1.0101254), wk =   0.0025641
        k(  770) = (  -0.8965283   1.6720062  -1.0101254), wk =   0.0025641
        k(  771) = (  -0.8357110   1.6720062  -0.8417712), wk =   0.0025641
        k(  772) = (  -0.7748937   1.6720062  -0.6734170), wk =   0.0025641
        k(  773) = (  -0.7140764   1.6720062  -0.5050627), wk =   0.0025641
        k(  774) = (  -0.6532591   1.6720062  -0.3367085), wk =   0.0025641
        k(  775) = (  -0.5924418   1.6720062  -0.1683542), wk =   0.0025641
        k(  776) = (  -0.5316246  -1.8577846   0.0000000), wk =   0.0012821
        k(  777) = (  -0.4708073  -1.8577846   0.1683542), wk =   0.0025641
        k(  778) = (  -0.4099900  -1.8577846   0.3367085), wk =   0.0025641
        k(  779) = (  -0.3491727  -1.8577846   0.5050627), wk =   0.0025641
        k(  780) = (  -0.2883554  -1.8577846   0.6734170), wk =   0.0025641
        k(  781) = (  -0.2275381  -1.8577846   0.8417712), wk =   0.0025641
        k(  782) = (  -0.1667208  -1.8577846   1.0101254), wk =   0.0025641

                       cryst. coord.
        k(    1) = (   0.0000000   0.0000000   0.0000000), wk =   0.0012821
        k(    2) = (   0.0000000   0.0000000   0.0769231), wk =   0.0025641
        k(    3) = (   0.0000000   0.0000000   0.1538462), wk =   0.0025641
        k(    4) = (   0.0000000   0.0000000   0.2307692), wk =   0.0025641
        k(    5) = (   0.0000000   0.0000000   0.3076923), wk =   0.0025641
        k(    6) = (  -0.0000000   0.0000000   0.3846154), wk =   0.0025641
        k(    7) = (   0.0000000   0.0000000   0.4615385), wk =   0.0025641
        k(    8) = (   0.0000000   0.0500000   0.0000000), wk =   0.0025641
        k(    9) = (   0.0000000   0.0500000   0.0769231), wk =   0.0025641
        k(   10) = (   0.0000000   0.0500000   0.1538462), wk =   0.0025641
        k(   11) = (   0.0000000   0.0500000   0.2307692), wk =   0.0025641
        k(   12) = (   0.0000000   0.0500000   0.3076923), wk =   0.0025641
        k(   13) = (  -0.0000000   0.0500000   0.3846154), wk =   0.0025641
        k(   14) = (   0.0000000   0.0500000   0.4615385), wk =   0.0025641
        k(   15) = (  -0.0000000   0.0500000  -0.4615385), wk =   0.0025641
        k(   16) = (   0.0000000   0.0500000  -0.3846154), wk =   0.0025641
        k(   17) = (  -0.0000000   0.0500000  -0.3076923), wk =   0.0025641
        k(   18) = (  -0.0000000   0.0500000  -0.2307692), wk =   0.0025641
        k(   19) = (  -0.0000000   0.0500000  -0.1538462), wk =   0.0025641
        k(   20) = (   0.0000000   0.0500000  -0.0769231), wk =   0.0025641
        k(   21) = (   0.0000000   0.1000000   0.0000000), wk =   0.0025641
        k(   22) = (   0.0000000   0.1000000   0.0769231), wk =   0.0025641
        k(   23) = (   0.0000000   0.1000000   0.1538462), wk =   0.0025641
        k(   24) = (   0.0000000   0.1000000   0.2307692), wk =   0.0025641
        k(   25) = (   0.0000000   0.1000000   0.3076923), wk =   0.0025641
        k(   26) = (  -0.0000000   0.1000000   0.3846154), wk =   0.0025641
        k(   27) = (   0.0000000   0.1000000   0.4615385), wk =   0.0025641
        k(   28) = (  -0.0000000   0.1000000  -0.4615385), wk =   0.0025641
        k(   29) = (   0.0000000   0.1000000  -0.3846154), wk =   0.0025641
        k(   30) = (  -0.0000000   0.1000000  -0.3076923), wk =   0.0025641
        k(   31) = (  -0.0000000   0.1000000  -0.2307692), wk =   0.0025641
        k(   32) = (  -0.0000000   0.1000000  -0.1538462), wk =   0.0025641
        k(   33) = (   0.0000000   0.1000000  -0.0769231), wk =   0.0025641
        k(   34) = (   0.0000000   0.1500000   0.0000000), wk =   0.0025641
        k(   35) = (   0.0000000   0.1500000   0.0769231), wk =   0.0025641
        k(   36) = (   0.0000000   0.1500000   0.1538462), wk =   0.0025641
        k(   37) = (   0.0000000   0.1500000   0.2307692), wk =   0.0025641
        k(   38) = (   0.0000000   0.1500000   0.3076923), wk =   0.0025641
        k(   39) = (  -0.0000000   0.1500000   0.3846154), wk =   0.0025641
        k(   40) = (   0.0000000   0.1500000   0.4615385), wk =   0.0025641
        k(   41) = (  -0.0000000   0.1500000  -0.4615385), wk =   0.0025641
        k(   42) = (   0.0000000   0.1500000  -0.3846154), wk =   0.0025641
        k(   43) = (  -0.0000000   0.1500000  -0.3076923), wk =   0.0025641
        k(   44) = (  -0.0000000   0.1500000  -0.2307692), wk =   0.0025641
        k(   45) = (  -0.0000000   0.1500000  -0.1538462), wk =   0.0025641
        k(   46) = (   0.0000000   0.1500000  -0.0769231), wk =   0.0025641
        k(   47) = (   0.0000000   0.2000000   0.0000000), wk =   0.0025641
        k(   48) = (   0.0000000   0.2000000   0.0769231), wk =   0.0025641
        k(   49) = (   0.0000000   0.2000000   0.1538462), wk =   0.0025641
        k(   50) = (   0.0000000   0.2000000   0.2307692), wk =   0.0025641
        k(   51) = (   0.0000000   0.2000000   0.3076923), wk =   0.0025641
        k(   52) = (  -0.0000000   0.2000000   0.3846154), wk =   0.0025641
        k(   53) = (   0.0000000   0.2000000   0.4615385), wk =   0.0025641
        k(   54) = (  -0.0000000   0.2000000  -0.4615385), wk =   0.0025641
        k(   55) = (   0.0000000   0.2000000  -0.3846154), wk =   0.0025641
        k(   56) = (  -0.0000000   0.2000000  -0.3076923), wk =   0.0025641
        k(   57) = (  -0.0000000   0.2000000  -0.2307692), wk =   0.0025641
        k(   58) = (  -0.0000000   0.2000000  -0.1538462), wk =   0.0025641
        k(   59) = (   0.0000000   0.2000000  -0.0769231), wk =   0.0025641
        k(   60) = (   0.0000000   0.2500000   0.0000000), wk =   0.0025641
        k(   61) = (   0.0000000   0.2500000   0.0769231), wk =   0.0025641
        k(   62) = (   0.0000000   0.2500000   0.1538462), wk =   0.0025641
        k(   63) = (   0.0000000   0.2500000   0.2307692), wk =   0.0025641
        k(   64) = (   0.0000000   0.2500000   0.3076923), wk =   0.0025641
        k(   65) = (  -0.0000000   0.2500000   0.3846154), wk =   0.0025641
        k(   66) = (   0.0000000   0.2500000   0.4615385), wk =   0.0025641
        k(   67) = (  -0.0000000   0.2500000  -0.4615385), wk =   0.0025641
        k(   68) = (   0.0000000   0.2500000  -0.3846154), wk =   0.0025641
        k(   69) = (  -0.0000000   0.2500000  -0.3076923), wk =   0.0025641
        k(   70) = (  -0.0000000   0.2500000  -0.2307692), wk =   0.0025641
        k(   71) = (  -0.0000000   0.2500000  -0.1538462), wk =   0.0025641
        k(   72) = (   0.0000000   0.2500000  -0.0769231), wk =   0.0025641
        k(   73) = (   0.0000000   0.3000000   0.0000000), wk =   0.0025641
        k(   74) = (   0.0000000   0.3000000   0.0769231), wk =   0.0025641
        k(   75) = (   0.0000000   0.3000000   0.1538462), wk =   0.0025641
        k(   76) = (   0.0000000   0.3000000   0.2307692), wk =   0.0025641
        k(   77) = (   0.0000000   0.3000000   0.3076923), wk =   0.0025641
        k(   78) = (  -0.0000000   0.3000000   0.3846154), wk =   0.0025641
        k(   79) = (   0.0000000   0.3000000   0.4615385), wk =   0.0025641
        k(   80) = (  -0.0000000   0.3000000  -0.4615385), wk =   0.0025641
        k(   81) = (   0.0000000   0.3000000  -0.3846154), wk =   0.0025641
        k(   82) = (  -0.0000000   0.3000000  -0.3076923), wk =   0.0025641
        k(   83) = (  -0.0000000   0.3000000  -0.2307692), wk =   0.0025641
        k(   84) = (  -0.0000000   0.3000000  -0.1538462), wk =   0.0025641
        k(   85) = (   0.0000000   0.3000000  -0.0769231), wk =   0.0025641
        k(   86) = (   0.0000000   0.3500000   0.0000000), wk =   0.0025641
        k(   87) = (   0.0000000   0.3500000   0.0769231), wk =   0.0025641
        k(   88) = (   0.0000000   0.3500000   0.1538462), wk =   0.0025641
        k(   89) = (   0.0000000   0.3500000   0.2307692), wk =   0.0025641
        k(   90) = (   0.0000000   0.3500000   0.3076923), wk =   0.0025641
        k(   91) = (  -0.0000000   0.3500000   0.3846154), wk =   0.0025641
        k(   92) = (   0.0000000   0.3500000   0.4615385), wk =   0.0025641
        k(   93) = (  -0.0000000   0.3500000  -0.4615385), wk =   0.0025641
        k(   94) = (   0.0000000   0.3500000  -0.3846154), wk =   0.0025641
        k(   95) = (  -0.0000000   0.3500000  -0.3076923), wk =   0.0025641
        k(   96) = (  -0.0000000   0.3500000  -0.2307692), wk =   0.0025641
        k(   97) = (  -0.0000000   0.3500000  -0.1538462), wk =   0.0025641
        k(   98) = (   0.0000000   0.3500000  -0.0769231), wk =   0.0025641
        k(   99) = (   0.0000000   0.4000000   0.0000000), wk =   0.0025641
        k(  100) = (   0.0000000   0.4000000   0.0769231), wk =   0.0025641
        k(  101) = (   0.0000000   0.4000000   0.1538462), wk =   0.0025641
        k(  102) = (   0.0000000   0.4000000   0.2307692), wk =   0.0025641
        k(  103) = (   0.0000000   0.4000000   0.3076923), wk =   0.0025641
        k(  104) = (  -0.0000000   0.4000000   0.3846154), wk =   0.0025641
        k(  105) = (   0.0000000   0.4000000   0.4615385), wk =   0.0025641
        k(  106) = (  -0.0000000   0.4000000  -0.4615385), wk =   0.0025641
        k(  107) = (   0.0000000   0.4000000  -0.3846154), wk =   0.0025641
        k(  108) = (  -0.0000000   0.4000000  -0.3076923), wk =   0.0025641
        k(  109) = (  -0.0000000   0.4000000  -0.2307692), wk =   0.0025641
        k(  110) = (  -0.0000000   0.4000000  -0.1538462), wk =   0.0025641
        k(  111) = (   0.0000000   0.4000000  -0.0769231), wk =   0.0025641
        k(  112) = (   0.0000000   0.4500000   0.0000000), wk =   0.0025641
        k(  113) = (   0.0000000   0.4500000   0.0769231), wk =   0.0025641
        k(  114) = (   0.0000000   0.4500000   0.1538462), wk =   0.0025641
        k(  115) = (   0.0000000   0.4500000   0.2307692), wk =   0.0025641
        k(  116) = (   0.0000000   0.4500000   0.3076923), wk =   0.0025641
        k(  117) = (  -0.0000000   0.4500000   0.3846154), wk =   0.0025641
        k(  118) = (   0.0000000   0.4500000   0.4615385), wk =   0.0025641
        k(  119) = (  -0.0000000   0.4500000  -0.4615385), wk =   0.0025641
        k(  120) = (   0.0000000   0.4500000  -0.3846154), wk =   0.0025641
        k(  121) = (  -0.0000000   0.4500000  -0.3076923), wk =   0.0025641
        k(  122) = (  -0.0000000   0.4500000  -0.2307692), wk =   0.0025641
        k(  123) = (  -0.0000000   0.4500000  -0.1538462), wk =   0.0025641
        k(  124) = (   0.0000000   0.4500000  -0.0769231), wk =   0.0025641
        k(  125) = (   0.0000000  -0.5000000   0.0000000), wk =   0.0012821
        k(  126) = (   0.0000000  -0.5000000   0.0769231), wk =   0.0025641
        k(  127) = (   0.0000000  -0.5000000   0.1538462), wk =   0.0025641
        k(  128) = (   0.0000000  -0.5000000   0.2307692), wk =   0.0025641
        k(  129) = (   0.0000000  -0.5000000   0.3076923), wk =   0.0025641
        k(  130) = (  -0.0000000  -0.5000000   0.3846154), wk =   0.0025641
        k(  131) = (   0.0000000  -0.5000000   0.4615385), wk =   0.0025641
        k(  132) = (   0.1666667   0.0000000   0.0000000), wk =   0.0025641
        k(  133) = (   0.1666667   0.0000000   0.0769231), wk =   0.0025641
        k(  134) = (   0.1666667   0.0000000   0.1538462), wk =   0.0025641
        k(  135) = (   0.1666667   0.0000000   0.2307692), wk =   0.0025641
        k(  136) = (   0.1666667   0.0000000   0.3076923), wk =   0.0025641
        k(  137) = (   0.1666667   0.0000000   0.3846154), wk =   0.0025641
        k(  138) = (   0.1666667   0.0000000   0.4615385), wk =   0.0025641
        k(  139) = (   0.1666667   0.0000000  -0.4615385), wk =   0.0025641
        k(  140) = (   0.1666667   0.0000000  -0.3846154), wk =   0.0025641
        k(  141) = (   0.1666667   0.0000000  -0.3076923), wk =   0.0025641
        k(  142) = (   0.1666667   0.0000000  -0.2307692), wk =   0.0025641
        k(  143) = (   0.1666667   0.0000000  -0.1538462), wk =   0.0025641
        k(  144) = (   0.1666667   0.0000000  -0.0769231), wk =   0.0025641
        k(  145) = (   0.1666667   0.0500000   0.0000000), wk =   0.0025641
        k(  146) = (   0.1666667   0.0500000   0.0769231), wk =   0.0025641
        k(  147) = (   0.1666667   0.0500000   0.1538462), wk =   0.0025641
        k(  148) = (   0.1666667   0.0500000   0.2307692), wk =   0.0025641
        k(  149) = (   0.1666667   0.0500000   0.3076923), wk =   0.0025641
        k(  150) = (   0.1666667   0.0500000   0.3846154), wk =   0.0025641
        k(  151) = (   0.1666667   0.0500000   0.4615385), wk =   0.0025641
        k(  152) = (   0.1666667   0.0500000  -0.4615385), wk =   0.0025641
        k(  153) = (   0.1666667   0.0500000  -0.3846154), wk =   0.0025641
        k(  154) = (   0.1666667   0.0500000  -0.3076923), wk =   0.0025641
[...]
    -0.0108

          k =-0.1667-1.8578 1.0101 ( 11614 PWs)   bands (ev):

    -3.6592  -3.6592  -3.1068  -3.1068  -2.2203  -2.2203  -1.7120  -1.7120
    -0.7918  -0.7918   0.5465   0.5465   0.8435   0.8435   1.8598   1.8598
     2.2471   2.2471   2.3450   2.3450   3.4886   3.4886   3.7934   3.7934
     3.9365   3.9365   4.4503   4.4503   4.6265   4.6265   5.6265   5.6265
     5.7005   5.7005   6.0498   6.0498   6.8022   6.8022   7.4877   7.4877
     7.7471

     occupation numbers 
     1.0000   1.0000   1.0000   1.0000   1.0000   1.0000   1.0000   1.0000
     1.0000   1.0000   1.0000   1.0000   1.0000   1.0000   1.0000   1.0000
     1.0000   1.0000   1.0000   1.0000   1.0000   1.0000   1.0000   1.0000
     1.0000   1.0000   1.0000   1.0000   1.0000   1.0000   1.0160   1.0160
     1.0214   1.0214   1.0299   1.0299   0.3350   0.3350  -0.0337  -0.0337
    -0.0154

     the Fermi energy is     6.6826 ev

!    total energy              =    -473.15906542 Ry
     Harris-Foulkes estimate   =    -473.15906542 Ry
     estimated scf accuracy    <          1.5E-13 Ry

     The total energy is the sum of the following terms:

     one-electron contribution =      36.34749456 Ry
     hartree contribution      =      13.21094394 Ry
     xc contribution           =     -90.15020801 Ry
     ewald contribution        =    -119.69673746 Ry
     one-center paw contrib.   =    -312.86922129 Ry
      -> PAW hartree energy AE =       0.81201501 Ry
      -> PAW hartree energy PS =      -0.81016746 Ry
      -> PAW xc energy AE      =     -32.61844422 Ry
      -> PAW xc energy PS      =       1.32260943 Ry
      -> total E_H with PAW    =      13.21279149 Ry
      -> total E_XC with PAW   =    -121.44604280 Ry
     smearing contrib. (-TS)   =      -0.00133716 Ry

     convergence has been achieved in  24 iterations

     Forces acting on atoms (cartesian axes, Ry/au):

     atom    1 type  1   force =     0.00000335   -0.00000011   -0.00000443
     atom    2 type  1   force =    -0.00044930    0.00000010    0.00000535
     atom    3 type  1   force =    -0.00063583    0.00000043   -0.00009301
     atom    4 type  1   force =     0.00063522   -0.00000044    0.00009190
     atom    5 type  1   force =     0.00044959   -0.00000010   -0.00000451
     atom    6 type  2   force =     0.00006602   -0.00000043    0.00042447
     atom    7 type  2   force =    -0.00009548   -0.00000010    0.00102895
     atom    8 type  2   force =    -0.00060223    0.00000009   -0.00059309
     atom    9 type  2   force =     0.00060254    0.00000003    0.00059403
     atom   10 type  2   force =     0.00009627   -0.00000000   -0.00102905
     atom   11 type  2   force =    -0.00006468    0.00000042   -0.00042499
     atom   12 type  1   force =    -0.00000730    0.00000014    0.00000478
     atom   13 type  1   force =    -0.00043067   -0.00000028    0.00002301
     atom   14 type  1   force =    -0.00062809   -0.00000024   -0.00008104
     atom   15 type  1   force =     0.00062798    0.00000023    0.00008039
     atom   16 type  1   force =     0.00043086    0.00000027   -0.00002293
     atom   17 type  2   force =     0.00007556    0.00000030    0.00043136
     atom   18 type  2   force =    -0.00010074    0.00000079    0.00102127
     atom   19 type  2   force =    -0.00059442    0.00000064   -0.00059533
     atom   20 type  2   force =     0.00059549   -0.00000059    0.00059457
     atom   21 type  2   force =     0.00010102   -0.00000077   -0.00102097
     atom   22 type  2   force =    -0.00007515   -0.00000037   -0.00043071
     The non-local contrib.  to forces
     atom    1 type  1   force =    -0.00000902    0.00000056   -0.00002751
     atom    2 type  1   force =     0.00703963    0.00000033    0.01096618
     atom    3 type  1   force =     0.01708135   -0.00000040    0.00298583
     atom    4 type  1   force =    -0.01709894    0.00000042   -0.00298817
     atom    5 type  1   force =    -0.00705108   -0.00000041   -0.01097053
     atom    6 type  2   force =     0.00001114    0.00000056   -0.06332825
     atom    7 type  2   force =     0.04419927   -0.00000056    0.01455330
     atom    8 type  2   force =    -0.01414560   -0.00000040    0.02667923
     atom    9 type  2   force =     0.01414537    0.00000053   -0.02667386
     atom   10 type  2   force =    -0.04419852    0.00000065   -0.01455289
     atom   11 type  2   force =    -0.00000837   -0.00000064    0.06332821
     atom   12 type  1   force =    -0.00001664   -0.00000079    0.00002613
     atom   13 type  1   force =     0.00708116    0.00000052    0.01101234
     atom   14 type  1   force =     0.01710343   -0.00000003    0.00302062
     atom   15 type  1   force =    -0.01712108   -0.00000014   -0.00302517
     atom   16 type  1   force =    -0.00709264   -0.00000045   -0.01101678
     atom   17 type  2   force =     0.00002539   -0.00000071   -0.06331609
     atom   18 type  2   force =     0.04416267   -0.00000105    0.01455057
     atom   19 type  2   force =    -0.01414188   -0.00000140    0.02668335
     atom   20 type  2   force =     0.01414191    0.00000147   -0.02668091
     atom   21 type  2   force =    -0.04416239    0.00000098   -0.01454980
     atom   22 type  2   force =    -0.00002245    0.00000081    0.06331582
     The ionic contribution  to forces
     atom    1 type  1   force =    -0.00025824   -0.00000007   -0.00004324
     atom    2 type  1   force =    -0.41721773    0.00000028   -0.39046460
     atom    3 type  1   force =    -0.25523302    0.00000022    0.19866394
     atom    4 type  1   force =     0.25522849   -0.00000022   -0.19867086
     atom    5 type  1   force =     0.41718267   -0.00000028    0.39047480
     atom    6 type  2   force =    -0.24564165   -0.00000024    1.17863644
     atom    7 type  2   force =    -1.16335313   -0.00000053   -1.24520980
     atom    8 type  2   force =    -0.10364914   -0.00000053    0.73729289
     atom    9 type  2   force =     0.10367150    0.00000053   -0.73728375
     atom   10 type  2   force =     1.16339612    0.00000053    1.24520011
     atom   11 type  2   force =     0.24565156    0.00000024   -1.17863155
     atom   12 type  1   force =     0.00018302    0.00000007    0.00002669
     atom   13 type  1   force =    -0.41677588   -0.00000028   -0.39054655
     atom   14 type  1   force =    -0.25501728   -0.00000022    0.19898247
     atom   15 type  1   force =     0.25501232    0.00000022   -0.19898969
     atom   16 type  1   force =     0.41674073    0.00000028    0.39055679
     atom   17 type  2   force =    -0.24502495    0.00000024    1.17856726
     atom   18 type  2   force =    -1.16297908    0.00000053   -1.24555534
     atom   19 type  2   force =    -0.10353345    0.00000053    0.73739370
     atom   20 type  2   force =     0.10355804   -0.00000053   -0.73738344
     atom   21 type  2   force =     1.16302336   -0.00000053    1.24554436
     atom   22 type  2   force =     0.24503572   -0.00000024   -1.17856063
     The local contribution  to forces
     atom    1 type  1   force =     0.00026723   -0.00000054    0.00006280
     atom    2 type  1   force =     0.41068829   -0.00000047    0.38000750
     atom    3 type  1   force =     0.23942757    0.00000056   -0.20120635
     atom    4 type  1   force =    -0.23941220   -0.00000060    0.20121322
     atom    5 type  1   force =    -0.41064705    0.00000055   -0.38001401
     atom    6 type  2   force =     0.24555126   -0.00000069   -1.12102547
     atom    7 type  2   force =     1.12333155    0.00000093    1.23278372
     atom    8 type  2   force =     0.11573364    0.00000098   -0.76160466
     atom    9 type  2   force =    -0.11575432   -0.00000098    0.76159443
     atom   10 type  2   force =    -1.12337355   -0.00000111   -1.23277412
     atom   11 type  2   force =    -0.24556043    0.00000074    1.12102024
     atom   12 type  1   force =    -0.00017747    0.00000078   -0.00004566
     atom   13 type  1   force =     0.41022860   -0.00000046    0.38006611
     atom   14 type  1   force =     0.23919973    0.00000000   -0.20154243
     atom   15 type  1   force =    -0.23918342    0.00000014    0.20155205
     atom   16 type  1   force =    -0.41018736    0.00000040   -0.38007333
     atom   17 type  2   force =     0.24493127    0.00000068   -1.12096023
     atom   18 type  2   force =     1.12298504    0.00000120    1.23312389
     atom   19 type  2   force =     0.11562265    0.00000135   -0.76171132
     atom   20 type  2   force =    -0.11564505   -0.00000137    0.76170087
     atom   21 type  2   force =    -1.12302849   -0.00000112   -1.23311287
     atom   22 type  2   force =    -0.24494229   -0.00000085    1.12095484
     The core correction contribution to forces
     atom    1 type  1   force =     0.00000128   -0.00000005    0.00000301
     atom    2 type  1   force =    -0.00096155   -0.00000003   -0.00050421
     atom    3 type  1   force =    -0.00191378    0.00000005   -0.00053696
     atom    4 type  1   force =     0.00191573   -0.00000005    0.00053722
     atom    5 type  1   force =     0.00096292    0.00000004    0.00050470
     atom    6 type  2   force =     0.00014324   -0.00000006    0.00614120
     atom    7 type  2   force =    -0.00427516    0.00000006   -0.00109874
     atom    8 type  2   force =     0.00145680    0.00000005   -0.00296106
     atom    9 type  2   force =    -0.00146210   -0.00000006    0.00295671
     atom   10 type  2   force =     0.00427006   -0.00000007    0.00109731
     atom   11 type  2   force =    -0.00014960    0.00000007   -0.00614235
     atom   12 type  1   force =     0.00000169    0.00000008   -0.00000289
     atom   13 type  1   force =    -0.00096663   -0.00000005   -0.00050937
     atom   14 type  1   force =    -0.00191605    0.00000000   -0.00054222
     atom   15 type  1   force =     0.00191802    0.00000002    0.00054271
     atom   16 type  1   force =     0.00096801    0.00000004    0.00050985
     atom   17 type  2   force =     0.00014176    0.00000008    0.00613985
     atom   18 type  2   force =    -0.00427141    0.00000012   -0.00109832
     atom   19 type  2   force =     0.00145616    0.00000015   -0.00296156
     atom   20 type  2   force =    -0.00146154   -0.00000016    0.00295754
     atom   21 type  2   force =     0.00426635   -0.00000011    0.00109680
     atom   22 type  2   force =    -0.00014827   -0.00000009   -0.00614120
     The Hubbard contrib.    to forces
     atom    1 type  1   force =     0.00000000    0.00000000    0.00000000
     atom    2 type  1   force =     0.00000000    0.00000000    0.00000000
     atom    3 type  1   force =     0.00000000    0.00000000    0.00000000
     atom    4 type  1   force =     0.00000000    0.00000000    0.00000000
     atom    5 type  1   force =     0.00000000    0.00000000    0.00000000
     atom    6 type  2   force =     0.00000000    0.00000000    0.00000000
     atom    7 type  2   force =     0.00000000    0.00000000    0.00000000
     atom    8 type  2   force =     0.00000000    0.00000000    0.00000000
     atom    9 type  2   force =     0.00000000    0.00000000    0.00000000
     atom   10 type  2   force =     0.00000000    0.00000000    0.00000000
     atom   11 type  2   force =     0.00000000    0.00000000    0.00000000
     atom   12 type  1   force =     0.00000000    0.00000000    0.00000000
     atom   13 type  1   force =     0.00000000    0.00000000    0.00000000
     atom   14 type  1   force =     0.00000000    0.00000000    0.00000000
     atom   15 type  1   force =     0.00000000    0.00000000    0.00000000
     atom   16 type  1   force =     0.00000000    0.00000000    0.00000000
     atom   17 type  2   force =     0.00000000    0.00000000    0.00000000
     atom   18 type  2   force =     0.00000000    0.00000000    0.00000000
     atom   19 type  2   force =     0.00000000    0.00000000    0.00000000
     atom   20 type  2   force =     0.00000000    0.00000000    0.00000000
     atom   21 type  2   force =     0.00000000    0.00000000    0.00000000
     atom   22 type  2   force =     0.00000000    0.00000000    0.00000000
     The SCF correction term to forces
     atom    1 type  1   force =    -0.00000001    0.00000000    0.00000000
     atom    2 type  1   force =    -0.00000004    0.00000000   -0.00000003
     atom    3 type  1   force =    -0.00000005    0.00000000    0.00000002
     atom    4 type  1   force =     0.00000003   -0.00000000   -0.00000002
     atom    5 type  1   force =     0.00000003   -0.00000000    0.00000003
     atom    6 type  2   force =    -0.00000007   -0.00000000    0.00000005
     atom    7 type  2   force =    -0.00000011   -0.00000000   -0.00000004
     atom    8 type  2   force =    -0.00000004   -0.00000000   -0.00000000
     atom    9 type  2   force =    -0.00000001    0.00000000    0.00000000
     atom   10 type  2   force =     0.00000007    0.00000000    0.00000004
     atom   11 type  2   force =     0.00000006    0.00000000   -0.00000004
     atom   12 type  1   force =     0.00000001    0.00000000   -0.00000000
     atom   13 type  1   force =    -0.00000002    0.00000000   -0.00000002
     atom   14 type  1   force =    -0.00000003    0.00000000    0.00000002
     atom   15 type  1   force =     0.00000004   -0.00000000   -0.00000002
     atom   16 type  1   force =     0.00000002   -0.00000000    0.00000003
     atom   17 type  2   force =    -0.00000003   -0.00000000    0.00000005
     atom   18 type  2   force =    -0.00000006   -0.00000000   -0.00000003
     atom   19 type  2   force =     0.00000001   -0.00000000   -0.00000001
     atom   20 type  2   force =     0.00000003    0.00000000    0.00000001
     atom   21 type  2   force =     0.00000009    0.00000000    0.00000003
     atom   22 type  2   force =     0.00000004    0.00000000   -0.00000004

     Total force =     0.003201     Total SCF correction =     0.000000


     Computing stress (Cartesian axis) and pressure

          total   stress  (Ry/bohr**3)                   (kbar)     P=   -4.81
  -0.00003907   0.00000000  -0.00000669         -5.75      0.00     -0.98
   0.00000000  -0.00002927   0.00000000          0.00     -4.31      0.00
  -0.00000669   0.00000000  -0.00002969         -0.98      0.00     -4.37

     kinetic stress (kbar)   1564.16      0.00      0.35
                                0.00   1588.07      0.00
                                0.35      0.00   1585.36

     local   stress (kbar)   -146.32      0.00    277.78
                                0.00   -382.06      0.00
                              277.78      0.00    181.96

     nonloc. stress (kbar)   1237.45     -0.00      2.60
                               -0.00   1222.64      0.00
                                2.60      0.00   1223.20

     hartree stress (kbar)    215.37      0.00   -124.90
                                0.00    386.26     -0.00
                             -124.90     -0.00    112.76

     exc-cor stress (kbar)   1968.25     -0.00      0.09
                               -0.00   1967.60     -0.00
                                0.09     -0.00   1967.65

     corecor stress (kbar)  -2745.84      0.00     -0.40
                                0.00  -2744.08     -0.00
                               -0.40     -0.00  -2744.18

     ewald   stress (kbar)  -2098.81      0.00   -156.52
                                0.00  -2042.74     -0.00
                             -156.52     -0.00  -2331.12

     hubbard stress (kbar)      0.00      0.00      0.00
                                0.00      0.00      0.00
                                0.00      0.00      0.00

     london  stress (kbar)      0.00      0.00      0.00
                                0.00      0.00      0.00
                                0.00      0.00      0.00

     DFT-D3  stress (kbar)      0.00      0.00      0.00
                                0.00      0.00      0.00
                                0.00      0.00      0.00

     XDM     stress (kbar)      0.00      0.00      0.00
                                0.00      0.00      0.00
                                0.00      0.00      0.00

     dft-nl  stress (kbar)      0.00      0.00      0.00
                                0.00      0.00      0.00
                                0.00      0.00      0.00

     TS-vdW  stress (kbar)      0.00      0.00      0.00
                                0.00      0.00      0.00
                                0.00      0.00      0.00



     Writing output data file aiida.save/
 
     init_run     :     22.59s CPU     23.05s WALL (       1 calls)
     electrons    :   1048.15s CPU   1065.90s WALL (       1 calls)
     forces       :      8.98s CPU      9.02s WALL (       1 calls)
     stress       :     67.77s CPU     68.80s WALL (       1 calls)

     Called by init_run:
     wfcinit      :     20.87s CPU     21.27s WALL (       1 calls)
     wfcinit:atom :      0.17s CPU      0.19s WALL (     196 calls)
     wfcinit:wfcr :     19.42s CPU     19.72s WALL (     196 calls)
     potinit      :      0.57s CPU      0.59s WALL (       1 calls)
     hinit0       :      1.00s CPU      1.01s WALL (       1 calls)

     Called by electrons:
     c_bands      :    928.74s CPU    943.08s WALL (      25 calls)
     sum_band     :    114.09s CPU    116.50s WALL (      25 calls)
     v_of_rho     :      2.19s CPU      2.38s WALL (      25 calls)
     v_h          :      0.15s CPU      0.17s WALL (      25 calls)
     v_xc         :      2.18s CPU      2.35s WALL (      27 calls)
     newd         :      1.23s CPU      1.95s WALL (      25 calls)
     PAW_pot      :      0.82s CPU      0.85s WALL (      25 calls)
     mix_rho      :      0.84s CPU      0.88s WALL (      25 calls)

     Called by c_bands:
     init_us_2    :     32.33s CPU     32.79s WALL (   10388 calls)
     cegterg      :    718.66s CPU    728.17s WALL (    4900 calls)

     Called by sum_band:
     sum_band:bec :      0.68s CPU      0.68s WALL (    4900 calls)
     addusdens    :      1.20s CPU      1.92s WALL (      25 calls)

     Called by *egterg:
     h_psi        :    498.15s CPU    506.10s WALL (   20094 calls)
     s_psi        :     71.57s CPU     71.81s WALL (   20094 calls)
     g_psi        :      3.31s CPU      3.34s WALL (   14998 calls)
     cdiaghg      :     73.36s CPU     74.52s WALL (   19702 calls)
     cegterg:over :     34.35s CPU     34.51s WALL (   14998 calls)
     cegterg:upda :     27.89s CPU     28.12s WALL (   14998 calls)
     cegterg:last :     11.95s CPU     12.02s WALL (    5296 calls)
     cdiaghg:chol :      4.66s CPU      4.69s WALL (   19702 calls)
     cdiaghg:inve :      0.98s CPU      0.99s WALL (   19702 calls)
     cdiaghg:para :      9.38s CPU      9.45s WALL (   39404 calls)

     Called by h_psi:
     h_psi:pot    :    495.51s CPU    503.44s WALL (   20094 calls)
     h_psi:calbec :     70.32s CPU     71.12s WALL (   20094 calls)
     vloc_psi     :    352.48s CPU    359.45s WALL (   20094 calls)
     add_vuspsi   :     72.51s CPU     72.72s WALL (   20094 calls)

     General routines
     calbec       :    132.07s CPU    134.12s WALL (   25974 calls)
     fft          :      1.84s CPU      1.96s WALL (     350 calls)
     ffts         :      0.28s CPU      0.28s WALL (     389 calls)
     fftw         :    380.02s CPU    387.31s WALL ( 1259612 calls)
     interpolate  :      0.20s CPU      0.20s WALL (      25 calls)
 
     Parallel routines
     fft_scatt_xy :     48.88s CPU     49.84s WALL ( 1260351 calls)
     fft_scatt_yz :    145.30s CPU    148.36s WALL ( 1260351 calls)

     PAW routines
     PAW_pot      :      0.82s CPU      0.85s WALL (      25 calls)
 
     PWSCF        :  19m31.80s CPU  20m 9.01s WALL

 
   This run was terminated on:  14:32:46  22Feb2020            

=------------------------------------------------------------------------------=
   JOB DONE.
=------------------------------------------------------------------------------=
