begin
comment uuid: 97a1eb39-4506-47a5-80a4-8cc5b93385e8 
lattice 7.6666220000 -0.2439380000 0.0000000000
lattice -0.2439380000 7.6666220000 0.0000000000
lattice 0.0000000000 0.0000000000 7.6985190000
atom   0.000000    0.000000   0.000000 Al  0.0   0.0  -0.0000000000  -0.0000000050  -0.0000000250
atom   3.711342    3.711342   0.000000 Al  0.0   0.0  0.0000000050  -0.0000000000  -0.0000000250
atom   3.833311    -0.121969   3.849259 Al  0.0   0.0  -0.0000000050  0.0000000050  0.0000000200
atom   -0.121969    3.833311   3.849259 Al  0.0   0.0  0.0000000000  0.0000000050  0.0000000300
energy -79.004391550000022
charge 0.000000000000000
end
begin
comment uuid: 54754007-cf64-4827-9e3f-5f61626ced11 
lattice 7.6666220000 -0.2361940000 0.0000000000
lattice -0.2361940000 7.6666220000 0.0000000000
lattice 0.0000000000 0.0000000000 7.6964950000
atom   0.000000    0.000000   0.000000 Al  0.0   0.0  -0.0000000000  -0.0000000050  -0.0000000250
atom   3.715214    3.715214   0.000000 Al  0.0   0.0  0.0000000050  -0.0000000000  -0.0000000250
atom   3.833311    -0.118097   3.848247 Al  0.0   0.0  -0.0000000050  0.0000000050  0.0000000200
atom   -0.118097    3.833311   3.848247 Al  0.0   0.0  0.0000000000  0.0000000050  0.0000000300
energy -79.004459935000028
charge 0.000000000000000
end
begin
comment uuid: 0f40bcad-3ab6-481c-a55b-4eff07d33170 
lattice 7.6666220000 -0.2284500000 0.0000000000
lattice -0.2284500000 7.6666220000 0.0000000000
lattice 0.0000000000 0.0000000000 7.6945390000
atom   0.000000    0.000000   0.000000 Al  0.0   0.0  0.0000000300  0.0000000250  0.0000000200
atom   3.719087    3.719087   0.000000 Al  0.0   0.0  -0.0000000250  -0.0000000300  0.0000000250
atom   3.833311    -0.114224   3.847270 Al  0.0   0.0  0.0000000050  -0.0000000050  -0.0000000250
atom   -0.114224    3.833311   3.847270 Al  0.0   0.0  -0.0000000100  0.0000000100  -0.0000000200
energy -79.004525835000024
charge 0.000000000000000
end
begin
comment uuid: 25dac7be-de12-4a10-9627-012d24dd5a9b 
lattice 7.6666220000 -0.2207060000 0.0000000000
lattice -0.2207060000 7.6666220000 0.0000000000
lattice 0.0000000000 0.0000000000 7.6926530000
atom   0.000000    0.000000   0.000000 Al  0.0   0.0  0.0000000300  0.0000000250  0.0000000200
atom   3.722959    3.722959   0.000000 Al  0.0   0.0  -0.0000000250  -0.0000000300  0.0000000250
atom   3.833311    -0.110352   3.846327 Al  0.0   0.0  0.0000000050  -0.0000000050  -0.0000000250
atom   -0.110352    3.833311   3.846327 Al  0.0   0.0  -0.0000000100  0.0000000150  -0.0000000200
energy -79.004589270000025
charge 0.000000000000000
end
begin
comment uuid: dea6a926-b365-4cfb-a7ca-742c41fda0a4 
lattice 7.6666220000 -0.2129620000 0.0000000000
lattice -0.2129620000 7.6666220000 0.0000000000
lattice 0.0000000000 0.0000000000 7.6908360000
atom   0.000000    0.000000   0.000000 Al  0.0   0.0  -0.0000000000  -0.0000000050  -0.0000000000
atom   3.726830    3.726830   0.000000 Al  0.0   0.0  0.0000000050  -0.0000000000  -0.0000000000
atom   3.833311    -0.106481   3.845418 Al  0.0   0.0  -0.0000000050  0.0000000050  -0.0000000050
atom   -0.106481    3.833311   3.845418 Al  0.0   0.0  0.0000000000  0.0000000050  0.0000000050
energy -79.004650280000021
charge 0.000000000000000
end
begin
comment uuid: 22f0a2ae-0e0b-4e1d-ac0b-2ed5ba587f67 
lattice 7.6666220000 -0.2052180000 0.0000000000
lattice -0.2052180000 7.6666220000 0.0000000000
lattice 0.0000000000 0.0000000000 7.6890860000
atom   0.000000    0.000000   0.000000 Al  0.0   0.0  0.0000000250  0.0000000250  0.0000000450
atom   3.730703    3.730703   0.000000 Al  0.0   0.0  -0.0000000250  -0.0000000300  0.0000000500
atom   3.833311    -0.102608   3.844544 Al  0.0   0.0  0.0000000050  -0.0000000050  -0.0000000500
atom   -0.102608    3.833311   3.844544 Al  0.0   0.0  -0.0000000100  0.0000000150  -0.0000000450
energy -79.004708880000024
charge 0.000000000000000
end
begin
comment uuid: 766d2e5f-e3f3-4197-bcae-8b92585718ba 
lattice 7.6666220000 -0.1974740000 0.0000000000
lattice -0.1974740000 7.6666220000 0.0000000000
lattice 0.0000000000 0.0000000000 7.6874050000
atom   0.000000    0.000000   0.000000 Al  0.0   0.0  0.0000000250  0.0000000250  0.0000000200
atom   3.734575    3.734575   0.000000 Al  0.0   0.0  -0.0000000250  -0.0000000300  0.0000000250
atom   3.833311    -0.098736   3.843703 Al  0.0   0.0  0.0000000050  -0.0000000050  -0.0000000250
atom   -0.098736    3.833311   3.843703 Al  0.0   0.0  -0.0000000100  0.0000000150  -0.0000000200
energy -79.004765095000010
charge 0.000000000000000
end
begin
comment uuid: b5d9a60d-7529-4813-96a7-b1dc2baf18cb 
lattice 7.6666220000 -0.1897300000 0.0000000000
lattice -0.1897300000 7.6666220000 0.0000000000
lattice 0.0000000000 0.0000000000 7.6857900000
atom   0.000000    0.000000   0.000000 Al  0.0   0.0  -0.0000000000  -0.0000000050  -0.0000000000
atom   3.738446    3.738446   0.000000 Al  0.0   0.0  0.0000000050  -0.0000000050  -0.0000000000
atom   3.833311    -0.094865   3.842895 Al  0.0   0.0  -0.0000000050  0.0000000050  -0.0000000050
atom   -0.094865    3.833311   3.842895 Al  0.0   0.0  0.0000000000  0.0000000050  0.0000000050
energy -79.004818950000015
charge 0.000000000000000
end
begin
comment uuid: e541f56d-039d-44ad-9169-48a43428c783 
lattice 7.6666220000 -0.1819860000 0.0000000000
lattice -0.1819860000 7.6666220000 0.0000000000
lattice 0.0000000000 0.0000000000 7.6842430000
atom   0.000000    0.000000   0.000000 Al  0.0   0.0  -0.0000000000  -0.0000000050  0.0000000200
atom   3.742318    3.742318   0.000000 Al  0.0   0.0  0.0000000050  -0.0000000050  0.0000000250
atom   3.833311    -0.090993   3.842122 Al  0.0   0.0  -0.0000000050  0.0000000050  -0.0000000250
atom   -0.090993    3.833311   3.842122 Al  0.0   0.0  0.0000000000  0.0000000050  -0.0000000200
energy -79.004870490000030
charge 0.000000000000000
end
begin
comment uuid: af4b9abb-43ce-44db-992e-fc0987a749da 
lattice 7.6666220000 -0.1742410000 0.0000000000
lattice -0.1742410000 7.6666220000 0.0000000000
lattice 0.0000000000 0.0000000000 7.6827630000
atom   0.000000    0.000000   0.000000 Al  0.0   0.0  -0.0000000150  -0.0000000200  0.0000000200
atom   3.746190    3.746190   0.000000 Al  0.0   0.0  0.0000000200  0.0000000100  0.0000000250
atom   3.833311    -0.087121   3.841382 Al  0.0   0.0  -0.0000000100  0.0000000100  -0.0000000250
atom   -0.087121    3.833311   3.841382 Al  0.0   0.0  0.0000000050  -0.0000000050  -0.0000000200
energy -79.004919715000028
charge 0.000000000000000
end
begin
comment uuid: 7568d7d4-443e-46a4-ac4a-d381e3ac76a5 
lattice 7.6666220000 -0.1664970000 0.0000000000
lattice -0.1664970000 7.6666220000 0.0000000000
lattice 0.0000000000 0.0000000000 7.6813490000
atom   0.000000    0.000000   0.000000 Al  0.0   0.0  -0.0000000150  -0.0000000150  -0.0000000250
atom   3.750062    3.750062   0.000000 Al  0.0   0.0  0.0000000200  0.0000000100  -0.0000000250
atom   3.833311    -0.083249   3.840674 Al  0.0   0.0  -0.0000000100  0.0000000100  0.0000000200
atom   -0.083249    3.833311   3.840674 Al  0.0   0.0  0.0000000050  -0.0000000050  0.0000000300
energy -79.004966630000027
charge 0.000000000000000
end
begin
comment uuid: a8fe40f1-08ad-40e6-b5aa-eaf9ba8c1059 
lattice 7.6666220000 -0.1587530000 0.0000000000
lattice -0.1587530000 7.6666220000 0.0000000000
lattice 0.0000000000 0.0000000000 7.6800020000
atom   0.000000    0.000000   0.000000 Al  0.0   0.0  -0.0000000150  -0.0000000150  -0.0000000000
atom   3.753934    3.753934   0.000000 Al  0.0   0.0  0.0000000200  0.0000000100  -0.0000000000
atom   3.833311    -0.079377   3.840001 Al  0.0   0.0  -0.0000000100  0.0000000100  -0.0000000050
atom   -0.079377    3.833311   3.840001 Al  0.0   0.0  0.0000000050  -0.0000000050  0.0000000050
energy -79.005011280000033
charge 0.000000000000000
end
begin
comment uuid: 4d864b77-9e7e-4b41-b50d-e07e607895c6 
lattice 7.6666220000 -0.1510090000 0.0000000000
lattice -0.1510090000 7.6666220000 0.0000000000
lattice 0.0000000000 0.0000000000 7.6787200000
atom   0.000000    0.000000   0.000000 Al  0.0   0.0  -0.0000000150  -0.0000000150  -0.0000000000
atom   3.757806    3.757806   0.000000 Al  0.0   0.0  0.0000000200  0.0000000100  -0.0000000000
atom   3.833311    -0.075505   3.839360 Al  0.0   0.0  -0.0000000100  0.0000000100  -0.0000000050
atom   -0.075505    3.833311   3.839360 Al  0.0   0.0  0.0000000050  -0.0000000050  0.0000000050
energy -79.005053680000046
charge 0.000000000000000
end
begin
comment uuid: 67a30f64-3377-4b4b-a503-7fa9f417cb48 
lattice 7.6666220000 -0.1432650000 0.0000000000
lattice -0.1432650000 7.6666220000 0.0000000000
lattice 0.0000000000 0.0000000000 7.6775040000
atom   0.000000    0.000000   0.000000 Al  0.0   0.0  -0.0000000150  -0.0000000150  0.0000000450
atom   3.761678    3.761678   0.000000 Al  0.0   0.0  0.0000000200  0.0000000100  0.0000000500
atom   3.833311    -0.071633   3.838753 Al  0.0   0.0  -0.0000000100  0.0000000100  -0.0000000500
atom   -0.071633    3.833311   3.838753 Al  0.0   0.0  0.0000000050  -0.0000000050  -0.0000000450
energy -79.005093850000023
charge 0.000000000000000
end
begin
comment uuid: 0843d9f4-252c-4bad-a1b4-7ce3e9996140 
lattice 7.6666220000 -0.1355210000 0.0000000000
lattice -0.1355210000 7.6666220000 0.0000000000
lattice 0.0000000000 0.0000000000 7.6763540000
atom   0.000000    0.000000   0.000000 Al  0.0   0.0  -0.0000000150  -0.0000000150  -0.0000000000
atom   3.765550    3.765550   0.000000 Al  0.0   0.0  0.0000000200  0.0000000100  -0.0000000000
atom   3.833311    -0.067761   3.838177 Al  0.0   0.0  -0.0000000100  0.0000000100  -0.0000000050
atom   -0.067761    3.833311   3.838177 Al  0.0   0.0  0.0000000050  -0.0000000050  0.0000000050
energy -79.005131805000033
charge 0.000000000000000
end
begin
comment uuid: d284fcea-bee5-4dec-a9ef-fd6b0ed079a5 
lattice 7.6666220000 -0.1277770000 0.0000000000
lattice -0.1277770000 7.6666220000 0.0000000000
lattice 0.0000000000 0.0000000000 7.6752680000
atom   0.000000    0.000000   0.000000 Al  0.0   0.0  -0.0000000150  -0.0000000150  -0.0000000000
atom   3.769422    3.769422   0.000000 Al  0.0   0.0  0.0000000200  0.0000000100  -0.0000000000
atom   3.833311    -0.063889   3.837634 Al  0.0   0.0  -0.0000000100  0.0000000150  -0.0000000050
atom   -0.063889    3.833311   3.837634 Al  0.0   0.0  0.0000000050  -0.0000000050  0.0000000050
energy -79.005167560000032
charge 0.000000000000000
end
begin
comment uuid: 8625d16b-fb79-428e-8647-6ae955906ba4 
lattice 7.6666220000 -0.1200330000 0.0000000000
lattice -0.1200330000 7.6666220000 0.0000000000
lattice 0.0000000000 0.0000000000 7.6742480000
atom   0.000000    0.000000   0.000000 Al  0.0   0.0  -0.0000000150  -0.0000000150  -0.0000000000
atom   3.773294    3.773294   0.000000 Al  0.0   0.0  0.0000000200  0.0000000050  -0.0000000000
atom   3.833311    -0.060017   3.837124 Al  0.0   0.0  -0.0000000100  0.0000000150  -0.0000000050
atom   -0.060017    3.833311   3.837124 Al  0.0   0.0  0.0000000050  -0.0000000050  0.0000000050
energy -79.005201130000017
charge 0.000000000000000
end
begin
comment uuid: 07b7aaf8-3d5a-4f22-872b-d7e786d9b441 
lattice 7.6666220000 -0.1122890000 0.0000000000
lattice -0.1122890000 7.6666220000 0.0000000000
lattice 0.0000000000 0.0000000000 7.6732920000
atom   0.000000    0.000000   0.000000 Al  0.0   0.0  -0.0000000150  -0.0000000150  -0.0000000000
atom   3.777166    3.777166   0.000000 Al  0.0   0.0  0.0000000200  0.0000000050  -0.0000000000
atom   3.833311    -0.056145   3.836646 Al  0.0   0.0  -0.0000000100  0.0000000150  -0.0000000050
atom   -0.056145    3.833311   3.836646 Al  0.0   0.0  0.0000000050  -0.0000000050  0.0000000050
energy -79.005232510000042
charge 0.000000000000000
end
begin
comment uuid: f6b8f3d6-3383-4aae-811a-30f8911f1eed 
lattice 7.6666220000 -0.1045450000 0.0000000000
lattice -0.1045450000 7.6666220000 0.0000000000
lattice 0.0000000000 0.0000000000 7.6724010000
atom   0.000000    0.000000   0.000000 Al  0.0   0.0  -0.0000000150  -0.0000000150  -0.0000000250
atom   3.781038    3.781038   0.000000 Al  0.0   0.0  0.0000000200  0.0000000050  -0.0000000250
atom   3.833311    -0.052273   3.836200 Al  0.0   0.0  -0.0000000100  0.0000000150  0.0000000200
atom   -0.052273    3.833311   3.836200 Al  0.0   0.0  0.0000000050  -0.0000000050  0.0000000300
energy -79.005261755000035
charge 0.000000000000000
end
begin
comment uuid: 7745eedd-7637-43ee-a5bb-63aa97ae922a 
lattice 7.6666220000 -0.0968010000 0.0000000000
lattice -0.0968010000 7.6666220000 0.0000000000
lattice 0.0000000000 0.0000000000 7.6715750000
atom   0.000000    0.000000   0.000000 Al  0.0   0.0  -0.0000000150  -0.0000000150  0.0000000250
atom   3.784910    3.784910   0.000000 Al  0.0   0.0  0.0000000200  0.0000000050  0.0000000250
atom   3.833311    -0.048401   3.835788 Al  0.0   0.0  -0.0000000100  0.0000000150  -0.0000000300
atom   -0.048401    3.833311   3.835788 Al  0.0   0.0  0.0000000050  -0.0000000050  -0.0000000200
energy -79.005288865000026
charge 0.000000000000000
end
begin
comment uuid: 7d7c38ce-6537-455b-87a9-239e2d5a0e3b 
lattice 7.6666220000 -0.0890570000 0.0000000000
lattice -0.0890570000 7.6666220000 0.0000000000
lattice 0.0000000000 0.0000000000 7.6708120000
atom   0.000000    0.000000   0.000000 Al  0.0   0.0  0.0000000150  0.0000000150  -0.0000000000
atom   3.788783    3.788783   0.000000 Al  0.0   0.0  -0.0000000300  -0.0000000400  -0.0000000000
atom   3.833311    -0.044529   3.835406 Al  0.0   0.0  -0.0000000200  0.0000000400  -0.0000000050
atom   -0.044529    3.833311   3.835406 Al  0.0   0.0  0.0000000300  -0.0000000100  0.0000000050
energy -79.005313835000010
charge 0.000000000000000
end
begin
comment uuid: e99d8b42-83d8-4814-b3b8-ff66720c89b9 
lattice 7.6666220000 -0.0813130000 0.0000000000
lattice -0.0813130000 7.6666220000 0.0000000000
lattice 0.0000000000 0.0000000000 7.6701140000
atom   0.000000    0.000000   0.000000 Al  0.0   0.0  0.0000000150  0.0000000100  -0.0000000000
atom   3.792655    3.792655   0.000000 Al  0.0   0.0  -0.0000000250  -0.0000000400  -0.0000000000
atom   3.833311    -0.040657   3.835057 Al  0.0   0.0  -0.0000000200  0.0000000400  -0.0000000050
atom   -0.040657    3.833311   3.835057 Al  0.0   0.0  0.0000000300  -0.0000000100  0.0000000050
energy -79.005336670000034
charge 0.000000000000000
end
begin
comment uuid: 058d8f2c-9ca4-4c45-b398-fb8387346483 
lattice 7.6666220000 -0.0735690000 0.0000000000
lattice -0.0735690000 7.6666220000 0.0000000000
lattice 0.0000000000 0.0000000000 7.6694800000
atom   0.000000    0.000000   0.000000 Al  0.0   0.0  0.0000000100  0.0000000050  -0.0000000000
atom   3.796527    3.796527   0.000000 Al  0.0   0.0  -0.0000000000  -0.0000000150  -0.0000000000
atom   3.833311    -0.036784   3.834740 Al  0.0   0.0  0.0000000050  0.0000000000  -0.0000000050
atom   -0.036784    3.833311   3.834740 Al  0.0   0.0  -0.0000000100  0.0000000100  0.0000000050
energy -79.005357410000030
charge 0.000000000000000
end
begin
comment uuid: 6a37ce14-5560-476d-9e6b-26afb92aba05 
lattice 7.6666220000 -0.0658240000 0.0000000000
lattice -0.0658240000 7.6666220000 0.0000000000
lattice 0.0000000000 0.0000000000 7.6689090000
atom   0.000000    0.000000   0.000000 Al  0.0   0.0  -0.0000000000  -0.0000000050  -0.0000000250
atom   3.800399    3.800399   0.000000 Al  0.0   0.0  0.0000000100  -0.0000000050  -0.0000000250
atom   3.833311    -0.032912   3.834454 Al  0.0   0.0  -0.0000000050  0.0000000100  0.0000000200
atom   -0.032912    3.833311   3.834454 Al  0.0   0.0  -0.0000000000  0.0000000050  0.0000000300
energy -79.005376050000024
charge 0.000000000000000
end
begin
comment uuid: 49e3c14d-c1fe-461d-99af-bab609d2e98a 
lattice 7.6666220000 -0.0580800000 0.0000000000
lattice -0.0580800000 7.6666220000 0.0000000000
lattice 0.0000000000 0.0000000000 7.6684020000
atom   0.000000    0.000000   0.000000 Al  0.0   0.0  -0.0000000000  -0.0000000050  -0.0000000000
atom   3.804271    3.804271   0.000000 Al  0.0   0.0  0.0000000100  -0.0000000050  -0.0000000000
atom   3.833311    -0.029040   3.834201 Al  0.0   0.0  -0.0000000050  0.0000000050  -0.0000000050
atom   -0.029040    3.833311   3.834201 Al  0.0   0.0  -0.0000000000  0.0000000050  0.0000000050
energy -79.005392600000022
charge 0.000000000000000
end
begin
comment uuid: 78eb6dc7-1772-4d5c-adaf-a854563bc720 
lattice 7.6666220000 -0.0503360000 0.0000000000
lattice -0.0503360000 7.6666220000 0.0000000000
lattice 0.0000000000 0.0000000000 7.6679590000
atom   0.000000    0.000000   0.000000 Al  0.0   0.0  -0.0000000000  -0.0000000050  -0.0000000250
atom   3.808143    3.808143   0.000000 Al  0.0   0.0  0.0000000100  -0.0000000050  -0.0000000250
atom   3.833311    -0.025168   3.833979 Al  0.0   0.0  -0.0000000050  0.0000000050  0.0000000200
atom   -0.025168    3.833311   3.833979 Al  0.0   0.0  -0.0000000000  0.0000000050  0.0000000300
energy -79.005407060000024
charge 0.000000000000000
end
begin
comment uuid: d1c15342-c65d-4fa3-8dce-a3293430a012 
lattice 7.6666220000 -0.0425920000 0.0000000000
lattice -0.0425920000 7.6666220000 0.0000000000
lattice 0.0000000000 0.0000000000 7.6675790000
atom   0.000000    0.000000   0.000000 Al  0.0   0.0  -0.0000000000  -0.0000000050  -0.0000000250
atom   3.812015    3.812015   0.000000 Al  0.0   0.0  0.0000000100  -0.0000000050  -0.0000000250
atom   3.833311    -0.021296   3.833789 Al  0.0   0.0  -0.0000000050  0.0000000050  0.0000000200
atom   -0.021296    3.833311   3.833789 Al  0.0   0.0  -0.0000000000  0.0000000050  0.0000000300
energy -79.005419450000019
charge 0.000000000000000
end
begin
comment uuid: dc9662c1-e838-4b49-ab7e-864b09b0f5cd 
lattice 7.6666220000 -0.0348480000 0.0000000000
lattice -0.0348480000 7.6666220000 0.0000000000
lattice 0.0000000000 0.0000000000 7.6672620000
atom   0.000000    0.000000   0.000000 Al  0.0   0.0  -0.0000000000  -0.0000000050  -0.0000000000
atom   3.815887    3.815887   0.000000 Al  0.0   0.0  0.0000000100  -0.0000000050  -0.0000000000
atom   3.833311    -0.017424   3.833631 Al  0.0   0.0  -0.0000000050  0.0000000050  -0.0000000050
atom   -0.017424    3.833311   3.833631 Al  0.0   0.0  -0.0000000000  0.0000000050  0.0000000050
energy -79.005429755000023
charge 0.000000000000000
end
begin
comment uuid: 25c04669-0553-4b6a-a5c3-dccadacbd278 
lattice 7.6666220000 -0.0271040000 0.0000000000
lattice -0.0271040000 7.6666220000 0.0000000000
lattice 0.0000000000 0.0000000000 7.6670090000
atom   0.000000    0.000000   0.000000 Al  0.0   0.0  -0.0000000000  -0.0000000050  0.0000000250
atom   3.819759    3.819759   0.000000 Al  0.0   0.0  0.0000000100  -0.0000000050  0.0000000250
atom   3.833311    -0.013552   3.833505 Al  0.0   0.0  -0.0000000050  0.0000000100  -0.0000000300
atom   -0.013552    3.833311   3.833505 Al  0.0   0.0  -0.0000000000  0.0000000050  -0.0000000200
energy -79.005437990000033
charge 0.000000000000000
end
begin
comment uuid: b128ae25-6d16-400f-98aa-294dc99fb074 
lattice 7.6666220000 -0.0193600000 0.0000000000
lattice -0.0193600000 7.6666220000 0.0000000000
lattice 0.0000000000 0.0000000000 7.6668200000
atom   0.000000    0.000000   0.000000 Al  0.0   0.0  -0.0000000000  -0.0000000050  -0.0000000500
atom   3.823631    3.823631   0.000000 Al  0.0   0.0  0.0000000100  -0.0000000050  -0.0000000500
atom   3.833311    -0.009680   3.833409 Al  0.0   0.0  -0.0000000050  0.0000000100  0.0000000450
atom   -0.009680    3.833311   3.833409 Al  0.0   0.0  -0.0000000000  0.0000000050  0.0000000550
energy -79.005444170000032
charge 0.000000000000000
end
begin
comment uuid: 43316856-abba-4f42-aee8-6d7d2c8001a4 
lattice 7.6666220000 -0.0116160000 0.0000000000
lattice -0.0116160000 7.6666220000 0.0000000000
lattice 0.0000000000 0.0000000000 7.6666930000
atom   0.000000    0.000000   0.000000 Al  0.0   0.0  -0.0000000000  -0.0000000050  0.0000000250
atom   3.827503    3.827503   0.000000 Al  0.0   0.0  0.0000000100  -0.0000000050  0.0000000250
atom   3.833311    -0.005808   3.833347 Al  0.0   0.0  -0.0000000050  0.0000000100  -0.0000000300
atom   -0.005808    3.833311   3.833347 Al  0.0   0.0  -0.0000000000  0.0000000050  -0.0000000200
energy -79.005448290000032
charge 0.000000000000000
end
begin
comment uuid: ef0dbcba-c0e9-4c5c-902a-3f151127db05 
lattice 7.6666220000 -0.0038720000 0.0000000000
lattice -0.0038720000 7.6666220000 0.0000000000
lattice 0.0000000000 0.0000000000 7.6666300000
atom   0.000000    0.000000   0.000000 Al  0.0   0.0  -0.0000000000  -0.0000000050  -0.0000000000
atom   3.831375    3.831375   0.000000 Al  0.0   0.0  0.0000000100  -0.0000000050  -0.0000000000
atom   3.833311    -0.001936   3.833315 Al  0.0   0.0  -0.0000000050  0.0000000050  -0.0000000050
atom   -0.001936    3.833311   3.833315 Al  0.0   0.0  -0.0000000000  0.0000000050  0.0000000050
energy -79.005450345000028
charge 0.000000000000000
end
begin
comment uuid: 837a2cb3-e25f-40e5-8bb7-07543f68f5f6 
lattice 7.6666220000 0.2671700000 0.0000000000
lattice 0.2671700000 7.6666220000 0.0000000000
lattice 0.0000000000 0.0000000000 7.7050130000
atom   0.000000    0.000000   0.000000 Al  0.0   0.0  0.0000000050  -0.0000000050  0.0000000200
atom   3.966896    3.966896   0.000000 Al  0.0   0.0  0.0000000050  -0.0000000000  0.0000000250
atom   3.833311    0.133585   3.852507 Al  0.0   0.0  -0.0000000050  0.0000000050  -0.0000000250
atom   0.133585    3.833311   3.852507 Al  0.0   0.0  -0.0000000000  0.0000000050  -0.0000000200
energy -79.004171180000029
charge 0.000000000000000
end
begin
comment uuid: 122d83e2-9efa-4b93-b803-88d62025bdd7 
lattice 7.5349730000 0.0000000000 0.0000000000
lattice 0.0000000000 7.6666220000 0.0000000000
lattice 0.0000000000 0.0000000000 7.6666220000
atom   0.000000    0.000000   0.000000 Al  0.0   0.0  -0.0000000300  -0.0000000050  -0.0000000000
atom   3.767486    3.833311   0.000000 Al  0.0   0.0  0.0000000350  -0.0000000050  0.0000000000
atom   3.767486    0.000000   3.833311 Al  0.0   0.0  0.0000000200  0.0000000100  -0.0000000050
atom   0.000000    3.833311   3.833311 Al  0.0   0.0  -0.0000000300  0.0000000050  0.0000000050
energy -79.005462820000034
charge 0.000000000000000
end
begin
comment uuid: 4567b2f0-bd3b-4c34-a8d1-f1bbf30007c3 
lattice 7.5504610000 0.0000000000 0.0000000000
lattice 0.0000000000 7.6666220000 0.0000000000
lattice 0.0000000000 0.0000000000 7.6666220000
atom   0.000000    0.000000   0.000000 Al  0.0   0.0  -0.0000000300  -0.0000000050  -0.0000000000
atom   3.775230    3.833311   0.000000 Al  0.0   0.0  0.0000000350  -0.0000000050  0.0000000000
atom   3.775230    0.000000   3.833311 Al  0.0   0.0  0.0000000200  0.0000000100  -0.0000000050
atom   0.000000    3.833311   3.833311 Al  0.0   0.0  -0.0000000300  0.0000000050  0.0000000050
energy -79.005488630000031
charge 0.000000000000000
end
begin
comment uuid: 19af802b-8dfe-42b6-8605-12d365125b75 
lattice 7.5659490000 0.0000000000 0.0000000000
lattice 0.0000000000 7.6666220000 0.0000000000
lattice 0.0000000000 0.0000000000 7.6666220000
atom   0.000000    0.000000   0.000000 Al  0.0   0.0  -0.0000000250  -0.0000000050  -0.0000000000
atom   3.782974    3.833311   0.000000 Al  0.0   0.0  0.0000000350  -0.0000000050  0.0000000000
atom   3.782974    0.000000   3.833311 Al  0.0   0.0  0.0000000200  0.0000000100  -0.0000000050
atom   0.000000    3.833311   3.833311 Al  0.0   0.0  -0.0000000300  0.0000000050  0.0000000050
energy -79.005506015000037
charge 0.000000000000000
end
begin
comment uuid: 047373cb-c4a7-4862-b480-58be4ed56f0d 
lattice 7.5814370000 0.0000000000 0.0000000000
lattice 0.0000000000 7.6666220000 0.0000000000
lattice 0.0000000000 0.0000000000 7.6666220000
atom   0.000000    0.000000   0.000000 Al  0.0   0.0  0.0000000250  -0.0000000050  -0.0000000000
atom   3.790719    3.833311   0.000000 Al  0.0   0.0  -0.0000000200  -0.0000000050  0.0000000000
atom   3.790719    0.000000   3.833311 Al  0.0   0.0  -0.0000000300  0.0000000100  -0.0000000050
atom   0.000000    3.833311   3.833311 Al  0.0   0.0  0.0000000250  0.0000000050  0.0000000050
energy -79.005516830000019
charge 0.000000000000000
end
begin
comment uuid: 749d3d01-b496-4659-88da-a62b96b8a283 
lattice 7.5969250000 0.0000000000 0.0000000000
lattice 0.0000000000 7.6666220000 0.0000000000
lattice 0.0000000000 0.0000000000 7.6666220000
atom   0.000000    0.000000   0.000000 Al  0.0   0.0  0.0000000250  -0.0000000050  -0.0000000000
atom   3.798463    3.833311   0.000000 Al  0.0   0.0  -0.0000000200  -0.0000000050  0.0000000000
atom   3.798463    0.000000   3.833311 Al  0.0   0.0  -0.0000000300  0.0000000100  -0.0000000050
atom   0.000000    3.833311   3.833311 Al  0.0   0.0  0.0000000250  0.0000000050  0.0000000050
energy -79.005520445000016
charge 0.000000000000000
end
begin
comment uuid: 6fcc9e30-6089-4a05-b03a-4aa467ac108b 
lattice 7.6124130000 0.0000000000 0.0000000000
lattice 0.0000000000 7.6666220000 0.0000000000
lattice 0.0000000000 0.0000000000 7.6666220000
atom   0.000000    0.000000   0.000000 Al  0.0   0.0  0.0000000250  -0.0000000050  -0.0000000000
atom   3.806207    3.833311   0.000000 Al  0.0   0.0  -0.0000000200  -0.0000000050  -0.0000000000
atom   3.806207    0.000000   3.833311 Al  0.0   0.0  -0.0000000300  0.0000000100  -0.0000000050
atom   0.000000    3.833311   3.833311 Al  0.0   0.0  0.0000000250  0.0000000050  0.0000000050
energy -79.005516975000035
charge 0.000000000000000
end
begin
comment uuid: d152dbb3-4bfa-4500-a3bb-6c0fb0e65456 
lattice 7.6279020000 0.0000000000 0.0000000000
lattice 0.0000000000 7.6666220000 0.0000000000
lattice 0.0000000000 0.0000000000 7.6666220000
atom   0.000000    0.000000   0.000000 Al  0.0   0.0  -0.0000000000  -0.0000000050  -0.0000000000
atom   3.813951    3.833311   0.000000 Al  0.0   0.0  0.0000000100  -0.0000000050  -0.0000000000
atom   3.813951    0.000000   3.833311 Al  0.0   0.0  -0.0000000050  0.0000000100  -0.0000000050
atom   0.000000    3.833311   3.833311 Al  0.0   0.0  -0.0000000000  0.0000000050  0.0000000050
energy -79.005506520000040
charge 0.000000000000000
end
begin
comment uuid: 0769390c-98b5-4b05-abb1-d60f13c363cd 
lattice 7.6433900000 0.0000000000 0.0000000000
lattice 0.0000000000 7.6666220000 0.0000000000
lattice 0.0000000000 0.0000000000 7.6666220000
atom   0.000000    0.000000   0.000000 Al  0.0   0.0  -0.0000000000  -0.0000000050  -0.0000000000
atom   3.821695    3.833311   0.000000 Al  0.0   0.0  0.0000000100  -0.0000000050  -0.0000000000
atom   3.821695    0.000000   3.833311 Al  0.0   0.0  -0.0000000050  0.0000000100  -0.0000000050
atom   0.000000    3.833311   3.833311 Al  0.0   0.0  -0.0000000050  0.0000000050  0.0000000050
energy -79.005489205000032
charge 0.000000000000000
end
begin
comment uuid: c58e37c5-bdc3-4582-a925-d136feadfe1b 
lattice 7.6588780000 0.0000000000 0.0000000000
lattice 0.0000000000 7.6666220000 0.0000000000
lattice 0.0000000000 0.0000000000 7.6666220000
atom   0.000000    0.000000   0.000000 Al  0.0   0.0  -0.0000000000  -0.0000000050  -0.0000000000
atom   3.829439    3.833311   0.000000 Al  0.0   0.0  0.0000000100  -0.0000000050  -0.0000000000
atom   3.829439    0.000000   3.833311 Al  0.0   0.0  -0.0000000050  0.0000000100  -0.0000000050
atom   0.000000    3.833311   3.833311 Al  0.0   0.0  -0.0000000050  0.0000000050  0.0000000050
energy -79.005465140000013
charge 0.000000000000000
end
begin
comment uuid: e38e7b4f-19c3-4448-abea-8a26ac38c1db 
lattice 7.6743660000 0.0000000000 0.0000000000
lattice 0.0000000000 7.6666220000 0.0000000000
lattice 0.0000000000 0.0000000000 7.6666220000
atom   0.000000    0.000000   0.000000 Al  0.0   0.0  -0.0000000000  -0.0000000050  -0.0000000000
atom   3.837183    3.833311   0.000000 Al  0.0   0.0  0.0000000100  -0.0000000050  -0.0000000000
atom   3.837183    0.000000   3.833311 Al  0.0   0.0  -0.0000000050  0.0000000100  -0.0000000050
atom   0.000000    3.833311   3.833311 Al  0.0   0.0  -0.0000000050  0.0000000050  0.0000000050
energy -79.005434415000011
charge 0.000000000000000
end
begin
comment uuid: ac824641-e5eb-47bc-9ced-6d5620a9f1d5 
lattice 7.6898540000 0.0000000000 0.0000000000
lattice 0.0000000000 7.6666220000 0.0000000000
lattice 0.0000000000 0.0000000000 7.6666220000
atom   0.000000    0.000000   0.000000 Al  0.0   0.0  -0.0000000000  0.0000000000  0.0000000000
atom   3.844927    3.833311   0.000000 Al  0.0   0.0  0.0000000050  -0.0000000050  0.0000000000
atom   3.844927    0.000000   3.833311 Al  0.0   0.0  0.0000000000  0.0000000050  -0.0000000050
atom   0.000000    3.833311   3.833311 Al  0.0   0.0  -0.0000000050  -0.0000000000  0.0000000000
energy -79.005397140000014
charge 0.000000000000000
end
begin
comment uuid: d49ea5ca-1d96-4323-ae52-a086c280e271 
lattice 7.7053420000 0.0000000000 0.0000000000
lattice 0.0000000000 7.6666220000 0.0000000000
lattice 0.0000000000 0.0000000000 7.6666220000
atom   0.000000    0.000000   0.000000 Al  0.0   0.0  -0.0000000000  0.0000000000  0.0000000000
atom   3.852671    3.833311   0.000000 Al  0.0   0.0  0.0000000050  -0.0000000050  0.0000000000
atom   3.852671    0.000000   3.833311 Al  0.0   0.0  0.0000000000  0.0000000050  -0.0000000050
atom   0.000000    3.833311   3.833311 Al  0.0   0.0  -0.0000000050  0.0000000000  0.0000000000
energy -79.005353390000010
charge 0.000000000000000
end
begin
comment uuid: 43a28df2-5247-40dc-b6e3-84e8582a5828 
lattice 7.7208310000 0.0000000000 0.0000000000
lattice 0.0000000000 7.6666220000 0.0000000000
lattice 0.0000000000 0.0000000000 7.6666220000
atom   0.000000    0.000000   0.000000 Al  0.0   0.0  -0.0000000250  0.0000000000  0.0000000000
atom   3.860415    3.833311   0.000000 Al  0.0   0.0  0.0000000300  -0.0000000050  0.0000000000
atom   3.860415    0.000000   3.833311 Al  0.0   0.0  0.0000000250  0.0000000050  -0.0000000000
atom   0.000000    3.833311   3.833311 Al  0.0   0.0  -0.0000000300  0.0000000000  0.0000000000
energy -79.005303275000017
charge 0.000000000000000
end
begin
comment uuid: ae7866b3-ed85-4ed0-95c4-bcdb7be423e9 
lattice 7.7363190000 0.0000000000 0.0000000000
lattice 0.0000000000 7.6666220000 0.0000000000
lattice 0.0000000000 0.0000000000 7.6666220000
atom   0.000000    0.000000   0.000000 Al  0.0   0.0  -0.0000000250  0.0000000000  0.0000000000