
     Program PWSCF v.6.3 starts on 22Feb2020 at 14:12:34 

     This program is part of the open-source Quantum ESPRESSO suite
     for quantum simulation of materials; please cite
         "P. Giannozzi et al., J. Phys.:Condens. Matter 21 395502 (2009);
         "P. Giannozzi et al., J. Phys.:Condens. Matter 29 465901 (2017);
          URL http://www.quantum-espresso.org", 
     in publications or presentations arising from this work. More details at
     http://www.quantum-espresso.org/quote

 *** WARNING: using old-style file format, will disappear from next version ***

     Parallel version (MPI & OpenMP), running on      36 processor cores
     Number of MPI processes:                36
     Threads/MPI process:                     1

     MPI processes distributed on     1 nodes
     K-points division:     npool     =       4
     R & G space division:  proc/nbgrp/npool/nimage =       9
     Reading input from aiida.in
Warning: card &IONS ignored
Warning: card   !PRESS_CONV_THR = 0.05                 ! JUST FOR VOLUME RELAXATIONS ignored
Warning: card / ignored

     Current dimensions of program PWSCF are:
     Max number of different atomic species (ntypx) = 10
     Max number of k-points (npk) =  40000
     Max angular momentum in pseudopotentials (lmaxx) =  3
               file Mg.pbe-n-kjpaw_psl.0.3.0.UPF: wavefunction(s)  3S renormalized

     Subspace diagonalization in iterative solution of the eigenvalue problem:
     one sub-group per band group will be used
     scalapack distributed-memory algorithm (size of sub-group:  2*  2 procs)

     Found symmetry operation: I + (  0.5000  0.5000  0.0000)
     This is a supercell, fractional translations are disabled
 
     Parallelization info
     --------------------
     sticks:   dense  smooth     PW     G-vecs:    dense   smooth      PW
     Min         803     321     93                39816    10077    1583
     Max         804     322     94                39817    10078    1585
     Sum        7229    2897    845               358351    90695   14261
 


     bravais-lattice index     =            0
     lattice parameter (alat)  =      29.5774  a.u.
     unit-cell volume          =    2651.9272 (a.u.)^3
     number of atoms/cell      =           22
     number of atomic types    =            2
     number of electrons       =        68.00
     number of Kohn-Sham states=           41
     kinetic-energy cutoff     =      40.0000  Ry
     charge density cutoff     =     400.0000  Ry
     convergence threshold     =      1.0E-12
     mixing beta               =       0.4000
     number of iterations used =            8  local-TF  mixing
     Exchange-correlation      = PBE ( 1  4  3  4 0 0)

     celldm(1)=  29.577353  celldm(2)=   0.000000  celldm(3)=   0.000000
     celldm(4)=   0.000000  celldm(5)=   0.000000  celldm(6)=   0.000000

     crystal axes: (cart. coord. in units of alat)
               a(1) = (   1.000000   0.000000   0.000000 )  
               a(2) = (   0.000000   0.259208   0.000000 )  
               a(3) = (  -0.107836   0.000000   0.395399 )  

     reciprocal axes: (cart. coord. in units 2 pi/alat)
               b(1) = (  1.000000  0.000000  0.272727 )  
               b(2) = (  0.000000  3.857908  0.000000 )  
               b(3) = (  0.000000  0.000000  2.529091 )  


     PseudoPot. # 1 for Mg read from file:
     /users/aglensk/Dropbox/Albert/scripts/dotfiles/scripts/potentials/quantum_espresso/pseudo_SSSPefV1.1_alalloy/Mg.pbe-n-kjpaw_psl.0.3.0.UPF
     MD5 check sum: 24ecedc7f3e3cbe212e682f4413594e4
     Pseudo is Projector augmented-wave + core cor, Zval =  2.0
     Generated using "atomic" code by A. Dal Corso v.5.0.99 svn rev. 10869
     Shape of augmentation charge: PSQ
     Using radial grid of 1129 points,  4 beta functions with: 
                l(1) =   0
                l(2) =   0
                l(3) =   1
                l(4) =   1
     Q(r) pseudized with 0 coefficients 


     PseudoPot. # 2 for Si read from file:
     /users/aglensk/Dropbox/Albert/scripts/dotfiles/scripts/potentials/quantum_espresso/pseudo_SSSPefV1.1_alalloy/Si.pbe-n-rrkjus_psl.1.0.0.UPF
     MD5 check sum: 0b0bb1205258b0d07b9f9672cf965d36
     Pseudo is Ultrasoft + core correction, Zval =  4.0
     Generated using "atomic" code by A. Dal Corso v.5.1
     Using radial grid of 1141 points,  6 beta functions with: 
                l(1) =   0
                l(2) =   0
                l(3) =   1
                l(4) =   1
                l(5) =   2
                l(6) =   2
     Q(r) pseudized with 0 coefficients 


     atomic species   valence    mass     pseudopotential
        Mg             2.00    24.30500     Mg( 1.00)
        Si             4.00    28.08500     Si( 1.00)

     No symmetry found


                                    s                        frac. trans.

      isym =  1     identity                                     

 cryst.   s( 1) = (     1          0          0      )
                  (     0          1          0      )
                  (     0          0          1      )

 cart.    s( 1) = (  1.0000000  0.0000000 -0.0000000 )
                  (  0.0000000  1.0000000  0.0000000 )
                  (  0.0000000  0.0000000  1.0000000 )


   Cartesian axes

     site n.     atom                  positions (alat units)
         1           Mg  tau(   1) = (   0.1341632   0.0000000   0.3908707  )
         2           Mg  tau(   2) = (   0.2818275   0.1296039   0.1412634  )
         3           Mg  tau(   3) = (   0.2958365   0.1296039   0.3611198  )
         4           Mg  tau(   4) = (   0.5803332   0.0000000   0.0252281  )
         5           Mg  tau(   5) = (   0.5943408   0.0000000   0.2450810  )
         6           Si  tau(   6) = (   0.2289055   0.0000000   0.2572027  )
         7           Si  tau(   7) = (   0.4076011   0.0000000   0.0933331  )
         8           Si  tau(   8) = (   0.3831085   0.0000000   0.2478943  )
         9           Si  tau(   9) = (   0.4930608   0.1296039   0.1384548  )
        10           Si  tau(  10) = (   0.4685710   0.1296039   0.2930163  )
        11           Si  tau(  11) = (   0.6472667   0.1296039   0.1291462  )
        12           Mg  tau(  12) = (   0.6341631   0.1296039   0.3908707  )
        13           Mg  tau(  13) = (   0.7818275   0.0000000   0.1412634  )
        14           Mg  tau(  14) = (   0.7958365   0.0000000   0.3611198  )
        15           Mg  tau(  15) = (   0.0803332   0.1296039   0.0252281  )
        16           Mg  tau(  16) = (   0.0943409   0.1296039   0.2450810  )
        17           Si  tau(  17) = (   0.7289055   0.1296039   0.2572027  )
        18           Si  tau(  18) = (   0.9076011   0.1296039   0.0933331  )
        19           Si  tau(  19) = (   0.8831085   0.1296039   0.2478943  )
        20           Si  tau(  20) = (  -0.0069393   0.0000000   0.1384548  )
        21           Si  tau(  21) = (  -0.0314289   0.0000000   0.2930163  )
        22           Si  tau(  22) = (   0.1472668   0.0000000   0.1291462  )

   Crystallographic axes

     site n.     atom                  positions (cryst. coord.)
         1           Mg  tau(   1) = (  0.2407643  0.0000000  0.9885475  )
         2           Mg  tau(   2) = (  0.3203539  0.5000000  0.3572679  )
         3           Mg  tau(   3) = (  0.3943237  0.5000000  0.9133049  )
         4           Mg  tau(   4) = (  0.5872136  0.0000000  0.0638041  )
         5           Mg  tau(   5) = (  0.6611811  0.0000000  0.6198321  )
         6           Si  tau(   6) = (  0.2990517  0.0000000  0.6504890  )
         7           Si  tau(   7) = (  0.4330556  0.0000000  0.2360479  )
         8           Si  tau(   8) = (  0.4507160  0.0000000  0.6269472  )
         9           Si  tau(   9) = (  0.5308212  0.5000000  0.3501648  )
        10           Si  tau(  10) = (  0.5484846  0.5000000  0.7410650  )
        11           Si  tau(  11) = (  0.6824884  0.5000000  0.3266224  )
        12           Mg  tau(  12) = (  0.7407642  0.5000000  0.9885475  )
        13           Mg  tau(  13) = (  0.8203538  0.0000000  0.3572679  )
        14           Mg  tau(  14) = (  0.8943237  0.0000000  0.9133049  )
        15           Mg  tau(  15) = (  0.0872136  0.5000000  0.0638041  )
        16           Mg  tau(  16) = (  0.1611811  0.5000000  0.6198321  )
        17           Si  tau(  17) = (  0.7990517  0.5000000  0.6504890  )
        18           Si  tau(  18) = (  0.9330556  0.5000000  0.2360479  )
        19           Si  tau(  19) = (  0.9507161  0.5000000  0.6269473  )
        20           Si  tau(  20) = (  0.0308211  0.0000000  0.3501648  )
        21           Si  tau(  21) = (  0.0484846  0.0000000  0.7410649  )
        22           Si  tau(  22) = (  0.1824884  0.0000000  0.3266224  )

     number of k points=   782  Methfessel-Paxton smearing, width (Ry)=  0.0441
                       cart. coord. in units 2pi/alat
        k(    1) = (   0.0000000   0.0000000   0.0000000), wk =   0.0012821
        k(    2) = (   0.0000000   0.0000000   0.1945455), wk =   0.0025641
        k(    3) = (   0.0000000   0.0000000   0.3890909), wk =   0.0025641
        k(    4) = (   0.0000000   0.0000000   0.5836364), wk =   0.0025641
        k(    5) = (   0.0000000   0.0000000   0.7781819), wk =   0.0025641
        k(    6) = (   0.0000000   0.0000000   0.9727273), wk =   0.0025641
        k(    7) = (   0.0000000   0.0000000   1.1672728), wk =   0.0025641
        k(    8) = (   0.0000000   0.1928954   0.0000000), wk =   0.0025641
        k(    9) = (   0.0000000   0.1928954   0.1945455), wk =   0.0025641
        k(   10) = (   0.0000000   0.1928954   0.3890909), wk =   0.0025641
        k(   11) = (   0.0000000   0.1928954   0.5836364), wk =   0.0025641
        k(   12) = (   0.0000000   0.1928954   0.7781819), wk =   0.0025641
        k(   13) = (   0.0000000   0.1928954   0.9727273), wk =   0.0025641
        k(   14) = (   0.0000000   0.1928954   1.1672728), wk =   0.0025641
        k(   15) = (   0.0000000   0.1928954  -1.1672728), wk =   0.0025641
        k(   16) = (   0.0000000   0.1928954  -0.9727273), wk =   0.0025641
        k(   17) = (   0.0000000   0.1928954  -0.7781819), wk =   0.0025641
        k(   18) = (   0.0000000   0.1928954  -0.5836364), wk =   0.0025641
        k(   19) = (   0.0000000   0.1928954  -0.3890909), wk =   0.0025641
        k(   20) = (   0.0000000   0.1928954  -0.1945455), wk =   0.0025641
        k(   21) = (   0.0000000   0.3857908   0.0000000), wk =   0.0025641
        k(   22) = (   0.0000000   0.3857908   0.1945455), wk =   0.0025641
        k(   23) = (   0.0000000   0.3857908   0.3890909), wk =   0.0025641
        k(   24) = (   0.0000000   0.3857908   0.5836364), wk =   0.0025641
        k(   25) = (   0.0000000   0.3857908   0.7781819), wk =   0.0025641
        k(   26) = (   0.0000000   0.3857908   0.9727273), wk =   0.0025641
        k(   27) = (   0.0000000   0.3857908   1.1672728), wk =   0.0025641
        k(   28) = (   0.0000000   0.3857908  -1.1672728), wk =   0.0025641
        k(   29) = (   0.0000000   0.3857908  -0.9727273), wk =   0.0025641
        k(   30) = (   0.0000000   0.3857908  -0.7781819), wk =   0.0025641
        k(   31) = (   0.0000000   0.3857908  -0.5836364), wk =   0.0025641
        k(   32) = (   0.0000000   0.3857908  -0.3890909), wk =   0.0025641
        k(   33) = (   0.0000000   0.3857908  -0.1945455), wk =   0.0025641
        k(   34) = (   0.0000000   0.5786862   0.0000000), wk =   0.0025641
        k(   35) = (   0.0000000   0.5786862   0.1945455), wk =   0.0025641
        k(   36) = (   0.0000000   0.5786862   0.3890909), wk =   0.0025641
        k(   37) = (   0.0000000   0.5786862   0.5836364), wk =   0.0025641
        k(   38) = (   0.0000000   0.5786862   0.7781819), wk =   0.0025641
        k(   39) = (   0.0000000   0.5786862   0.9727273), wk =   0.0025641
        k(   40) = (   0.0000000   0.5786862   1.1672728), wk =   0.0025641
        k(   41) = (   0.0000000   0.5786862  -1.1672728), wk =   0.0025641
        k(   42) = (   0.0000000   0.5786862  -0.9727273), wk =   0.0025641
        k(   43) = (   0.0000000   0.5786862  -0.7781819), wk =   0.0025641
        k(   44) = (   0.0000000   0.5786862  -0.5836364), wk =   0.0025641
        k(   45) = (   0.0000000   0.5786862  -0.3890909), wk =   0.0025641
        k(   46) = (   0.0000000   0.5786862  -0.1945455), wk =   0.0025641
        k(   47) = (   0.0000000   0.7715816   0.0000000), wk =   0.0025641
        k(   48) = (   0.0000000   0.7715816   0.1945455), wk =   0.0025641
        k(   49) = (   0.0000000   0.7715816   0.3890909), wk =   0.0025641
        k(   50) = (   0.0000000   0.7715816   0.5836364), wk =   0.0025641
        k(   51) = (   0.0000000   0.7715816   0.7781819), wk =   0.0025641
        k(   52) = (   0.0000000   0.7715816   0.9727273), wk =   0.0025641
        k(   53) = (   0.0000000   0.7715816   1.1672728), wk =   0.0025641
        k(   54) = (   0.0000000   0.7715816  -1.1672728), wk =   0.0025641
        k(   55) = (   0.0000000   0.7715816  -0.9727273), wk =   0.0025641
        k(   56) = (   0.0000000   0.7715816  -0.7781819), wk =   0.0025641
        k(   57) = (   0.0000000   0.7715816  -0.5836364), wk =   0.0025641
        k(   58) = (   0.0000000   0.7715816  -0.3890909), wk =   0.0025641
        k(   59) = (   0.0000000   0.7715816  -0.1945455), wk =   0.0025641
        k(   60) = (   0.0000000   0.9644770   0.0000000), wk =   0.0025641
        k(   61) = (   0.0000000   0.9644770   0.1945455), wk =   0.0025641
        k(   62) = (   0.0000000   0.9644770   0.3890909), wk =   0.0025641
        k(   63) = (   0.0000000   0.9644770   0.5836364), wk =   0.0025641
        k(   64) = (   0.0000000   0.9644770   0.7781819), wk =   0.0025641
        k(   65) = (   0.0000000   0.9644770   0.9727273), wk =   0.0025641
        k(   66) = (   0.0000000   0.9644770   1.1672728), wk =   0.0025641
        k(   67) = (   0.0000000   0.9644770  -1.1672728), wk =   0.0025641
        k(   68) = (   0.0000000   0.9644770  -0.9727273), wk =   0.0025641
        k(   69) = (   0.0000000   0.9644770  -0.7781819), wk =   0.0025641
        k(   70) = (   0.0000000   0.9644770  -0.5836364), wk =   0.0025641
        k(   71) = (   0.0000000   0.9644770  -0.3890909), wk =   0.0025641
        k(   72) = (   0.0000000   0.9644770  -0.1945455), wk =   0.0025641
        k(   73) = (   0.0000000   1.1573724   0.0000000), wk =   0.0025641
        k(   74) = (   0.0000000   1.1573724   0.1945455), wk =   0.0025641
        k(   75) = (   0.0000000   1.1573724   0.3890909), wk =   0.0025641
        k(   76) = (   0.0000000   1.1573724   0.5836364), wk =   0.0025641
        k(   77) = (   0.0000000   1.1573724   0.7781819), wk =   0.0025641
        k(   78) = (   0.0000000   1.1573724   0.9727273), wk =   0.0025641
        k(   79) = (   0.0000000   1.1573724   1.1672728), wk =   0.0025641
        k(   80) = (   0.0000000   1.1573724  -1.1672728), wk =   0.0025641
        k(   81) = (   0.0000000   1.1573724  -0.9727273), wk =   0.0025641
        k(   82) = (   0.0000000   1.1573724  -0.7781819), wk =   0.0025641
        k(   83) = (   0.0000000   1.1573724  -0.5836364), wk =   0.0025641
        k(   84) = (   0.0000000   1.1573724  -0.3890909), wk =   0.0025641
        k(   85) = (   0.0000000   1.1573724  -0.1945455), wk =   0.0025641
        k(   86) = (   0.0000000   1.3502678   0.0000000), wk =   0.0025641
        k(   87) = (   0.0000000   1.3502678   0.1945455), wk =   0.0025641
        k(   88) = (   0.0000000   1.3502678   0.3890909), wk =   0.0025641
        k(   89) = (   0.0000000   1.3502678   0.5836364), wk =   0.0025641
        k(   90) = (   0.0000000   1.3502678   0.7781819), wk =   0.0025641
        k(   91) = (   0.0000000   1.3502678   0.9727273), wk =   0.0025641
        k(   92) = (   0.0000000   1.3502678   1.1672728), wk =   0.0025641
        k(   93) = (   0.0000000   1.3502678  -1.1672728), wk =   0.0025641
        k(   94) = (   0.0000000   1.3502678  -0.9727273), wk =   0.0025641
        k(   95) = (   0.0000000   1.3502678  -0.7781819), wk =   0.0025641
        k(   96) = (   0.0000000   1.3502678  -0.5836364), wk =   0.0025641
        k(   97) = (   0.0000000   1.3502678  -0.3890909), wk =   0.0025641
        k(   98) = (   0.0000000   1.3502678  -0.1945455), wk =   0.0025641
        k(   99) = (   0.0000000   1.5431632   0.0000000), wk =   0.0025641
        k(  100) = (   0.0000000   1.5431632   0.1945455), wk =   0.0025641
        k(  101) = (   0.0000000   1.5431632   0.3890909), wk =   0.0025641
        k(  102) = (   0.0000000   1.5431632   0.5836364), wk =   0.0025641
        k(  103) = (   0.0000000   1.5431632   0.7781819), wk =   0.0025641
        k(  104) = (   0.0000000   1.5431632   0.9727273), wk =   0.0025641
        k(  105) = (   0.0000000   1.5431632   1.1672728), wk =   0.0025641
        k(  106) = (   0.0000000   1.5431632  -1.1672728), wk =   0.0025641
        k(  107) = (   0.0000000   1.5431632  -0.9727273), wk =   0.0025641
        k(  108) = (   0.0000000   1.5431632  -0.7781819), wk =   0.0025641
        k(  109) = (   0.0000000   1.5431632  -0.5836364), wk =   0.0025641
        k(  110) = (   0.0000000   1.5431632  -0.3890909), wk =   0.0025641
        k(  111) = (   0.0000000   1.5431632  -0.1945455), wk =   0.0025641
        k(  112) = (   0.0000000   1.7360586   0.0000000), wk =   0.0025641
        k(  113) = (   0.0000000   1.7360586   0.1945455), wk =   0.0025641
        k(  114) = (   0.0000000   1.7360586   0.3890909), wk =   0.0025641
        k(  115) = (   0.0000000   1.7360586   0.5836364), wk =   0.0025641
        k(  116) = (   0.0000000   1.7360586   0.7781819), wk =   0.0025641
        k(  117) = (   0.0000000   1.7360586   0.9727273), wk =   0.0025641
        k(  118) = (   0.0000000   1.7360586   1.1672728), wk =   0.0025641
        k(  119) = (   0.0000000   1.7360586  -1.1672728), wk =   0.0025641
        k(  120) = (   0.0000000   1.7360586  -0.9727273), wk =   0.0025641
        k(  121) = (   0.0000000   1.7360586  -0.7781819), wk =   0.0025641
        k(  122) = (   0.0000000   1.7360586  -0.5836364), wk =   0.0025641
        k(  123) = (   0.0000000   1.7360586  -0.3890909), wk =   0.0025641
        k(  124) = (   0.0000000   1.7360586  -0.1945455), wk =   0.0025641
        k(  125) = (   0.0000000  -1.9289539   0.0000000), wk =   0.0012821
        k(  126) = (   0.0000000  -1.9289539   0.1945455), wk =   0.0025641
        k(  127) = (   0.0000000  -1.9289539   0.3890909), wk =   0.0025641
        k(  128) = (   0.0000000  -1.9289539   0.5836364), wk =   0.0025641
        k(  129) = (   0.0000000  -1.9289539   0.7781819), wk =   0.0025641
        k(  130) = (   0.0000000  -1.9289539   0.9727273), wk =   0.0025641
        k(  131) = (   0.0000000  -1.9289539   1.1672728), wk =   0.0025641
        k(  132) = (   0.1666667   0.0000000   0.0454545), wk =   0.0025641
        k(  133) = (   0.1666667   0.0000000   0.2400000), wk =   0.0025641
        k(  134) = (   0.1666667   0.0000000   0.4345455), wk =   0.0025641
        k(  135) = (   0.1666667   0.0000000   0.6290909), wk =   0.0025641
        k(  136) = (   0.1666667   0.0000000   0.8236364), wk =   0.0025641
        k(  137) = (   0.1666667   0.0000000   1.0181819), wk =   0.0025641
        k(  138) = (   0.1666667   0.0000000   1.2127273), wk =   0.0025641
        k(  139) = (   0.1666667   0.0000000  -1.1218182), wk =   0.0025641
        k(  140) = (   0.1666667   0.0000000  -0.9272728), wk =   0.0025641
        k(  141) = (   0.1666667   0.0000000  -0.7327273), wk =   0.0025641
        k(  142) = (   0.1666667   0.0000000  -0.5381818), wk =   0.0025641
        k(  143) = (   0.1666667   0.0000000  -0.3436364), wk =   0.0025641
        k(  144) = (   0.1666667   0.0000000  -0.1490909), wk =   0.0025641
        k(  145) = (   0.1666667   0.1928954   0.0454545), wk =   0.0025641
        k(  146) = (   0.1666667   0.1928954   0.2400000), wk =   0.0025641
        k(  147) = (   0.1666667   0.1928954   0.4345455), wk =   0.0025641
        k(  148) = (   0.1666667   0.1928954   0.6290909), wk =   0.0025641
        k(  149) = (   0.1666667   0.1928954   0.8236364), wk =   0.0025641
        k(  150) = (   0.1666667   0.1928954   1.0181819), wk =   0.0025641
        k(  151) = (   0.1666667   0.1928954   1.2127273), wk =   0.0025641
        k(  152) = (   0.1666667   0.1928954  -1.1218182), wk =   0.0025641
        k(  153) = (   0.1666667   0.1928954  -0.9272728), wk =   0.0025641
        k(  154) = (   0.1666667   0.1928954  -0.7327273), wk =   0.0025641
        k(  155) = (   0.1666667   0.1928954  -0.5381818), wk =   0.0025641
        k(  156) = (   0.1666667   0.1928954  -0.3436364), wk =   0.0025641
        k(  157) = (   0.1666667   0.1928954  -0.1490909), wk =   0.0025641
        k(  158) = (   0.1666667   0.3857908   0.0454545), wk =   0.0025641
        k(  159) = (   0.1666667   0.3857908   0.2400000), wk =   0.0025641
        k(  160) = (   0.1666667   0.3857908   0.4345455), wk =   0.0025641
        k(  161) = (   0.1666667   0.3857908   0.6290909), wk =   0.0025641
        k(  162) = (   0.1666667   0.3857908   0.8236364), wk =   0.0025641
        k(  163) = (   0.1666667   0.3857908   1.0181819), wk =   0.0025641
        k(  164) = (   0.1666667   0.3857908   1.2127273), wk =   0.0025641
        k(  165) = (   0.1666667   0.3857908  -1.1218182), wk =   0.0025641
        k(  166) = (   0.1666667   0.3857908  -0.9272728), wk =   0.0025641
        k(  167) = (   0.1666667   0.3857908  -0.7327273), wk =   0.0025641
        k(  168) = (   0.1666667   0.3857908  -0.5381818), wk =   0.0025641
        k(  169) = (   0.1666667   0.3857908  -0.3436364), wk =   0.0025641
        k(  170) = (   0.1666667   0.3857908  -0.1490909), wk =   0.0025641
        k(  171) = (   0.1666667   0.5786862   0.0454545), wk =   0.0025641
        k(  172) = (   0.1666667   0.5786862   0.2400000), wk =   0.0025641
        k(  173) = (   0.1666667   0.5786862   0.4345455), wk =   0.0025641
        k(  174) = (   0.1666667   0.5786862   0.6290909), wk =   0.0025641
        k(  175) = (   0.1666667   0.5786862   0.8236364), wk =   0.0025641
        k(  176) = (   0.1666667   0.5786862   1.0181819), wk =   0.0025641
        k(  177) = (   0.1666667   0.5786862   1.2127273), wk =   0.0025641
        k(  178) = (   0.1666667   0.5786862  -1.1218182), wk =   0.0025641
        k(  179) = (   0.1666667   0.5786862  -0.9272728), wk =   0.0025641
        k(  180) = (   0.1666667   0.5786862  -0.7327273), wk =   0.0025641
        k(  181) = (   0.1666667   0.5786862  -0.5381818), wk =   0.0025641
        k(  182) = (   0.1666667   0.5786862  -0.3436364), wk =   0.0025641
        k(  183) = (   0.1666667   0.5786862  -0.1490909), wk =   0.0025641
        k(  184) = (   0.1666667   0.7715816   0.0454545), wk =   0.0025641
        k(  185) = (   0.1666667   0.7715816   0.2400000), wk =   0.0025641
        k(  186) = (   0.1666667   0.7715816   0.4345455), wk =   0.0025641
        k(  187) = (   0.1666667   0.7715816   0.6290909), wk =   0.0025641
        k(  188) = (   0.1666667   0.7715816   0.8236364), wk =   0.0025641
        k(  189) = (   0.1666667   0.7715816   1.0181819), wk =   0.0025641
        k(  190) = (   0.1666667   0.7715816   1.2127273), wk =   0.0025641
        k(  191) = (   0.1666667   0.7715816  -1.1218182), wk =   0.0025641
        k(  192) = (   0.1666667   0.7715816  -0.9272728), wk =   0.0025641
        k(  193) = (   0.1666667   0.7715816  -0.7327273), wk =   0.0025641
        k(  194) = (   0.1666667   0.7715816  -0.5381818), wk =   0.0025641
        k(  195) = (   0.1666667   0.7715816  -0.3436364), wk =   0.0025641
        k(  196) = (   0.1666667   0.7715816  -0.1490909), wk =   0.0025641
        k(  197) = (   0.1666667   0.9644770   0.0454545), wk =   0.0025641
        k(  198) = (   0.1666667   0.9644770   0.2400000), wk =   0.0025641
        k(  199) = (   0.1666667   0.9644770   0.4345455), wk =   0.0025641
        k(  200) = (   0.1666667   0.9644770   0.6290909), wk =   0.0025641
        k(  201) = (   0.1666667   0.9644770   0.8236364), wk =   0.0025641
        k(  202) = (   0.1666667   0.9644770   1.0181819), wk =   0.0025641
        k(  203) = (   0.1666667   0.9644770   1.2127273), wk =   0.0025641
        k(  204) = (   0.1666667   0.9644770  -1.1218182), wk =   0.0025641
        k(  205) = (   0.1666667   0.9644770  -0.9272728), wk =   0.0025641
        k(  206) = (   0.1666667   0.9644770  -0.7327273), wk =   0.0025641
        k(  207) = (   0.1666667   0.9644770  -0.5381818), wk =   0.0025641
        k(  208) = (   0.1666667   0.9644770  -0.3436364), wk =   0.0025641
        k(  209) = (   0.1666667   0.9644770  -0.1490909), wk =   0.0025641
        k(  210) = (   0.1666667   1.1573724   0.0454545), wk =   0.0025641
        k(  211) = (   0.1666667   1.1573724   0.2400000), wk =   0.0025641
        k(  212) = (   0.1666667   1.1573724   0.4345455), wk =   0.0025641
        k(  213) = (   0.1666667   1.1573724   0.6290909), wk =   0.0025641
        k(  214) = (   0.1666667   1.1573724   0.8236364), wk =   0.0025641
        k(  215) = (   0.1666667   1.1573724   1.0181819), wk =   0.0025641
        k(  216) = (   0.1666667   1.1573724   1.2127273), wk =   0.0025641
        k(  217) = (   0.1666667   1.1573724  -1.1218182), wk =   0.0025641
        k(  218) = (   0.1666667   1.1573724  -0.9272728), wk =   0.0025641
        k(  219) = (   0.1666667   1.1573724  -0.7327273), wk =   0.0025641
        k(  220) = (   0.1666667   1.1573724  -0.5381818), wk =   0.0025641
        k(  221) = (   0.1666667   1.1573724  -0.3436364), wk =   0.0025641
        k(  222) = (   0.1666667   1.1573724  -0.1490909), wk =   0.0025641
        k(  223) = (   0.1666667   1.3502678   0.0454545), wk =   0.0025641
        k(  224) = (   0.1666667   1.3502678   0.2400000), wk =   0.0025641
        k(  225) = (   0.1666667   1.3502678   0.4345455), wk =   0.0025641
        k(  226) = (   0.1666667   1.3502678   0.6290909), wk =   0.0025641
        k(  227) = (   0.1666667   1.3502678   0.8236364), wk =   0.0025641
        k(  228) = (   0.1666667   1.3502678   1.0181819), wk =   0.0025641
        k(  229) = (   0.1666667   1.3502678   1.2127273), wk =   0.0025641
        k(  230) = (   0.1666667   1.3502678  -1.1218182), wk =   0.0025641
        k(  231) = (   0.1666667   1.3502678  -0.9272728), wk =   0.0025641
        k(  232) = (   0.1666667   1.3502678  -0.7327273), wk =   0.0025641
        k(  233) = (   0.1666667   1.3502678  -0.5381818), wk =   0.0025641
        k(  234) = (   0.1666667   1.3502678  -0.3436364), wk =   0.0025641
        k(  235) = (   0.1666667   1.3502678  -0.1490909), wk =   0.0025641
        k(  236) = (   0.1666667   1.5431632   0.0454545), wk =   0.0025641
        k(  237) = (   0.1666667   1.5431632   0.2400000), wk =   0.0025641
        k(  238) = (   0.1666667   1.5431632   0.4345455), wk =   0.0025641
        k(  239) = (   0.1666667   1.5431632   0.6290909), wk =   0.0025641
        k(  240) = (   0.1666667   1.5431632   0.8236364), wk =   0.0025641
        k(  241) = (   0.1666667   1.5431632   1.0181819), wk =   0.0025641
        k(  242) = (   0.1666667   1.5431632   1.2127273), wk =   0.0025641
        k(  243) = (   0.1666667   1.5431632  -1.1218182), wk =   0.0025641
        k(  244) = (   0.1666667   1.5431632  -0.9272728), wk =   0.0025641
        k(  245) = (   0.1666667   1.5431632  -0.7327273), wk =   0.0025641
        k(  246) = (   0.1666667   1.5431632  -0.5381818), wk =   0.0025641
        k(  247) = (   0.1666667   1.5431632  -0.3436364), wk =   0.0025641
        k(  248) = (   0.1666667   1.5431632  -0.1490909), wk =   0.0025641
        k(  249) = (   0.1666667   1.7360586   0.0454545), wk =   0.0025641
        k(  250) = (   0.1666667   1.7360586   0.2400000), wk =   0.0025641
        k(  251) = (   0.1666667   1.7360586   0.4345455), wk =   0.0025641
        k(  252) = (   0.1666667   1.7360586   0.6290909), wk =   0.0025641
        k(  253) = (   0.1666667   1.7360586   0.8236364), wk =   0.0025641
        k(  254) = (   0.1666667   1.7360586   1.0181819), wk =   0.0025641
        k(  255) = (   0.1666667   1.7360586   1.2127273), wk =   0.0025641
        k(  256) = (   0.1666667   1.7360586  -1.1218182), wk =   0.0025641
        k(  257) = (   0.1666667   1.7360586  -0.9272728), wk =   0.0025641
        k(  258) = (   0.1666667   1.7360586  -0.7327273), wk =   0.0025641
        k(  259) = (   0.1666667   1.7360586  -0.5381818), wk =   0.0025641
        k(  260) = (   0.1666667   1.7360586  -0.3436364), wk =   0.0025641
        k(  261) = (   0.1666667   1.7360586  -0.1490909), wk =   0.0025641
        k(  262) = (   0.1666667  -1.9289539   0.0454545), wk =   0.0025641
        k(  263) = (   0.1666667  -1.9289539   0.2400000), wk =   0.0025641
        k(  264) = (   0.1666667  -1.9289539   0.4345455), wk =   0.0025641
        k(  265) = (   0.1666667  -1.9289539   0.6290909), wk =   0.0025641
        k(  266) = (   0.1666667  -1.9289539   0.8236364), wk =   0.0025641
        k(  267) = (   0.1666667  -1.9289539   1.0181819), wk =   0.0025641
        k(  268) = (   0.1666667  -1.9289539   1.2127273), wk =   0.0025641
        k(  269) = (   0.1666667  -1.9289539  -1.1218182), wk =   0.0025641
        k(  270) = (   0.1666667  -1.9289539  -0.9272728), wk =   0.0025641
        k(  271) = (   0.1666667  -1.9289539  -0.7327273), wk =   0.0025641
        k(  272) = (   0.1666667  -1.9289539  -0.5381818), wk =   0.0025641
        k(  273) = (   0.1666667  -1.9289539  -0.3436364), wk =   0.0025641
        k(  274) = (   0.1666667  -1.9289539  -0.1490909), wk =   0.0025641
        k(  275) = (   0.1666667  -1.7360586   0.0454545), wk =   0.0025641
        k(  276) = (   0.1666667  -1.7360586   0.2400000), wk =   0.0025641
        k(  277) = (   0.1666667  -1.7360586   0.4345455), wk =   0.0025641
        k(  278) = (   0.1666667  -1.7360586   0.6290909), wk =   0.0025641
        k(  279) = (   0.1666667  -1.7360586   0.8236364), wk =   0.0025641
        k(  280) = (   0.1666667  -1.7360586   1.0181819), wk =   0.0025641
        k(  281) = (   0.1666667  -1.7360586   1.2127273), wk =   0.0025641
        k(  282) = (   0.1666667  -1.7360586  -1.1218182), wk =   0.0025641
        k(  283) = (   0.1666667  -1.7360586  -0.9272728), wk =   0.0025641
        k(  284) = (   0.1666667  -1.7360586  -0.7327273), wk =   0.0025641
        k(  285) = (   0.1666667  -1.7360586  -0.5381818), wk =   0.0025641
        k(  286) = (   0.1666667  -1.7360586  -0.3436364), wk =   0.0025641
        k(  287) = (   0.1666667  -1.7360586  -0.1490909), wk =   0.0025641
        k(  288) = (   0.1666667  -1.5431632   0.0454545), wk =   0.0025641
        k(  289) = (   0.1666667  -1.5431632   0.2400000), wk =   0.0025641
        k(  290) = (   0.1666667  -1.5431632   0.4345455), wk =   0.0025641
        k(  291) = (   0.1666667  -1.5431632   0.6290909), wk =   0.0025641
        k(  292) = (   0.1666667  -1.5431632   0.8236364), wk =   0.0025641
        k(  293) = (   0.1666667  -1.5431632   1.0181819), wk =   0.0025641
        k(  294) = (   0.1666667  -1.5431632   1.2127273), wk =   0.0025641
        k(  295) = (   0.1666667  -1.5431632  -1.1218182), wk =   0.0025641
        k(  296) = (   0.1666667  -1.5431632  -0.9272728), wk =   0.0025641
        k(  297) = (   0.1666667  -1.5431632  -0.7327273), wk =   0.0025641
        k(  298) = (   0.1666667  -1.5431632  -0.5381818), wk =   0.0025641
        k(  299) = (   0.1666667  -1.5431632  -0.3436364), wk =   0.0025641
        k(  300) = (   0.1666667  -1.5431632  -0.1490909), wk =   0.0025641
        k(  301) = (   0.1666667  -1.3502678   0.0454545), wk =   0.0025641
        k(  302) = (   0.1666667  -1.3502678   0.2400000), wk =   0.0025641
        k(  303) = (   0.1666667  -1.3502678   0.4345455), wk =   0.0025641
        k(  304) = (   0.1666667  -1.3502678   0.6290909), wk =   0.0025641
        k(  305) = (   0.1666667  -1.3502678   0.8236364), wk =   0.0025641
        k(  306) = (   0.1666667  -1.3502678   1.0181819), wk =   0.0025641
        k(  307) = (   0.1666667  -1.3502678   1.2127273), wk =   0.0025641
        k(  308) = (   0.1666667  -1.3502678  -1.1218182), wk =   0.0025641
        k(  309) = (   0.1666667  -1.3502678  -0.9272728), wk =   0.0025641
        k(  310) = (   0.1666667  -1.3502678  -0.7327273), wk =   0.0025641
        k(  311) = (   0.1666667  -1.3502678  -0.5381818), wk =   0.0025641
        k(  312) = (   0.1666667  -1.3502678  -0.3436364), wk =   0.0025641
        k(  313) = (   0.1666667  -1.3502678  -0.1490909), wk =   0.0025641
        k(  314) = (   0.1666667  -1.1573724   0.0454545), wk =   0.0025641
        k(  315) = (   0.1666667  -1.1573724   0.2400000), wk =   0.0025641
        k(  316) = (   0.1666667  -1.1573724   0.4345455), wk =   0.0025641
        k(  317) = (   0.1666667  -1.1573724   0.6290909), wk =   0.0025641
        k(  318) = (   0.1666667  -1.1573724   0.8236364), wk =   0.0025641
        k(  319) = (   0.1666667  -1.1573724   1.0181819), wk =   0.0025641
        k(  320) = (   0.1666667  -1.1573724   1.2127273), wk =   0.0025641
        k(  321) = (   0.1666667  -1.1573724  -1.1218182), wk =   0.0025641
        k(  322) = (   0.1666667  -1.1573724  -0.9272728), wk =   0.0025641
        k(  323) = (   0.1666667  -1.1573724  -0.7327273), wk =   0.0025641
        k(  324) = (   0.1666667  -1.1573724  -0.5381818), wk =   0.0025641
        k(  325) = (   0.1666667  -1.1573724  -0.3436364), wk =   0.0025641
        k(  326) = (   0.1666667  -1.1573724  -0.1490909), wk =   0.0025641
        k(  327) = (   0.1666667  -0.9644770   0.0454545), wk =   0.0025641
        k(  328) = (   0.1666667  -0.9644770   0.2400000), wk =   0.0025641
        k(  329) = (   0.1666667  -0.9644770   0.4345455), wk =   0.0025641
        k(  330) = (   0.1666667  -0.9644770   0.6290909), wk =   0.0025641
        k(  331) = (   0.1666667  -0.9644770   0.8236364), wk =   0.0025641
        k(  332) = (   0.1666667  -0.9644770   1.0181819), wk =   0.0025641
        k(  333) = (   0.1666667  -0.9644770   1.2127273), wk =   0.0025641
        k(  334) = (   0.1666667  -0.9644770  -1.1218182), wk =   0.0025641
        k(  335) = (   0.1666667  -0.9644770  -0.9272728), wk =   0.0025641
        k(  336) = (   0.1666667  -0.9644770  -0.7327273), wk =   0.0025641
        k(  337) = (   0.1666667  -0.9644770  -0.5381818), wk =   0.0025641
        k(  338) = (   0.1666667  -0.9644770  -0.3436364), wk =   0.0025641
        k(  339) = (   0.1666667  -0.9644770  -0.1490909), wk =   0.0025641
        k(  340) = (   0.1666667  -0.7715816   0.0454545), wk =   0.0025641
        k(  341) = (   0.1666667  -0.7715816   0.2400000), wk =   0.0025641
        k(  342) = (   0.1666667  -0.7715816   0.4345455), wk =   0.0025641
        k(  343) = (   0.1666667  -0.7715816   0.6290909), wk =   0.0025641
        k(  344) = (   0.1666667  -0.7715816   0.8236364), wk =   0.0025641
        k(  345) = (   0.1666667  -0.7715816   1.0181819), wk =   0.0025641
        k(  346) = (   0.1666667  -0.7715816   1.2127273), wk =   0.0025641
        k(  347) = (   0.1666667  -0.7715816  -1.1218182), wk =   0.0025641
        k(  348) = (   0.1666667  -0.7715816  -0.9272728), wk =   0.0025641
        k(  349) = (   0.1666667  -0.7715816  -0.7327273), wk =   0.0025641
        k(  350) = (   0.1666667  -0.7715816  -0.5381818), wk =   0.0025641
        k(  351) = (   0.1666667  -0.7715816  -0.3436364), wk =   0.0025641
        k(  352) = (   0.1666667  -0.7715816  -0.1490909), wk =   0.0025641
        k(  353) = (   0.1666667  -0.5786862   0.0454545), wk =   0.0025641
        k(  354) = (   0.1666667  -0.5786862   0.2400000), wk =   0.0025641
        k(  355) = (   0.1666667  -0.5786862   0.4345455), wk =   0.0025641
        k(  356) = (   0.1666667  -0.5786862   0.6290909), wk =   0.0025641
        k(  357) = (   0.1666667  -0.5786862   0.8236364), wk =   0.0025641
        k(  358) = (   0.1666667  -0.5786862   1.0181819), wk =   0.0025641
        k(  359) = (   0.1666667  -0.5786862   1.2127273), wk =   0.0025641
        k(  360) = (   0.1666667  -0.5786862  -1.1218182), wk =   0.0025641
        k(  361) = (   0.1666667  -0.5786862  -0.9272728), wk =   0.0025641
        k(  362) = (   0.1666667  -0.5786862  -0.7327273), wk =   0.0025641
        k(  363) = (   0.1666667  -0.5786862  -0.5381818), wk =   0.0025641
        k(  364) = (   0.1666667  -0.5786862  -0.3436364), wk =   0.0025641
        k(  365) = (   0.1666667  -0.5786862  -0.1490909), wk =   0.0025641
        k(  366) = (   0.1666667  -0.3857908   0.0454545), wk =   0.0025641
        k(  367) = (   0.1666667  -0.3857908   0.2400000), wk =   0.0025641
        k(  368) = (   0.1666667  -0.3857908   0.4345455), wk =   0.0025641
        k(  369) = (   0.1666667  -0.3857908   0.6290909), wk =   0.0025641
        k(  370) = (   0.1666667  -0.3857908   0.8236364), wk =   0.0025641
        k(  371) = (   0.1666667  -0.3857908   1.0181819), wk =   0.0025641
        k(  372) = (   0.1666667  -0.3857908   1.2127273), wk =   0.0025641
        k(  373) = (   0.1666667  -0.3857908  -1.1218182), wk =   0.0025641
        k(  374) = (   0.1666667  -0.3857908  -0.9272728), wk =   0.0025641
        k(  375) = (   0.1666667  -0.3857908  -0.7327273), wk =   0.0025641
        k(  376) = (   0.1666667  -0.3857908  -0.5381818), wk =   0.0025641
        k(  377) = (   0.1666667  -0.3857908  -0.3436364), wk =   0.0025641
        k(  378) = (   0.1666667  -0.3857908  -0.1490909), wk =   0.0025641
        k(  379) = (   0.1666667  -0.1928954   0.0454545), wk =   0.0025641
        k(  380) = (   0.1666667  -0.1928954   0.2400000), wk =   0.0025641
        k(  381) = (   0.1666667  -0.1928954   0.4345455), wk =   0.0025641
        k(  382) = (   0.1666667  -0.1928954   0.6290909), wk =   0.0025641
        k(  383) = (   0.1666667  -0.1928954   0.8236364), wk =   0.0025641
        k(  384) = (   0.1666667  -0.1928954   1.0181819), wk =   0.0025641
        k(  385) = (   0.1666667  -0.1928954   1.2127273), wk =   0.0025641
        k(  386) = (   0.1666667  -0.1928954  -1.1218182), wk =   0.0025641
        k(  387) = (   0.1666667  -0.1928954  -0.9272728), wk =   0.0025641
        k(  388) = (   0.1666667  -0.1928954  -0.7327273), wk =   0.0025641
        k(  389) = (   0.1666667  -0.1928954  -0.5381818), wk =   0.0025641
        k(  390) = (   0.1666667  -0.1928954  -0.3436364), wk =   0.0025641
        k(  391) = (   0.1666667  -0.1928954  -0.1490909), wk =   0.0025641
        k(  392) = (   0.3333333   0.0000000   0.0909091), wk =   0.0025641
        k(  393) = (   0.3333333   0.0000000   0.2854546), wk =   0.0025641
        k(  394) = (   0.3333333   0.0000000   0.4800000), wk =   0.0025641
        k(  395) = (   0.3333333   0.0000000   0.6745455), wk =   0.0025641
        k(  396) = (   0.3333333   0.0000000   0.8690910), wk =   0.0025641
        k(  397) = (   0.3333333   0.0000000   1.0636364), wk =   0.0025641
        k(  398) = (   0.3333333   0.0000000   1.2581819), wk =   0.0025641
        k(  399) = (   0.3333333   0.0000000  -1.0763637), wk =   0.0025641
        k(  400) = (   0.3333333   0.0000000  -0.8818182), wk =   0.0025641
        k(  401) = (   0.3333333   0.0000000  -0.6872728), wk =   0.0025641
        k(  402) = (   0.3333333   0.0000000  -0.4927273), wk =   0.0025641
        k(  403) = (   0.3333333   0.0000000  -0.2981818), wk =   0.0025641
        k(  404) = (   0.3333333   0.0000000  -0.1036364), wk =   0.0025641
        k(  405) = (   0.3333333   0.1928954   0.0909091), wk =   0.0025641
        k(  406) = (   0.3333333   0.1928954   0.2854546), wk =   0.0025641
        k(  407) = (   0.3333333   0.1928954   0.4800000), wk =   0.0025641
        k(  408) = (   0.3333333   0.1928954   0.6745455), wk =   0.0025641
        k(  409) = (   0.3333333   0.1928954   0.8690910), wk =   0.0025641
        k(  410) = (   0.3333333   0.1928954   1.0636364), wk =   0.0025641
        k(  411) = (   0.3333333   0.1928954   1.2581819), wk =   0.0025641
        k(  412) = (   0.3333333   0.1928954  -1.0763637), wk =   0.0025641
        k(  413) = (   0.3333333   0.1928954  -0.8818182), wk =   0.0025641
        k(  414) = (   0.3333333   0.1928954  -0.6872728), wk =   0.0025641
        k(  415) = (   0.3333333   0.1928954  -0.4927273), wk =   0.0025641
        k(  416) = (   0.3333333   0.1928954  -0.2981818), wk =   0.0025641
        k(  417) = (   0.3333333   0.1928954  -0.1036364), wk =   0.0025641
        k(  418) = (   0.3333333   0.3857908   0.0909091), wk =   0.0025641
        k(  419) = (   0.3333333   0.3857908   0.2854546), wk =   0.0025641
        k(  420) = (   0.3333333   0.3857908   0.4800000), wk =   0.0025641
        k(  421) = (   0.3333333   0.3857908   0.6745455), wk =   0.0025641
        k(  422) = (   0.3333333   0.3857908   0.8690910), wk =   0.0025641
        k(  423) = (   0.3333333   0.3857908   1.0636364), wk =   0.0025641
        k(  424) = (   0.3333333   0.3857908   1.2581819), wk =   0.0025641
        k(  425) = (   0.3333333   0.3857908  -1.0763637), wk =   0.0025641
        k(  426) = (   0.3333333   0.3857908  -0.8818182), wk =   0.0025641
        k(  427) = (   0.3333333   0.3857908  -0.6872728), wk =   0.0025641
        k(  428) = (   0.3333333   0.3857908  -0.4927273), wk =   0.0025641
        k(  429) = (   0.3333333   0.3857908  -0.2981818), wk =   0.0025641
        k(  430) = (   0.3333333   0.3857908  -0.1036364), wk =   0.0025641
        k(  431) = (   0.3333333   0.5786862   0.0909091), wk =   0.0025641
        k(  432) = (   0.3333333   0.5786862   0.2854546), wk =   0.0025641
        k(  433) = (   0.3333333   0.5786862   0.4800000), wk =   0.0025641
        k(  434) = (   0.3333333   0.5786862   0.6745455), wk =   0.0025641
        k(  435) = (   0.3333333   0.5786862   0.8690910), wk =   0.0025641
        k(  436) = (   0.3333333   0.5786862   1.0636364), wk =   0.0025641
        k(  437) = (   0.3333333   0.5786862   1.2581819), wk =   0.0025641
        k(  438) = (   0.3333333   0.5786862  -1.0763637), wk =   0.0025641
        k(  439) = (   0.3333333   0.5786862  -0.8818182), wk =   0.0025641
        k(  440) = (   0.3333333   0.5786862  -0.6872728), wk =   0.0025641
        k(  441) = (   0.3333333   0.5786862  -0.4927273), wk =   0.0025641
        k(  442) = (   0.3333333   0.5786862  -0.2981818), wk =   0.0025641
        k(  443) = (   0.3333333   0.5786862  -0.1036364), wk =   0.0025641
        k(  444) = (   0.3333333   0.7715816   0.0909091), wk =   0.0025641
        k(  445) = (   0.3333333   0.7715816   0.2854546), wk =   0.0025641
        k(  446) = (   0.3333333   0.7715816   0.4800000), wk =   0.0025641
        k(  447) = (   0.3333333   0.7715816   0.6745455), wk =   0.0025641
        k(  448) = (   0.3333333   0.7715816   0.8690910), wk =   0.0025641
        k(  449) = (   0.3333333   0.7715816   1.0636364), wk =   0.0025641
        k(  450) = (   0.3333333   0.7715816   1.2581819), wk =   0.0025641
        k(  451) = (   0.3333333   0.7715816  -1.0763637), wk =   0.0025641
        k(  452) = (   0.3333333   0.7715816  -0.8818182), wk =   0.0025641
        k(  453) = (   0.3333333   0.7715816  -0.6872728), wk =   0.0025641
        k(  454) = (   0.3333333   0.7715816  -0.4927273), wk =   0.0025641
        k(  455) = (   0.3333333   0.7715816  -0.2981818), wk =   0.0025641
        k(  456) = (   0.3333333   0.7715816  -0.1036364), wk =   0.0025641
        k(  457) = (   0.3333333   0.9644770   0.0909091), wk =   0.0025641
        k(  458) = (   0.3333333   0.9644770   0.2854546), wk =   0.0025641
        k(  459) = (   0.3333333   0.9644770   0.4800000), wk =   0.0025641
        k(  460) = (   0.3333333   0.9644770   0.6745455), wk =   0.0025641
        k(  461) = (   0.3333333   0.9644770   0.8690910), wk =   0.0025641
        k(  462) = (   0.3333333   0.9644770   1.0636364), wk =   0.0025641
        k(  463) = (   0.3333333   0.9644770   1.2581819), wk =   0.0025641
        k(  464) = (   0.3333333   0.9644770  -1.0763637), wk =   0.0025641
        k(  465) = (   0.3333333   0.9644770  -0.8818182), wk =   0.0025641
        k(  466) = (   0.3333333   0.9644770  -0.6872728), wk =   0.0025641
        k(  467) = (   0.3333333   0.9644770  -0.4927273), wk =   0.0025641
        k(  468) = (   0.3333333   0.9644770  -0.2981818), wk =   0.0025641
        k(  469) = (   0.3333333   0.9644770  -0.1036364), wk =   0.0025641
        k(  470) = (   0.3333333   1.1573724   0.0909091), wk =   0.0025641
        k(  471) = (   0.3333333   1.1573724   0.2854546), wk =   0.0025641
        k(  472) = (   0.3333333   1.1573724   0.4800000), wk =   0.0025641
        k(  473) = (   0.3333333   1.1573724   0.6745455), wk =   0.0025641
        k(  474) = (   0.3333333   1.1573724   0.8690910), wk =   0.0025641
        k(  475) = (   0.3333333   1.1573724   1.0636364), wk =   0.0025641
        k(  476) = (   0.3333333   1.1573724   1.2581819), wk =   0.0025641
        k(  477) = (   0.3333333   1.1573724  -1.0763637), wk =   0.0025641
        k(  478) = (   0.3333333   1.1573724  -0.8818182), wk =   0.0025641
        k(  479) = (   0.3333333   1.1573724  -0.6872728), wk =   0.0025641
        k(  480) = (   0.3333333   1.1573724  -0.4927273), wk =   0.0025641
        k(  481) = (   0.3333333   1.1573724  -0.2981818), wk =   0.0025641
        k(  482) = (   0.3333333   1.1573724  -0.1036364), wk =   0.0025641
        k(  483) = (   0.3333333   1.3502678   0.0909091), wk =   0.0025641
        k(  484) = (   0.3333333   1.3502678   0.2854546), wk =   0.0025641
        k(  485) = (   0.3333333   1.3502678   0.4800000), wk =   0.0025641
        k(  486) = (   0.3333333   1.3502678   0.6745455), wk =   0.0025641
        k(  487) = (   0.3333333   1.3502678   0.8690910), wk =   0.0025641
        k(  488) = (   0.3333333   1.3502678   1.0636364), wk =   0.0025641
        k(  489) = (   0.3333333   1.3502678   1.2581819), wk =   0.0025641
        k(  490) = (   0.3333333   1.3502678  -1.0763637), wk =   0.0025641
        k(  491) = (   0.3333333   1.3502678  -0.8818182), wk =   0.0025641
        k(  492) = (   0.3333333   1.3502678  -0.6872728), wk =   0.0025641
        k(  493) = (   0.3333333   1.3502678  -0.4927273), wk =   0.0025641
        k(  494) = (   0.3333333   1.3502678  -0.2981818), wk =   0.0025641
        k(  495) = (   0.3333333   1.3502678  -0.1036364), wk =   0.0025641
        k(  496) = (   0.3333333   1.5431632   0.0909091), wk =   0.0025641
        k(  497) = (   0.3333333   1.5431632   0.2854546), wk =   0.0025641
        k(  498) = (   0.3333333   1.5431632   0.4800000), wk =   0.0025641
        k(  499) = (   0.3333333   1.5431632   0.6745455), wk =   0.0025641
        k(  500) = (   0.3333333   1.5431632   0.8690910), wk =   0.0025641
        k(  501) = (   0.3333333   1.5431632   1.0636364), wk =   0.0025641
        k(  502) = (   0.3333333   1.5431632   1.2581819), wk =   0.0025641
        k(  503) = (   0.3333333   1.5431632  -1.0763637), wk =   0.0025641
        k(  504) = (   0.3333333   1.5431632  -0.8818182), wk =   0.0025641
        k(  505) = (   0.3333333   1.5431632  -0.6872728), wk =   0.0025641
        k(  506) = (   0.3333333   1.5431632  -0.4927273), wk =   0.0025641
        k(  507) = (   0.3333333   1.5431632  -0.2981818), wk =   0.0025641
        k(  508) = (   0.3333333   1.5431632  -0.1036364), wk =   0.0025641
        k(  509) = (   0.3333333   1.7360586   0.0909091), wk =   0.0025641
        k(  510) = (   0.3333333   1.7360586   0.2854546), wk =   0.0025641
        k(  511) = (   0.3333333   1.7360586   0.4800000), wk =   0.0025641
        k(  512) = (   0.3333333   1.7360586   0.6745455), wk =   0.0025641
        k(  513) = (   0.3333333   1.7360586   0.8690910), wk =   0.0025641
        k(  514) = (   0.3333333   1.7360586   1.0636364), wk =   0.0025641
        k(  515) = (   0.3333333   1.7360586   1.2581819), wk =   0.0025641
        k(  516) = (   0.3333333   1.7360586  -1.0763637), wk =   0.0025641
        k(  517) = (   0.3333333   1.7360586  -0.8818182), wk =   0.0025641
        k(  518) = (   0.3333333   1.7360586  -0.6872728), wk =   0.0025641
        k(  519) = (   0.3333333   1.7360586  -0.4927273), wk =   0.0025641
        k(  520) = (   0.3333333   1.7360586  -0.2981818), wk =   0.0025641
        k(  521) = (   0.3333333   1.7360586  -0.1036364), wk =   0.0025641
        k(  522) = (   0.3333333  -1.9289539   0.0909091), wk =   0.0025641
        k(  523) = (   0.3333333  -1.9289539   0.2854546), wk =   0.0025641
        k(  524) = (   0.3333333  -1.9289539   0.4800000), wk =   0.0025641
        k(  525) = (   0.3333333  -1.9289539   0.6745455), wk =   0.0025641
        k(  526) = (   0.3333333  -1.9289539   0.8690910), wk =   0.0025641
        k(  527) = (   0.3333333  -1.9289539   1.0636364), wk =   0.0025641
        k(  528) = (   0.3333333  -1.9289539   1.2581819), wk =   0.0025641
        k(  529) = (   0.3333333  -1.9289539  -1.0763637), wk =   0.0025641
        k(  530) = (   0.3333333  -1.9289539  -0.8818182), wk =   0.0025641
        k(  531) = (   0.3333333  -1.9289539  -0.6872728), wk =   0.0025641
        k(  532) = (   0.3333333  -1.9289539  -0.4927273), wk =   0.0025641
        k(  533) = (   0.3333333  -1.9289539  -0.2981818), wk =   0.0025641
        k(  534) = (   0.3333333  -1.9289539  -0.1036364), wk =   0.0025641
        k(  535) = (   0.3333333  -1.7360586   0.0909091), wk =   0.0025641
        k(  536) = (   0.3333333  -1.7360586   0.2854546), wk =   0.0025641
        k(  537) = (   0.3333333  -1.7360586   0.4800000), wk =   0.0025641
        k(  538) = (   0.3333333  -1.7360586   0.6745455), wk =   0.0025641
        k(  539) = (   0.3333333  -1.7360586   0.8690910), wk =   0.0025641
        k(  540) = (   0.3333333  -1.7360586   1.0636364), wk =   0.0025641
        k(  541) = (   0.3333333  -1.7360586   1.2581819), wk =   0.0025641
        k(  542) = (   0.3333333  -1.7360586  -1.0763637), wk =   0.0025641
        k(  543) = (   0.3333333  -1.7360586  -0.8818182), wk =   0.0025641
        k(  544) = (   0.3333333  -1.7360586  -0.6872728), wk =   0.0025641
        k(  545) = (   0.3333333  -1.7360586  -0.4927273), wk =   0.0025641
        k(  546) = (   0.3333333  -1.7360586  -0.2981818), wk =   0.0025641
        k(  547) = (   0.3333333  -1.7360586  -0.1036364), wk =   0.0025641
        k(  548) = (   0.3333333  -1.5431632   0.0909091), wk =   0.0025641
        k(  549) = (   0.3333333  -1.5431632   0.2854546), wk =   0.0025641
        k(  550) = (   0.3333333  -1.5431632   0.4800000), wk =   0.0025641
        k(  551) = (   0.3333333  -1.5431632   0.6745455), wk =   0.0025641
        k(  552) = (   0.3333333  -1.5431632   0.8690910), wk =   0.0025641
        k(  553) = (   0.3333333  -1.5431632   1.0636364), wk =   0.0025641
        k(  554) = (   0.3333333  -1.5431632   1.2581819), wk =   0.0025641
        k(  555) = (   0.3333333  -1.5431632  -1.0763637), wk =   0.0025641
        k(  556) = (   0.3333333  -1.5431632  -0.8818182), wk =   0.0025641
        k(  557) = (   0.3333333  -1.5431632  -0.6872728), wk =   0.0025641
        k(  558) = (   0.3333333  -1.5431632  -0.4927273), wk =   0.0025641
        k(  559) = (   0.3333333  -1.5431632  -0.2981818), wk =   0.0025641
        k(  560) = (   0.3333333  -1.5431632  -0.1036364), wk =   0.0025641
        k(  561) = (   0.3333333  -1.3502678   0.0909091), wk =   0.0025641
        k(  562) = (   0.3333333  -1.3502678   0.2854546), wk =   0.0025641
        k(  563) = (   0.3333333  -1.3502678   0.4800000), wk =   0.0025641
        k(  564) = (   0.3333333  -1.3502678   0.6745455), wk =   0.0025641
        k(  565) = (   0.3333333  -1.3502678   0.8690910), wk =   0.0025641
        k(  566) = (   0.3333333  -1.3502678   1.0636364), wk =   0.0025641
        k(  567) = (   0.3333333  -1.3502678   1.2581819), wk =   0.0025641
        k(  568) = (   0.3333333  -1.3502678  -1.0763637), wk =   0.0025641
        k(  569) = (   0.3333333  -1.3502678  -0.8818182), wk =   0.0025641
        k(  570) = (   0.3333333  -1.3502678  -0.6872728), wk =   0.0025641
        k(  571) = (   0.3333333  -1.3502678  -0.4927273), wk =   0.0025641
        k(  572) = (   0.3333333  -1.3502678  -0.2981818), wk =   0.0025641
        k(  573) = (   0.3333333  -1.3502678  -0.1036364), wk =   0.0025641
        k(  574) = (   0.3333333  -1.1573724   0.0909091), wk =   0.0025641
        k(  575) = (   0.3333333  -1.1573724   0.2854546), wk =   0.0025641
        k(  576) = (   0.3333333  -1.1573724   0.4800000), wk =   0.0025641
        k(  577) = (   0.3333333  -1.1573724   0.6745455), wk =   0.0025641
        k(  578) = (   0.3333333  -1.1573724   0.8690910), wk =   0.0025641
        k(  579) = (   0.3333333  -1.1573724   1.0636364), wk =   0.0025641
        k(  580) = (   0.3333333  -1.1573724   1.2581819), wk =   0.0025641
        k(  581) = (   0.3333333  -1.1573724  -1.0763637), wk =   0.0025641
        k(  582) = (   0.3333333  -1.1573724  -0.8818182), wk =   0.0025641
        k(  583) = (   0.3333333  -1.1573724  -0.6872728), wk =   0.0025641
        k(  584) = (   0.3333333  -1.1573724  -0.4927273), wk =   0.0025641
        k(  585) = (   0.3333333  -1.1573724  -0.2981818), wk =   0.0025641
        k(  586) = (   0.3333333  -1.1573724  -0.1036364), wk =   0.0025641
        k(  587) = (   0.3333333  -0.9644770   0.0909091), wk =   0.0025641
        k(  588) = (   0.3333333  -0.9644770   0.2854546), wk =   0.0025641
        k(  589) = (   0.3333333  -0.9644770   0.4800000), wk =   0.0025641
        k(  590) = (   0.3333333  -0.9644770   0.6745455), wk =   0.0025641
        k(  591) = (   0.3333333  -0.9644770   0.8690910), wk =   0.0025641
        k(  592) = (   0.3333333  -0.9644770   1.0636364), wk =   0.0025641
        k(  593) = (   0.3333333  -0.9644770   1.2581819), wk =   0.0025641
        k(  594) = (   0.3333333  -0.9644770  -1.0763637), wk =   0.0025641
        k(  595) = (   0.3333333  -0.9644770  -0.8818182), wk =   0.0025641
        k(  596) = (   0.3333333  -0.9644770  -0.6872728), wk =   0.0025641
        k(  597) = (   0.3333333  -0.9644770  -0.4927273), wk =   0.0025641
        k(  598) = (   0.3333333  -0.9644770  -0.2981818), wk =   0.0025641
        k(  599) = (   0.3333333  -0.9644770  -0.1036364), wk =   0.0025641
        k(  600) = (   0.3333333  -0.7715816   0.0909091), wk =   0.0025641
        k(  601) = (   0.3333333  -0.7715816   0.2854546), wk =   0.0025641
        k(  602) = (   0.3333333  -0.7715816   0.4800000), wk =   0.0025641
        k(  603) = (   0.3333333  -0.7715816   0.6745455), wk =   0.0025641
        k(  604) = (   0.3333333  -0.7715816   0.8690910), wk =   0.0025641
        k(  605) = (   0.3333333  -0.7715816   1.0636364), wk =   0.0025641
        k(  606) = (   0.3333333  -0.7715816   1.2581819), wk =   0.0025641
        k(  607) = (   0.3333333  -0.7715816  -1.0763637), wk =   0.0025641
        k(  608) = (   0.3333333  -0.7715816  -0.8818182), wk =   0.0025641
        k(  609) = (   0.3333333  -0.7715816  -0.6872728), wk =   0.0025641
        k(  610) = (   0.3333333  -0.7715816  -0.4927273), wk =   0.0025641
        k(  611) = (   0.3333333  -0.7715816  -0.2981818), wk =   0.0025641
        k(  612) = (   0.3333333  -0.7715816  -0.1036364), wk =   0.0025641
        k(  613) = (   0.3333333  -0.5786862   0.0909091), wk =   0.0025641
        k(  614) = (   0.3333333  -0.5786862   0.2854546), wk =   0.0025641
        k(  615) = (   0.3333333  -0.5786862   0.4800000), wk =   0.0025641
        k(  616) = (   0.3333333  -0.5786862   0.6745455), wk =   0.0025641
        k(  617) = (   0.3333333  -0.5786862   0.8690910), wk =   0.0025641
        k(  618) = (   0.3333333  -0.5786862   1.0636364), wk =   0.0025641
        k(  619) = (   0.3333333  -0.5786862   1.2581819), wk =   0.0025641
        k(  620) = (   0.3333333  -0.5786862  -1.0763637), wk =   0.0025641
        k(  621) = (   0.3333333  -0.5786862  -0.8818182), wk =   0.0025641
        k(  622) = (   0.3333333  -0.5786862  -0.6872728), wk =   0.0025641
        k(  623) = (   0.3333333  -0.5786862  -0.4927273), wk =   0.0025641
        k(  624) = (   0.3333333  -0.5786862  -0.2981818), wk =   0.0025641
        k(  625) = (   0.3333333  -0.5786862  -0.1036364), wk =   0.0025641
        k(  626) = (   0.3333333  -0.3857908   0.0909091), wk =   0.0025641
        k(  627) = (   0.3333333  -0.3857908   0.2854546), wk =   0.0025641
        k(  628) = (   0.3333333  -0.3857908   0.4800000), wk =   0.0025641
        k(  629) = (   0.3333333  -0.3857908   0.6745455), wk =   0.0025641
        k(  630) = (   0.3333333  -0.3857908   0.8690910), wk =   0.0025641
        k(  631) = (   0.3333333  -0.3857908   1.0636364), wk =   0.0025641
        k(  632) = (   0.3333333  -0.3857908   1.2581819), wk =   0.0025641
        k(  633) = (   0.3333333  -0.3857908  -1.0763637), wk =   0.0025641
        k(  634) = (   0.3333333  -0.3857908  -0.8818182), wk =   0.0025641
        k(  635) = (   0.3333333  -0.3857908  -0.6872728), wk =   0.0025641
        k(  636) = (   0.3333333  -0.3857908  -0.4927273), wk =   0.0025641
        k(  637) = (   0.3333333  -0.3857908  -0.2981818), wk =   0.0025641
        k(  638) = (   0.3333333  -0.3857908  -0.1036364), wk =   0.0025641
        k(  639) = (   0.3333333  -0.1928954   0.0909091), wk =   0.0025641
        k(  640) = (   0.3333333  -0.1928954   0.2854546), wk =   0.0025641
        k(  641) = (   0.3333333  -0.1928954   0.4800000), wk =   0.0025641
        k(  642) = (   0.3333333  -0.1928954   0.6745455), wk =   0.0025641
        k(  643) = (   0.3333333  -0.1928954   0.8690910), wk =   0.0025641
        k(  644) = (   0.3333333  -0.1928954   1.0636364), wk =   0.0025641
        k(  645) = (   0.3333333  -0.1928954   1.2581819), wk =   0.0025641
        k(  646) = (   0.3333333  -0.1928954  -1.0763637), wk =   0.0025641
        k(  647) = (   0.3333333  -0.1928954  -0.8818182), wk =   0.0025641
        k(  648) = (   0.3333333  -0.1928954  -0.6872728), wk =   0.0025641
        k(  649) = (   0.3333333  -0.1928954  -0.4927273), wk =   0.0025641
        k(  650) = (   0.3333333  -0.1928954  -0.2981818), wk =   0.0025641
        k(  651) = (   0.3333333  -0.1928954  -0.1036364), wk =   0.0025641
        k(  652) = (  -0.5000000   0.0000000  -0.1363636), wk =   0.0012821
        k(  653) = (  -0.5000000   0.0000000   0.0581818), wk =   0.0025641
        k(  654) = (  -0.5000000   0.0000000   0.2527273), wk =   0.0025641
        k(  655) = (  -0.5000000   0.0000000   0.4472728), wk =   0.0025641
        k(  656) = (  -0.5000000   0.0000000   0.6418182), wk =   0.0025641
        k(  657) = (  -0.5000000   0.0000000   0.8363637), wk =   0.0025641
        k(  658) = (  -0.5000000   0.0000000   1.0309091), wk =   0.0025641
        k(  659) = (  -0.5000000   0.1928954  -0.1363636), wk =   0.0025641
        k(  660) = (  -0.5000000   0.1928954   0.0581818), wk =   0.0025641
        k(  661) = (  -0.5000000   0.1928954   0.2527273), wk =   0.0025641
        k(  662) = (  -0.5000000   0.1928954   0.4472728), wk =   0.0025641
        k(  663) = (  -0.5000000   0.1928954   0.6418182), wk =   0.0025641
        k(  664) = (  -0.5000000   0.1928954   0.8363637), wk =   0.0025641
        k(  665) = (  -0.5000000   0.1928954   1.0309091), wk =   0.0025641
        k(  666) = (  -0.5000000   0.1928954  -1.3036364), wk =   0.0025641
        k(  667) = (  -0.5000000   0.1928954  -1.1090910), wk =   0.0025641
        k(  668) = (  -0.5000000   0.1928954  -0.9145455), wk =   0.0025641
        k(  669) = (  -0.5000000   0.1928954  -0.7200000), wk =   0.0025641
        k(  670) = (  -0.5000000   0.1928954  -0.5254546), wk =   0.0025641
        k(  671) = (  -0.5000000   0.1928954  -0.3309091), wk =   0.0025641
        k(  672) = (  -0.5000000   0.3857908  -0.1363636), wk =   0.0025641
        k(  673) = (  -0.5000000   0.3857908   0.0581818), wk =   0.0025641
        k(  674) = (  -0.5000000   0.3857908   0.2527273), wk =   0.0025641
        k(  675) = (  -0.5000000   0.3857908   0.4472728), wk =   0.0025641
        k(  676) = (  -0.5000000   0.3857908   0.6418182), wk =   0.0025641
        k(  677) = (  -0.5000000   0.3857908   0.8363637), wk =   0.0025641
        k(  678) = (  -0.5000000   0.3857908   1.0309091), wk =   0.0025641
        k(  679) = (  -0.5000000   0.3857908  -1.3036364), wk =   0.0025641
        k(  680) = (  -0.5000000   0.3857908  -1.1090910), wk =   0.0025641
        k(  681) = (  -0.5000000   0.3857908  -0.9145455), wk =   0.0025641
        k(  682) = (  -0.5000000   0.3857908  -0.7200000), wk =   0.0025641
        k(  683) = (  -0.5000000   0.3857908  -0.5254546), wk =   0.0025641
        k(  684) = (  -0.5000000   0.3857908  -0.3309091), wk =   0.0025641
        k(  685) = (  -0.5000000   0.5786862  -0.1363636), wk =   0.0025641
        k(  686) = (  -0.5000000   0.5786862   0.0581818), wk =   0.0025641
        k(  687) = (  -0.5000000   0.5786862   0.2527273), wk =   0.0025641
        k(  688) = (  -0.5000000   0.5786862   0.4472728), wk =   0.0025641
        k(  689) = (  -0.5000000   0.5786862   0.6418182), wk =   0.0025641
        k(  690) = (  -0.5000000   0.5786862   0.8363637), wk =   0.0025641
        k(  691) = (  -0.5000000   0.5786862   1.0309091), wk =   0.0025641
        k(  692) = (  -0.5000000   0.5786862  -1.3036364), wk =   0.0025641
        k(  693) = (  -0.5000000   0.5786862  -1.1090910), wk =   0.0025641
        k(  694) = (  -0.5000000   0.5786862  -0.9145455), wk =   0.0025641
        k(  695) = (  -0.5000000   0.5786862  -0.7200000), wk =   0.0025641
        k(  696) = (  -0.5000000   0.5786862  -0.5254546), wk =   0.0025641
        k(  697) = (  -0.5000000   0.5786862  -0.3309091), wk =   0.0025641
        k(  698) = (  -0.5000000   0.7715816  -0.1363636), wk =   0.0025641
        k(  699) = (  -0.5000000   0.7715816   0.0581818), wk =   0.0025641
        k(  700) = (  -0.5000000   0.7715816   0.2527273), wk =   0.0025641
        k(  701) = (  -0.5000000   0.7715816   0.4472728), wk =   0.0025641
        k(  702) = (  -0.5000000   0.7715816   0.6418182), wk =   0.0025641
        k(  703) = (  -0.5000000   0.7715816   0.8363637), wk =   0.0025641
        k(  704) = (  -0.5000000   0.7715816   1.0309091), wk =   0.0025641
        k(  705) = (  -0.5000000   0.7715816  -1.3036364), wk =   0.0025641
        k(  706) = (  -0.5000000   0.7715816  -1.1090910), wk =   0.0025641
        k(  707) = (  -0.5000000   0.7715816  -0.9145455), wk =   0.0025641
        k(  708) = (  -0.5000000   0.7715816  -0.7200000), wk =   0.0025641
        k(  709) = (  -0.5000000   0.7715816  -0.5254546), wk =   0.0025641
        k(  710) = (  -0.5000000   0.7715816  -0.3309091), wk =   0.0025641
        k(  711) = (  -0.5000000   0.9644770  -0.1363636), wk =   0.0025641
        k(  712) = (  -0.5000000   0.9644770   0.0581818), wk =   0.0025641
        k(  713) = (  -0.5000000   0.9644770   0.2527273), wk =   0.0025641
        k(  714) = (  -0.5000000   0.9644770   0.4472728), wk =   0.0025641
        k(  715) = (  -0.5000000   0.9644770   0.6418182), wk =   0.0025641
        k(  716) = (  -0.5000000   0.9644770   0.8363637), wk =   0.0025641
        k(  717) = (  -0.5000000   0.9644770   1.0309091), wk =   0.0025641
        k(  718) = (  -0.5000000   0.9644770  -1.3036364), wk =   0.0025641
        k(  719) = (  -0.5000000   0.9644770  -1.1090910), wk =   0.0025641
        k(  720) = (  -0.5000000   0.9644770  -0.9145455), wk =   0.0025641
        k(  721) = (  -0.5000000   0.9644770  -0.7200000), wk =   0.0025641
        k(  722) = (  -0.5000000   0.9644770  -0.5254546), wk =   0.0025641
        k(  723) = (  -0.5000000   0.9644770  -0.3309091), wk =   0.0025641
        k(  724) = (  -0.5000000   1.1573724  -0.1363636), wk =   0.0025641
        k(  725) = (  -0.5000000   1.1573724   0.0581818), wk =   0.0025641
        k(  726) = (  -0.5000000   1.1573724   0.2527273), wk =   0.0025641
        k(  727) = (  -0.5000000   1.1573724   0.4472728), wk =   0.0025641
        k(  728) = (  -0.5000000   1.1573724   0.6418182), wk =   0.0025641
        k(  729) = (  -0.5000000   1.1573724   0.8363637), wk =   0.0025641
        k(  730) = (  -0.5000000   1.1573724   1.0309091), wk =   0.0025641
        k(  731) = (  -0.5000000   1.1573724  -1.3036364), wk =   0.0025641
        k(  732) = (  -0.5000000   1.1573724  -1.1090910), wk =   0.0025641
        k(  733) = (  -0.5000000   1.1573724  -0.9145455), wk =   0.0025641
        k(  734) = (  -0.5000000   1.1573724  -0.7200000), wk =   0.0025641
        k(  735) = (  -0.5000000   1.1573724  -0.5254546), wk =   0.0025641
        k(  736) = (  -0.5000000   1.1573724  -0.3309091), wk =   0.0025641
        k(  737) = (  -0.5000000   1.3502678  -0.1363636), wk =   0.0025641
        k(  738) = (  -0.5000000   1.3502678   0.0581818), wk =   0.0025641
        k(  739) = (  -0.5000000   1.3502678   0.2527273), wk =   0.0025641
        k(  740) = (  -0.5000000   1.3502678   0.4472728), wk =   0.0025641
        k(  741) = (  -0.5000000   1.3502678   0.6418182), wk =   0.0025641
        k(  742) = (  -0.5000000   1.3502678   0.8363637), wk =   0.0025641
        k(  743) = (  -0.5000000   1.3502678   1.0309091), wk =   0.0025641
        k(  744) = (  -0.5000000   1.3502678  -1.3036364), wk =   0.0025641
        k(  745) = (  -0.5000000   1.3502678  -1.1090910), wk =   0.0025641
        k(  746) = (  -0.5000000   1.3502678  -0.9145455), wk =   0.0025641
        k(  747) = (  -0.5000000   1.3502678  -0.7200000), wk =   0.0025641
        k(  748) = (  -0.5000000   1.3502678  -0.5254546), wk =   0.0025641
        k(  749) = (  -0.5000000   1.3502678  -0.3309091), wk =   0.0025641
        k(  750) = (  -0.5000000   1.5431632  -0.1363636), wk =   0.0025641
        k(  751) = (  -0.5000000   1.5431632   0.0581818), wk =   0.0025641
        k(  752) = (  -0.5000000   1.5431632   0.2527273), wk =   0.0025641
        k(  753) = (  -0.5000000   1.5431632   0.4472728), wk =   0.0025641
        k(  754) = (  -0.5000000   1.5431632   0.6418182), wk =   0.0025641
        k(  755) = (  -0.5000000   1.5431632   0.8363637), wk =   0.0025641
        k(  756) = (  -0.5000000   1.5431632   1.0309091), wk =   0.0025641
        k(  757) = (  -0.5000000   1.5431632  -1.3036364), wk =   0.0025641
        k(  758) = (  -0.5000000   1.5431632  -1.1090910), wk =   0.0025641
        k(  759) = (  -0.5000000   1.5431632  -0.9145455), wk =   0.0025641
        k(  760) = (  -0.5000000   1.5431632  -0.7200000), wk =   0.0025641
        k(  761) = (  -0.5000000   1.5431632  -0.5254546), wk =   0.0025641
        k(  762) = (  -0.5000000   1.5431632  -0.3309091), wk =   0.0025641
        k(  763) = (  -0.5000000   1.7360586  -0.1363636), wk =   0.0025641
        k(  764) = (  -0.5000000   1.7360586   0.0581818), wk =   0.0025641
        k(  765) = (  -0.5000000   1.7360586   0.2527273), wk =   0.0025641
        k(  766) = (  -0.5000000   1.7360586   0.4472728), wk =   0.0025641
        k(  767) = (  -0.5000000   1.7360586   0.6418182), wk =   0.0025641
        k(  768) = (  -0.5000000   1.7360586   0.8363637), wk =   0.0025641
        k(  769) = (  -0.5000000   1.7360586   1.0309091), wk =   0.0025641
        k(  770) = (  -0.5000000   1.7360586  -1.3036364), wk =   0.0025641
        k(  771) = (  -0.5000000   1.7360586  -1.1090910), wk =   0.0025641
        k(  772) = (  -0.5000000   1.7360586  -0.9145455), wk =   0.0025641
        k(  773) = (  -0.5000000   1.7360586  -0.7200000), wk =   0.0025641
        k(  774) = (  -0.5000000   1.7360586  -0.5254546), wk =   0.0025641
        k(  775) = (  -0.5000000   1.7360586  -0.3309091), wk =   0.0025641
        k(  776) = (  -0.5000000  -1.9289539  -0.1363636), wk =   0.0012821
        k(  777) = (  -0.5000000  -1.9289539   0.0581818), wk =   0.0025641
        k(  778) = (  -0.5000000  -1.9289539   0.2527273), wk =   0.0025641
        k(  779) = (  -0.5000000  -1.9289539   0.4472728), wk =   0.0025641
        k(  780) = (  -0.5000000  -1.9289539   0.6418182), wk =   0.0025641
        k(  781) = (  -0.5000000  -1.9289539   0.8363637), wk =   0.0025641
        k(  782) = (  -0.5000000  -1.9289539   1.0309091), wk =   0.0025641

                       cryst. coord.
        k(    1) = (   0.0000000   0.0000000   0.0000000), wk =   0.0012821
        k(    2) = (   0.0000000   0.0000000   0.0769231), wk =   0.0025641
        k(    3) = (   0.0000000   0.0000000   0.1538462), wk =   0.0025641
        k(    4) = (   0.0000000   0.0000000   0.2307692), wk =   0.0025641
        k(    5) = (   0.0000000   0.0000000   0.3076923), wk =   0.0025641
        k(    6) = (   0.0000000   0.0000000   0.3846154), wk =   0.0025641
        k(    7) = (   0.0000000   0.0000000   0.4615385), wk =   0.0025641
        k(    8) = (   0.0000000   0.0500000   0.0000000), wk =   0.0025641
        k(    9) = (   0.0000000   0.0500000   0.0769231), wk =   0.0025641
        k(   10) = (   0.0000000   0.0500000   0.1538462), wk =   0.0025641
        k(   11) = (   0.0000000   0.0500000   0.2307692), wk =   0.0025641
        k(   12) = (   0.0000000   0.0500000   0.3076923), wk =   0.0025641
        k(   13) = (   0.0000000   0.0500000   0.3846154), wk =   0.0025641
        k(   14) = (   0.0000000   0.0500000   0.4615385), wk =   0.0025641
        k(   15) = (   0.0000000   0.0500000  -0.4615385), wk =   0.0025641
        k(   16) = (   0.0000000   0.0500000  -0.3846154), wk =   0.0025641
        k(   17) = (   0.0000000   0.0500000  -0.3076923), wk =   0.0025641
        k(   18) = (   0.0000000   0.0500000  -0.2307692), wk =   0.0025641
        k(   19) = (   0.0000000   0.0500000  -0.1538462), wk =   0.0025641
        k(   20) = (   0.0000000   0.0500000  -0.0769231), wk =   0.0025641
        k(   21) = (   0.0000000   0.1000000   0.0000000), wk =   0.0025641
        k(   22) = (   0.0000000   0.1000000   0.0769231), wk =   0.0025641
        k(   23) = (   0.0000000   0.1000000   0.1538462), wk =   0.0025641
        k(   24) = (   0.0000000   0.1000000   0.2307692), wk =   0.0025641
        k(   25) = (   0.0000000   0.1000000   0.3076923), wk =   0.0025641
        k(   26) = (   0.0000000   0.1000000   0.3846154), wk =   0.0025641
        k(   27) = (   0.0000000   0.1000000   0.4615385), wk =   0.0025641
        k(   28) = (   0.0000000   0.1000000  -0.4615385), wk =   0.0025641
        k(   29) = (   0.0000000   0.1000000  -0.3846154), wk =   0.0025641
        k(   30) = (   0.0000000   0.1000000  -0.3076923), wk =   0.0025641
        k(   31) = (   0.0000000   0.1000000  -0.2307692), wk =   0.0025641
        k(   32) = (   0.0000000   0.1000000  -0.1538462), wk =   0.0025641
        k(   33) = (   0.0000000   0.1000000  -0.0769231), wk =   0.0025641
        k(   34) = (   0.0000000   0.1500000   0.0000000), wk =   0.0025641
        k(   35) = (   0.0000000   0.1500000   0.0769231), wk =   0.0025641
        k(   36) = (   0.0000000   0.1500000   0.1538462), wk =   0.0025641
        k(   37) = (   0.0000000   0.1500000   0.2307692), wk =   0.0025641
        k(   38) = (   0.0000000   0.1500000   0.3076923), wk =   0.0025641
        k(   39) = (   0.0000000   0.1500000   0.3846154), wk =   0.0025641
        k(   40) = (   0.0000000   0.1500000   0.4615385), wk =   0.0025641
        k(   41) = (   0.0000000   0.1500000  -0.4615385), wk =   0.0025641
        k(   42) = (   0.0000000   0.1500000  -0.3846154), wk =   0.0025641
        k(   43) = (   0.0000000   0.1500000  -0.3076923), wk =   0.0025641
        k(   44) = (   0.0000000   0.1500000  -0.2307692), wk =   0.0025641
        k(   45) = (   0.0000000   0.1500000  -0.1538462), wk =   0.0025641
        k(   46) = (   0.0000000   0.1500000  -0.0769231), wk =   0.0025641
        k(   47) = (   0.0000000   0.2000000   0.0000000), wk =   0.0025641
        k(   48) = (   0.0000000   0.2000000   0.0769231), wk =   0.0025641
        k(   49) = (   0.0000000   0.2000000   0.1538462), wk =   0.0025641
        k(   50) = (   0.0000000   0.2000000   0.2307692), wk =   0.0025641
        k(   51) = (   0.0000000   0.2000000   0.3076923), wk =   0.0025641
        k(   52) = (   0.0000000   0.2000000   0.3846154), wk =   0.0025641
        k(   53) = (   0.0000000   0.2000000   0.4615385), wk =   0.0025641
        k(   54) = (   0.0000000   0.2000000  -0.4615385), wk =   0.0025641
        k(   55) = (   0.0000000   0.2000000  -0.3846154), wk =   0.0025641
        k(   56) = (   0.0000000   0.2000000  -0.3076923), wk =   0.0025641
        k(   57) = (   0.0000000   0.2000000  -0.2307692), wk =   0.0025641
        k(   58) = (   0.0000000   0.2000000  -0.1538462), wk =   0.0025641
        k(   59) = (   0.0000000   0.2000000  -0.0769231), wk =   0.0025641
        k(   60) = (   0.0000000   0.2500000   0.0000000), wk =   0.0025641
        k(   61) = (   0.0000000   0.2500000   0.0769231), wk =   0.0025641
        k(   62) = (   0.0000000   0.2500000   0.1538462), wk =   0.0025641
        k(   63) = (   0.0000000   0.2500000   0.2307692), wk =   0.0025641
        k(   64) = (   0.0000000   0.2500000   0.3076923), wk =   0.0025641
        k(   65) = (   0.0000000   0.2500000   0.3846154), wk =   0.0025641
        k(   66) = (   0.0000000   0.2500000   0.4615385), wk =   0.0025641
        k(   67) = (   0.0000000   0.2500000  -0.4615385), wk =   0.0025641
        k(   68) = (   0.0000000   0.2500000  -0.3846154), wk =   0.0025641
        k(   69) = (   0.0000000   0.2500000  -0.3076923), wk =   0.0025641
        k(   70) = (   0.0000000   0.2500000  -0.2307692), wk =   0.0025641
        k(   71) = (   0.0000000   0.2500000  -0.1538462), wk =   0.0025641
        k(   72) = (   0.0000000   0.2500000  -0.0769231), wk =   0.0025641
        k(   73) = (   0.0000000   0.3000000   0.0000000), wk =   0.0025641
        k(   74) = (   0.0000000   0.3000000   0.0769231), wk =   0.0025641
        k(   75) = (   0.0000000   0.3000000   0.1538462), wk =   0.0025641
        k(   76) = (   0.0000000   0.3000000   0.2307692), wk =   0.0025641
        k(   77) = (   0.0000000   0.3000000   0.3076923), wk =   0.0025641
        k(   78) = (   0.0000000   0.3000000   0.3846154), wk =   0.0025641
        k(   79) = (   0.0000000   0.3000000   0.4615385), wk =   0.0025641
        k(   80) = (   0.0000000   0.3000000  -0.4615385), wk =   0.0025641
        k(   81) = (   0.0000000   0.3000000  -0.3846154), wk =   0.0025641
        k(   82) = (   0.0000000   0.3000000  -0.3076923), wk =   0.0025641
        k(   83) = (   0.0000000   0.3000000  -0.2307692), wk =   0.0025641
        k(   84) = (   0.0000000   0.3000000  -0.1538462), wk =   0.0025641
        k(   85) = (   0.0000000   0.3000000  -0.0769231), wk =   0.0025641
        k(   86) = (   0.0000000   0.3500000   0.0000000), wk =   0.0025641
        k(   87) = (   0.0000000   0.3500000   0.0769231), wk =   0.0025641
        k(   88) = (   0.0000000   0.3500000   0.1538462), wk =   0.0025641
        k(   89) = (   0.0000000   0.3500000   0.2307692), wk =   0.0025641
        k(   90) = (   0.0000000   0.3500000   0.3076923), wk =   0.0025641
        k(   91) = (   0.0000000   0.3500000   0.3846154), wk =   0.0025641
        k(   92) = (   0.0000000   0.3500000   0.4615385), wk =   0.0025641
        k(   93) = (   0.0000000   0.3500000  -0.4615385), wk =   0.0025641
        k(   94) = (   0.0000000   0.3500000  -0.3846154), wk =   0.0025641
        k(   95) = (   0.0000000   0.3500000  -0.3076923), wk =   0.0025641
        k(   96) = (   0.0000000   0.3500000  -0.2307692), wk =   0.0025641
        k(   97) = (   0.0000000   0.3500000  -0.1538462), wk =   0.0025641
        k(   98) = (   0.0000000   0.3500000  -0.0769231), wk =   0.0025641
        k(   99) = (   0.0000000   0.4000000   0.0000000), wk =   0.0025641
        k(  100) = (   0.0000000   0.4000000   0.0769231), wk =   0.0025641
        k(  101) = (   0.0000000   0.4000000   0.1538462), wk =   0.0025641
        k(  102) = (   0.0000000   0.4000000   0.2307692), wk =   0.0025641
        k(  103) = (   0.0000000   0.4000000   0.3076923), wk =   0.0025641
        k(  104) = (   0.0000000   0.4000000   0.3846154), wk =   0.0025641
        k(  105) = (   0.0000000   0.4000000   0.4615385), wk =   0.0025641
        k(  106) = (   0.0000000   0.4000000  -0.4615385), wk =   0.0025641
        k(  107) = (   0.0000000   0.4000000  -0.3846154), wk =   0.0025641
        k(  108) = (   0.0000000   0.4000000  -0.3076923), wk =   0.0025641
        k(  109) = (   0.0000000   0.4000000  -0.2307692), wk =   0.0025641
        k(  110) = (   0.0000000   0.4000000  -0.1538462), wk =   0.0025641
        k(  111) = (   0.0000000   0.4000000  -0.0769231), wk =   0.0025641
        k(  112) = (   0.0000000   0.4500000   0.0000000), wk =   0.0025641
        k(  113) = (   0.0000000   0.4500000   0.0769231), wk =   0.0025641
        k(  114) = (   0.0000000   0.4500000   0.1538462), wk =   0.0025641
        k(  115) = (   0.0000000   0.4500000   0.2307692), wk =   0.0025641
        k(  116) = (   0.0000000   0.4500000   0.3076923), wk =   0.0025641
        k(  117) = (   0.0000000   0.4500000   0.3846154), wk =   0.0025641
        k(  118) = (   0.0000000   0.4500000   0.4615385), wk =   0.0025641
        k(  119) = (   0.0000000   0.4500000  -0.4615385), wk =   0.0025641
        k(  120) = (   0.0000000   0.4500000  -0.3846154), wk =   0.0025641
        k(  121) = (   0.0000000   0.4500000  -0.3076923), wk =   0.0025641
        k(  122) = (   0.0000000   0.4500000  -0.2307692), wk =   0.0025641
        k(  123) = (   0.0000000   0.4500000  -0.1538462), wk =   0.0025641
        k(  124) = (   0.0000000   0.4500000  -0.0769231), wk =   0.0025641
        k(  125) = (   0.0000000  -0.5000000   0.0000000), wk =   0.0012821
        k(  126) = (   0.0000000  -0.5000000   0.0769231), wk =   0.0025641
        k(  127) = (   0.0000000  -0.5000000   0.1538462), wk =   0.0025641
        k(  128) = (   0.0000000  -0.5000000   0.2307692), wk =   0.0025641
        k(  129) = (   0.0000000  -0.5000000   0.3076923), wk =   0.0025641
        k(  130) = (   0.0000000  -0.5000000   0.3846154), wk =   0.0025641
        k(  131) = (   0.0000000  -0.5000000   0.4615385), wk =   0.0025641
        k(  132) = (   0.1666667   0.0000000  -0.0000000), wk =   0.0025641
        k(  133) = (   0.1666667   0.0000000   0.0769231), wk =   0.0025641
        k(  134) = (   0.1666667   0.0000000   0.1538462), wk =   0.0025641
        k(  135) = (   0.1666667   0.0000000   0.2307692), wk =   0.0025641
        k(  136) = (   0.1666667   0.0000000   0.3076923), wk =   0.0025641
        k(  137) = (   0.1666667   0.0000000   0.3846154), wk =   0.0025641
        k(  138) = (   0.1666667   0.0000000   0.4615385), wk =   0.0025641
        k(  139) = (   0.1666667   0.0000000  -0.4615385), wk =   0.0025641
        k(  140) = (   0.1666667   0.0000000  -0.3846154), wk =   0.0025641
        k(  141) = (   0.1666667   0.0000000  -0.3076923), wk =   0.0025641
        k(  142) = (   0.1666667   0.0000000  -0.2307692), wk =   0.0025641
        k(  143) = (   0.1666667   0.0000000  -0.1538462), wk =   0.0025641
        k(  144) = (   0.1666667   0.0000000  -0.0769231), wk =   0.0025641
        k(  145) = (   0.1666667   0.0500000  -0.0000000), wk =   0.0025641
        k(  146) = (   0.1666667   0.0500000   0.0769231), wk =   0.0025641
        k(  147) = (   0.1666667   0.0500000   0.1538462), wk =   0.0025641
        k(  148) = (   0.1666667   0.0500000   0.2307692), wk =   0.0025641
        k(  149) = (   0.1666667   0.0500000   0.3076923), wk =   0.0025641
        k(  150) = (   0.1666667   0.0500000   0.3846154), wk =   0.0025641
        k(  151) = (   0.1666667   0.0500000   0.4615385), wk =   0.0025641
        k(  152) = (   0.1666667   0.0500000  -0.4615385), wk =   0.0025641
[...]
    -0.0022

          k =-0.5000-1.9290 1.0309 ( 11342 PWs)   bands (ev):

    -3.4454  -3.4454  -2.9498  -2.9498  -2.0631  -2.0631  -1.5014  -1.5014
    -0.7046  -0.7046   0.6209   0.6209   1.0046   1.0046   2.0157   2.0157
     2.2215   2.2215   2.3318   2.3318   3.7306   3.7306   4.1719   4.1720
     4.4804   4.4804   4.7243   4.7243   5.0724   5.0724   5.5127   5.5127
     5.6612   5.6612   6.7035   6.7035   7.4285   7.4285   7.7094   7.7094
     8.3389

     occupation numbers 
     1.0000   1.0000   1.0000   1.0000   1.0000   1.0000   1.0000   1.0000
     1.0000   1.0000   1.0000   1.0000   1.0000   1.0000   1.0000   1.0000
     1.0000   1.0000   1.0000   1.0000   1.0000   1.0000   1.0000   1.0000
     1.0000   1.0000   1.0000   1.0000   1.0001   1.0001   1.0020   1.0020
     1.0053   1.0053   0.7999   0.7999   0.0040   0.0040  -0.0348  -0.0348
    -0.0023

     the Fermi energy is     6.9338 ev

!    total energy              =    -473.12552974 Ry
     Harris-Foulkes estimate   =    -473.12552974 Ry
     estimated scf accuracy    <          2.8E-13 Ry

     The total energy is the sum of the following terms:

     one-electron contribution =      38.97864271 Ry
     hartree contribution      =      12.51926979 Ry
     xc contribution           =     -90.37880302 Ry
     ewald contribution        =    -121.33533323 Ry
     one-center paw contrib.   =    -312.90820680 Ry
      -> PAW hartree energy AE =       0.94558341 Ry
      -> PAW hartree energy PS =      -0.94343577 Ry
      -> PAW xc energy AE      =     -32.69497523 Ry
      -> PAW xc energy PS      =       1.38911374 Ry
      -> total E_H with PAW    =      12.52141743 Ry
      -> total E_XC with PAW   =    -121.68466451 Ry
     smearing contrib. (-TS)   =      -0.00109919 Ry

     convergence has been achieved in  17 iterations

     Forces acting on atoms (cartesian axes, Ry/au):

     atom    1 type  1   force =     0.00000265    0.00000020    0.00000082
     atom    2 type  1   force =     0.00000582   -0.00000059   -0.00010544
     atom    3 type  1   force =    -0.00070090   -0.00000005   -0.00012860
     atom    4 type  1   force =     0.00069785    0.00000007    0.00012800
     atom    5 type  1   force =    -0.00000667    0.00000055    0.00010544
     atom    6 type  2   force =     0.00042958    0.00000057    0.00136000
     atom    7 type  2   force =    -0.00088632    0.00000142    0.00039013
     atom    8 type  2   force =    -0.00146604    0.00000008   -0.00036337
     atom    9 type  2   force =     0.00146450   -0.00000014    0.00036267
     atom   10 type  2   force =     0.00088938   -0.00000153   -0.00038958
     atom   11 type  2   force =    -0.00042943   -0.00000039   -0.00135932
     atom   12 type  1   force =     0.00000265   -0.00000019    0.00000091
     atom   13 type  1   force =     0.00000611    0.00000013   -0.00010619
     atom   14 type  1   force =    -0.00070079    0.00000009   -0.00012814
     atom   15 type  1   force =     0.00069775   -0.00000012    0.00012852
     atom   16 type  1   force =    -0.00000652   -0.00000009    0.00010455
     atom   17 type  2   force =     0.00042917   -0.00000060    0.00135999
     atom   18 type  2   force =    -0.00088710   -0.00000054    0.00038971
     atom   19 type  2   force =    -0.00146559   -0.00000063   -0.00036349
     atom   20 type  2   force =     0.00146522    0.00000073    0.00036264
     atom   21 type  2   force =     0.00088844    0.00000060   -0.00038986
     atom   22 type  2   force =    -0.00042977    0.00000043   -0.00135938
     The non-local contrib.  to forces
     atom    1 type  1   force =     0.00001212   -0.00000011    0.00000498
     atom    2 type  1   force =    -0.00688859   -0.00000029    0.00934095
     atom    3 type  1   force =     0.02029203    0.00000175    0.00533007
     atom    4 type  1   force =    -0.02028938   -0.00000165   -0.00532258
     atom    5 type  1   force =     0.00689404   -0.00000013   -0.00933626
     atom    6 type  2   force =     0.01158118   -0.00000026   -0.06082949
     atom    7 type  2   force =     0.03739004    0.00000089    0.03415127
     atom    8 type  2   force =    -0.01346878    0.00000068    0.00796479
     atom    9 type  2   force =     0.01347130   -0.00000053   -0.00796347
     atom   10 type  2   force =    -0.03738728   -0.00000112   -0.03415230
     atom   11 type  2   force =    -0.01158264    0.00000071    0.06083376
     atom   12 type  1   force =     0.00001210    0.00000001    0.00000519
     atom   13 type  1   force =    -0.00688861   -0.00000116    0.00934088
     atom   14 type  1   force =     0.02029142   -0.00000061    0.00532918
     atom   15 type  1   force =    -0.02029029    0.00000049   -0.00532345
     atom   16 type  1   force =     0.00689433    0.00000150   -0.00933630
     atom   17 type  2   force =     0.01158204    0.00000140   -0.06083065
     atom   18 type  2   force =     0.03738770    0.00000021    0.03415244
     atom   19 type  2   force =    -0.01346891    0.00000067    0.00796466
     atom   20 type  2   force =     0.01347168   -0.00000078   -0.00796443
     atom   21 type  2   force =    -0.03738963   -0.00000006   -0.03415086
     atom   22 type  2   force =    -0.01158212   -0.00000176    0.06083284
     The ionic contribution  to forces
     atom    1 type  1   force =     0.00006300   -0.00000000    0.00003465
     atom    2 type  1   force =    -0.30559656    0.00000000   -0.48478883
     atom    3 type  1   force =    -0.43087292    0.00000000    0.11253624
     atom    4 type  1   force =     0.43085782   -0.00000000   -0.11251341
     atom    5 type  1   force =     0.30564124   -0.00000000    0.48477416
     atom    6 type  2   force =    -0.62788895   -0.00000000    0.83382758
     atom    7 type  2   force =    -0.81024180   -0.00000000   -1.42580753
     atom    8 type  2   force =    -0.37310960   -0.00000000    0.67912826
     atom    9 type  2   force =     0.37312298    0.00000000   -0.67914608
     atom   10 type  2   force =     0.81017971    0.00000000    1.42577010
     atom   11 type  2   force =     0.62784643    0.00000000   -0.83381451
     atom   12 type  1   force =     0.00006323    0.00000000    0.00003494
     atom   13 type  1   force =    -0.30559618   -0.00000000   -0.48478834
     atom   14 type  1   force =    -0.43087241   -0.00000000    0.11253600
     atom   15 type  1   force =     0.43085735    0.00000000   -0.11251349
     atom   16 type  1   force =     0.30564075    0.00000000    0.48477393
     atom   17 type  2   force =    -0.62788767    0.00000000    0.83382676
     atom   18 type  2   force =    -0.81024226    0.00000000   -1.42580662
     atom   19 type  2   force =    -0.37311026    0.00000000    0.67912819
     atom   20 type  2   force =     0.37312266   -0.00000000   -0.67914683
     atom   21 type  2   force =     0.81017917   -0.00000000    1.42577008
     atom   22 type  2   force =     0.62784427   -0.00000000   -0.83381525
     The local contribution  to forces
     atom    1 type  1   force =    -0.00006960    0.00000030   -0.00003724
     atom    2 type  1   force =     0.31210719   -0.00000032    0.47552719
     atom    3 type  1   force =     0.41167022   -0.00000163   -0.11711531
     atom    4 type  1   force =    -0.41165794    0.00000155    0.11708719
     atom    5 type  1   force =    -0.31215481    0.00000065   -0.47551478
     atom    6 type  2   force =     0.61780687    0.00000080   -0.77762418
     atom    7 type  2   force =     0.77576660    0.00000063    1.39500925
     atom    8 type  2   force =     0.38368732   -0.00000051   -0.68624722
     atom    9 type  2   force =    -0.38369820    0.00000031    0.68626455
     atom   10 type  2   force =    -0.77570784   -0.00000054   -1.39497188
     atom   11 type  2   force =    -0.61776675   -0.00000102    0.77761038
     atom   12 type  1   force =    -0.00006984   -0.00000019   -0.00003764
     atom   13 type  1   force =     0.31210712    0.00000118    0.47552602
     atom   14 type  1   force =     0.41167037    0.00000064   -0.11711380
     atom   15 type  1   force =    -0.41165674   -0.00000056    0.11708858
     atom   16 type  1   force =    -0.31215440   -0.00000144   -0.47551541
     atom   17 type  2   force =     0.61780441   -0.00000184   -0.77762234
     atom   18 type  2   force =     0.77576840   -0.00000071    1.39500687
     atom   19 type  2   force =     0.38368859   -0.00000120   -0.68624715
     atom   20 type  2   force =    -0.38369748    0.00000140    0.68626613
     atom   21 type  2   force =    -0.77570611    0.00000064   -1.39497342
     atom   22 type  2   force =    -0.61776537    0.00000199    0.77761192
     The core correction contribution to forces
     atom    1 type  1   force =    -0.00000154    0.00000001   -0.00000061
     atom    2 type  1   force =     0.00038509    0.00000002   -0.00018380
     atom    3 type  1   force =    -0.00178892   -0.00000017   -0.00087865
     atom    4 type  1   force =     0.00178866    0.00000016    0.00087775
     atom    5 type  1   force =    -0.00038585    0.00000002    0.00018330
     atom    6 type  2   force =    -0.00106818    0.00000003    0.00598703
     atom    7 type  2   force =    -0.00379983   -0.00000009   -0.00296187
     atom    8 type  2   force =     0.00142634   -0.00000007   -0.00120827
     atom    9 type  2   force =    -0.00143030    0.00000005    0.00120864
     atom   10 type  2   force =     0.00380605    0.00000011    0.00296542
     atom   11 type  2   force =     0.00107483   -0.00000008   -0.00598799
     atom   12 type  1   force =    -0.00000153   -0.00000000   -0.00000063
     atom   13 type  1   force =     0.00038510    0.00000011   -0.00018381
     atom   14 type  1   force =    -0.00178886    0.00000006   -0.00087855
     atom   15 type  1   force =     0.00178876   -0.00000005    0.00087784
     atom   16 type  1   force =    -0.00038588   -0.00000015    0.00018329
     atom   17 type  2   force =    -0.00106828   -0.00000016    0.00598715
     atom   18 type  2   force =    -0.00379958   -0.00000003   -0.00296199
     atom   19 type  2   force =     0.00142636   -0.00000008   -0.00120826
     atom   20 type  2   force =    -0.00143034    0.00000009    0.00120874
     atom   21 type  2   force =     0.00380631    0.00000001    0.00296526
     atom   22 type  2   force =     0.00107477    0.00000019   -0.00598789
     The Hubbard contrib.    to forces
     atom    1 type  1   force =     0.00000000    0.00000000    0.00000000
     atom    2 type  1   force =     0.00000000    0.00000000    0.00000000
     atom    3 type  1   force =     0.00000000    0.00000000    0.00000000
     atom    4 type  1   force =     0.00000000    0.00000000    0.00000000
     atom    5 type  1   force =     0.00000000    0.00000000    0.00000000
     atom    6 type  2   force =     0.00000000    0.00000000    0.00000000
     atom    7 type  2   force =     0.00000000    0.00000000    0.00000000
     atom    8 type  2   force =     0.00000000    0.00000000    0.00000000
     atom    9 type  2   force =     0.00000000    0.00000000    0.00000000
     atom   10 type  2   force =     0.00000000    0.00000000    0.00000000
     atom   11 type  2   force =     0.00000000    0.00000000    0.00000000
     atom   12 type  1   force =     0.00000000    0.00000000    0.00000000
     atom   13 type  1   force =     0.00000000    0.00000000    0.00000000
     atom   14 type  1   force =     0.00000000    0.00000000    0.00000000
     atom   15 type  1   force =     0.00000000    0.00000000    0.00000000
     atom   16 type  1   force =     0.00000000    0.00000000    0.00000000
     atom   17 type  2   force =     0.00000000    0.00000000    0.00000000
     atom   18 type  2   force =     0.00000000    0.00000000    0.00000000
     atom   19 type  2   force =     0.00000000    0.00000000    0.00000000
     atom   20 type  2   force =     0.00000000    0.00000000    0.00000000
     atom   21 type  2   force =     0.00000000    0.00000000    0.00000000
     atom   22 type  2   force =     0.00000000    0.00000000    0.00000000
     The SCF correction term to forces
     atom    1 type  1   force =    -0.00000001   -0.00000000    0.00000000
     atom    2 type  1   force =    -0.00000000    0.00000000    0.00000001
     atom    3 type  1   force =     0.00000001    0.00000000   -0.00000000
     atom    4 type  1   force =    -0.00000000   -0.00000000    0.00000001
     atom    5 type  1   force =     0.00000001   -0.00000000   -0.00000001
     atom    6 type  2   force =    -0.00000002   -0.00000001    0.00000002
     atom    7 type  2   force =    -0.00000002   -0.00000001   -0.00000003
     atom    8 type  2   force =    -0.00000001   -0.00000002    0.00000002
     atom    9 type  2   force =     0.00000005    0.00000002   -0.00000002
     atom   10 type  2   force =     0.00000005    0.00000001    0.00000004
     atom   11 type  2   force =     0.00000002    0.00000000   -0.00000001
     atom   12 type  1   force =     0.00000001   -0.00000000   -0.00000000
     atom   13 type  1   force =    -0.00000000    0.00000000    0.00000002
     atom   14 type  1   force =     0.00000001    0.00000000   -0.00000001
     atom   15 type  1   force =    -0.00000001   -0.00000000    0.00000000
     atom   16 type  1   force =    -0.00000001   -0.00000000   -0.00000001
     atom   17 type  2   force =    -0.00000001   -0.00000001    0.00000002
     atom   18 type  2   force =    -0.00000004   -0.00000002   -0.00000003
     atom   19 type  2   force =    -0.00000004   -0.00000002    0.00000002
     atom   20 type  2   force =     0.00000001    0.00000003   -0.00000002
     atom   21 type  2   force =     0.00000001    0.00000002    0.00000003
     atom   22 type  2   force =     0.00000000    0.00000001   -0.00000004

     Total force =     0.004804     Total SCF correction =     0.000000


     Computing stress (Cartesian axis) and pressure

          total   stress  (Ry/bohr**3)                   (kbar)     P=   13.58
  -0.00000502  -0.00000001  -0.00010131         -0.74     -0.00    -14.90
  -0.00000001   0.00007303  -0.00000000         -0.00     10.74     -0.00
  -0.00010131  -0.00000000   0.00020886        -14.90     -0.00     30.72

     kinetic stress (kbar)   1614.98     -0.00    -10.33
                               -0.00   1653.25     -0.00
                              -10.33     -0.00   1638.41

     local   stress (kbar)    -90.66     -0.00     83.07
                               -0.00   -246.01      0.00
                               83.07      0.00     98.30

     nonloc. stress (kbar)   1260.60      0.00    -15.57
                                0.00   1262.10     -0.00
                              -15.57     -0.00   1291.11

     hartree stress (kbar)    209.03     -0.00    -45.26
                               -0.00    349.84     -0.00
                              -45.26     -0.00    135.59

     exc-cor stress (kbar)   2015.63      0.00     -0.28
                                0.00   2015.38     -0.00
                               -0.28     -0.00   2016.27

     corecor stress (kbar)  -2815.81     -0.00      2.28
                               -0.00  -2816.45      0.00
                                2.28      0.00  -2820.24

     ewald   stress (kbar)  -2194.51     -0.00    -28.81
                               -0.00  -2207.36     -0.00
                              -28.81     -0.00  -2328.72

     hubbard stress (kbar)      0.00      0.00      0.00
                                0.00      0.00      0.00
                                0.00      0.00      0.00

     london  stress (kbar)      0.00      0.00      0.00
                                0.00      0.00      0.00
                                0.00      0.00      0.00

     DFT-D3  stress (kbar)      0.00      0.00      0.00
                                0.00      0.00      0.00
                                0.00      0.00      0.00

     XDM     stress (kbar)      0.00      0.00      0.00
                                0.00      0.00      0.00
                                0.00      0.00      0.00

     dft-nl  stress (kbar)      0.00      0.00      0.00
                                0.00      0.00      0.00
                                0.00      0.00      0.00

     TS-vdW  stress (kbar)      0.00      0.00      0.00
                                0.00      0.00      0.00
                                0.00      0.00      0.00



     Writing output data file aiida.save/
 
     init_run     :     22.66s CPU     23.10s WALL (       1 calls)
     electrons    :    826.98s CPU    839.17s WALL (       1 calls)
     forces       :      8.43s CPU      8.51s WALL (       1 calls)
     stress       :     59.65s CPU     60.57s WALL (       1 calls)

     Called by init_run:
     wfcinit      :     20.99s CPU     21.35s WALL (       1 calls)
     wfcinit:atom :      0.15s CPU      0.17s WALL (     196 calls)
     wfcinit:wfcr :     19.60s CPU     19.88s WALL (     196 calls)
     potinit      :      0.55s CPU      0.57s WALL (       1 calls)
     hinit0       :      0.98s CPU      1.01s WALL (       1 calls)

     Called by electrons:
     c_bands      :    742.08s CPU    752.04s WALL (      18 calls)
     sum_band     :     81.49s CPU     83.11s WALL (      18 calls)
     v_of_rho     :      1.33s CPU      1.42s WALL (      18 calls)
     v_h          :      0.09s CPU      0.09s WALL (      18 calls)
     v_xc         :      1.37s CPU      1.45s WALL (      20 calls)
     newd         :      0.83s CPU      1.30s WALL (      18 calls)
     PAW_pot      :      0.58s CPU      0.60s WALL (      18 calls)
     mix_rho      :      0.55s CPU      0.57s WALL (      18 calls)

     Called by c_bands:
     init_us_2    :     21.11s CPU     21.44s WALL (    7644 calls)
     cegterg      :    582.38s CPU    590.22s WALL (    3528 calls)

     Called by sum_band:
     sum_band:bec :      0.47s CPU      0.47s WALL (    3528 calls)
     addusdens    :      0.79s CPU      1.32s WALL (      18 calls)

     Called by *egterg:
     h_psi        :    396.32s CPU    402.61s WALL (   17074 calls)
     s_psi        :     54.69s CPU     54.84s WALL (   17074 calls)
     g_psi        :      2.66s CPU      2.68s WALL (   13350 calls)
     cdiaghg      :     68.35s CPU     69.46s WALL (   16682 calls)
     cegterg:over :     31.39s CPU     31.63s WALL (   13350 calls)
     cegterg:upda :     24.28s CPU     24.50s WALL (   13350 calls)
     cegterg:last :      9.25s CPU      9.31s WALL (    3889 calls)
     cdiaghg:chol :      4.31s CPU      4.34s WALL (   16682 calls)
     cdiaghg:inve :      0.88s CPU      0.89s WALL (   16682 calls)
     cdiaghg:para :      9.05s CPU      9.12s WALL (   33364 calls)

     Called by h_psi:
     h_psi:pot    :    394.46s CPU    400.74s WALL (   17074 calls)
     h_psi:calbec :     54.78s CPU     55.49s WALL (   17074 calls)
     vloc_psi     :    284.27s CPU    289.71s WALL (   17074 calls)
     add_vuspsi   :     55.25s CPU     55.42s WALL (   17074 calls)

     General routines
     calbec       :    102.39s CPU    104.19s WALL (   21582 calls)
     fft          :      1.16s CPU      1.21s WALL (     259 calls)
     ffts         :      0.21s CPU      0.21s WALL (     286 calls)
     fftw         :    303.35s CPU    308.91s WALL (  980554 calls)
     interpolate  :      0.11s CPU      0.11s WALL (      18 calls)
 
     Parallel routines
     fft_scatt_xy :     38.62s CPU     39.35s WALL (  981099 calls)
     fft_scatt_yz :    120.77s CPU    123.12s WALL (  981099 calls)

     PAW routines
     PAW_pot      :      0.58s CPU      0.60s WALL (      18 calls)
 
     PWSCF        :  15m41.02s CPU  16m15.57s WALL

 
   This run was terminated on:  14:28:50  22Feb2020            

=------------------------------------------------------------------------------=
   JOB DONE.
=------------------------------------------------------------------------------=
