begin
comment 22 atoms, species Al4Mg10Si8
lattice     29.7155638759     0.0000000000     0.0000000000
lattice      0.0000000000     7.6666749111     0.0000000000
lattice     -3.1895200486     0.0000000000    11.6948573190
atom      4.0016761249     0.0000000000    11.5609649313   Mg  0.0 0.0    1.16499991e-06 -1.49999989e-08  3.14999976e-07
atom      8.3164710895     3.8333404271     4.0894113273   Mg  0.0 0.0   -4.54364966e-04  4.99999962e-09 -7.27749945e-05
atom      8.8321609281     3.8333404271    10.5290236299   Mg  0.0 0.0   -4.75179964e-04 -1.49999989e-08 -1.06209992e-04
atom     17.2186210852     0.0000000000     0.8981232026   Mg  0.0 0.0    4.74254964e-04 -2.49999981e-08  1.06219992e-04
atom     17.7342812082     0.0000000000     7.3376849888   Mg  0.0 0.0    4.53899966e-04 -2.99999977e-08  7.27999945e-05
atom      6.8243664521     0.0000000000     7.5711037146   Si  0.0 0.0   -5.54084958e-04  0.00000000e+00  1.06019992e-04
atom     12.0307828539     0.0000000000     2.4263025345   Si  0.0 0.0    4.19829968e-04 -3.99999970e-08  3.49489974e-04
atom     11.6333847320     0.0000000000     7.1900550959   Al  0.0 0.0   -2.67804980e-04  4.99999962e-09 -1.72974987e-04
atom     14.4174002529     3.8333404271     4.2370709357   Al  0.0 0.0    2.68054980e-04 -5.99999955e-08  1.73109987e-04
atom     14.0200229318     3.8333404271     9.0008294402   Si  0.0 0.0   -4.19804968e-04  8.49999936e-08 -3.49649974e-04
atom     19.2264749923     3.8333404271     3.8560936344   Si  0.0 0.0    5.54174958e-04  4.49999966e-08 -1.06259992e-04
atom     18.8594580629     3.8333404271    11.5609649313   Mg  0.0 0.0    1.21999991e-06  1.49999989e-08  2.44999982e-07
atom     23.1742530274     0.0000000000     4.0894142988   Mg  0.0 0.0   -4.54409966e-04  4.99999962e-09 -7.27899945e-05
atom     23.6899458376     0.0000000000    10.5290266014   Mg  0.0 0.0   -4.75254964e-04  3.49999974e-08 -1.06229992e-04
atom      2.3608361757     3.8333404271     0.8981202310   Mg  0.0 0.0    4.74259964e-04 -9.99999925e-09  1.06184992e-04
atom      2.8764992703     3.8333404271     7.3376849888   Mg  0.0 0.0    4.53849966e-04  9.99999925e-09  7.28299945e-05
atom     21.6821483901     3.8333404271     7.5711066861   Si  0.0 0.0   -5.54214958e-04 -2.99999977e-08  1.06039992e-04
atom     26.8885618203     3.8333404271     2.4263025345   Si  0.0 0.0    4.19769968e-04 -1.29999990e-07  3.49534974e-04
atom     26.4911666699     3.8333404271     7.1900550959   Al  0.0 0.0   -2.67764980e-04  6.99999947e-08 -1.73054987e-04
atom     -0.4403816851     0.0000000000     4.2370709357   Al  0.0 0.0    2.67979980e-04  0.00000000e+00  1.73119987e-04
atom     -0.8377560346     0.0000000000     9.0008294402   Si  0.0 0.0   -4.19774968e-04  4.49999966e-08 -3.49694974e-04
atom      4.3686930543     0.0000000000     3.8560936344   Si  0.0 0.0    5.54189958e-04  2.49999981e-08 -1.06264992e-04
energy -2.928082219851952e+02
charge 0.0000
end
