
     Program PWSCF v.6.3 starts on 22Feb2020 at 14:12:30 

     This program is part of the open-source Quantum ESPRESSO suite
     for quantum simulation of materials; please cite
         "P. Giannozzi et al., J. Phys.:Condens. Matter 21 395502 (2009);
         "P. Giannozzi et al., J. Phys.:Condens. Matter 29 465901 (2017);
          URL http://www.quantum-espresso.org", 
     in publications or presentations arising from this work. More details at
     http://www.quantum-espresso.org/quote

 *** WARNING: using old-style file format, will disappear from next version ***

     Parallel version (MPI & OpenMP), running on      36 processor cores
     Number of MPI processes:                36
     Threads/MPI process:                     1

     MPI processes distributed on     1 nodes
     K-points division:     npool     =       4
     R & G space division:  proc/nbgrp/npool/nimage =       9
     Reading input from aiida.in
Warning: card &IONS ignored
Warning: card   !PRESS_CONV_THR = 0.05                 ! JUST FOR VOLUME RELAXATIONS ignored
Warning: card / ignored

     Current dimensions of program PWSCF are:
     Max number of different atomic species (ntypx) = 10
     Max number of k-points (npk) =  40000
     Max angular momentum in pseudopotentials (lmaxx) =  3
               file Al.pbe-n-kjpaw_psl.1.0.0.UPF: wavefunction(s)  3S 3P renormalized
               file Mg.pbe-n-kjpaw_psl.0.3.0.UPF: wavefunction(s)  3S renormalized

     Subspace diagonalization in iterative solution of the eigenvalue problem:
     one sub-group per band group will be used
     scalapack distributed-memory algorithm (size of sub-group:  2*  2 procs)

 
     Parallelization info
     --------------------
     sticks:   dense  smooth     PW     G-vecs:    dense   smooth      PW
     Min        1245     497    133               162323    41041    5766
     Max        1246     498    134               162328    41046    5768
     Sum       11211    4481   1205              1460933   369403   51905
 


     bravais-lattice index     =            0
     lattice parameter (alat)  =      22.9999  a.u.
     unit-cell volume          =   10814.9068 (a.u.)^3
     number of atoms/cell      =           96
     number of atomic types    =            3
     number of electrons       =       287.00
     number of Kohn-Sham states=          173
     kinetic-energy cutoff     =      40.0000  Ry
     charge density cutoff     =     400.0000  Ry
     convergence threshold     =      1.0E-12
     mixing beta               =       0.4000
     number of iterations used =            8  local-TF  mixing
     Exchange-correlation      = PBE ( 1  4  3  4 0 0)

     celldm(1)=  22.999855  celldm(2)=   0.000000  celldm(3)=   0.000000
     celldm(4)=   0.000000  celldm(5)=   0.000000  celldm(6)=   0.000000

     crystal axes: (cart. coord. in units of alat)
               a(1) = (   1.000000   0.000000   0.000000 )  
               a(2) = (   0.000000   0.666667   0.000000 )  
               a(3) = (   0.000000   0.000000   1.333333 )  

     reciprocal axes: (cart. coord. in units 2 pi/alat)
               b(1) = (  1.000000  0.000000  0.000000 )  
               b(2) = (  0.000000  1.500000  0.000000 )  
               b(3) = (  0.000000  0.000000  0.750000 )  


     PseudoPot. # 1 for Al read from file:
     /users/aglensk/Dropbox/Albert/scripts/dotfiles/scripts/potentials/quantum_espresso/pseudo_SSSPefV1.1_alalloy/Al.pbe-n-kjpaw_psl.1.0.0.UPF
     MD5 check sum: cfc449ca30b5f3223ec38ddd88ac046d
     Pseudo is Projector augmented-wave + core cor, Zval =  3.0
     Generated using "atomic" code by A. Dal Corso v.5.1
     Shape of augmentation charge: PSQ
     Using radial grid of 1135 points,  6 beta functions with: 
                l(1) =   0
                l(2) =   0
                l(3) =   1
                l(4) =   1
                l(5) =   2
                l(6) =   2
     Q(r) pseudized with 0 coefficients 


     PseudoPot. # 2 for Mg read from file:
     /users/aglensk/Dropbox/Albert/scripts/dotfiles/scripts/potentials/quantum_espresso/pseudo_SSSPefV1.1_alalloy/Mg.pbe-n-kjpaw_psl.0.3.0.UPF
     MD5 check sum: 24ecedc7f3e3cbe212e682f4413594e4
     Pseudo is Projector augmented-wave + core cor, Zval =  2.0
     Generated using "atomic" code by A. Dal Corso v.5.0.99 svn rev. 10869
     Shape of augmentation charge: PSQ
     Using radial grid of 1129 points,  4 beta functions with: 
                l(1) =   0
                l(2) =   0
                l(3) =   1
                l(4) =   1
     Q(r) pseudized with 0 coefficients 


     PseudoPot. # 3 for Si read from file:
     /users/aglensk/Dropbox/Albert/scripts/dotfiles/scripts/potentials/quantum_espresso/pseudo_SSSPefV1.1_alalloy/Si.pbe-n-rrkjus_psl.1.0.0.UPF
     MD5 check sum: 0b0bb1205258b0d07b9f9672cf965d36
     Pseudo is Ultrasoft + core correction, Zval =  4.0
     Generated using "atomic" code by A. Dal Corso v.5.1
     Using radial grid of 1141 points,  6 beta functions with: 
                l(1) =   0
                l(2) =   0
                l(3) =   1
                l(4) =   1
                l(5) =   2
                l(6) =   2
     Q(r) pseudized with 0 coefficients 


     atomic species   valence    mass     pseudopotential
        Al             3.00    26.98154     Al( 1.00)
        Mg             2.00    24.30500     Mg( 1.00)
        Si             4.00    28.08500     Si( 1.00)

     No symmetry found


                                    s                        frac. trans.

      isym =  1     identity                                     

 cryst.   s( 1) = (     1          0          0      )
                  (     0          1          0      )
                  (     0          0          1      )

 cart.    s( 1) = (  1.0000000  0.0000000  0.0000000 )
                  (  0.0000000  1.0000000  0.0000000 )
                  (  0.0000000  0.0000000  1.0000000 )


   Cartesian axes

     site n.     atom                  positions (alat units)
         1           Al  tau(   1) = (   0.4971558   0.1640629   1.3308763  )
         2           Al  tau(   2) = (   0.3310436   0.6637131   1.3308777  )
         3           Al  tau(   3) = (   0.4966757   0.6635333   0.1625562  )
         4           Al  tau(   4) = (   0.3310409   0.1642281   0.1628876  )
         5           Al  tau(   5) = (   0.4963216   0.1634951   0.3283778  )
         6           Al  tau(   6) = (   0.3310478   0.6632989   0.3285362  )
         7           Al  tau(   7) = (   0.4943656   0.6623307   0.4962136  )
         8           Al  tau(   8) = (   0.3310183   0.1639274   0.4960286  )
         9           Al  tau(   9) = (   0.4929510   0.1661859   0.6642230  )
        10           Al  tau(  10) = (   0.3310137   0.6634341   0.6642099  )
        11           Al  tau(  11) = (   0.4943606   0.6623385   0.8322208  )
        12           Al  tau(  12) = (   0.3310160   0.1639269   0.8323946  )
        13           Al  tau(  13) = (   0.4963163   0.1635046   1.0000549  )
        14           Al  tau(  14) = (   0.3310283   0.6633025   0.9998802  )
        15           Al  tau(  15) = (   0.4966609   0.6635333   1.1658852  )
        16           Al  tau(  16) = (   0.3310403   0.1642287   1.1655446  )
        17           Al  tau(  17) = (   0.8310321   0.1638122   1.3308840  )
        18           Al  tau(  18) = (   0.6638121   0.6640728   1.3308790  )
        19           Al  tau(  19) = (   0.8310265   0.6638484   0.1615412  )
        20           Al  tau(  20) = (   0.6636224   0.1639430   0.1629886  )
        21           Al  tau(  21) = (   0.6634084   0.6623181   0.3260888  )
        22           Al  tau(  22) = (   0.6633881   0.6623258   1.0023662  )
        23           Al  tau(  23) = (   0.8310218   0.6638496   1.1669145  )
        24           Al  tau(  24) = (   0.6636211   0.1639490   1.1654456  )
        25           Al  tau(  25) = (   0.1649326   0.1640501   1.3308770  )
        26           Al  tau(  26) = (   0.9982694   0.6640742   1.3308857  )
        27           Al  tau(  27) = (   0.1654185   0.6635270   0.1625334  )
        28           Al  tau(  28) = (   0.9984492   0.1639442   0.1629821  )
        29           Al  tau(  29) = (   0.1657478   0.1635105   0.3283479  )
        30           Al  tau(  30) = (   0.9986828   0.6623125   0.3260611  )
        31           Al  tau(  31) = (   0.1677018   0.6623344   0.4961858  )
        32           Al  tau(  32) = (   0.1690784   0.1661894   0.6642043  )
        33           Al  tau(  33) = (   0.1676832   0.6623334   0.8322097  )
        34           Al  tau(  34) = (   0.1657498   0.1635106   1.0000769  )
        35           Al  tau(  35) = (   0.9986831   0.6623136   1.0023812  )
        36           Al  tau(  36) = (   0.1654194   0.6635231   1.1659054  )
        37           Al  tau(  37) = (   0.9984546   0.1639392   1.1654671  )
        38           Mg  tau(  38) = (   0.6652959   0.1603401   0.4974238  )
        39           Mg  tau(  39) = (   0.9967775   0.1603506   0.4973802  )
        40           Al  tau(  40) = (   0.8310143   0.1664417   0.3241431  )
        41           Si  tau(  41) = (   0.8310574   0.6589930   0.4741611  )
        42           Si  tau(  42) = (   0.6432325   0.6588144   0.6642157  )
        43           Mg  tau(  43) = (   0.8310352   0.1353822   0.6642282  )
        44           Mg  tau(  44) = (   0.6652915   0.1603430   0.8310255  )
        45           Mg  tau(  45) = (   0.9967881   0.1603477   0.8310643  )
        46           Si  tau(  46) = (   0.0188397   0.6588143   0.6641878  )
        47           Si  tau(  47) = (   0.8310427   0.6590202   0.8543380  )
        48           Al  tau(  48) = (   0.8310344   0.1664520   1.0043062  )
        49           Al  tau(  49) = (   0.4971412   0.4968326   1.3308712  )
        50           Al  tau(  50) = (   0.3310544   0.3304856   1.3308759  )
        51           Al  tau(  51) = (   0.4975473   0.3307637   0.1636044  )
        52           Al  tau(  52) = (   0.3310571   0.4966642   0.1635907  )
        53           Al  tau(  53) = (   0.4980069   0.4973515   0.3303898  )
        54           Al  tau(  54) = (   0.3310436   0.3309870   0.3302506  )
        55           Al  tau(  55) = (   0.4971197   0.3323019   0.4961525  )
        56           Al  tau(  56) = (   0.3310366   0.4972600   0.4969050  )
        57           Al  tau(  57) = (   0.4949888   0.4950258   0.6642188  )
        58           Al  tau(  58) = (   0.3310279   0.3311117   0.6642081  )
        59           Al  tau(  59) = (   0.4971142   0.3323033   0.8322877  )
        60           Al  tau(  60) = (   0.3310260   0.4972685   0.8315185  )
        61           Al  tau(  61) = (   0.4979961   0.4973487   0.9980397  )
        62           Al  tau(  62) = (   0.3310336   0.3309920   0.9981689  )
        63           Al  tau(  63) = (   0.4975432   0.3307687   1.1648291  )
        64           Al  tau(  64) = (   0.3310497   0.4966677   1.1648423  )
        65           Al  tau(  65) = (   0.8310488   0.4975456   1.3308851  )
        66           Al  tau(  66) = (   0.6634764   0.3304277   1.3308801  )
        67           Al  tau(  67) = (   0.8310318   0.3308907   0.1609578  )
        68           Al  tau(  68) = (   0.6640714   0.4973420   0.1628239  )
        69           Al  tau(  69) = (   0.8310293   0.4949991   0.3262760  )
        70           Al  tau(  70) = (   0.6637712   0.3324087   0.3289802  )
        71           Al  tau(  71) = (   0.8310235   0.3366697   0.4988848  )
        72           Al  tau(  72) = (   0.6655689   0.5012601   0.4979690  )
        73           Al  tau(  73) = (   0.8310681   0.5225105   0.6642353  )
        74           Al  tau(  74) = (   0.6664938   0.3363566   0.6642301  )
        75           Al  tau(  75) = (   0.8310312   0.3366768   0.8295643  )
        76           Al  tau(  76) = (   0.6655617   0.5012739   0.8304791  )
        77           Al  tau(  77) = (   0.8310316   0.4950078   1.0021701  )
        78           Al  tau(  78) = (   0.6637705   0.3324096   0.9994575  )
        79           Al  tau(  79) = (   0.8310360   0.3308935   1.1674948  )
        80           Al  tau(  80) = (   0.6640776   0.4973365   1.1656124  )
        81           Al  tau(  81) = (   0.1649609   0.4968279   1.3308861  )
        82           Al  tau(  82) = (   0.9986108   0.3304258   1.3308801  )
        83           Al  tau(  83) = (   0.1645502   0.3307642   0.1635945  )
        84           Al  tau(  84) = (   0.9980023   0.4973298   0.1628150  )
        85           Al  tau(  85) = (   0.1640862   0.4973324   0.3303651  )
        86           Al  tau(  86) = (   0.9983069   0.3324117   0.3289609  )
        87           Al  tau(  87) = (   0.1649496   0.3322962   0.4961193  )
        88           Al  tau(  88) = (   0.9965243   0.5012469   0.4979297  )
        89           Al  tau(  89) = (   0.1670536   0.4950421   0.6642001  )
        90           Al  tau(  90) = (   0.9955799   0.3363619   0.6642163  )
        91           Al  tau(  91) = (   0.1649490   0.3323105   0.8322847  )
        92           Al  tau(  92) = (   0.9965165   0.5012734   0.8304967  )
        93           Al  tau(  93) = (   0.1640838   0.4973430   0.9980571  )
        94           Al  tau(  94) = (   0.9983138   0.3324265   0.9994688  )
        95           Al  tau(  95) = (   0.1645464   0.3307655   1.1648386  )
        96           Al  tau(  96) = (   0.9980128   0.4973326   1.1656332  )

   Crystallographic axes

     site n.     atom                  positions (cryst. coord.)
         1           Al  tau(   1) = (  0.4971558  0.2460943  0.9981572  )
         2           Al  tau(   2) = (  0.3310436  0.9955696  0.9981583  )
         3           Al  tau(   3) = (  0.4966757  0.9952999  0.1219171  )
         4           Al  tau(   4) = (  0.3310409  0.2463421  0.1221657  )
         5           Al  tau(   5) = (  0.4963216  0.2452427  0.2462833  )
         6           Al  tau(   6) = (  0.3310478  0.9949484  0.2464021  )
         7           Al  tau(   7) = (  0.4943656  0.9934960  0.3721602  )
         8           Al  tau(   8) = (  0.3310183  0.2458911  0.3720215  )
         9           Al  tau(   9) = (  0.4929510  0.2492789  0.4981672  )
        10           Al  tau(  10) = (  0.3310137  0.9951512  0.4981574  )
        11           Al  tau(  11) = (  0.4943606  0.9935078  0.6241656  )
        12           Al  tau(  12) = (  0.3310160  0.2458904  0.6242959  )
        13           Al  tau(  13) = (  0.4963163  0.2452568  0.7500412  )
        14           Al  tau(  14) = (  0.3310283  0.9949538  0.7499102  )
        15           Al  tau(  15) = (  0.4966609  0.9952999  0.8744139  )
        16           Al  tau(  16) = (  0.3310403  0.2463431  0.8741584  )
        17           Al  tau(  17) = (  0.8310321  0.2457183  0.9981630  )
        18           Al  tau(  18) = (  0.6638121  0.9961092  0.9981592  )
        19           Al  tau(  19) = (  0.8310265  0.9957726  0.1211559  )
        20           Al  tau(  20) = (  0.6636224  0.2459145  0.1222414  )
        21           Al  tau(  21) = (  0.6634084  0.9934771  0.2445666  )
        22           Al  tau(  22) = (  0.6633881  0.9934887  0.7517746  )
        23           Al  tau(  23) = (  0.8310218  0.9957743  0.8751859  )
        24           Al  tau(  24) = (  0.6636211  0.2459235  0.8740842  )
        25           Al  tau(  25) = (  0.1649326  0.2460752  0.9981577  )
        26           Al  tau(  26) = (  0.9982694  0.9961113  0.9981643  )
        27           Al  tau(  27) = (  0.1654185  0.9952904  0.1219000  )
        28           Al  tau(  28) = (  0.9984492  0.2459162  0.1222366  )
        29           Al  tau(  29) = (  0.1657478  0.2452657  0.2462610  )
        30           Al  tau(  30) = (  0.9986828  0.9934688  0.2445458  )
        31           Al  tau(  31) = (  0.1677018  0.9935016  0.3721394  )
        32           Al  tau(  32) = (  0.1690784  0.2492840  0.4981532  )
        33           Al  tau(  33) = (  0.1676832  0.9935001  0.6241573  )
        34           Al  tau(  34) = (  0.1657498  0.2452660  0.7500577  )
        35           Al  tau(  35) = (  0.9986831  0.9934703  0.7517859  )
        36           Al  tau(  36) = (  0.1654194  0.9952846  0.8744291  )
        37           Al  tau(  37) = (  0.9984546  0.2459088  0.8741003  )
        38           Mg  tau(  38) = (  0.6652959  0.2405101  0.3730679  )
        39           Mg  tau(  39) = (  0.9967775  0.2405259  0.3730352  )
        40           Al  tau(  40) = (  0.8310143  0.2496625  0.2431074  )
        41           Si  tau(  41) = (  0.8310574  0.9884894  0.3556208  )
        42           Si  tau(  42) = (  0.6432325  0.9882216  0.4981618  )
        43           Mg  tau(  43) = (  0.8310352  0.2030732  0.4981712  )
        44           Mg  tau(  44) = (  0.6652915  0.2405145  0.6232692  )
        45           Mg  tau(  45) = (  0.9967881  0.2405216  0.6232982  )
        46           Si  tau(  46) = (  0.0188397  0.9882215  0.4981409  )
        47           Si  tau(  47) = (  0.8310427  0.9885302  0.6407535  )
        48           Al  tau(  48) = (  0.8310344  0.2496779  0.7532297  )
        49           Al  tau(  49) = (  0.4971412  0.7452489  0.9981534  )
        50           Al  tau(  50) = (  0.3310544  0.4957284  0.9981569  )
        51           Al  tau(  51) = (  0.4975473  0.4961455  0.1227033  )
        52           Al  tau(  52) = (  0.3310571  0.7449962  0.1226930  )
        53           Al  tau(  53) = (  0.4980069  0.7460273  0.2477923  )
        54           Al  tau(  54) = (  0.3310436  0.4964804  0.2476880  )
        55           Al  tau(  55) = (  0.4971197  0.4984528  0.3721144  )
        56           Al  tau(  56) = (  0.3310366  0.7458900  0.3726788  )
        57           Al  tau(  57) = (  0.4949888  0.7425387  0.4981641  )
        58           Al  tau(  58) = (  0.3310279  0.4966675  0.4981561  )
        59           Al  tau(  59) = (  0.4971142  0.4984550  0.6242158  )
        60           Al  tau(  60) = (  0.3310260  0.7459028  0.6236389  )
        61           Al  tau(  61) = (  0.4979961  0.7460231  0.7485298  )
        62           Al  tau(  62) = (  0.3310336  0.4964880  0.7486267  )
        63           Al  tau(  63) = (  0.4975432  0.4961530  0.8736218  )
        64           Al  tau(  64) = (  0.3310497  0.7450015  0.8736317  )
        65           Al  tau(  65) = (  0.8310488  0.7463183  0.9981638  )
        66           Al  tau(  66) = (  0.6634764  0.4956415  0.9981601  )
        67           Al  tau(  67) = (  0.8310318  0.4963361  0.1207184  )
        68           Al  tau(  68) = (  0.6640714  0.7460131  0.1221179  )
        69           Al  tau(  69) = (  0.8310293  0.7424986  0.2447070  )
        70           Al  tau(  70) = (  0.6637712  0.4986131  0.2467351  )
        71           Al  tau(  71) = (  0.8310235  0.5050045  0.3741636  )
        72           Al  tau(  72) = (  0.6655689  0.7518901  0.3734767  )
        73           Al  tau(  73) = (  0.8310681  0.7837658  0.4981765  )
        74           Al  tau(  74) = (  0.6664938  0.5045350  0.4981725  )
        75           Al  tau(  75) = (  0.8310312  0.5050152  0.6221732  )
        76           Al  tau(  76) = (  0.6655617  0.7519109  0.6228594  )
        77           Al  tau(  77) = (  0.8310316  0.7425116  0.7516276  )
        78           Al  tau(  78) = (  0.6637705  0.4986143  0.7495931  )
        79           Al  tau(  79) = (  0.8310360  0.4963403  0.8756211  )
        80           Al  tau(  80) = (  0.6640776  0.7460048  0.8742093  )
        81           Al  tau(  81) = (  0.1649609  0.7452418  0.9981646  )
        82           Al  tau(  82) = (  0.9986108  0.4956387  0.9981601  )
        83           Al  tau(  83) = (  0.1645502  0.4961463  0.1226959  )
        84           Al  tau(  84) = (  0.9980023  0.7459947  0.1221112  )
        85           Al  tau(  85) = (  0.1640862  0.7459986  0.2477738  )
        86           Al  tau(  86) = (  0.9983069  0.4986176  0.2467206  )
        87           Al  tau(  87) = (  0.1649496  0.4984443  0.3720895  )
        88           Al  tau(  88) = (  0.9965243  0.7518704  0.3734473  )
        89           Al  tau(  89) = (  0.1670536  0.7425632  0.4981500  )
        90           Al  tau(  90) = (  0.9955799  0.5045428  0.4981622  )
        91           Al  tau(  91) = (  0.1649490  0.4984657  0.6242135  )
        92           Al  tau(  92) = (  0.9965165  0.7519101  0.6228725  )
        93           Al  tau(  93) = (  0.1640838  0.7460146  0.7485428  )
        94           Al  tau(  94) = (  0.9983138  0.4986397  0.7496016  )
        95           Al  tau(  95) = (  0.1645464  0.4961483  0.8736290  )
        96           Al  tau(  96) = (  0.9980128  0.7459988  0.8742249  )

     number of k points=   176  Methfessel-Paxton smearing, width (Ry)=  0.0441
                       cart. coord. in units 2pi/alat
        k(    1) = (   0.0000000   0.0000000   0.0000000), wk =   0.0057143
        k(    2) = (   0.0000000   0.0000000   0.1500000), wk =   0.0114286
        k(    3) = (   0.0000000   0.0000000   0.3000000), wk =   0.0114286
        k(    4) = (   0.0000000   0.1500000   0.0000000), wk =   0.0114286
        k(    5) = (   0.0000000   0.1500000   0.1500000), wk =   0.0114286
        k(    6) = (   0.0000000   0.1500000   0.3000000), wk =   0.0114286
        k(    7) = (   0.0000000   0.1500000  -0.3000000), wk =   0.0114286
        k(    8) = (   0.0000000   0.1500000  -0.1500000), wk =   0.0114286
        k(    9) = (   0.0000000   0.3000000   0.0000000), wk =   0.0114286
        k(   10) = (   0.0000000   0.3000000   0.1500000), wk =   0.0114286
        k(   11) = (   0.0000000   0.3000000   0.3000000), wk =   0.0114286
        k(   12) = (   0.0000000   0.3000000  -0.3000000), wk =   0.0114286
        k(   13) = (   0.0000000   0.3000000  -0.1500000), wk =   0.0114286
        k(   14) = (   0.0000000   0.4500000   0.0000000), wk =   0.0114286
        k(   15) = (   0.0000000   0.4500000   0.1500000), wk =   0.0114286
        k(   16) = (   0.0000000   0.4500000   0.3000000), wk =   0.0114286
        k(   17) = (   0.0000000   0.4500000  -0.3000000), wk =   0.0114286
        k(   18) = (   0.0000000   0.4500000  -0.1500000), wk =   0.0114286
        k(   19) = (   0.0000000   0.6000000   0.0000000), wk =   0.0114286
        k(   20) = (   0.0000000   0.6000000   0.1500000), wk =   0.0114286
        k(   21) = (   0.0000000   0.6000000   0.3000000), wk =   0.0114286
        k(   22) = (   0.0000000   0.6000000  -0.3000000), wk =   0.0114286
        k(   23) = (   0.0000000   0.6000000  -0.1500000), wk =   0.0114286
        k(   24) = (   0.0000000  -0.7500000   0.0000000), wk =   0.0057143
        k(   25) = (   0.0000000  -0.7500000   0.1500000), wk =   0.0114286
        k(   26) = (   0.0000000  -0.7500000   0.3000000), wk =   0.0114286
        k(   27) = (   0.1428571   0.0000000   0.0000000), wk =   0.0114286
        k(   28) = (   0.1428571   0.0000000   0.1500000), wk =   0.0114286
        k(   29) = (   0.1428571   0.0000000   0.3000000), wk =   0.0114286
        k(   30) = (   0.1428571   0.0000000  -0.3000000), wk =   0.0114286
        k(   31) = (   0.1428571   0.0000000  -0.1500000), wk =   0.0114286
        k(   32) = (   0.1428571   0.1500000   0.0000000), wk =   0.0114286
        k(   33) = (   0.1428571   0.1500000   0.1500000), wk =   0.0114286
        k(   34) = (   0.1428571   0.1500000   0.3000000), wk =   0.0114286
        k(   35) = (   0.1428571   0.1500000  -0.3000000), wk =   0.0114286
        k(   36) = (   0.1428571   0.1500000  -0.1500000), wk =   0.0114286
        k(   37) = (   0.1428571   0.3000000   0.0000000), wk =   0.0114286
        k(   38) = (   0.1428571   0.3000000   0.1500000), wk =   0.0114286
        k(   39) = (   0.1428571   0.3000000   0.3000000), wk =   0.0114286
        k(   40) = (   0.1428571   0.3000000  -0.3000000), wk =   0.0114286
        k(   41) = (   0.1428571   0.3000000  -0.1500000), wk =   0.0114286
        k(   42) = (   0.1428571   0.4500000   0.0000000), wk =   0.0114286
        k(   43) = (   0.1428571   0.4500000   0.1500000), wk =   0.0114286
        k(   44) = (   0.1428571   0.4500000   0.3000000), wk =   0.0114286
        k(   45) = (   0.1428571   0.4500000  -0.3000000), wk =   0.0114286
        k(   46) = (   0.1428571   0.4500000  -0.1500000), wk =   0.0114286
        k(   47) = (   0.1428571   0.6000000   0.0000000), wk =   0.0114286
        k(   48) = (   0.1428571   0.6000000   0.1500000), wk =   0.0114286
        k(   49) = (   0.1428571   0.6000000   0.3000000), wk =   0.0114286
        k(   50) = (   0.1428571   0.6000000  -0.3000000), wk =   0.0114286
        k(   51) = (   0.1428571   0.6000000  -0.1500000), wk =   0.0114286
        k(   52) = (   0.1428571  -0.7500000   0.0000000), wk =   0.0114286
        k(   53) = (   0.1428571  -0.7500000   0.1500000), wk =   0.0114286
        k(   54) = (   0.1428571  -0.7500000   0.3000000), wk =   0.0114286
        k(   55) = (   0.1428571  -0.7500000  -0.3000000), wk =   0.0114286
        k(   56) = (   0.1428571  -0.7500000  -0.1500000), wk =   0.0114286
        k(   57) = (   0.1428571  -0.6000000   0.0000000), wk =   0.0114286
        k(   58) = (   0.1428571  -0.6000000   0.1500000), wk =   0.0114286
        k(   59) = (   0.1428571  -0.6000000   0.3000000), wk =   0.0114286
        k(   60) = (   0.1428571  -0.6000000  -0.3000000), wk =   0.0114286
        k(   61) = (   0.1428571  -0.6000000  -0.1500000), wk =   0.0114286
        k(   62) = (   0.1428571  -0.4500000   0.0000000), wk =   0.0114286
        k(   63) = (   0.1428571  -0.4500000   0.1500000), wk =   0.0114286
        k(   64) = (   0.1428571  -0.4500000   0.3000000), wk =   0.0114286
        k(   65) = (   0.1428571  -0.4500000  -0.3000000), wk =   0.0114286
        k(   66) = (   0.1428571  -0.4500000  -0.1500000), wk =   0.0114286
        k(   67) = (   0.1428571  -0.3000000   0.0000000), wk =   0.0114286
        k(   68) = (   0.1428571  -0.3000000   0.1500000), wk =   0.0114286
        k(   69) = (   0.1428571  -0.3000000   0.3000000), wk =   0.0114286
        k(   70) = (   0.1428571  -0.3000000  -0.3000000), wk =   0.0114286
        k(   71) = (   0.1428571  -0.3000000  -0.1500000), wk =   0.0114286
        k(   72) = (   0.1428571  -0.1500000   0.0000000), wk =   0.0114286
        k(   73) = (   0.1428571  -0.1500000   0.1500000), wk =   0.0114286
        k(   74) = (   0.1428571  -0.1500000   0.3000000), wk =   0.0114286
        k(   75) = (   0.1428571  -0.1500000  -0.3000000), wk =   0.0114286
        k(   76) = (   0.1428571  -0.1500000  -0.1500000), wk =   0.0114286
        k(   77) = (   0.2857143   0.0000000   0.0000000), wk =   0.0114286
        k(   78) = (   0.2857143   0.0000000   0.1500000), wk =   0.0114286
        k(   79) = (   0.2857143   0.0000000   0.3000000), wk =   0.0114286
        k(   80) = (   0.2857143   0.0000000  -0.3000000), wk =   0.0114286
        k(   81) = (   0.2857143   0.0000000  -0.1500000), wk =   0.0114286
        k(   82) = (   0.2857143   0.1500000   0.0000000), wk =   0.0114286
        k(   83) = (   0.2857143   0.1500000   0.1500000), wk =   0.0114286
        k(   84) = (   0.2857143   0.1500000   0.3000000), wk =   0.0114286
        k(   85) = (   0.2857143   0.1500000  -0.3000000), wk =   0.0114286
        k(   86) = (   0.2857143   0.1500000  -0.1500000), wk =   0.0114286
        k(   87) = (   0.2857143   0.3000000   0.0000000), wk =   0.0114286
        k(   88) = (   0.2857143   0.3000000   0.1500000), wk =   0.0114286
        k(   89) = (   0.2857143   0.3000000   0.3000000), wk =   0.0114286
        k(   90) = (   0.2857143   0.3000000  -0.3000000), wk =   0.0114286
        k(   91) = (   0.2857143   0.3000000  -0.1500000), wk =   0.0114286
        k(   92) = (   0.2857143   0.4500000   0.0000000), wk =   0.0114286
        k(   93) = (   0.2857143   0.4500000   0.1500000), wk =   0.0114286
        k(   94) = (   0.2857143   0.4500000   0.3000000), wk =   0.0114286
        k(   95) = (   0.2857143   0.4500000  -0.3000000), wk =   0.0114286
        k(   96) = (   0.2857143   0.4500000  -0.1500000), wk =   0.0114286
        k(   97) = (   0.2857143   0.6000000   0.0000000), wk =   0.0114286
        k(   98) = (   0.2857143   0.6000000   0.1500000), wk =   0.0114286
        k(   99) = (   0.2857143   0.6000000   0.3000000), wk =   0.0114286
        k(  100) = (   0.2857143   0.6000000  -0.3000000), wk =   0.0114286
        k(  101) = (   0.2857143   0.6000000  -0.1500000), wk =   0.0114286
        k(  102) = (   0.2857143  -0.7500000   0.0000000), wk =   0.0114286
        k(  103) = (   0.2857143  -0.7500000   0.1500000), wk =   0.0114286
        k(  104) = (   0.2857143  -0.7500000   0.3000000), wk =   0.0114286
        k(  105) = (   0.2857143  -0.7500000  -0.3000000), wk =   0.0114286
        k(  106) = (   0.2857143  -0.7500000  -0.1500000), wk =   0.0114286
        k(  107) = (   0.2857143  -0.6000000   0.0000000), wk =   0.0114286
        k(  108) = (   0.2857143  -0.6000000   0.1500000), wk =   0.0114286
        k(  109) = (   0.2857143  -0.6000000   0.3000000), wk =   0.0114286
        k(  110) = (   0.2857143  -0.6000000  -0.3000000), wk =   0.0114286
        k(  111) = (   0.2857143  -0.6000000  -0.1500000), wk =   0.0114286
        k(  112) = (   0.2857143  -0.4500000   0.0000000), wk =   0.0114286
        k(  113) = (   0.2857143  -0.4500000   0.1500000), wk =   0.0114286
        k(  114) = (   0.2857143  -0.4500000   0.3000000), wk =   0.0114286
        k(  115) = (   0.2857143  -0.4500000  -0.3000000), wk =   0.0114286
        k(  116) = (   0.2857143  -0.4500000  -0.1500000), wk =   0.0114286
        k(  117) = (   0.2857143  -0.3000000   0.0000000), wk =   0.0114286
        k(  118) = (   0.2857143  -0.3000000   0.1500000), wk =   0.0114286
        k(  119) = (   0.2857143  -0.3000000   0.3000000), wk =   0.0114286
        k(  120) = (   0.2857143  -0.3000000  -0.3000000), wk =   0.0114286
        k(  121) = (   0.2857143  -0.3000000  -0.1500000), wk =   0.0114286
        k(  122) = (   0.2857143  -0.1500000   0.0000000), wk =   0.0114286
        k(  123) = (   0.2857143  -0.1500000   0.1500000), wk =   0.0114286
        k(  124) = (   0.2857143  -0.1500000   0.3000000), wk =   0.0114286
        k(  125) = (   0.2857143  -0.1500000  -0.3000000), wk =   0.0114286
        k(  126) = (   0.2857143  -0.1500000  -0.1500000), wk =   0.0114286
        k(  127) = (   0.4285714   0.0000000   0.0000000), wk =   0.0114286
        k(  128) = (   0.4285714   0.0000000   0.1500000), wk =   0.0114286
        k(  129) = (   0.4285714   0.0000000   0.3000000), wk =   0.0114286
        k(  130) = (   0.4285714   0.0000000  -0.3000000), wk =   0.0114286
        k(  131) = (   0.4285714   0.0000000  -0.1500000), wk =   0.0114286
        k(  132) = (   0.4285714   0.1500000   0.0000000), wk =   0.0114286
        k(  133) = (   0.4285714   0.1500000   0.1500000), wk =   0.0114286
        k(  134) = (   0.4285714   0.1500000   0.3000000), wk =   0.0114286
        k(  135) = (   0.4285714   0.1500000  -0.3000000), wk =   0.0114286
        k(  136) = (   0.4285714   0.1500000  -0.1500000), wk =   0.0114286
        k(  137) = (   0.4285714   0.3000000   0.0000000), wk =   0.0114286
        k(  138) = (   0.4285714   0.3000000   0.1500000), wk =   0.0114286
        k(  139) = (   0.4285714   0.3000000   0.3000000), wk =   0.0114286
        k(  140) = (   0.4285714   0.3000000  -0.3000000), wk =   0.0114286
        k(  141) = (   0.4285714   0.3000000  -0.1500000), wk =   0.0114286
        k(  142) = (   0.4285714   0.4500000   0.0000000), wk =   0.0114286
        k(  143) = (   0.4285714   0.4500000   0.1500000), wk =   0.0114286
        k(  144) = (   0.4285714   0.4500000   0.3000000), wk =   0.0114286
        k(  145) = (   0.4285714   0.4500000  -0.3000000), wk =   0.0114286
        k(  146) = (   0.4285714   0.4500000  -0.1500000), wk =   0.0114286
        k(  147) = (   0.4285714   0.6000000   0.0000000), wk =   0.0114286
        k(  148) = (   0.4285714   0.6000000   0.1500000), wk =   0.0114286
        k(  149) = (   0.4285714   0.6000000   0.3000000), wk =   0.0114286
        k(  150) = (   0.4285714   0.6000000  -0.3000000), wk =   0.0114286
        k(  151) = (   0.4285714   0.6000000  -0.1500000), wk =   0.0114286
        k(  152) = (   0.4285714  -0.7500000   0.0000000), wk =   0.0114286
        k(  153) = (   0.4285714  -0.7500000   0.1500000), wk =   0.0114286
        k(  154) = (   0.4285714  -0.7500000   0.3000000), wk =   0.0114286
        k(  155) = (   0.4285714  -0.7500000  -0.3000000), wk =   0.0114286
        k(  156) = (   0.4285714  -0.7500000  -0.1500000), wk =   0.0114286
        k(  157) = (   0.4285714  -0.6000000   0.0000000), wk =   0.0114286
        k(  158) = (   0.4285714  -0.6000000   0.1500000), wk =   0.0114286
        k(  159) = (   0.4285714  -0.6000000   0.3000000), wk =   0.0114286
        k(  160) = (   0.4285714  -0.6000000  -0.3000000), wk =   0.0114286
        k(  161) = (   0.4285714  -0.6000000  -0.1500000), wk =   0.0114286
        k(  162) = (   0.4285714  -0.4500000   0.0000000), wk =   0.0114286
        k(  163) = (   0.4285714  -0.4500000   0.1500000), wk =   0.0114286
        k(  164) = (   0.4285714  -0.4500000   0.3000000), wk =   0.0114286
        k(  165) = (   0.4285714  -0.4500000  -0.3000000), wk =   0.0114286
        k(  166) = (   0.4285714  -0.4500000  -0.1500000), wk =   0.0114286
        k(  167) = (   0.4285714  -0.3000000   0.0000000), wk =   0.0114286
        k(  168) = (   0.4285714  -0.3000000   0.1500000), wk =   0.0114286
        k(  169) = (   0.4285714  -0.3000000   0.3000000), wk =   0.0114286
        k(  170) = (   0.4285714  -0.3000000  -0.3000000), wk =   0.0114286
        k(  171) = (   0.4285714  -0.3000000  -0.1500000), wk =   0.0114286
        k(  172) = (   0.4285714  -0.1500000   0.0000000), wk =   0.0114286
        k(  173) = (   0.4285714  -0.1500000   0.1500000), wk =   0.0114286
        k(  174) = (   0.4285714  -0.1500000   0.3000000), wk =   0.0114286
        k(  175) = (   0.4285714  -0.1500000  -0.3000000), wk =   0.0114286
        k(  176) = (   0.4285714  -0.1500000  -0.1500000), wk =   0.0114286

                       cryst. coord.
        k(    1) = (   0.0000000   0.0000000   0.0000000), wk =   0.0057143
        k(    2) = (   0.0000000   0.0000000   0.2000000), wk =   0.0114286
        k(    3) = (   0.0000000   0.0000000   0.4000000), wk =   0.0114286
        k(    4) = (   0.0000000   0.1000000   0.0000000), wk =   0.0114286
        k(    5) = (   0.0000000   0.1000000   0.2000000), wk =   0.0114286
        k(    6) = (   0.0000000   0.1000000   0.4000000), wk =   0.0114286
        k(    7) = (   0.0000000   0.1000000  -0.4000000), wk =   0.0114286
        k(    8) = (   0.0000000   0.1000000  -0.2000000), wk =   0.0114286
        k(    9) = (   0.0000000   0.2000000   0.0000000), wk =   0.0114286
        k(   10) = (   0.0000000   0.2000000   0.2000000), wk =   0.0114286
        k(   11) = (   0.0000000   0.2000000   0.4000000), wk =   0.0114286
        k(   12) = (   0.0000000   0.2000000  -0.4000000), wk =   0.0114286
        k(   13) = (   0.0000000   0.2000000  -0.2000000), wk =   0.0114286
        k(   14) = (   0.0000000   0.3000000   0.0000000), wk =   0.0114286
        k(   15) = (   0.0000000   0.3000000   0.2000000), wk =   0.0114286
        k(   16) = (   0.0000000   0.3000000   0.4000000), wk =   0.0114286
        k(   17) = (   0.0000000   0.3000000  -0.4000000), wk =   0.0114286
        k(   18) = (   0.0000000   0.3000000  -0.2000000), wk =   0.0114286
        k(   19) = (   0.0000000   0.4000000   0.0000000), wk =   0.0114286
        k(   20) = (   0.0000000   0.4000000   0.2000000), wk =   0.0114286
        k(   21) = (   0.0000000   0.4000000   0.4000000), wk =   0.0114286
        k(   22) = (   0.0000000   0.4000000  -0.4000000), wk =   0.0114286
        k(   23) = (   0.0000000   0.4000000  -0.2000000), wk =   0.0114286
        k(   24) = (   0.0000000  -0.5000000   0.0000000), wk =   0.0057143
        k(   25) = (   0.0000000  -0.5000000   0.2000000), wk =   0.0114286
        k(   26) = (   0.0000000  -0.5000000   0.4000000), wk =   0.0114286
        k(   27) = (   0.1428571   0.0000000   0.0000000), wk =   0.0114286
        k(   28) = (   0.1428571   0.0000000   0.2000000), wk =   0.0114286
        k(   29) = (   0.1428571   0.0000000   0.4000000), wk =   0.0114286
        k(   30) = (   0.1428571   0.0000000  -0.4000000), wk =   0.0114286
        k(   31) = (   0.1428571   0.0000000  -0.2000000), wk =   0.0114286
        k(   32) = (   0.1428571   0.1000000   0.0000000), wk =   0.0114286
        k(   33) = (   0.1428571   0.1000000   0.2000000), wk =   0.0114286
        k(   34) = (   0.1428571   0.1000000   0.4000000), wk =   0.0114286
        k(   35) = (   0.1428571   0.1000000  -0.4000000), wk =   0.0114286
        k(   36) = (   0.1428571   0.1000000  -0.2000000), wk =   0.0114286
        k(   37) = (   0.1428571   0.2000000   0.0000000), wk =   0.0114286
        k(   38) = (   0.1428571   0.2000000   0.2000000), wk =   0.0114286
        k(   39) = (   0.1428571   0.2000000   0.4000000), wk =   0.0114286
        k(   40) = (   0.1428571   0.2000000  -0.4000000), wk =   0.0114286
        k(   41) = (   0.1428571   0.2000000  -0.2000000), wk =   0.0114286
        k(   42) = (   0.1428571   0.3000000   0.0000000), wk =   0.0114286
        k(   43) = (   0.1428571   0.3000000   0.2000000), wk =   0.0114286
        k(   44) = (   0.1428571   0.3000000   0.4000000), wk =   0.0114286
        k(   45) = (   0.1428571   0.3000000  -0.4000000), wk =   0.0114286
        k(   46) = (   0.1428571   0.3000000  -0.2000000), wk =   0.0114286
        k(   47) = (   0.1428571   0.4000000   0.0000000), wk =   0.0114286
        k(   48) = (   0.1428571   0.4000000   0.2000000), wk =   0.0114286
        k(   49) = (   0.1428571   0.4000000   0.4000000), wk =   0.0114286
        k(   50) = (   0.1428571   0.4000000  -0.4000000), wk =   0.0114286
        k(   51) = (   0.1428571   0.4000000  -0.2000000), wk =   0.0114286
        k(   52) = (   0.1428571  -0.5000000   0.0000000), wk =   0.0114286
        k(   53) = (   0.1428571  -0.5000000   0.2000000), wk =   0.0114286
        k(   54) = (   0.1428571  -0.5000000   0.4000000), wk =   0.0114286
        k(   55) = (   0.1428571  -0.5000000  -0.4000000), wk =   0.0114286
        k(   56) = (   0.1428571  -0.5000000  -0.2000000), wk =   0.0114286
        k(   57) = (   0.1428571  -0.4000000   0.0000000), wk =   0.0114286
        k(   58) = (   0.1428571  -0.4000000   0.2000000), wk =   0.0114286
        k(   59) = (   0.1428571  -0.4000000   0.4000000), wk =   0.0114286
        k(   60) = (   0.1428571  -0.4000000  -0.4000000), wk =   0.0114286
        k(   61) = (   0.1428571  -0.4000000  -0.2000000), wk =   0.0114286
        k(   62) = (   0.1428571  -0.3000000   0.0000000), wk =   0.0114286
        k(   63) = (   0.1428571  -0.3000000   0.2000000), wk =   0.0114286
        k(   64) = (   0.1428571  -0.3000000   0.4000000), wk =   0.0114286
        k(   65) = (   0.1428571  -0.3000000  -0.4000000), wk =   0.0114286
        k(   66) = (   0.1428571  -0.3000000  -0.2000000), wk =   0.0114286
        k(   67) = (   0.1428571  -0.2000000   0.0000000), wk =   0.0114286
        k(   68) = (   0.1428571  -0.2000000   0.2000000), wk =   0.0114286
        k(   69) = (   0.1428571  -0.2000000   0.4000000), wk =   0.0114286
        k(   70) = (   0.1428571  -0.2000000  -0.4000000), wk =   0.0114286
        k(   71) = (   0.1428571  -0.2000000  -0.2000000), wk =   0.0114286
        k(   72) = (   0.1428571  -0.1000000   0.0000000), wk =   0.0114286
        k(   73) = (   0.1428571  -0.1000000   0.2000000), wk =   0.0114286
        k(   74) = (   0.1428571  -0.1000000   0.4000000), wk =   0.0114286
        k(   75) = (   0.1428571  -0.1000000  -0.4000000), wk =   0.0114286
        k(   76) = (   0.1428571  -0.1000000  -0.2000000), wk =   0.0114286
        k(   77) = (   0.2857143   0.0000000   0.0000000), wk =   0.0114286
        k(   78) = (   0.2857143   0.0000000   0.2000000), wk =   0.0114286
        k(   79) = (   0.2857143   0.0000000   0.4000000), wk =   0.0114286
        k(   80) = (   0.2857143   0.0000000  -0.4000000), wk =   0.0114286
        k(   81) = (   0.2857143   0.0000000  -0.2000000), wk =   0.0114286
        k(   82) = (   0.2857143   0.1000000   0.0000000), wk =   0.0114286
        k(   83) = (   0.2857143   0.1000000   0.2000000), wk =   0.0114286
        k(   84) = (   0.2857143   0.1000000   0.4000000), wk =   0.0114286
        k(   85) = (   0.2857143   0.1000000  -0.4000000), wk =   0.0114286
        k(   86) = (   0.2857143   0.1000000  -0.2000000), wk =   0.0114286
        k(   87) = (   0.2857143   0.2000000   0.0000000), wk =   0.0114286
        k(   88) = (   0.2857143   0.2000000   0.2000000), wk =   0.0114286
        k(   89) = (   0.2857143   0.2000000   0.4000000), wk =   0.0114286
        k(   90) = (   0.2857143   0.2000000  -0.4000000), wk =   0.0114286
        k(   91) = (   0.2857143   0.2000000  -0.2000000), wk =   0.0114286
        k(   92) = (   0.2857143   0.3000000   0.0000000), wk =   0.0114286
        k(   93) = (   0.2857143   0.3000000   0.2000000), wk =   0.0114286
        k(   94) = (   0.2857143   0.3000000   0.4000000), wk =   0.0114286
        k(   95) = (   0.2857143   0.3000000  -0.4000000), wk =   0.0114286
        k(   96) = (   0.2857143   0.3000000  -0.2000000), wk =   0.0114286
        k(   97) = (   0.2857143   0.4000000   0.0000000), wk =   0.0114286
        k(   98) = (   0.2857143   0.4000000   0.2000000), wk =   0.0114286
        k(   99) = (   0.2857143   0.4000000   0.4000000), wk =   0.0114286
        k(  100) = (   0.2857143   0.4000000  -0.4000000), wk =   0.0114286
        k(  101) = (   0.2857143   0.4000000  -0.2000000), wk =   0.0114286
        k(  102) = (   0.2857143  -0.5000000   0.0000000), wk =   0.0114286
        k(  103) = (   0.2857143  -0.5000000   0.2000000), wk =   0.0114286
        k(  104) = (   0.2857143  -0.5000000   0.4000000), wk =   0.0114286
        k(  105) = (   0.2857143  -0.5000000  -0.4000000), wk =   0.0114286
        k(  106) = (   0.2857143  -0.5000000  -0.2000000), wk =   0.0114286
        k(  107) = (   0.2857143  -0.4000000   0.0000000), wk =   0.0114286
        k(  108) = (   0.2857143  -0.4000000   0.2000000), wk =   0.0114286
        k(  109) = (   0.2857143  -0.4000000   0.4000000), wk =   0.0114286
        k(  110) = (   0.2857143  -0.4000000  -0.4000000), wk =   0.0114286
        k(  111) = (   0.2857143  -0.4000000  -0.2000000), wk =   0.0114286
        k(  112) = (   0.2857143  -0.3000000   0.0000000), wk =   0.0114286
        k(  113) = (   0.2857143  -0.3000000   0.2000000), wk =   0.0114286
        k(  114) = (   0.2857143  -0.3000000   0.4000000), wk =   0.0114286
        k(  115) = (   0.2857143  -0.3000000  -0.4000000), wk =   0.0114286
        k(  116) = (   0.2857143  -0.3000000  -0.2000000), wk =   0.0114286
        k(  117) = (   0.2857143  -0.2000000   0.0000000), wk =   0.0114286
        k(  118) = (   0.2857143  -0.2000000   0.2000000), wk =   0.0114286
        k(  119) = (   0.2857143  -0.2000000   0.4000000), wk =   0.0114286
        k(  120) = (   0.2857143  -0.2000000  -0.4000000), wk =   0.0114286
        k(  121) = (   0.2857143  -0.2000000  -0.2000000), wk =   0.0114286
        k(  122) = (   0.2857143  -0.1000000   0.0000000), wk =   0.0114286
        k(  123) = (   0.2857143  -0.1000000   0.2000000), wk =   0.0114286
        k(  124) = (   0.2857143  -0.1000000   0.4000000), wk =   0.0114286
        k(  125) = (   0.2857143  -0.1000000  -0.4000000), wk =   0.0114286
        k(  126) = (   0.2857143  -0.1000000  -0.2000000), wk =   0.0114286
        k(  127) = (   0.4285714   0.0000000   0.0000000), wk =   0.0114286
        k(  128) = (   0.4285714   0.0000000   0.2000000), wk =   0.0114286
        k(  129) = (   0.4285714   0.0000000   0.4000000), wk =   0.0114286
        k(  130) = (   0.4285714   0.0000000  -0.4000000), wk =   0.0114286
        k(  131) = (   0.4285714   0.0000000  -0.2000000), wk =   0.0114286
        k(  132) = (   0.4285714   0.1000000   0.0000000), wk =   0.0114286
        k(  133) = (   0.4285714   0.1000000   0.2000000), wk =   0.0114286
        k(  134) = (   0.4285714   0.1000000   0.4000000), wk =   0.0114286
        k(  135) = (   0.4285714   0.1000000  -0.4000000), wk =   0.0114286
        k(  136) = (   0.4285714   0.1000000  -0.2000000), wk =   0.0114286
        k(  137) = (   0.4285714   0.2000000   0.0000000), wk =   0.0114286
        k(  138) = (   0.4285714   0.2000000   0.2000000), wk =   0.0114286
        k(  139) = (   0.4285714   0.2000000   0.4000000), wk =   0.0114286
        k(  140) = (   0.4285714   0.2000000  -0.4000000), wk =   0.0114286
        k(  141) = (   0.4285714   0.2000000  -0.2000000), wk =   0.0114286
        k(  142) = (   0.4285714   0.3000000   0.0000000), wk =   0.0114286
        k(  143) = (   0.4285714   0.3000000   0.2000000), wk =   0.0114286
        k(  144) = (   0.4285714   0.3000000   0.4000000), wk =   0.0114286
        k(  145) = (   0.4285714   0.3000000  -0.4000000), wk =   0.0114286
        k(  146) = (   0.4285714   0.3000000  -0.2000000), wk =   0.0114286
        k(  147) = (   0.4285714   0.4000000   0.0000000), wk =   0.0114286
        k(  148) = (   0.4285714   0.4000000   0.2000000), wk =   0.0114286
        k(  149) = (   0.4285714   0.4000000   0.4000000), wk =   0.0114286
        k(  150) = (   0.4285714   0.4000000  -0.4000000), wk =   0.0114286
        k(  151) = (   0.4285714   0.4000000  -0.2000000), wk =   0.0114286
        k(  152) = (   0.4285714  -0.5000000   0.0000000), wk =   0.0114286
        k(  153) = (   0.4285714  -0.5000000   0.2000000), wk =   0.0114286
        k(  154) = (   0.4285714  -0.5000000   0.4000000), wk =   0.0114286
        k(  155) = (   0.4285714  -0.5000000  -0.4000000), wk =   0.0114286
        k(  156) = (   0.4285714  -0.5000000  -0.2000000), wk =   0.0114286
        k(  157) = (   0.4285714  -0.4000000   0.0000000), wk =   0.0114286
        k(  158) = (   0.4285714  -0.4000000   0.2000000), wk =   0.0114286
        k(  159) = (   0.4285714  -0.4000000   0.4000000), wk =   0.0114286
        k(  160) = (   0.4285714  -0.4000000  -0.4000000), wk =   0.0114286
        k(  161) = (   0.4285714  -0.4000000  -0.2000000), wk =   0.0114286
        k(  162) = (   0.4285714  -0.3000000   0.0000000), wk =   0.0114286
        k(  163) = (   0.4285714  -0.3000000   0.2000000), wk =   0.0114286
        k(  164) = (   0.4285714  -0.3000000   0.4000000), wk =   0.0114286
        k(  165) = (   0.4285714  -0.3000000  -0.4000000), wk =   0.0114286
        k(  166) = (   0.4285714  -0.3000000  -0.2000000), wk =   0.0114286
        k(  167) = (   0.4285714  -0.2000000   0.0000000), wk =   0.0114286
        k(  168) = (   0.4285714  -0.2000000   0.2000000), wk =   0.0114286
        k(  169) = (   0.4285714  -0.2000000   0.4000000), wk =   0.0114286
        k(  170) = (   0.4285714  -0.2000000  -0.4000000), wk =   0.0114286
        k(  171) = (   0.4285714  -0.2000000  -0.2000000), wk =   0.0114286
        k(  172) = (   0.4285714  -0.1000000   0.0000000), wk =   0.0114286
        k(  173) = (   0.4285714  -0.1000000   0.2000000), wk =   0.0114286
        k(  174) = (   0.4285714  -0.1000000   0.4000000), wk =   0.0114286
        k(  175) = (   0.4285714  -0.1000000  -0.4000000), wk =   0.0114286
        k(  176) = (   0.4285714  -0.1000000  -0.2000000), wk =   0.0114286

     Dense  grid:  1460933 G-vectors     FFT dimensions: ( 150, 100, 200)

     Smooth grid:   369403 G-vectors     FFT dimensions: (  96,  64, 125)

     Dynamical RAM for                 wfc:      13.55 MB

     Dynamical RAM for     wfc (w. buffer):     609.75 MB

     Dynamical RAM for           str. fact:       7.43 MB

     Dynamical RAM for           local pot:       0.00 MB

     Dynamical RAM for          nlocal pot:     131.43 MB

     Dynamical RAM for                qrad:      17.60 MB

     Dynamical RAM for          rho,v,vnew:      15.33 MB

     Dynamical RAM for               rhoin:       5.11 MB

     Dynamical RAM for            rho*nmix:      39.63 MB

     Dynamical RAM for           G-vectors:       9.60 MB

     Dynamical RAM for          h,s,v(r/c):       5.48 MB

     Dynamical RAM for          <psi|beta>:       4.43 MB

     Dynamical RAM for                 psi:      54.20 MB

     Dynamical RAM for                hpsi:      54.20 MB

     Dynamical RAM for                spsi:      54.20 MB

     Dynamical RAM for      wfcinit/wfcrot:      63.53 MB

     Dynamical RAM for           addusdens:     170.90 MB

     Dynamical RAM for          addusforce:     293.88 MB

     Dynamical RAM for         addusstress:     125.39 MB

     Estimated static dynamical RAM per process >     858.94 MB

     Estimated max dynamical RAM per process >       1.13 GB

     Estimated total dynamical RAM >      40.53 GB

     Initial potential from superposition of free atoms

     starting charge  286.79389, renormalised to  287.00000
     Starting wfcs are  384 randomized atomic wfcs
     Checking if some PAW data can be deallocated... 
       PAW data deallocated on    1 nodes for type:  1
       PAW data deallocated on   34 nodes for type:  2

     total cpu time spent up to now is      206.4 secs

     Self-consistent Calculation

     iteration #  1     ecut=    40.00 Ry     beta= 0.40
     Davidson diagonalization with overlap
     ethr =  1.00E-02,  avg # of iterations =  3.0

     Threshold (ethr) on eigenvalues was too large:
     Diagonalizing with lowered threshold

     Davidson diagonalization with overlap
     ethr =  4.90E-04,  avg # of iterations =  3.3

     total cpu time spent up to now is      912.2 secs

     total energy              =   -3650.47376144 Ry
     Harris-Foulkes estimate   =   -3650.58453352 Ry
     estimated scf accuracy    <       1.46994468 Ry

     iteration #  2     ecut=    40.00 Ry     beta= 0.40
     Davidson diagonalization with overlap
     ethr =  5.12E-04,  avg # of iterations =  1.0

     total cpu time spent up to now is     1174.5 secs

     total energy              =   -3650.32445952 Ry
     Harris-Foulkes estimate   =   -3650.48871868 Ry
     estimated scf accuracy    <       0.76194162 Ry

     iteration #  3     ecut=    40.00 Ry     beta= 0.40
     Davidson diagonalization with overlap
     ethr =  2.65E-04,  avg # of iterations =  3.3

     total cpu time spent up to now is     1475.0 secs

     total energy              =   -3650.38568172 Ry
     Harris-Foulkes estimate   =   -3650.38748300 Ry
     estimated scf accuracy    <       0.03266671 Ry

     iteration #  4     ecut=    40.00 Ry     beta= 0.40
     Davidson diagonalization with overlap
     ethr =  1.14E-05,  avg # of iterations = 10.0

     total cpu time spent up to now is     1997.7 secs

     total energy              =   -3650.39390314 Ry
     Harris-Foulkes estimate   =   -3650.39287055 Ry
     estimated scf accuracy    <       0.05553091 Ry

     iteration #  5     ecut=    40.00 Ry     beta= 0.40
     Davidson diagonalization with overlap
     ethr =  1.14E-05,  avg # of iterations =  1.0

     total cpu time spent up to now is     2260.3 secs

     total energy              =   -3650.36910565 Ry
     Harris-Foulkes estimate   =   -3650.39429465 Ry
     estimated scf accuracy    <       0.07752501 Ry

     iteration #  6     ecut=    40.00 Ry     beta= 0.40
     Davidson diagonalization with overlap
     ethr =  1.14E-05,  avg # of iterations =  6.7

     total cpu time spent up to now is     2743.8 secs

     total energy              =   -3650.40724241 Ry
     Harris-Foulkes estimate   =   -3650.41444599 Ry
     estimated scf accuracy    <       0.50313588 Ry

     iteration #  7     ecut=    40.00 Ry     beta= 0.40
     Davidson diagonalization with overlap
     ethr =  1.14E-05,  avg # of iterations =  1.0

     total cpu time spent up to now is     3007.9 secs

     total energy              =   -3650.37226807 Ry
     Harris-Foulkes estimate   =   -3650.40777175 Ry
     estimated scf accuracy    <       0.39938766 Ry

     iteration #  8     ecut=    40.00 Ry     beta= 0.40
     Davidson diagonalization with overlap
     ethr =  1.14E-05,  avg # of iterations =  5.0

     total cpu time spent up to now is     3406.0 secs

     total energy              =   -3650.38831009 Ry
     Harris-Foulkes estimate   =   -3650.38831924 Ry
     estimated scf accuracy    <       0.00273294 Ry

     iteration #  9     ecut=    40.00 Ry     beta= 0.40
     Davidson diagonalization with overlap
     ethr =  9.52E-07,  avg # of iterations =  4.0

     total cpu time spent up to now is     3735.1 secs

     total energy              =   -3650.38877357 Ry
     Harris-Foulkes estimate   =   -3650.38857640 Ry
     estimated scf accuracy    <       0.00269545 Ry

     iteration # 10     ecut=    40.00 Ry     beta= 0.40
     Davidson diagonalization with overlap
     ethr =  9.39E-07,  avg # of iterations =  1.3

     total cpu time spent up to now is     4007.0 secs

     total energy              =   -3650.38858673 Ry
     Harris-Foulkes estimate   =   -3650.38885394 Ry
     estimated scf accuracy    <       0.00644438 Ry

     iteration # 11     ecut=    40.00 Ry     beta= 0.40
     Davidson diagonalization with overlap
     ethr =  9.39E-07,  avg # of iterations =  1.0

     total cpu time spent up to now is     4273.8 secs

     total energy              =   -3650.38831606 Ry
     Harris-Foulkes estimate   =   -3650.38863568 Ry
     estimated scf accuracy    <       0.00339914 Ry

     iteration # 12     ecut=    40.00 Ry     beta= 0.40
     Davidson diagonalization with overlap
     ethr =  9.39E-07,  avg # of iterations =  2.0

     total cpu time spent up to now is     4551.8 secs

     total energy              =   -3650.38848009 Ry
     Harris-Foulkes estimate   =   -3650.38847957 Ry
     estimated scf accuracy    <       0.00004856 Ry

     iteration # 13     ecut=    40.00 Ry     beta= 0.40
     Davidson diagonalization with overlap
     ethr =  1.69E-08,  avg # of iterations =  5.2

     total cpu time spent up to now is     5096.6 secs

     total energy              =   -3650.38865259 Ry
     Harris-Foulkes estimate   =   -3650.38865246 Ry
     estimated scf accuracy    <       0.00000654 Ry

     iteration # 14     ecut=    40.00 Ry     beta= 0.40
     Davidson diagonalization with overlap
     ethr =  2.28E-09,  avg # of iterations =  2.8

     total cpu time spent up to now is     5393.7 secs

     total energy              =   -3650.38865089 Ry
     Harris-Foulkes estimate   =   -3650.38865259 Ry
     estimated scf accuracy    <       0.00000685 Ry

     iteration # 15     ecut=    40.00 Ry     beta= 0.40
     Davidson diagonalization with overlap
     ethr =  2.28E-09,  avg # of iterations =  3.8

     total cpu time spent up to now is     5736.3 secs

     total energy              =   -3650.38865270 Ry
     Harris-Foulkes estimate   =   -3650.38865273 Ry
     estimated scf accuracy    <       0.00001784 Ry

     iteration # 16     ecut=    40.00 Ry     beta= 0.40
     Davidson diagonalization with overlap
     ethr =  2.28E-09,  avg # of iterations =  1.0

     total cpu time spent up to now is     6003.0 secs

     total energy              =   -3650.38865228 Ry
     Harris-Foulkes estimate   =   -3650.38865269 Ry
     estimated scf accuracy    <       0.00001753 Ry

     iteration # 17     ecut=    40.00 Ry     beta= 0.40
     Davidson diagonalization with overlap
     ethr =  2.28E-09,  avg # of iterations =  1.0

     total cpu time spent up to now is     6266.8 secs

     total energy              =   -3650.38865209 Ry
     Harris-Foulkes estimate   =   -3650.38865231 Ry
     estimated scf accuracy    <       0.00001164 Ry

     iteration # 18     ecut=    40.00 Ry     beta= 0.40
     Davidson diagonalization with overlap
     ethr =  2.28E-09,  avg # of iterations =  1.0

     total cpu time spent up to now is     6530.3 secs

     total energy              =   -3650.38865171 Ry
     Harris-Foulkes estimate   =   -3650.38865210 Ry
     estimated scf accuracy    <       0.00000842 Ry

     iteration # 19     ecut=    40.00 Ry     beta= 0.40
     Davidson diagonalization with overlap
     ethr =  2.28E-09,  avg # of iterations =  1.0

     total cpu time spent up to now is     6797.3 secs

     total energy              =   -3650.38865171 Ry
     Harris-Foulkes estimate   =   -3650.38865179 Ry
     estimated scf accuracy    <       0.00000303 Ry

     iteration # 20     ecut=    40.00 Ry     beta= 0.40
     Davidson diagonalization with overlap
     ethr =  1.06E-09,  avg # of iterations =  1.0

     total cpu time spent up to now is     7064.3 secs

     total energy              =   -3650.38865171 Ry
     Harris-Foulkes estimate   =   -3650.38865174 Ry
     estimated scf accuracy    <       0.00000178 Ry

     iteration # 21     ecut=    40.00 Ry     beta= 0.40
     Davidson diagonalization with overlap
     ethr =  6.22E-10,  avg # of iterations =  1.1

     total cpu time spent up to now is     7330.7 secs

     total energy              =   -3650.38865163 Ry
     Harris-Foulkes estimate   =   -3650.38865172 Ry
     estimated scf accuracy    <       0.00000112 Ry

     iteration # 22     ecut=    40.00 Ry     beta= 0.40
     Davidson diagonalization with overlap
     ethr =  3.91E-10,  avg # of iterations =  3.9

     total cpu time spent up to now is     7643.6 secs

     total energy              =   -3650.38865171 Ry
     Harris-Foulkes estimate   =   -3650.38865171 Ry
     estimated scf accuracy    <          4.6E-09 Ry

     iteration # 23     ecut=    40.00 Ry     beta= 0.40
     Davidson diagonalization with overlap
     ethr =  1.61E-12,  avg # of iterations =  6.3

     total cpu time spent up to now is     8282.1 secs

     total energy              =   -3650.38865173 Ry
     Harris-Foulkes estimate   =   -3650.38865173 Ry
     estimated scf accuracy    <       0.00000006 Ry

     iteration # 24     ecut=    40.00 Ry     beta= 0.40
     Davidson diagonalization with overlap
     ethr =  1.61E-12,  avg # of iterations =  1.0

     total cpu time spent up to now is     8546.9 secs

     total energy              =   -3650.38865172 Ry
     Harris-Foulkes estimate   =   -3650.38865172 Ry
     estimated scf accuracy    <       0.00000004 Ry

     iteration # 25     ecut=    40.00 Ry     beta= 0.40
     Davidson diagonalization with overlap
     ethr =  1.61E-12,  avg # of iterations =  3.0

     total cpu time spent up to now is     8854.8 secs

     total energy              =   -3650.38865172 Ry
     Harris-Foulkes estimate   =   -3650.38865172 Ry
     estimated scf accuracy    <          8.5E-09 Ry

     iteration # 26     ecut=    40.00 Ry     beta= 0.40
     Davidson diagonalization with overlap
     ethr =  1.61E-12,  avg # of iterations =  1.0

     total cpu time spent up to now is     9120.5 secs

     total energy              =   -3650.38865172 Ry
     Harris-Foulkes estimate   =   -3650.38865172 Ry
     estimated scf accuracy    <       0.00000001 Ry

     iteration # 27     ecut=    40.00 Ry     beta= 0.40
     Davidson diagonalization with overlap
     ethr =  1.61E-12,  avg # of iterations =  1.0

     total cpu time spent up to now is     9385.6 secs

     total energy              =   -3650.38865172 Ry
     Harris-Foulkes estimate   =   -3650.38865172 Ry
     estimated scf accuracy    <          6.5E-09 Ry

     iteration # 28     ecut=    40.00 Ry     beta= 0.40
     Davidson diagonalization with overlap
     ethr =  1.61E-12,  avg # of iterations =  1.0

     total cpu time spent up to now is     9649.9 secs

     total energy              =   -3650.38865172 Ry
     Harris-Foulkes estimate   =   -3650.38865172 Ry
     estimated scf accuracy    <          1.5E-09 Ry

     iteration # 29     ecut=    40.00 Ry     beta= 0.40
     Davidson diagonalization with overlap
     ethr =  5.27E-13,  avg # of iterations =  2.2

     total cpu time spent up to now is     9930.8 secs

     total energy              =   -3650.38865172 Ry
     Harris-Foulkes estimate   =   -3650.38865172 Ry
     estimated scf accuracy    <          7.4E-10 Ry

     iteration # 30     ecut=    40.00 Ry     beta= 0.40
     Davidson diagonalization with overlap
     ethr =  2.59E-13,  avg # of iterations =  3.3

     total cpu time spent up to now is    10221.9 secs

     total energy              =   -3650.38865172 Ry
     Harris-Foulkes estimate   =   -3650.38865172 Ry
     estimated scf accuracy    <          6.3E-10 Ry

     iteration # 31     ecut=    40.00 Ry     beta= 0.40
     Davidson diagonalization with overlap
     ethr =  2.21E-13,  avg # of iterations =  3.3

     total cpu time spent up to now is    10518.7 secs

     total energy              =   -3650.38865172 Ry
     Harris-Foulkes estimate   =   -3650.38865172 Ry
     estimated scf accuracy    <          1.2E-10 Ry

     iteration # 32     ecut=    40.00 Ry     beta= 0.40
     Davidson diagonalization with overlap
     ethr =  1.00E-13,  avg # of iterations =  3.8

     total cpu time spent up to now is    10834.8 secs

     total energy              =   -3650.38865172 Ry
     Harris-Foulkes estimate   =   -3650.38865172 Ry
     estimated scf accuracy    <          2.2E-12 Ry

     iteration # 33     ecut=    40.00 Ry     beta= 0.40
     Davidson diagonalization with overlap
     ethr =  1.00E-13,  avg # of iterations =  1.1

     total cpu time spent up to now is    11105.8 secs

     total energy              =   -3650.38865172 Ry
     Harris-Foulkes estimate   =   -3650.38865172 Ry
     estimated scf accuracy    <          9.8E-12 Ry

     iteration # 34     ecut=    40.00 Ry     beta= 0.40
     Davidson diagonalization with overlap
     ethr =  1.00E-13,  avg # of iterations =  1.0

     total cpu time spent up to now is    11370.5 secs

     total energy              =   -3650.38865171 Ry
     Harris-Foulkes estimate   =   -3650.38865171 Ry
     estimated scf accuracy    <          1.2E-12 Ry

     iteration # 35     ecut=    40.00 Ry     beta= 0.40
     Davidson diagonalization with overlap
     ethr =  1.00E-13,  avg # of iterations =  1.0

     total cpu time spent up to now is    11635.1 secs

     End of self-consistent calculation

          k = 0.0000 0.0000 0.0000 ( 46209 PWs)   bands (ev):

    -3.4443  -2.9289  -2.8536  -2.5011  -2.4570  -2.0333  -2.0242  -1.9076
    -1.7024  -1.3802  -1.2611  -1.1524  -1.0109  -0.6976  -0.6704  -0.5439
    -0.4887  -0.4433  -0.3458  -0.2984  -0.1713  -0.0929  -0.0579  -0.0154
     0.0032   0.2202   0.2441   0.2703   0.4418   0.4507   0.4751   0.4921
     0.6305   0.7484   0.7567   0.8621   0.9501   1.1403   1.1542   1.1869
     1.1920   1.2316   1.3151   1.6447   1.6542   1.8273   1.8628   1.9691
     2.0652   2.0860   2.1779   2.1963   2.3134   2.4295   2.6266   2.6272
     2.6458   2.6551   2.6920   2.6980   2.7547   2.7684   2.8679   2.8704
     2.9073   3.1533   3.2192   3.2362   3.2785   3.4521   3.4652   3.5494
     3.6329   3.6905   3.7825   3.9580   4.0090   4.5012   4.5172   4.5720
     4.6219   4.6507   4.7159   4.7714   4.8170   4.8474   4.8510   4.8551
     4.8693   4.8929   4.9280   5.0053   5.0058   5.0749   5.1022   5.2743
     5.3235   5.3333   5.3597   5.3675   5.4800   5.4924   5.5244   5.6969
     5.7262   5.7302   5.7944   5.8181   5.8291   6.1376   6.1739   6.2369
     6.2410   6.3271   6.3761   6.5166   6.6522   6.6792   6.7067   6.7153
     6.8077   6.8129   6.8162   6.8366   6.9558   6.9926   7.0333   7.0676
     7.0792   7.1353   7.1581   7.2863   7.3073   7.3298   7.3794   7.4395
     7.5322   7.5498   7.5642   7.6365   7.6426   7.6672   7.6907   7.7053
     7.7057   7.7393   7.7476   7.7757   7.8439   7.8485   7.8617   7.9257
     7.9277   7.9317   7.9475   7.9776   8.0494   8.0591   8.0861   8.1854
     8.4622   8.4811   8.5432   8.6133   8.6460   8.7345   8.7542   8.7602
     8.8305   8.8591   8.8689   8.9241   9.0111

     occupation numbers 
     1.0000   1.0000   1.0000   1.0000   1.0000   1.0000   1.0000   1.0000
     1.0000   1.0000   1.0000   1.0000   1.0000   1.0000   1.0000   1.0000
     1.0000   1.0000   1.0000   1.0000   1.0000   1.0000   1.0000   1.0000
     1.0000   1.0000   1.0000   1.0000   1.0000   1.0000   1.0000   1.0000
     1.0000   1.0000   1.0000   1.0000   1.0000   1.0000   1.0000   1.0000
     1.0000   1.0000   1.0000   1.0000   1.0000   1.0000   1.0000   1.0000
     1.0000   1.0000   1.0000   1.0000   1.0000   1.0000   1.0000   1.0000
     1.0000   1.0000   1.0000   1.0000   1.0000   1.0000   1.0000   1.0000
     1.0000   1.0000   1.0000   1.0000   1.0000   1.0000   1.0000   1.0000
     1.0000   1.0000   1.0000   1.0000   1.0000   1.0000   1.0000   1.0000
     1.0000   1.0000   1.0000   1.0000   1.0000   1.0000   1.0000   1.0000
     1.0000   1.0000   1.0000   1.0000   1.0000   1.0000   1.0000   1.0000
     1.0000   1.0000   1.0000   1.0000   1.0000   1.0000   1.0000   1.0000
     1.0000   1.0000   1.0000   1.0000   1.0000   1.0006   1.0008   1.0013
     1.0013   1.0024   1.0033   1.0076   1.0149   1.0167   1.0186   1.0192
     1.0263   1.0267   1.0269   1.0285   1.0350   1.0355   1.0346   1.0325
     1.0314   1.0234   1.0186   0.9707   0.9590   0.9451   0.9095   0.8573
     0.7579   0.7367   0.7189   0.6244   0.6160   0.5821   0.5494   0.5288
     0.5283   0.4809   0.4693   0.4298   0.3369   0.3309   0.3136   0.2346
     0.2323   0.2276   0.2096   0.1771   0.1090   0.1009   0.0798   0.0192
    -0.0355  -0.0353  -0.0331  -0.0286  -0.0261  -0.0194  -0.0179  -0.0175
    -0.0129  -0.0113  -0.0107  -0.0081  -0.0049

          k = 0.0000 0.0000 0.1500 ( 46254 PWs)   bands (ev):

    -3.4239  -3.0854  -2.6582  -2.4788  -2.4417  -2.1629  -2.0988  -1.7830
    -1.6419  -1.5910  -1.1602  -1.0026  -0.9471  -0.8929  -0.6973  -0.6745
    -0.5504  -0.3880  -0.3318  -0.2314  -0.2151  -0.0024  -0.0020   0.0213
     0.0765   0.2037   0.2591   0.3050   0.4112   0.4129   0.5817   0.6062
     0.6525   0.6670   0.7453   0.8771   0.8923   0.9930   1.0214   1.0691
     1.3156   1.3997   1.4345   1.5394   1.5445   1.7105   1.7395   1.7713
     2.0239   2.0719   2.1739   2.3123   2.3616   2.4190   2.4287   2.6211
     2.6482   2.6815   2.7264   2.8727   2.9055   2.9638   3.0516   3.0925
     3.1707   3.1718   3.2215   3.2510   3.2752   3.3832   3.4558   3.4972
     3.5329   3.7156   3.7579   3.9567   4.0043   4.2260   4.3206   4.3488
     4.3827   4.4022   4.5015   4.5835   4.6683   4.6793   4.8303   4.8494
     4.9366   5.0156   5.1321   5.1358   5.1563   5.2181   5.2313   5.2734
     5.2771   5.4292   5.4705   5.5025   5.5448   5.5852   5.5917   5.7086
     5.7593   5.8194   6.0244   6.0545   6.1097   6.1114   6.1718   6.2053
     6.2977   6.4253   6.4255   6.4512   6.4886   6.5265   6.5429   6.6497
     6.6844   6.7621   6.7701   6.8659   6.8774   6.9297   6.9956   7.0852
     7.0965   7.1293   7.1302   7.1491   7.1939   7.2722   7.3199   7.3661
     7.3988   7.4415   7.4575   7.4860   7.5059   7.5133   7.5883   7.5920
     7.6209   7.7132   7.7165   7.8144   7.9427   7.9428   8.0196   8.0344
     8.0591   8.1082   8.1485   8.1874   8.2239   8.2617   8.3299   8.3378
     8.3970   8.4396   8.4841   8.4881   8.5648   8.6329   8.7001   8.7254
     8.8247   8.8979   8.9355   8.9469   8.9687

     occupation numbers 
     1.0000   1.0000   1.0000   1.0000   1.0000   1.0000   1.0000   1.0000
     1.0000   1.0000   1.0000   1.0000   1.0000   1.0000   1.0000   1.0000
     1.0000   1.0000   1.0000   1.0000   1.0000   1.0000   1.0000   1.0000
     1.0000   1.0000   1.0000   1.0000   1.0000   1.0000   1.0000   1.0000
     1.0000   1.0000   1.0000   1.0000   1.0000   1.0000   1.0000   1.0000
     1.0000   1.0000   1.0000   1.0000   1.0000   1.0000   1.0000   1.0000
     1.0000   1.0000   1.0000   1.0000   1.0000   1.0000   1.0000   1.0000
     1.0000   1.0000   1.0000   1.0000   1.0000   1.0000   1.0000   1.0000
     1.0000   1.0000   1.0000   1.0000   1.0000   1.0000   1.0000   1.0000
     1.0000   1.0000   1.0000   1.0000   1.0000   1.0000   1.0000   1.0000
     1.0000   1.0000   1.0000   1.0000   1.0000   1.0000   1.0000   1.0000
     1.0000   1.0000   1.0000   1.0000   1.0000   1.0000   1.0000   1.0000
     1.0000   1.0000   1.0000   1.0000   1.0000   1.0000   1.0000   1.0000
     1.0000   1.0000   1.0002   1.0003   1.0005   1.0005   1.0008   1.0010
     1.0019   1.0045   1.0045   1.0052   1.0065   1.0080   1.0088   1.0147
     1.0170   1.0228   1.0234   1.0305   1.0313   1.0341   1.0354   1.0308
     1.0295   1.0245   1.0243   1.0206   1.0090   0.9779   0.9514   0.9198
     0.8938   0.8553   0.8397   0.8100   0.7882   0.7798   0.6884   0.6835
     0.6454   0.5177   0.5131   0.3765   0.2151   0.2150   0.1356   0.1221
     0.1009   0.0639   0.0385   0.0182   0.0026  -0.0102  -0.0258  -0.0271
    -0.0335  -0.0353  -0.0352  -0.0352  -0.0318  -0.0271  -0.0220  -0.0201
    -0.0132  -0.0093  -0.0076  -0.0071  -0.0063

          k = 0.0000 0.0000 0.3000 ( 46160 PWs)   bands (ev):

    -3.3689  -3.2248  -2.4456  -2.4078  -2.3883  -2.2813  -2.1942  -2.0398
    -1.4856  -1.4025  -1.1683  -1.0643  -0.9706  -0.9258  -0.9092  -0.6840
    -0.6235  -0.2586  -0.2412  -0.0858  -0.0469  -0.0388  -0.0012   0.0273
     0.0319   0.0818   0.2809   0.2838   0.4244   0.5430   0.5909   0.6091
     0.6973   0.7081   0.7892   0.8915   0.9098   0.9224   1.1119   1.1379
     1.2068   1.2078   1.3153   1.3699   1.5032   1.5745   1.6938   1.7231
     1.8269   2.0172   2.0491   2.1945   2.3730   2.6933   2.6969   2.7670
     2.8249   2.8556   2.9108   2.9156   2.9377   2.9627   3.0085   3.0797
     3.1432   3.2822   3.3317   3.3981   3.4437   3.5158   3.5461   3.5941
     3.6747   3.7315   3.7999   3.8399   3.9127   3.9353   3.9741   4.0486
     4.1485   4.1847   4.2313   4.2336   4.4786   4.6115   4.6467   4.7296
     4.8926   4.9012   4.9960   5.0404   5.0662   5.2740   5.6329   5.6973
     5.7041   5.7466   5.7552   5.8071   5.8263   5.8409   5.8861   5.9386
     5.9443   6.0056   6.0310   6.0473   6.0861   6.1319   6.1791   6.2056
     6.2473   6.2635   6.2832   6.3165   6.3416   6.4261   6.5510   6.5942
     6.6363   6.6387   6.7141   6.7212   6.7618   6.8080   6.8764   6.9380
     6.9972   7.0026   7.0147   7.0252   7.0809   7.0953   7.1202   7.2063
     7.2244   7.3752   7.3995   7.4151   7.4751   7.4803   7.5606   7.5857
     7.6788   7.7418   7.7701   7.8676   8.0029   8.0397   8.1547   8.1715
     8.2204   8.2485   8.2730   8.3206   8.3400   8.3498   8.3908   8.4403
     8.5179   8.5458   8.5732   8.5927   8.5963   8.6577   8.6838   8.7233
     8.7785   8.7834   8.8740   8.9403   8.9634

     occupation numbers 
     1.0000   1.0000   1.0000   1.0000   1.0000   1.0000   1.0000   1.0000
     1.0000   1.0000   1.0000   1.0000   1.0000   1.0000   1.0000   1.0000
     1.0000   1.0000   1.0000   1.0000   1.0000   1.0000   1.0000   1.0000
     1.0000   1.0000   1.0000   1.0000   1.0000   1.0000   1.0000   1.0000
     1.0000   1.0000   1.0000   1.0000   1.0000   1.0000   1.0000   1.0000
     1.0000   1.0000   1.0000   1.0000   1.0000   1.0000   1.0000   1.0000
     1.0000   1.0000   1.0000   1.0000   1.0000   1.0000   1.0000   1.0000
     1.0000   1.0000   1.0000   1.0000   1.0000   1.0000   1.0000   1.0000
     1.0000   1.0000   1.0000   1.0000   1.0000   1.0000   1.0000   1.0000
     1.0000   1.0000   1.0000   1.0000   1.0000   1.0000   1.0000   1.0000
     1.0000   1.0000   1.0000   1.0000   1.0000   1.0000   1.0000   1.0000
     1.0000   1.0000   1.0000   1.0000   1.0000   1.0000   1.0000   1.0000
     1.0000   1.0000   1.0000   1.0000   1.0000   1.0000   1.0001   1.0001
     1.0001   1.0002   1.0002   1.0003   1.0004   1.0006   1.0008   1.0010
     1.0014   1.0015   1.0018   1.0022   1.0026   1.0045   1.0091   1.0114
     1.0138   1.0140   1.0192   1.0197   1.0228   1.0263   1.0312   1.0344
     1.0354   1.0354   1.0352   1.0349   1.0312   1.0296   1.0261   1.0050
     0.9986   0.9128   0.8932   0.8797   0.8217   0.8162   0.7235   0.6917
     0.5660   0.4775   0.4376   0.3060   0.1515   0.1174   0.0350   0.0260
     0.0040  -0.0061  -0.0134  -0.0242  -0.0274  -0.0288  -0.0330  -0.0353
    -0.0342  -0.0329  -0.0313  -0.0300  -0.0298  -0.0252  -0.0232  -0.0202
    -0.0162  -0.0159  -0.0105  -0.0074  -0.0065

          k = 0.0000 0.1500 0.0000 ( 46247 PWs)   bands (ev):

    -3.4255  -2.9115  -2.8337  -2.4835  -2.4400  -2.0183  -2.0064  -1.8994
    -1.6809  -1.4992  -1.3461  -1.2740  -0.9410  -0.9040  -0.7050  -0.6315
    -0.5125  -0.4498  -0.3603  -0.2961  -0.1136  -0.0864  -0.0763   0.0168
     0.0442   0.0743   0.1859   0.3379   0.3803   0.4975   0.6153   0.6313
     0.6787   0.8771   0.8942   0.9109   0.9661   1.1420   1.1568   1.2177
     1.2324   1.4701   1.4741   1.5799   1.5959   1.6382   1.8121   1.8229
     1.8561   2.2889   2.3215   2.3984   2.4239   2.4282   2.5345   2.5861
     2.6376   2.6762   2.6874   2.7263   2.7425   2.7522   2.8323   2.9065
     2.9593   3.0019   3.1364   3.2674   3.3286   3.4260   3.5094   3.7326
     3.7638   3.8205   3.8536   4.1756   4.1919   4.3209   4.3551   4.3677
     4.3717   4.4364   4.4912   4.5378   4.5434   4.7096   4.8370   4.8578
     4.9625   4.9712   5.1455   5.1460   5.1706   5.1950   5.2431   5.2642
     5.3303   5.3519   5.3550   5.3779   5.4144   5.4152   5.5769   5.5803
     5.6025   5.7402   5.7516   5.8330   5.8465   5.8592   5.8985   5.9677
     6.0687   6.2564   6.4698   6.5097   6.5243   6.5260   6.5842   6.5935
     6.7099   6.7677   6.7766   6.9452   7.0255   7.0837   7.0958   7.0983
     7.1417   7.1550   7.1922   7.2476   7.2525   7.2891   7.3679   7.3845
     7.4120   7.4278   7.4465   7.5078   7.5544   7.5572   7.6522   7.7242
     7.8180   7.8626   7.9254   7.9291   7.9493   8.0264   8.0356   8.0611
     8.0658   8.1443   8.1504   8.1740   8.2143   8.2675   8.2700   8.3007
     8.3236   8.3761   8.4740   8.5191   8.5202   8.5405   8.5902   8.6970
     8.7317   8.7319   8.7393   8.7942   8.8943

     occupation numbers 
     1.0000   1.0000   1.0000   1.0000   1.0000   1.0000   1.0000   1.0000
     1.0000   1.0000   1.0000   1.0000   1.0000   1.0000   1.0000   1.0000
     1.0000   1.0000   1.0000   1.0000   1.0000   1.0000   1.0000   1.0000
     1.0000   1.0000   1.0000   1.0000   1.0000   1.0000   1.0000   1.0000
     1.0000   1.0000   1.0000   1.0000   1.0000   1.0000   1.0000   1.0000
     1.0000   1.0000   1.0000   1.0000   1.0000   1.0000   1.0000   1.0000
     1.0000   1.0000   1.0000   1.0000   1.0000   1.0000   1.0000   1.0000
     1.0000   1.0000   1.0000   1.0000   1.0000   1.0000   1.0000   1.0000
     1.0000   1.0000   1.0000   1.0000   1.0000   1.0000   1.0000   1.0000
     1.0000   1.0000   1.0000   1.0000   1.0000   1.0000   1.0000   1.0000
     1.0000   1.0000   1.0000   1.0000   1.0000   1.0000   1.0000   1.0000
     1.0000   1.0000   1.0000   1.0000   1.0000   1.0000   1.0000   1.0000
     1.0000   1.0000   1.0000   1.0000   1.0000   1.0000   1.0000   1.0000
     1.0000   1.0000   1.0000   1.0000   1.0000   1.0000   1.0001   1.0001
     1.0003   1.0015   1.0058   1.0073   1.0079   1.0080   1.0108   1.0113
     1.0189   1.0232   1.0239   1.0347   1.0349   1.0310   1.0296   1.0292
     1.0221   1.0193   1.0095   0.9892   0.9871   0.9692   0.9184   0.9055
     0.8824   0.8682   0.8506   0.7861   0.7311   0.7276   0.6029   0.5022
     0.3715   0.3124   0.2349   0.2307   0.2077   0.1293   0.1211   0.0993
     0.0955   0.0410   0.0375   0.0248   0.0064  -0.0119  -0.0126  -0.0202
    -0.0247  -0.0318  -0.0354  -0.0342  -0.0341  -0.0332  -0.0302  -0.0222
    -0.0196  -0.0196  -0.0190  -0.0152  -0.0094

          k = 0.0000 0.1500 0.1500 ( 46220 PWs)   bands (ev):

    -3.4053  -3.0660  -2.6410  -2.4609  -2.4252  -2.1475  -2.0794  -1.7757
    -1.6447  -1.5717  -1.4455  -1.1513  -0.9825  -0.7340  -0.6950  -0.6755
    -0.6104  -0.4877  -0.4555  -0.3237  -0.1984  -0.1688   0.0144   0.0853
     0.1414   0.2347   0.2892   0.4012   0.4377   0.4544   0.5693   0.6038
     0.7438   0.7728   0.8246   0.9756   1.0270   1.1096   1.1351   1.1515
     1.2782   1.2980   1.3510   1.4445   1.4585   1.8430   1.9117   1.9445
     2.1083   2.1378   2.1687   2.1924   2.3231   2.3549   2.4000   2.4324
     2.4473   2.6752   2.7861   2.8599   2.9080   2.9363   3.0014   3.0920
     3.2282   3.2416   3.2854   3.3634   3.3641   3.4208   3.5126   3.6524
     3.6732   3.7203   3.7480   4.0231   4.0780   4.1032   4.1365   4.1670
     4.4030   4.4524   4.6128   4.6729   4.7449   4.7569   4.8290   4.8319
     4.8468   4.9521   4.9642   5.0341   5.0345   5.1222   5.1479   5.1968
     5.2258   5.3040   5.3704   5.4089   5.4408   5.5455   5.6256   5.7121
     5.7655   5.8359   5.8614   5.9322   6.0339   6.0852   6.1369   6.1490
     6.1779   6.1975   6.3166   6.3594   6.4299   6.5202   6.5328   6.6074
     6.6095   6.6706   6.8657   6.8668   6.8979   6.9174   6.9728   7.0343
     7.0440   7.0941   7.1313   7.1690   7.3119   7.3463   7.3905   7.4309
     7.4379   7.4861   7.5354   7.5387   7.5762   7.6797   7.7298   7.7572
     7.8037   7.8192   7.8930   7.9021   7.9176   7.9680   7.9947   8.0302
     8.0515   8.1793   8.1860   8.1866   8.2002   8.2125   8.2499   8.3106
     8.3645   8.3666   8.4333   8.4499   8.5255   8.6034   8.6258   8.7019
     8.7159   8.8521   8.8615   8.9110   8.9867

     occupation numbers 
     1.0000   1.0000   1.0000   1.0000   1.0000   1.0000   1.0000   1.0000
     1.0000   1.0000   1.0000   1.0000   1.0000   1.0000   1.0000   1.0000
     1.0000   1.0000   1.0000   1.0000   1.0000   1.0000   1.0000   1.0000
     1.0000   1.0000   1.0000   1.0000   1.0000   1.0000   1.0000   1.0000
     1.0000   1.0000   1.0000   1.0000   1.0000   1.0000   1.0000   1.0000
     1.0000   1.0000   1.0000   1.0000   1.0000   1.0000   1.0000   1.0000
     1.0000   1.0000   1.0000   1.0000   1.0000   1.0000   1.0000   1.0000
     1.0000   1.0000   1.0000   1.0000   1.0000   1.0000   1.0000   1.0000
     1.0000   1.0000   1.0000   1.0000   1.0000   1.0000   1.0000   1.0000
     1.0000   1.0000   1.0000   1.0000   1.0000   1.0000   1.0000   1.0000
     1.0000   1.0000   1.0000   1.0000   1.0000   1.0000   1.0000   1.0000
     1.0000   1.0000   1.0000   1.0000   1.0000   1.0000   1.0000   1.0000
     1.0000   1.0000   1.0000   1.0000   1.0000   1.0000   1.0000   1.0000
     1.0000   1.0000   1.0001   1.0001   1.0002   1.0004   1.0006   1.0006
     1.0008   1.0009   1.0022   1.0030   1.0046   1.0078   1.0083   1.0121
     1.0122   1.0161   1.0305   1.0306   1.0325   1.0335   1.0353   1.0346
     1.0341   1.0298   1.0241   1.0159   0.9562   0.9340   0.9006   0.8654
     0.8588   0.8099   0.7541   0.7501   0.7038   0.5647   0.4943   0.4558
     0.3911   0.3700   0.2740   0.2628   0.2442   0.1873   0.1596   0.1259
     0.1073   0.0221   0.0189   0.0186   0.0124   0.0071  -0.0065  -0.0223
    -0.0306  -0.0308  -0.0351  -0.0354  -0.0339  -0.0293  -0.0276  -0.0218
    -0.0208  -0.0116  -0.0111  -0.0086  -0.0057

          k = 0.0000 0.1500 0.3000 ( 46177 PWs)   bands (ev):

    -3.3514  -3.2039  -2.4323  -2.3926  -2.3701  -2.2640  -2.1725  -2.0240
    -1.5248  -1.3871  -1.3558  -1.3134  -1.0124  -0.8952  -0.7286  -0.6102
    -0.4908  -0.4627  -0.4428  -0.3448  -0.3010  -0.2043  -0.0757   0.1457
     0.2950   0.3145   0.4078   0.4687   0.4907   0.5828   0.6265   0.6775
     0.7338   0.7556   0.7731   0.8335   0.9061   0.9398   1.0277   1.0617
     1.3052   1.3585   1.4355   1.4677   1.5881   1.7008   1.7101   1.8323
     1.8346   1.9726   2.0937   2.1637   2.3667   2.4706   2.4731   2.5710
     2.5797   2.6974   2.6989   2.9549   3.0558   3.1530   3.1560   3.2826
     3.2888   3.3210   3.3636   3.3956   3.4582   3.5293   3.5695   3.7062
[...]
     atom   12 type  1   force =     0.00000000    0.00000000    0.00000000
     atom   13 type  1   force =     0.00000000    0.00000000    0.00000000
     atom   14 type  1   force =     0.00000000    0.00000000    0.00000000
     atom   15 type  1   force =     0.00000000    0.00000000    0.00000000
     atom   16 type  1   force =     0.00000000    0.00000000    0.00000000
     atom   17 type  1   force =     0.00000000    0.00000000    0.00000000
     atom   18 type  1   force =     0.00000000    0.00000000    0.00000000
     atom   19 type  1   force =     0.00000000    0.00000000    0.00000000
     atom   20 type  1   force =     0.00000000    0.00000000    0.00000000
     atom   21 type  1   force =     0.00000000    0.00000000    0.00000000
     atom   22 type  1   force =     0.00000000    0.00000000    0.00000000
     atom   23 type  1   force =     0.00000000    0.00000000    0.00000000
     atom   24 type  1   force =     0.00000000    0.00000000    0.00000000
     atom   25 type  1   force =     0.00000000    0.00000000    0.00000000
     atom   26 type  1   force =     0.00000000    0.00000000    0.00000000
     atom   27 type  1   force =     0.00000000    0.00000000    0.00000000
     atom   28 type  1   force =     0.00000000    0.00000000    0.00000000
     atom   29 type  1   force =     0.00000000    0.00000000    0.00000000
     atom   30 type  1   force =     0.00000000    0.00000000    0.00000000
     atom   31 type  1   force =     0.00000000    0.00000000    0.00000000
     atom   32 type  1   force =     0.00000000    0.00000000    0.00000000
     atom   33 type  1   force =     0.00000000    0.00000000    0.00000000
     atom   34 type  1   force =     0.00000000    0.00000000    0.00000000
     atom   35 type  1   force =     0.00000000    0.00000000    0.00000000
     atom   36 type  1   force =     0.00000000    0.00000000    0.00000000
     atom   37 type  1   force =     0.00000000    0.00000000    0.00000000
     atom   38 type  2   force =     0.00000000    0.00000000    0.00000000
     atom   39 type  2   force =     0.00000000    0.00000000    0.00000000
     atom   40 type  1   force =     0.00000000    0.00000000    0.00000000
     atom   41 type  3   force =     0.00000000    0.00000000    0.00000000
     atom   42 type  3   force =     0.00000000    0.00000000    0.00000000
     atom   43 type  2   force =     0.00000000    0.00000000    0.00000000
     atom   44 type  2   force =     0.00000000    0.00000000    0.00000000
     atom   45 type  2   force =     0.00000000    0.00000000    0.00000000
     atom   46 type  3   force =     0.00000000    0.00000000    0.00000000
     atom   47 type  3   force =     0.00000000    0.00000000    0.00000000
     atom   48 type  1   force =     0.00000000    0.00000000    0.00000000
     atom   49 type  1   force =     0.00000000    0.00000000    0.00000000
     atom   50 type  1   force =     0.00000000    0.00000000    0.00000000
     atom   51 type  1   force =     0.00000000    0.00000000    0.00000000
     atom   52 type  1   force =     0.00000000    0.00000000    0.00000000
     atom   53 type  1   force =     0.00000000    0.00000000    0.00000000
     atom   54 type  1   force =     0.00000000    0.00000000    0.00000000
     atom   55 type  1   force =     0.00000000    0.00000000    0.00000000
     atom   56 type  1   force =     0.00000000    0.00000000    0.00000000
     atom   57 type  1   force =     0.00000000    0.00000000    0.00000000
     atom   58 type  1   force =     0.00000000    0.00000000    0.00000000
     atom   59 type  1   force =     0.00000000    0.00000000    0.00000000
     atom   60 type  1   force =     0.00000000    0.00000000    0.00000000
     atom   61 type  1   force =     0.00000000    0.00000000    0.00000000
     atom   62 type  1   force =     0.00000000    0.00000000    0.00000000
     atom   63 type  1   force =     0.00000000    0.00000000    0.00000000
     atom   64 type  1   force =     0.00000000    0.00000000    0.00000000
     atom   65 type  1   force =     0.00000000    0.00000000    0.00000000
     atom   66 type  1   force =     0.00000000    0.00000000    0.00000000
     atom   67 type  1   force =     0.00000000    0.00000000    0.00000000
     atom   68 type  1   force =     0.00000000    0.00000000    0.00000000
     atom   69 type  1   force =     0.00000000    0.00000000    0.00000000
     atom   70 type  1   force =     0.00000000    0.00000000    0.00000000
     atom   71 type  1   force =     0.00000000    0.00000000    0.00000000
     atom   72 type  1   force =     0.00000000    0.00000000    0.00000000
     atom   73 type  1   force =     0.00000000    0.00000000    0.00000000
     atom   74 type  1   force =     0.00000000    0.00000000    0.00000000
     atom   75 type  1   force =     0.00000000    0.00000000    0.00000000
     atom   76 type  1   force =     0.00000000    0.00000000    0.00000000
     atom   77 type  1   force =     0.00000000    0.00000000    0.00000000
     atom   78 type  1   force =     0.00000000    0.00000000    0.00000000
     atom   79 type  1   force =     0.00000000    0.00000000    0.00000000
     atom   80 type  1   force =     0.00000000    0.00000000    0.00000000
     atom   81 type  1   force =     0.00000000    0.00000000    0.00000000
     atom   82 type  1   force =     0.00000000    0.00000000    0.00000000
     atom   83 type  1   force =     0.00000000    0.00000000    0.00000000
     atom   84 type  1   force =     0.00000000    0.00000000    0.00000000
     atom   85 type  1   force =     0.00000000    0.00000000    0.00000000
     atom   86 type  1   force =     0.00000000    0.00000000    0.00000000
     atom   87 type  1   force =     0.00000000    0.00000000    0.00000000
     atom   88 type  1   force =     0.00000000    0.00000000    0.00000000
     atom   89 type  1   force =     0.00000000    0.00000000    0.00000000
     atom   90 type  1   force =     0.00000000    0.00000000    0.00000000
     atom   91 type  1   force =     0.00000000    0.00000000    0.00000000
     atom   92 type  1   force =     0.00000000    0.00000000    0.00000000
     atom   93 type  1   force =     0.00000000    0.00000000    0.00000000
     atom   94 type  1   force =     0.00000000    0.00000000    0.00000000
     atom   95 type  1   force =     0.00000000    0.00000000    0.00000000
     atom   96 type  1   force =     0.00000000    0.00000000    0.00000000
     The SCF correction term to forces
     atom    1 type  1   force =    -0.00000004   -0.00000003    0.00000000
     atom    2 type  1   force =     0.00000000    0.00000002   -0.00000001
     atom    3 type  1   force =    -0.00000004   -0.00000000   -0.00000006
     atom    4 type  1   force =     0.00000000   -0.00000002   -0.00000006
     atom    5 type  1   force =    -0.00000004   -0.00000000   -0.00000006
     atom    6 type  1   force =    -0.00000000   -0.00000003   -0.00000005
     atom    7 type  1   force =    -0.00000008   -0.00000001   -0.00000003
     atom    8 type  1   force =    -0.00000000   -0.00000000   -0.00000001
     atom    9 type  1   force =    -0.00000006    0.00000001    0.00000000
     atom   10 type  1   force =    -0.00000000   -0.00000004    0.00000001
     atom   11 type  1   force =    -0.00000009   -0.00000002    0.00000003
     atom   12 type  1   force =    -0.00000000   -0.00000000    0.00000002
     atom   13 type  1   force =    -0.00000006   -0.00000001    0.00000005
     atom   14 type  1   force =    -0.00000000   -0.00000004    0.00000005
     atom   15 type  1   force =    -0.00000005   -0.00000001    0.00000005
     atom   16 type  1   force =    -0.00000000   -0.00000003    0.00000006
     atom   17 type  1   force =    -0.00000001   -0.00000001    0.00000001
     atom   18 type  1   force =    -0.00000001   -0.00000002    0.00000000
     atom   19 type  1   force =    -0.00000001   -0.00000003   -0.00000009
     atom   20 type  1   force =    -0.00000003   -0.00000000   -0.00000008
     atom   21 type  1   force =    -0.00000005   -0.00000001   -0.00000009
     atom   22 type  1   force =    -0.00000006   -0.00000001    0.00000009
     atom   23 type  1   force =    -0.00000001   -0.00000004    0.00000009
     atom   24 type  1   force =    -0.00000003   -0.00000001    0.00000008
     atom   25 type  1   force =     0.00000005   -0.00000002   -0.00000000
     atom   26 type  1   force =     0.00000001   -0.00000002    0.00000000
     atom   27 type  1   force =     0.00000004   -0.00000001   -0.00000006
     atom   28 type  1   force =     0.00000003   -0.00000001   -0.00000007
     atom   29 type  1   force =     0.00000005   -0.00000001   -0.00000005
     atom   30 type  1   force =     0.00000005   -0.00000001   -0.00000008
     atom   31 type  1   force =     0.00000008   -0.00000002   -0.00000003
     atom   32 type  1   force =     0.00000006    0.00000001    0.00000000
     atom   33 type  1   force =     0.00000009   -0.00000002    0.00000003
     atom   34 type  1   force =     0.00000006   -0.00000000    0.00000005
     atom   35 type  1   force =     0.00000006   -0.00000002    0.00000008
     atom   36 type  1   force =     0.00000006   -0.00000002    0.00000005
     atom   37 type  1   force =     0.00000003   -0.00000001    0.00000007
     atom   38 type  2   force =    -0.00000003    0.00000001   -0.00000002
     atom   39 type  2   force =     0.00000003    0.00000001   -0.00000002
     atom   40 type  1   force =    -0.00000000    0.00000001   -0.00000007
     atom   41 type  3   force =     0.00000000    0.00000004   -0.00000008
     atom   42 type  3   force =    -0.00000012    0.00000004    0.00000000
     atom   43 type  2   force =     0.00000000    0.00000002   -0.00000000
     atom   44 type  2   force =    -0.00000004    0.00000001    0.00000002
     atom   45 type  2   force =     0.00000004    0.00000001    0.00000002
     atom   46 type  3   force =     0.00000012    0.00000004    0.00000000
     atom   47 type  3   force =     0.00000000    0.00000004    0.00000008
     atom   48 type  1   force =    -0.00000000    0.00000001    0.00000007
     atom   49 type  1   force =    -0.00000001    0.00000003   -0.00000001
     atom   50 type  1   force =    -0.00000000   -0.00000002   -0.00000001
     atom   51 type  1   force =    -0.00000002   -0.00000000   -0.00000005
     atom   52 type  1   force =    -0.00000000    0.00000002   -0.00000002
     atom   53 type  1   force =    -0.00000006    0.00000000   -0.00000005
     atom   54 type  1   force =     0.00000000    0.00000002   -0.00000003
     atom   55 type  1   force =    -0.00000007    0.00000001   -0.00000002
     atom   56 type  1   force =    -0.00000000    0.00000000   -0.00000001
     atom   57 type  1   force =    -0.00000012   -0.00000001    0.00000001
     atom   58 type  1   force =    -0.00000000    0.00000004    0.00000001
     atom   59 type  1   force =    -0.00000008    0.00000002    0.00000002
     atom   60 type  1   force =    -0.00000000    0.00000000    0.00000002
     atom   61 type  1   force =    -0.00000008    0.00000001    0.00000005
     atom   62 type  1   force =    -0.00000001    0.00000004    0.00000003
     atom   63 type  1   force =    -0.00000004    0.00000001    0.00000004
     atom   64 type  1   force =    -0.00000001    0.00000003    0.00000001
     atom   65 type  1   force =    -0.00000001    0.00000001    0.00000000
     atom   66 type  1   force =    -0.00000000    0.00000001    0.00000001
     atom   67 type  1   force =    -0.00000001    0.00000003   -0.00000008
     atom   68 type  1   force =    -0.00000001    0.00000001   -0.00000008
     atom   69 type  1   force =    -0.00000000   -0.00000001   -0.00000012
     atom   70 type  1   force =    -0.00000004    0.00000001   -0.00000008
     atom   71 type  1   force =    -0.00000000   -0.00000003   -0.00000005
     atom   72 type  1   force =    -0.00000008   -0.00000002   -0.00000006
     atom   73 type  1   force =     0.00000000   -0.00000001    0.00000000
     atom   74 type  1   force =    -0.00000007   -0.00000003    0.00000000
     atom   75 type  1   force =     0.00000000   -0.00000003    0.00000005
     atom   76 type  1   force =    -0.00000009   -0.00000002    0.00000006
     atom   77 type  1   force =     0.00000000   -0.00000001    0.00000012
     atom   78 type  1   force =    -0.00000004    0.00000001    0.00000007
     atom   79 type  1   force =    -0.00000001    0.00000003    0.00000008
     atom   80 type  1   force =    -0.00000001    0.00000001    0.00000007
     atom   81 type  1   force =     0.00000002    0.00000002   -0.00000001
     atom   82 type  1   force =     0.00000000    0.00000002   -0.00000000
     atom   83 type  1   force =     0.00000003    0.00000001   -0.00000005
     atom   84 type  1   force =     0.00000001    0.00000001   -0.00000007
     atom   85 type  1   force =     0.00000006    0.00000001   -0.00000005
     atom   86 type  1   force =     0.00000004    0.00000001   -0.00000007
     atom   87 type  1   force =     0.00000007    0.00000001   -0.00000001
     atom   88 type  1   force =     0.00000008   -0.00000001   -0.00000006
     atom   89 type  1   force =     0.00000011   -0.00000001    0.00000001
     atom   90 type  1   force =     0.00000007   -0.00000003    0.00000000
     atom   91 type  1   force =     0.00000008    0.00000002    0.00000002
     atom   92 type  1   force =     0.00000009   -0.00000002    0.00000006
     atom   93 type  1   force =     0.00000008    0.00000001    0.00000005
     atom   94 type  1   force =     0.00000005    0.00000002    0.00000007
     atom   95 type  1   force =     0.00000004    0.00000002    0.00000004
     atom   96 type  1   force =     0.00000002    0.00000001    0.00000006

     Total force =     0.001986     Total SCF correction =     0.000001


     Computing stress (Cartesian axis) and pressure

          total   stress  (Ry/bohr**3)                   (kbar)     P=   -1.77
   0.00000025  -0.00000000  -0.00000000          0.04     -0.00     -0.00
  -0.00000000  -0.00003929   0.00000001         -0.00     -5.78      0.00
  -0.00000000   0.00000001   0.00000292         -0.00      0.00      0.43

     kinetic stress (kbar)   1448.78     -0.00     -0.00
                               -0.00   1446.40      0.00
                               -0.00      0.00   1449.15

     local   stress (kbar)    523.77      0.00     -0.01
                                0.00    625.47     -0.01
                               -0.01     -0.01    538.22

     nonloc. stress (kbar)   1062.82      0.00     -0.00
                                0.00   1062.45      0.00
                               -0.00      0.00   1062.75

     hartree stress (kbar)     40.93     -0.00      0.01
                               -0.00     -4.97      0.00
                                0.01      0.00     34.40

     exc-cor stress (kbar)    627.29      0.00     -0.00
                                0.00    627.30     -0.00
                               -0.00     -0.00    627.29

     corecor stress (kbar)  -1399.95     -0.00      0.00
                               -0.00  -1399.87     -0.00
                                0.00     -0.00  -1399.94

     ewald   stress (kbar)  -2303.60     -0.00      0.01
                               -0.00  -2362.55      0.00
                                0.01      0.00  -2311.45

     hubbard stress (kbar)      0.00      0.00      0.00
                                0.00      0.00      0.00
                                0.00      0.00      0.00

     london  stress (kbar)      0.00      0.00      0.00
                                0.00      0.00      0.00
                                0.00      0.00      0.00

     DFT-D3  stress (kbar)      0.00      0.00      0.00
                                0.00      0.00      0.00
                                0.00      0.00      0.00

     XDM     stress (kbar)      0.00      0.00      0.00
                                0.00      0.00      0.00
                                0.00      0.00      0.00

     dft-nl  stress (kbar)      0.00      0.00      0.00
                                0.00      0.00      0.00
                                0.00      0.00      0.00

     TS-vdW  stress (kbar)      0.00      0.00      0.00
                                0.00      0.00      0.00
                                0.00      0.00      0.00



     Writing output data file aiida.save/
 
     init_run     :    202.79s CPU    204.10s WALL (       1 calls)
     electrons    :  11358.00s CPU  11428.96s WALL (       1 calls)
     forces       :     98.44s CPU     99.09s WALL (       1 calls)
     stress       :   1294.93s CPU   1300.75s WALL (       1 calls)

     Called by init_run:
     wfcinit      :    196.41s CPU    197.40s WALL (       1 calls)
     wfcinit:atom :      1.02s CPU      1.07s WALL (      44 calls)
     wfcinit:wfcr :    188.82s CPU    189.36s WALL (      44 calls)
     potinit      :      2.39s CPU      2.45s WALL (       1 calls)
     hinit0       :      2.97s CPU      3.01s WALL (       1 calls)

     Called by electrons:
     c_bands      :   9883.29s CPU   9931.00s WALL (      36 calls)
     sum_band     :   1415.85s CPU   1430.61s WALL (      36 calls)
     v_of_rho     :     18.90s CPU     19.87s WALL (      36 calls)
     v_h          :      2.14s CPU      2.14s WALL (      36 calls)
     v_xc         :     17.57s CPU     18.55s WALL (      38 calls)
     newd         :     15.36s CPU     22.32s WALL (      36 calls)
     PAW_pot      :     15.46s CPU     15.53s WALL (      36 calls)
     mix_rho      :      7.92s CPU      8.49s WALL (      36 calls)

     Called by c_bands:
     init_us_2    :    296.30s CPU    296.44s WALL (    3300 calls)
     cegterg      :   8357.41s CPU   8404.22s WALL (    1584 calls)

     Called by sum_band:
     sum_band:bec :      6.51s CPU      6.54s WALL (    1584 calls)
     addusdens    :     15.54s CPU     25.07s WALL (      36 calls)

     Called by *egterg:
     h_psi        :   5433.35s CPU   5452.16s WALL (    5839 calls)
     s_psi        :   1596.42s CPU   1596.61s WALL (    5839 calls)
     g_psi        :     16.36s CPU     16.37s WALL (    4211 calls)
     cdiaghg      :    407.59s CPU    416.16s WALL (    5751 calls)
     cegterg:over :    436.05s CPU    438.27s WALL (    4211 calls)
     cegterg:upda :    288.58s CPU    302.45s WALL (    4211 calls)
     cegterg:last :    171.02s CPU    171.27s WALL (    1656 calls)
     cdiaghg:chol :     21.36s CPU     22.04s WALL (    5751 calls)
     cdiaghg:inve :     10.57s CPU     10.64s WALL (    5751 calls)
     cdiaghg:para :     90.56s CPU     91.84s WALL (   11502 calls)

     Called by h_psi:
     h_psi:pot    :   5399.78s CPU   5417.91s WALL (    5839 calls)
     h_psi:calbec :   1538.37s CPU   1539.93s WALL (    5839 calls)
     vloc_psi     :   2277.98s CPU   2293.75s WALL (    5839 calls)
     add_vuspsi   :   1583.34s CPU   1584.17s WALL (    5839 calls)

     General routines
     calbec       :   2315.67s CPU   2319.75s WALL (    7643 calls)
     fft          :     20.34s CPU     21.27s WALL (     493 calls)
     ffts         :      2.28s CPU      2.31s WALL (     578 calls)
     fftw         :   2346.80s CPU   2363.48s WALL ( 1580186 calls)
     interpolate  :      1.72s CPU      1.76s WALL (      36 calls)
 
     Parallel routines
     fft_scatt_xy :    437.10s CPU    440.15s WALL ( 1581257 calls)
     fft_scatt_yz :    686.84s CPU    692.62s WALL ( 1581257 calls)

     PAW routines
     PAW_pot      :     15.46s CPU     15.53s WALL (      36 calls)
 
     PWSCF        :      3h37m CPU      3h38m WALL

 
   This run was terminated on:  17:51:24  22Feb2020            

=------------------------------------------------------------------------------=
   JOB DONE.
=------------------------------------------------------------------------------=
