begin
comment 96 atoms, species Al87Mg5Si4
lattice     22.9998549039     0.0000000000     0.0000000000
lattice      0.0000000000    15.3332442692     0.0000000000
lattice      0.0000000000     0.0000000000    30.6664655386
atom     11.4345112646     3.7734228951    30.6099617951   Al  0.0 0.0   -6.01299955e-05  4.23949968e-05  8.87499933e-06
atom      7.6139547669    15.2653049978    30.6099939949   Al  0.0 0.0    9.59999928e-06  9.08149932e-05  1.10099992e-05
atom     11.4234690343    15.2611696239     3.7387690137   Al  0.0 0.0   -9.59249928e-05  3.17599976e-05 -2.86749978e-05
atom      7.6138926673     3.7772224711     3.7463911656   Al  0.0 0.0    4.92499963e-06  1.06199992e-05 -2.16699984e-05
atom     11.4153247857     3.7603635775     7.5526417537   Al  0.0 0.0    1.01924992e-04  1.29499990e-06  2.60249980e-05
atom      7.6140513663    15.2557784579     7.5562849307   Al  0.0 0.0   -1.19199991e-05 -1.21599991e-05 -3.26449975e-05
atom     11.3703370695    15.2335099984    11.4128408014   Al  0.0 0.0    8.23999938e-05  5.47849959e-05  9.43999929e-05
atom      7.6133728705     3.7703064148    11.4085858282   Al  0.0 0.0    1.11549992e-05 -8.53499936e-05  1.01184992e-04
atom     11.3378014747     3.8222515871    15.2770326239   Al  0.0 0.0    4.75799964e-05 -7.90099941e-05 -5.56999958e-06
atom      7.6132670712    15.2588880383    15.2767313258   Al  0.0 0.0    1.11399992e-05 -1.18549991e-05 -3.49999974e-08
atom     11.3702220702    15.2336893973    19.1409576480   Al  0.0 0.0    8.13199939e-05  4.91599963e-05 -9.43299929e-05
atom      7.6133199709     3.7702949149    19.1449550228   Al  0.0 0.0    1.77499987e-06 -8.21249938e-05 -1.01354992e-04
atom     11.4152028865     3.7605820761    23.0011175960   Al  0.0 0.0    9.68999927e-05 -5.09499962e-06 -2.03599985e-05
atom      7.6136028691    15.2558612574    22.9970995213   Al  0.0 0.0   -5.74999957e-07 -1.14949991e-05  4.02299970e-05
atom     11.4231286365    15.2611696239    26.8151904346   Al  0.0 0.0   -9.04649932e-05  3.24649976e-05  1.02249992e-05
atom      7.6138788674     3.7772362711    26.8073566841   Al  0.0 0.0    2.39999982e-06  1.25149991e-05  1.01749992e-05
atom     19.1136177205     3.7676568315    30.6101388940   Al  0.0 0.0    4.64999965e-06 -5.33749960e-05  7.88999941e-06
atom     15.2675819835    15.2735780456    30.6100238947   Al  0.0 0.0   -1.71449987e-05  2.50349981e-05  8.05499939e-06
atom     19.1134889213    15.2684168782     3.7154241610   Al  0.0 0.0    1.28449990e-05  4.73999964e-06  1.02494992e-04
atom     15.2632189110     3.7706652125     3.7487141510   Al  0.0 0.0    6.72649949e-05 -3.88749971e-05 -1.27899990e-05
atom     15.2582969421    15.2332202002     7.4999950858   Al  0.0 0.0    9.19599931e-05  5.47899959e-05  6.94849948e-05
atom     15.2578300450    15.2333972991    23.0542771606   Al  0.0 0.0    9.71199927e-05  5.25799960e-05 -6.90049948e-05
atom     19.1133808220    15.2684444780    26.8388641853   Al  0.0 0.0    1.76349987e-05  5.41499959e-06 -1.18364991e-04
atom     15.2631890112     3.7708032116    26.8050796984   Al  0.0 0.0    6.93399948e-05 -4.12099969e-05  8.38999937e-06
atom      3.7934258689     3.7731284970    30.6099778950   Al  0.0 0.0    5.96049955e-05  5.91799956e-05  1.01849992e-05
atom     22.9600513550    15.2736102454    30.6101779937   Al  0.0 0.0    5.94999955e-06  2.13699984e-05  6.27499953e-06
atom      3.8046014984    15.2610247248     3.7382446170   Al  0.0 0.0    9.11999931e-05  3.04699977e-05 -6.99499947e-06
atom     22.9641867289     3.7706928123     3.7485646519   Al  0.0 0.0   -7.49599944e-05 -4.04099970e-05 -8.67499935e-06
atom      3.8121753506     3.7607177753     7.5519540580   Al  0.0 0.0   -9.25499930e-05 -1.86799986e-05  2.98449978e-05
atom     22.9695594951    15.2330914011     7.4993579898   Al  0.0 0.0   -1.02954992e-04  5.69199957e-05  7.02049947e-05
atom      3.8571170671    15.2335950979    11.4122014054   Al  0.0 0.0   -8.08799939e-05  4.94299963e-05  8.82249934e-05
atom      3.8887786674     3.8223320866    15.2766025266   Al  0.0 0.0   -3.82649971e-05 -7.40449944e-05  6.23499953e-06
atom      3.8566892698    15.2335720980    19.1407023496   Al  0.0 0.0   -6.83649949e-05  5.06749962e-05 -7.74549942e-05
atom      3.8122213504     3.7607200753    23.0016235928   Al  0.0 0.0   -9.49199929e-05 -1.49149989e-05 -2.53049981e-05
atom     22.9695663950    15.2331167009    23.0546221584   Al  0.0 0.0   -9.73399927e-05  5.92149955e-05 -6.29999953e-05
atom      3.8046221983    15.2609350254    26.8156550317   Al  0.0 0.0    9.04399932e-05  3.50049974e-05 -3.11999977e-06
atom     22.9643109282     3.7705778131    26.8055741953   Al  0.0 0.0   -7.67149942e-05 -3.60799973e-05 -7.92499940e-06
atom     15.3017091682     3.6877990353    11.4406752258   Mg  0.0 0.0    2.36149982e-05 -6.89049948e-05 -1.84699986e-05
atom     22.9257378715     3.6880405338    11.4396724321   Mg  0.0 0.0   -4.16149969e-05 -7.00199947e-05 -4.39999967e-07
atom     19.1132083231     3.8281349500     7.4552442681   Al  0.0 0.0    2.08649984e-05 -6.91349948e-05  2.36199982e-05
atom     19.1141996168    15.1567433827    10.9056365011   Si  0.0 0.0   -9.72499927e-06  1.41964989e-04 -5.17099961e-05
atom     14.7942541695    15.1526356086    15.2768647249   Si  0.0 0.0    1.21394991e-04  1.54454988e-04  9.29999930e-07
atom     19.1136890201     3.1137709566    15.2771522231   Mg  0.0 0.0    2.32299983e-05 -1.02624992e-04  3.39499974e-06
atom     15.3016079688     3.6878657349    19.1134659215   Mg  0.0 0.0    2.84699979e-05 -6.89649948e-05  1.73999987e-05
atom     22.9259816700     3.6879738342    19.1143583158   Mg  0.0 0.0   -4.56949966e-05 -6.55799951e-05 -1.69199987e-05
atom      0.4333103664    15.1526333086    15.2762230290   Si  0.0 0.0   -1.34599990e-04  1.72794987e-04  7.79499941e-06
atom     19.1138615190    15.1573689788    19.6496500389   Si  0.0 0.0   -7.29499945e-06  1.39344990e-04  3.12149977e-05
atom     19.1136706202     3.8283718485    23.0988968791   Al  0.0 0.0    5.55499958e-06 -6.67849950e-05 -1.95349985e-05
atom     11.4341754668    11.4270777115    30.6098444958   Al  0.0 0.0   -6.90149948e-05 -2.38349982e-05  1.42649989e-05
atom      7.6142031653     7.6011208478    30.6099525951   Al  0.0 0.0   -6.93499948e-06 -8.95799933e-05  7.10999947e-06
atom     11.4435157078     7.6075171075     3.7628774616   Al  0.0 0.0   -3.74999972e-06  1.09849992e-05 -7.09349947e-05
atom      7.6142652649    11.4232045360     3.7625623636   Al  0.0 0.0   -3.44499974e-06  1.28999990e-06 -6.58549951e-05
atom     11.4540864412    11.4390123363     7.5989174617   Al  0.0 0.0    9.47199929e-05 -4.87699963e-05  6.12649954e-05
atom      7.6139547669     7.6126529751     7.5957158819   Al  0.0 0.0    6.01499955e-06  2.21649983e-05 -2.04199985e-05
atom     11.4336809699     7.6428954843    11.4114355102   Al  0.0 0.0    5.11099962e-05 -5.13649961e-05 -1.00474992e-04
atom      7.6137937679    11.4369078495    11.4287429010   Al  0.0 0.0   -4.54999966e-06  4.43499967e-05  9.21999931e-05
atom     11.3846705791    11.3855215737    15.2769360245   Al  0.0 0.0   -2.63299980e-05  1.18564991e-04  9.09999932e-07
atom      7.6135936692     7.6155210570    15.2766899260   Al  0.0 0.0   -9.03999932e-06  4.86649963e-05  3.80999971e-06
atom     11.4335544707     7.6429276841    19.1424963383   Al  0.0 0.0    5.02849962e-05 -4.76899964e-05  9.44299929e-05
atom      7.6135499694    11.4371033483    19.1248048499   Al  0.0 0.0    3.54999973e-07  4.15749969e-05 -9.69549927e-05
atom     11.4538380427    11.4389479367    22.9547682884   Al  0.0 0.0    9.60099928e-05 -4.06699969e-05 -5.39249959e-05
atom      7.6137247683     7.6127679744    22.9577398696   Al  0.0 0.0    5.58499958e-06  2.05149985e-05  2.90499978e-05
atom     11.4434214084     7.6076321068    26.7909002879   Al  0.0 0.0   -3.35499975e-06  8.14499939e-06  6.07099954e-05
atom      7.6140950660    11.4232850355    26.7912038860   Al  0.0 0.0   -4.73999964e-06 -2.60999980e-06  5.38349960e-05
atom     19.1140018181    11.4434766081    30.6101641938   Al  0.0 0.0   -8.53999936e-06  2.76999979e-06  7.80999941e-06
atom     15.2598609322     7.5997891562    30.6100491945   Al  0.0 0.0   -1.94009985e-04 -5.48149959e-05  8.59999935e-06
atom     19.1136108206     7.6104380891     3.7020060457   Al  0.0 0.0    4.90999963e-06 -6.11499954e-05  5.03699962e-05
atom     15.2735458459    11.4387938376     3.7449260749   Al  0.0 0.0    6.08999954e-05  1.54549988e-05  7.28349945e-05
atom     19.1135533209    11.3849074776     7.5043006586   Al  0.0 0.0    9.01999932e-06  1.10434992e-04 -5.41549959e-05
atom     15.2666412894     7.6453518688     7.5664968663   Al  0.0 0.0   -9.70499927e-06 -6.61949950e-05  5.17999961e-06
atom     19.1134199218     7.7433542506    11.4742780138   Al  0.0 0.0    1.41099989e-05 -1.12949992e-04 -7.73699942e-05
atom     15.3079881286    11.5289095691    11.4532147467   Al  0.0 0.0    9.33499930e-06  5.68699957e-05 -5.28999960e-06
atom     19.1144457153    12.0176656858    15.2773155221   Al  0.0 0.0   -1.56549988e-05  9.23649931e-05 -5.01999962e-06
atom     15.3292606944     7.7361529960    15.2771959228   Al  0.0 0.0   -2.17049984e-05 -6.45349951e-05 -4.22499968e-06
atom     19.1135970206     7.7435175495    19.0798585335   Al  0.0 0.0    9.96499925e-06 -1.14344991e-04  7.64899943e-05
atom     15.3078225296    11.5292269671    19.1008988007   Al  0.0 0.0    1.26849990e-05  5.32549960e-05  2.96999978e-06
atom     19.1136062206    11.3851075763    23.0497668891   Al  0.0 0.0    7.28499945e-06  1.02169992e-04  6.13149954e-05
atom     15.2666251895     7.6453725687    22.9873774826   Al  0.0 0.0   -5.28999960e-06 -6.20199953e-05 -3.37499975e-06
atom     19.1137074199     7.6105024887    26.8522110011   Al  0.0 0.0    6.98499948e-06 -6.10349954e-05 -6.85499948e-05
atom     15.2736884450    11.4386673384    26.8089160742   Al  0.0 0.0    5.41849959e-05  2.12849984e-05 -8.08149939e-05
atom      3.7940767648    11.4269696122    30.6101871937   Al  0.0 0.0    6.45199952e-05 -2.80049979e-05  3.35999975e-06
atom     22.9679035055     7.5997454565    30.6100491945   Al  0.0 0.0    1.92154986e-04 -6.17599954e-05  1.09099992e-05
atom      3.7846307244     7.6075286074     3.7626497631   Al  0.0 0.0   -2.42999982e-06  8.91999933e-06 -7.67499942e-05
atom     22.9539080938    11.4385132394     3.7447213762   Al  0.0 0.0   -5.76049957e-05  2.60899980e-05  7.87599941e-05
atom      3.7739587917    11.4385730390     7.5983493653   Al  0.0 0.0   -9.34449930e-05 -2.52749981e-05  6.22549953e-05
atom     22.9609138496     7.6454208684     7.5660529691   Al  0.0 0.0   -1.03999992e-05 -6.98749947e-05  4.42499967e-06
atom      3.7938168665     7.6427643851    11.4106719150   Al  0.0 0.0   -4.52449966e-05 -4.21499968e-05 -7.76649942e-05
atom     22.9199143082    11.5286059710    11.4523108524   Al  0.0 0.0   -2.01949985e-05  5.24699961e-05 -2.15499984e-06
atom      3.8422085612    11.3858964713    15.2765059272   Al  0.0 0.0    4.75949964e-05  9.41249929e-05  4.09999969e-06
atom     22.8981932453     7.7362748952    15.2768785248   Al  0.0 0.0    1.32049990e-05 -7.47799944e-05  2.94999978e-06
atom      3.7938030665     7.6430932831    19.1424273388   Al  0.0 0.0   -4.89549963e-05 -4.77699964e-05  9.01249932e-05
atom     22.9197349094    11.5292154672    19.1013035982   Al  0.0 0.0   -1.64199988e-05  4.56499966e-05 -1.19999991e-06
atom      3.7739035921    11.4388168375    22.9551684858   Al  0.0 0.0   -9.46149929e-05 -3.17999976e-05 -5.93899955e-05
atom     22.9610725486     7.6457612662    22.9876373810   Al  0.0 0.0   -9.86499926e-06 -7.44599944e-05  2.59999980e-07
atom      3.7845433250     7.6075585072    26.7911187865   Al  0.0 0.0    8.64999935e-07  9.69499927e-06  6.61599950e-05
atom     22.9541495923    11.4385776390    26.8093944712   Al  0.0 0.0   -6.67799950e-05  2.71449980e-05 -9.13299931e-05
energy -1.825194181054064e+03
charge 0.0000
end
