begin
comment uuid: 8fe1d2ef-b4c1-40c5-a3de-0f30afae4332 
lattice 6.0512161272 0.0000000000 0.0000000000
lattice -3.0256080636 5.2405068900 0.0000000000
lattice 0.0000000000 0.0000000000 9.7481587793
atom   0.000000    3.493671   7.311119 Mg  0.0   0.0  0.0000000000  0.0000000000  0.0000000000
atom   3.025608    1.746836   2.437040 Mg  0.0   0.0  0.0000000000  0.0000000000  0.0000000000
energy 0.000000000000000
charge 0.000000000000000
end
begin
comment uuid: 170ea8fc-5957-4422-90bb-59088c56f58f 
lattice 6.0512161272 0.0000000000 0.0000000000
lattice -3.0256080636 5.2405068900 0.0000000000
lattice 0.0000000000 0.0000000000 9.7481587793
atom   0.000000    3.493671   7.311119 Mg  0.0   0.0  0.0000000000  0.0000000000  0.0000000000
atom   3.025608    1.746836   2.437040 Mg  0.0   0.0  0.0000000000  0.0000000000  0.0000000000
energy 0.000000000000000
charge 0.000000000000000
end
begin
comment uuid: da6c160b-531f-425a-8852-07d805419f47 
lattice 6.0512161272 0.0000000000 0.0000000000
lattice -3.0256080636 5.2405068900 0.0000000000
lattice 0.0000000000 0.0000000000 9.7481587793
atom   0.000000    3.493671   7.311119 Mg  0.0   0.0  0.0000000000  0.0000000000  0.0000000000
atom   3.025608    1.746836   2.437040 Mg  0.0   0.0  0.0000000000  0.0000000000  0.0000000000
energy 0.000000000000000
charge 0.000000000000000
end
