begin
comment uuid: fdcc790e-3740-472d-a2b3-86f982eb2777 
lattice 7.6370200257 0.0000000000 0.0000000000
lattice 0.0000000000 7.6370200257 0.0000000000
lattice 0.0000000000 0.0000000000 7.6370200257
atom   0.000000    0.000000   0.000000 Al  0.0   0.0  0.0000000000  0.0000000000  0.0000000000
atom   0.000000    3.818510   3.818510 Al  0.0   0.0  0.0000000000  0.0000000000  0.0000000000
atom   3.818510    0.000000   3.818510 Al  0.0   0.0  0.0000000000  0.0000000000  0.0000000000
atom   3.818510    3.818510   0.000000 Al  0.0   0.0  0.0000000000  0.0000000000  0.0000000000
energy 0.000000000000000
charge 0.000000000000000
end
begin
comment uuid: 4484a64e-472d-49ad-bac9-834a68854206 
lattice 7.6370200257 0.0000000000 0.0000000000
lattice 0.0000000000 7.6370200257 0.0000000000
lattice 0.0000000000 0.0000000000 7.6370200257
atom   0.000000    0.000000   0.000000 Al  0.0   0.0  0.0000000000  0.0000000000  0.0000000000
atom   0.000000    3.818510   3.818510 Al  0.0   0.0  0.0000000000  0.0000000000  0.0000000000
atom   3.818510    0.000000   3.818510 Al  0.0   0.0  0.0000000000  0.0000000000  0.0000000000
atom   3.818510    3.818510   0.000000 Al  0.0   0.0  0.0000000000  0.0000000000  0.0000000000
energy 0.000000000000000
charge 0.000000000000000
end
begin
comment uuid: 5bd6116e-907e-474e-b879-923eb27d0d58 
lattice 7.6370200257 0.0000000000 0.0000000000
lattice 0.0000000000 7.6370200257 0.0000000000
lattice 0.0000000000 0.0000000000 7.6370200257
atom   0.000000    0.000000   0.000000 Al  0.0   0.0  0.0000000000  0.0000000000  0.0000000000
atom   0.000000    3.818510   3.818510 Al  0.0   0.0  0.0000000000  0.0000000000  0.0000000000
atom   3.818510    0.000000   3.818510 Al  0.0   0.0  0.0000000000  0.0000000000  0.0000000000
atom   3.818510    3.818510   0.000000 Al  0.0   0.0  0.0000000000  0.0000000000  0.0000000000
energy 0.000000000000000
charge 0.000000000000000
end
