
     Program PWSCF v.6.3 starts on 22Feb2020 at  7:53:34 

     This program is part of the open-source Quantum ESPRESSO suite
     for quantum simulation of materials; please cite
         "P. Giannozzi et al., J. Phys.:Condens. Matter 21 395502 (2009);
         "P. Giannozzi et al., J. Phys.:Condens. Matter 29 465901 (2017);
          URL http://www.quantum-espresso.org", 
     in publications or presentations arising from this work. More details at
     http://www.quantum-espresso.org/quote

 *** WARNING: using old-style file format, will disappear from next version ***

     Parallel version (MPI & OpenMP), running on      36 processor cores
     Number of MPI processes:                36
     Threads/MPI process:                     1

     MPI processes distributed on     1 nodes
     K-points division:     npool     =       4
     R & G space division:  proc/nbgrp/npool/nimage =       9
     Reading input from aiida.in
Warning: card &IONS ignored
Warning: card   !PRESS_CONV_THR = 0.05                 ! JUST FOR VOLUME RELAXATIONS ignored
Warning: card / ignored

     Current dimensions of program PWSCF are:
     Max number of different atomic species (ntypx) = 10
     Max number of k-points (npk) =  40000
     Max angular momentum in pseudopotentials (lmaxx) =  3
               file Al.pbe-n-kjpaw_psl.1.0.0.UPF: wavefunction(s)  3S 3P renormalized
               file Mg.pbe-n-kjpaw_psl.0.3.0.UPF: wavefunction(s)  3S renormalized

     Subspace diagonalization in iterative solution of the eigenvalue problem:
     one sub-group per band group will be used
     scalapack distributed-memory algorithm (size of sub-group:  2*  2 procs)

 
     Parallelization info
     --------------------
     sticks:   dense  smooth     PW     G-vecs:    dense   smooth      PW
     Min        3324    1330    347               432816   109512   14645
     Max        3325    1331    348               432821   109515   14652
     Sum       29921   11977   3125              3895379   985619  131827
 


     bravais-lattice index     =            0
     lattice parameter (alat)  =      30.6665  a.u.
     unit-cell volume          =   28839.7502 (a.u.)^3
     number of atoms/cell      =          255
     number of atomic types    =            2
     number of electrons       =       764.00
     number of Kohn-Sham states=          458
     kinetic-energy cutoff     =      40.0000  Ry
     charge density cutoff     =     400.0000  Ry
     convergence threshold     =      1.0E-12
     mixing beta               =       0.4000
     number of iterations used =            8  local-TF  mixing
     Exchange-correlation      = SLA PW PBX PBC ( 1  4  3  4 0 0)

     celldm(1)=  30.666473  celldm(2)=   0.000000  celldm(3)=   0.000000
     celldm(4)=   0.000000  celldm(5)=   0.000000  celldm(6)=   0.000000

     crystal axes: (cart. coord. in units of alat)
               a(1) = (   1.000000   0.000000   0.000000 )  
               a(2) = (   0.000000   1.000000   0.000000 )  
               a(3) = (   0.000000   0.000000   1.000000 )  

     reciprocal axes: (cart. coord. in units 2 pi/alat)
               b(1) = (  1.000000  0.000000  0.000000 )  
               b(2) = (  0.000000  1.000000  0.000000 )  
               b(3) = (  0.000000  0.000000  1.000000 )  


     PseudoPot. # 1 for Al read from file:
     /users/aglensk/Dropbox/Albert/scripts/dotfiles/scripts/potentials/quantum_espresso/pseudo_SSSPefV1.1_alalloy/Al.pbe-n-kjpaw_psl.1.0.0.UPF
     MD5 check sum: cfc449ca30b5f3223ec38ddd88ac046d
     Pseudo is Projector augmented-wave + core cor, Zval =  3.0
     Generated using "atomic" code by A. Dal Corso v.5.1
     Shape of augmentation charge: PSQ
     Using radial grid of 1135 points,  6 beta functions with: 
                l(1) =   0
                l(2) =   0
                l(3) =   1
                l(4) =   1
                l(5) =   2
                l(6) =   2
     Q(r) pseudized with 0 coefficients 


     PseudoPot. # 2 for Mg read from file:
     /users/aglensk/Dropbox/Albert/scripts/dotfiles/scripts/potentials/quantum_espresso/pseudo_SSSPefV1.1_alalloy/Mg.pbe-n-kjpaw_psl.0.3.0.UPF
     MD5 check sum: 24ecedc7f3e3cbe212e682f4413594e4
     Pseudo is Projector augmented-wave + core cor, Zval =  2.0
     Generated using "atomic" code by A. Dal Corso v.5.0.99 svn rev. 10869
     Shape of augmentation charge: PSQ
     Using radial grid of 1129 points,  4 beta functions with: 
                l(1) =   0
                l(2) =   0
                l(3) =   1
                l(4) =   1
     Q(r) pseudized with 0 coefficients 


     atomic species   valence    mass     pseudopotential
        Al             3.00    26.98154     Al( 1.00)
        Mg             2.00    24.30500     Mg( 1.00)

     No symmetry found


                                    s                        frac. trans.

      isym =  1     identity                                     

 cryst.   s( 1) = (     1          0          0      )
                  (     0          1          0      )
                  (     0          0          1      )

 cart.    s( 1) = (  1.0000000  0.0000000  0.0000000 )
                  (  0.0000000  1.0000000  0.0000000 )
                  (  0.0000000  0.0000000  1.0000000 )


   Cartesian axes

     site n.     atom                  positions (alat units)
         1           Al  tau(   1) = (   0.1230455   0.9998118   0.1230455  )
         2           Al  tau(   2) = (   0.1226830   0.1213189   0.9985888  )
         3           Al  tau(   3) = (   0.9985888   0.1213189   0.1226830  )
         4           Al  tau(   4) = (   0.9997803   0.9994706   0.2499825  )
         5           Al  tau(   5) = (   0.1249350   0.1234046   0.2514863  )
         6           Al  tau(   6) = (   0.1249614   0.9995762   0.3754546  )
         7           Al  tau(   7) = (   0.9997592   0.1247347   0.3756331  )
         8           Al  tau(   8) = (   0.9999922   0.9999308   0.5000764  )
         9           Al  tau(   9) = (   0.1250358   0.1250233   0.5001833  )
        10           Al  tau(  10) = (   0.1249734   0.9999449   0.6249679  )
        11           Al  tau(  11) = (   0.9999734   0.1249484   0.6249635  )
        12           Al  tau(  12) = (   0.0000008   0.9999355   0.7501522  )
        13           Al  tau(  13) = (   0.1249248   0.1249098   0.7499239  )
        14           Al  tau(  14) = (   0.1228241   0.9995400   0.8766548  )
        15           Al  tau(  15) = (   0.9997123   0.1226575   0.8764624  )
        16           Al  tau(  16) = (   0.9983679   0.2498045   0.9983679  )
        17           Al  tau(  17) = (   0.1249735   0.3764683   0.9985628  )
        18           Mg  tau(  18) = (   0.1247835   0.2495287   0.1247835  )
        19           Al  tau(  19) = (   0.9985628   0.3764683   0.1249735  )
        20           Al  tau(  20) = (   0.9985147   0.2492515   0.2508110  )
        21           Al  tau(  21) = (   0.1249316   0.3763855   0.2514381  )
        22           Al  tau(  22) = (   0.1249318   0.2500073   0.3751033  )
        23           Al  tau(  23) = (   0.9997572   0.3751433   0.3754663  )
        24           Al  tau(  24) = (   0.9999899   0.2500295   0.5001734  )
        25           Al  tau(  25) = (   0.1250110   0.3750308   0.5001664  )
        26           Al  tau(  26) = (   0.1249245   0.2500056   0.6250823  )
        27           Al  tau(  27) = (   0.9999738   0.3749253   0.6251004  )
        28           Al  tau(  28) = (   0.9999990   0.2492236   0.7506029  )
        29           Al  tau(  29) = (   0.1249284   0.3749391   0.7498152  )
        30           Al  tau(  30) = (   0.1249123   0.2498754   0.8749538  )
        31           Al  tau(  31) = (   0.9997694   0.3752915   0.8744513  )
        32           Al  tau(  32) = (   0.9997715   0.5005462   0.9997715  )
        33           Al  tau(  33) = (   0.1249696   0.6251361   0.9999955  )
        34           Al  tau(  34) = (   0.1250314   0.5001705   0.1250314  )
        35           Al  tau(  35) = (   0.9999955   0.6251361   0.1249696  )
        36           Al  tau(  36) = (   0.9997665   0.5005624   0.2502525  )
        37           Al  tau(  37) = (   0.1249224   0.6252550   0.2500041  )
        38           Al  tau(  38) = (   0.1250111   0.5004041   0.3754259  )
        39           Al  tau(  39) = (   0.9999967   0.6251686   0.3749625  )
        40           Al  tau(  40) = (   0.9999981   0.5000588   0.5000659  )
        41           Al  tau(  41) = (   0.1250111   0.6250508   0.5000684  )
        42           Al  tau(  42) = (   0.1250099   0.5000465   0.6249795  )
        43           Al  tau(  43) = (   0.9999870   0.6251190   0.6251032  )
        44           Al  tau(  44) = (   0.9999918   0.5000709   0.7498972  )
        45           Al  tau(  45) = (   0.1249229   0.6251540   0.7499263  )
        46           Al  tau(  46) = (   0.1250369   0.5004105   0.8745553  )
        47           Al  tau(  47) = (   0.9999961   0.6250320   0.8749677  )
        48           Al  tau(  48) = (   0.9999827   0.7502283   0.9999827  )
        49           Al  tau(  49) = (   0.1228486   0.8770043   0.9999941  )
        50           Al  tau(  50) = (   0.1249131   0.7501259   0.1249131  )
        51           Al  tau(  51) = (   0.9999941   0.8770043   0.1228486  )
        52           Al  tau(  52) = (   0.9999738   0.7507764   0.2492331  )
        53           Al  tau(  53) = (   0.1249117   0.8748878   0.2499117  )
        54           Al  tau(  54) = (   0.1249244   0.7499911   0.3749743  )
        55           Al  tau(  55) = (   0.9999884   0.8749508   0.3750997  )
        56           Al  tau(  56) = (   0.9999871   0.7499780   0.5000168  )
        57           Al  tau(  57) = (   0.1250361   0.8748914   0.5000738  )
        58           Al  tau(  58) = (   0.1249218   0.7500030   0.6250846  )
        59           Al  tau(  59) = (   0.9999845   0.8750091   0.6249716  )
        60           Al  tau(  60) = (   0.9999882   0.7507912   0.7507720  )
        61           Al  tau(  61) = (   0.1249252   0.8750018   0.7500371  )
        62           Al  tau(  62) = (   0.1249172   0.7501077   0.8750416  )
        63           Al  tau(  63) = (   0.9999665   0.8770684   0.8771186  )
        64           Al  tau(  64) = (   0.2499825   0.9994706   0.9997803  )
        65           Al  tau(  65) = (   0.3756331   0.1247347   0.9997592  )
        66           Al  tau(  66) = (   0.3754546   0.9995762   0.1249614  )
        67           Al  tau(  67) = (   0.2514863   0.1234046   0.1249350  )
        68           Al  tau(  68) = (   0.2495181   0.9993841   0.2495181  )
        69           Al  tau(  69) = (   0.3754706   0.1247033   0.2502410  )
        70           Al  tau(  70) = (   0.3749453   0.9999610   0.3749453  )
        71           Al  tau(  71) = (   0.2502410   0.1247033   0.3754706  )
        72           Al  tau(  72) = (   0.2500315   0.9999380   0.5000629  )
        73           Al  tau(  73) = (   0.3750882   0.1250030   0.5000741  )
        74           Al  tau(  74) = (   0.3749126   0.9999815   0.6251050  )
        75           Al  tau(  75) = (   0.2500313   0.1248988   0.6250787  )
        76           Al  tau(  76) = (   0.2492146   0.9999250   0.7507215  )
        77           Al  tau(  77) = (   0.3749848   0.1249172   0.7499237  )
        78           Al  tau(  78) = (   0.3750740   0.9999469   0.8749899  )
        79           Al  tau(  79) = (   0.2501339   0.1246813   0.8745229  )
        80           Al  tau(  80) = (   0.2508110   0.2492515   0.9985147  )
        81           Al  tau(  81) = (   0.3754663   0.3751433   0.9997572  )
        82           Al  tau(  82) = (   0.3751033   0.2500073   0.1249318  )
        83           Al  tau(  83) = (   0.2514381   0.3763855   0.1249316  )
        84           Al  tau(  84) = (   0.2515692   0.2501714   0.2515692  )
        85           Al  tau(  85) = (   0.3755854   0.3752618   0.2502246  )
        86           Al  tau(  86) = (   0.3754306   0.2499843   0.3754306  )
        87           Al  tau(  87) = (   0.2502246   0.3752618   0.3755854  )
        88           Al  tau(  88) = (   0.2499944   0.2499823   0.5001653  )
        89           Al  tau(  89) = (   0.3750436   0.3749821   0.5000740  )
        90           Al  tau(  90) = (   0.3750683   0.2499808   0.6249852  )
        91           Al  tau(  91) = (   0.2500079   0.3750412   0.6249789  )
        92           Al  tau(  92) = (   0.2501488   0.2501481   0.7496864  )
        93           Al  tau(  93) = (   0.3750778   0.3750231   0.7499537  )
        94           Al  tau(  94) = (   0.3753205   0.2500098   0.8746675  )
        95           Al  tau(  95) = (   0.2502179   0.3751345   0.8745362  )
        96           Al  tau(  96) = (   0.2502525   0.5005624   0.9997665  )
        97           Al  tau(  97) = (   0.3749625   0.6251686   0.9999967  )
        98           Al  tau(  98) = (   0.3754259   0.5004041   0.1250111  )
        99           Al  tau(  99) = (   0.2500041   0.6252550   0.1249224  )
       100           Al  tau( 100) = (   0.2502201   0.5005695   0.2502201  )
       101           Al  tau( 101) = (   0.3750816   0.6250522   0.2499870  )
       102           Al  tau( 102) = (   0.3750300   0.5000532   0.3750300  )
       103           Al  tau( 103) = (   0.2499870   0.6250522   0.3750816  )
       104           Al  tau( 104) = (   0.2500586   0.5000622   0.5000689  )
       105           Al  tau( 105) = (   0.3749690   0.6250133   0.4999953  )
       106           Al  tau( 106) = (   0.3750015   0.5000229   0.6250148  )
       107           Al  tau( 107) = (   0.2499904   0.6250007   0.6249877  )
       108           Al  tau( 108) = (   0.2500006   0.5000636   0.7499409  )
       109           Al  tau( 109) = (   0.3750105   0.6249779   0.7500280  )
       110           Al  tau( 110) = (   0.3750647   0.5000477   0.8749378  )
       111           Al  tau( 111) = (   0.2500063   0.6251512   0.8750130  )
       112           Al  tau( 112) = (   0.2492331   0.7507764   0.9999738  )
       113           Al  tau( 113) = (   0.3750997   0.8749508   0.9999884  )
       114           Al  tau( 114) = (   0.3749743   0.7499911   0.1249244  )
       115           Al  tau( 115) = (   0.2499117   0.8748878   0.1249117  )
       116           Al  tau( 116) = (   0.2501659   0.7498549   0.2501659  )
       117           Al  tau( 117) = (   0.3749879   0.8749994   0.2500045  )
       118           Al  tau( 118) = (   0.3750309   0.7500243   0.3750309  )
       119           Al  tau( 119) = (   0.2500045   0.8749994   0.3749879  )
       120           Al  tau( 120) = (   0.2499989   0.7500145   0.5000183  )
       121           Al  tau( 121) = (   0.3750101   0.8750024   0.4999889  )
       122           Al  tau( 122) = (   0.3750481   0.7500156   0.6249809  )
       123           Al  tau( 123) = (   0.2500259   0.8750553   0.6250760  )
       124           Al  tau( 124) = (   0.2501642   0.7498562   0.7498398  )
       125           Al  tau( 125) = (   0.3749090   0.8750827   0.7500082  )
       126           Al  tau( 126) = (   0.3749361   0.7500011   0.8750526  )
       127           Al  tau( 127) = (   0.2498706   0.8750348   0.8750382  )
       128           Al  tau( 128) = (   0.5000764   0.9999308   0.9999922  )
       129           Al  tau( 129) = (   0.6249635   0.1249484   0.9999734  )
       130           Al  tau( 130) = (   0.6249679   0.9999449   0.1249734  )
       131           Al  tau( 131) = (   0.5001833   0.1250233   0.1250358  )
       132           Al  tau( 132) = (   0.5000629   0.9999380   0.2500315  )
       133           Al  tau( 133) = (   0.6250787   0.1248988   0.2500313  )
       134           Al  tau( 134) = (   0.6251050   0.9999815   0.3749126  )
       135           Al  tau( 135) = (   0.5000741   0.1250030   0.3750882  )
       136           Al  tau( 136) = (   0.4999973   0.0000050   0.4999973  )
       137           Al  tau( 137) = (   0.6249764   0.1249963   0.5000182  )
       138           Al  tau( 138) = (   0.6250954   0.9999703   0.6250954  )
       139           Al  tau( 139) = (   0.5000182   0.1249963   0.6249764  )
       140           Al  tau( 140) = (   0.4999896   0.0000075   0.7499804  )
       141           Al  tau( 141) = (   0.6250810   0.1249071   0.7499787  )
       142           Al  tau( 142) = (   0.6249752   0.9999863   0.8750109  )
       143           Al  tau( 143) = (   0.5000699   0.1250293   0.8748974  )
       144           Al  tau( 144) = (   0.5001734   0.2500295   0.9999899  )
       145           Al  tau( 145) = (   0.6251004   0.3749253   0.9999738  )
       146           Al  tau( 146) = (   0.6250823   0.2500056   0.1249245  )
       147           Al  tau( 147) = (   0.5001664   0.3750308   0.1250110  )
       148           Al  tau( 148) = (   0.5001653   0.2499823   0.2499944  )
       149           Al  tau( 149) = (   0.6249789   0.3750412   0.2500079  )
       150           Al  tau( 150) = (   0.6249852   0.2499808   0.3750683  )
       151           Al  tau( 151) = (   0.5000740   0.3749821   0.3750436  )
       152           Al  tau( 152) = (   0.5000727   0.2500582   0.5000727  )
       153           Al  tau( 153) = (   0.6250200   0.3749976   0.5000183  )
       154           Al  tau( 154) = (   0.6249804   0.2499800   0.6249804  )
       155           Al  tau( 155) = (   0.5000183   0.3749976   0.6250200  )
       156           Al  tau( 156) = (   0.5000692   0.2499864   0.7499441  )
       157           Al  tau( 157) = (   0.6249863   0.3750273   0.7500042  )
       158           Al  tau( 158) = (   0.6250838   0.2500022   0.8750234  )
       159           Al  tau( 159) = (   0.5000743   0.3750273   0.8749172  )
       160           Al  tau( 160) = (   0.5000659   0.5000588   0.9999981  )
       161           Al  tau( 161) = (   0.6251032   0.6251190   0.9999870  )
       162           Al  tau( 162) = (   0.6249795   0.5000465   0.1250099  )
       163           Al  tau( 163) = (   0.5000684   0.6250508   0.1250111  )
       164           Al  tau( 164) = (   0.5000689   0.5000622   0.2500586  )
       165           Al  tau( 165) = (   0.6249877   0.6250007   0.2499904  )
       166           Al  tau( 166) = (   0.6250148   0.5000229   0.3750015  )
       167           Al  tau( 167) = (   0.4999953   0.6250133   0.3749690  )
       168           Al  tau( 168) = (   0.4999892   0.4999890   0.4999892  )
       169           Al  tau( 169) = (   0.6250159   0.6250291   0.5000127  )
       170           Al  tau( 170) = (   0.6250225   0.5000235   0.6250225  )
       171           Al  tau( 171) = (   0.5000127   0.6250291   0.6250159  )
       172           Al  tau( 172) = (   0.4999963   0.4999972   0.7499456  )
       173           Al  tau( 173) = (   0.6249808   0.6249926   0.7500102  )
       174           Al  tau( 174) = (   0.6249762   0.5000175   0.8749735  )
       175           Al  tau( 175) = (   0.4999883   0.6249711   0.8750037  )
       176           Al  tau( 176) = (   0.5000168   0.7499780   0.9999871  )
       177           Al  tau( 177) = (   0.6249716   0.8750091   0.9999845  )
       178           Al  tau( 178) = (   0.6250846   0.7500030   0.1249218  )
       179           Al  tau( 179) = (   0.5000738   0.8748914   0.1250361  )
       180           Al  tau( 180) = (   0.5000183   0.7500145   0.2499989  )
       181           Al  tau( 181) = (   0.6250760   0.8750553   0.2500259  )
       182           Al  tau( 182) = (   0.6249809   0.7500156   0.3750481  )
       183           Al  tau( 183) = (   0.4999889   0.8750024   0.3750101  )
       184           Al  tau( 184) = (   0.5000060   0.7499441   0.5000060  )
       185           Al  tau( 185) = (   0.6249790   0.8749745   0.5000077  )
       186           Al  tau( 186) = (   0.6249874   0.7500228   0.6249874  )
       187           Al  tau( 187) = (   0.5000077   0.8749745   0.6249790  )
       188           Al  tau( 188) = (   0.5000137   0.7500100   0.7499999  )
       189           Al  tau( 189) = (   0.6250853   0.8750753   0.7499892  )
       190           Al  tau( 190) = (   0.6250791   0.7499961   0.8750519  )
       191           Al  tau( 191) = (   0.4999945   0.8749723   0.8749675  )
       192           Al  tau( 192) = (   0.7501522   0.9999355   0.0000008  )
       193           Al  tau( 193) = (   0.8764624   0.1226575   0.9997123  )
       194           Al  tau( 194) = (   0.8766548   0.9995400   0.1228241  )
       195           Al  tau( 195) = (   0.7499239   0.1249098   0.1249248  )
       196           Al  tau( 196) = (   0.7507215   0.9999250   0.2492146  )
       197           Al  tau( 197) = (   0.8745229   0.1246813   0.2501339  )
       198           Al  tau( 198) = (   0.8749899   0.9999469   0.3750740  )
       199           Al  tau( 199) = (   0.7499237   0.1249172   0.3749848  )
       200           Al  tau( 200) = (   0.7499804   0.0000075   0.4999896  )
       201           Al  tau( 201) = (   0.8748974   0.1250293   0.5000699  )
       202           Al  tau( 202) = (   0.8750109   0.9999863   0.6249752  )
       203           Al  tau( 203) = (   0.7499787   0.1249071   0.6250810  )
       204           Al  tau( 204) = (   0.7507966   0.0000170   0.7507966  )
       205           Al  tau( 205) = (   0.8750237   0.1249147   0.7500508  )
       206           Al  tau( 206) = (   0.8770361   0.9998732   0.8770361  )
       207           Al  tau( 207) = (   0.7500508   0.1249147   0.8750237  )
       208           Al  tau( 208) = (   0.7506029   0.2492236   0.9999990  )
       209           Al  tau( 209) = (   0.8744513   0.3752915   0.9997694  )
       210           Al  tau( 210) = (   0.8749538   0.2498754   0.1249123  )
       211           Al  tau( 211) = (   0.7498152   0.3749391   0.1249284  )
       212           Al  tau( 212) = (   0.7496864   0.2501481   0.2501488  )
       213           Al  tau( 213) = (   0.8745362   0.3751345   0.2502179  )
       214           Al  tau( 214) = (   0.8746675   0.2500098   0.3753205  )
       215           Al  tau( 215) = (   0.7499537   0.3750231   0.3750778  )
       216           Al  tau( 216) = (   0.7499441   0.2499864   0.5000692  )
       217           Al  tau( 217) = (   0.8749172   0.3750273   0.5000743  )
       218           Al  tau( 218) = (   0.8750234   0.2500022   0.6250838  )
       219           Al  tau( 219) = (   0.7500042   0.3750273   0.6249863  )
       220           Al  tau( 220) = (   0.7497850   0.2501367   0.7497850  )
       221           Al  tau( 221) = (   0.8750141   0.3749313   0.7499216  )
       222           Al  tau( 222) = (   0.8746212   0.2499260   0.8746212  )
       223           Al  tau( 223) = (   0.7499216   0.3749313   0.8750141  )
       224           Al  tau( 224) = (   0.7498972   0.5000709   0.9999918  )
       225           Al  tau( 225) = (   0.8749677   0.6250320   0.9999961  )
       226           Al  tau( 226) = (   0.8745553   0.5004105   0.1250369  )
       227           Al  tau( 227) = (   0.7499263   0.6251540   0.1249229  )
       228           Al  tau( 228) = (   0.7499409   0.5000636   0.2500006  )
       229           Al  tau( 229) = (   0.8750130   0.6251512   0.2500063  )
       230           Al  tau( 230) = (   0.8749378   0.5000477   0.3750647  )
       231           Al  tau( 231) = (   0.7500280   0.6249779   0.3750105  )
       232           Al  tau( 232) = (   0.7499456   0.4999972   0.4999963  )
       233           Al  tau( 233) = (   0.8750037   0.6249711   0.4999883  )
       234           Al  tau( 234) = (   0.8749735   0.5000175   0.6249762  )
       235           Al  tau( 235) = (   0.7500102   0.6249926   0.6249808  )
       236           Al  tau( 236) = (   0.7500220   0.4999901   0.7500220  )
       237           Al  tau( 237) = (   0.8750827   0.6250762   0.7500037  )
       238           Al  tau( 238) = (   0.8749190   0.5000495   0.8749190  )
       239           Al  tau( 239) = (   0.7500037   0.6250762   0.8750827  )
       240           Al  tau( 240) = (   0.7507720   0.7507912   0.9999882  )
       241           Al  tau( 241) = (   0.8771186   0.8770684   0.9999665  )
       242           Al  tau( 242) = (   0.8750416   0.7501077   0.1249172  )
       243           Al  tau( 243) = (   0.7500371   0.8750018   0.1249252  )
       244           Al  tau( 244) = (   0.7498398   0.7498562   0.2501642  )
       245           Al  tau( 245) = (   0.8750382   0.8750348   0.2498706  )
       246           Al  tau( 246) = (   0.8750526   0.7500011   0.3749361  )
       247           Al  tau( 247) = (   0.7500082   0.8750827   0.3749090  )
       248           Al  tau( 248) = (   0.7499999   0.7500100   0.5000137  )
       249           Al  tau( 249) = (   0.8749675   0.8749723   0.4999945  )
       250           Al  tau( 250) = (   0.8750519   0.7499961   0.6250791  )
       251           Al  tau( 251) = (   0.7499892   0.8750753   0.6250853  )
       252           Al  tau( 252) = (   0.7498495   0.7498581   0.7498495  )
       253           Al  tau( 253) = (   0.8750894   0.8750764   0.7501009  )
       254           Al  tau( 254) = (   0.8750699   0.7501069   0.8750699  )
       255           Al  tau( 255) = (   0.7501009   0.8750764   0.8750894  )

   Crystallographic axes

     site n.     atom                  positions (cryst. coord.)
         1           Al  tau(   1) = (  0.1230455  0.9998118  0.1230455  )
         2           Al  tau(   2) = (  0.1226830  0.1213189  0.9985888  )
         3           Al  tau(   3) = (  0.9985888  0.1213189  0.1226830  )
         4           Al  tau(   4) = (  0.9997803  0.9994706  0.2499825  )
         5           Al  tau(   5) = (  0.1249350  0.1234046  0.2514863  )
         6           Al  tau(   6) = (  0.1249614  0.9995762  0.3754546  )
         7           Al  tau(   7) = (  0.9997592  0.1247347  0.3756331  )
         8           Al  tau(   8) = (  0.9999922  0.9999308  0.5000764  )
         9           Al  tau(   9) = (  0.1250358  0.1250233  0.5001833  )
        10           Al  tau(  10) = (  0.1249734  0.9999449  0.6249679  )
        11           Al  tau(  11) = (  0.9999734  0.1249484  0.6249635  )
        12           Al  tau(  12) = (  0.0000008  0.9999355  0.7501522  )
        13           Al  tau(  13) = (  0.1249248  0.1249098  0.7499239  )
        14           Al  tau(  14) = (  0.1228241  0.9995400  0.8766548  )
        15           Al  tau(  15) = (  0.9997123  0.1226575  0.8764624  )
        16           Al  tau(  16) = (  0.9983679  0.2498045  0.9983679  )
        17           Al  tau(  17) = (  0.1249735  0.3764683  0.9985628  )
        18           Mg  tau(  18) = (  0.1247835  0.2495287  0.1247835  )
        19           Al  tau(  19) = (  0.9985628  0.3764683  0.1249735  )
        20           Al  tau(  20) = (  0.9985147  0.2492515  0.2508110  )
        21           Al  tau(  21) = (  0.1249316  0.3763855  0.2514381  )
        22           Al  tau(  22) = (  0.1249318  0.2500073  0.3751033  )
        23           Al  tau(  23) = (  0.9997572  0.3751433  0.3754663  )
        24           Al  tau(  24) = (  0.9999899  0.2500295  0.5001734  )
        25           Al  tau(  25) = (  0.1250110  0.3750308  0.5001664  )
        26           Al  tau(  26) = (  0.1249245  0.2500056  0.6250823  )
        27           Al  tau(  27) = (  0.9999738  0.3749253  0.6251004  )
        28           Al  tau(  28) = (  0.9999990  0.2492236  0.7506029  )
        29           Al  tau(  29) = (  0.1249284  0.3749391  0.7498152  )
        30           Al  tau(  30) = (  0.1249123  0.2498754  0.8749538  )
        31           Al  tau(  31) = (  0.9997694  0.3752915  0.8744513  )
        32           Al  tau(  32) = (  0.9997715  0.5005462  0.9997715  )
        33           Al  tau(  33) = (  0.1249696  0.6251361  0.9999955  )
        34           Al  tau(  34) = (  0.1250314  0.5001705  0.1250314  )
        35           Al  tau(  35) = (  0.9999955  0.6251361  0.1249696  )
        36           Al  tau(  36) = (  0.9997665  0.5005624  0.2502525  )
        37           Al  tau(  37) = (  0.1249224  0.6252550  0.2500041  )
        38           Al  tau(  38) = (  0.1250111  0.5004041  0.3754259  )
        39           Al  tau(  39) = (  0.9999967  0.6251686  0.3749625  )
        40           Al  tau(  40) = (  0.9999981  0.5000588  0.5000659  )
        41           Al  tau(  41) = (  0.1250111  0.6250508  0.5000684  )
        42           Al  tau(  42) = (  0.1250099  0.5000465  0.6249795  )
        43           Al  tau(  43) = (  0.9999870  0.6251190  0.6251032  )
        44           Al  tau(  44) = (  0.9999918  0.5000709  0.7498972  )
        45           Al  tau(  45) = (  0.1249229  0.6251540  0.7499263  )
        46           Al  tau(  46) = (  0.1250369  0.5004105  0.8745553  )
        47           Al  tau(  47) = (  0.9999961  0.6250320  0.8749677  )
        48           Al  tau(  48) = (  0.9999827  0.7502283  0.9999827  )
        49           Al  tau(  49) = (  0.1228486  0.8770043  0.9999941  )
        50           Al  tau(  50) = (  0.1249131  0.7501259  0.1249131  )
        51           Al  tau(  51) = (  0.9999941  0.8770043  0.1228486  )
        52           Al  tau(  52) = (  0.9999738  0.7507764  0.2492331  )
        53           Al  tau(  53) = (  0.1249117  0.8748878  0.2499117  )
        54           Al  tau(  54) = (  0.1249244  0.7499911  0.3749743  )
        55           Al  tau(  55) = (  0.9999884  0.8749508  0.3750997  )
        56           Al  tau(  56) = (  0.9999871  0.7499780  0.5000168  )
        57           Al  tau(  57) = (  0.1250361  0.8748914  0.5000738  )
        58           Al  tau(  58) = (  0.1249218  0.7500030  0.6250846  )
        59           Al  tau(  59) = (  0.9999845  0.8750091  0.6249716  )
        60           Al  tau(  60) = (  0.9999882  0.7507912  0.7507720  )
        61           Al  tau(  61) = (  0.1249252  0.8750018  0.7500371  )
        62           Al  tau(  62) = (  0.1249172  0.7501077  0.8750416  )
        63           Al  tau(  63) = (  0.9999665  0.8770684  0.8771186  )
        64           Al  tau(  64) = (  0.2499825  0.9994706  0.9997803  )
        65           Al  tau(  65) = (  0.3756331  0.1247347  0.9997592  )
        66           Al  tau(  66) = (  0.3754546  0.9995762  0.1249614  )
        67           Al  tau(  67) = (  0.2514863  0.1234046  0.1249350  )
        68           Al  tau(  68) = (  0.2495181  0.9993841  0.2495181  )
        69           Al  tau(  69) = (  0.3754706  0.1247033  0.2502410  )
        70           Al  tau(  70) = (  0.3749453  0.9999610  0.3749453  )
        71           Al  tau(  71) = (  0.2502410  0.1247033  0.3754706  )
        72           Al  tau(  72) = (  0.2500315  0.9999380  0.5000629  )
        73           Al  tau(  73) = (  0.3750882  0.1250030  0.5000741  )
        74           Al  tau(  74) = (  0.3749126  0.9999815  0.6251050  )
        75           Al  tau(  75) = (  0.2500313  0.1248988  0.6250787  )
        76           Al  tau(  76) = (  0.2492146  0.9999250  0.7507215  )
        77           Al  tau(  77) = (  0.3749848  0.1249172  0.7499237  )
        78           Al  tau(  78) = (  0.3750740  0.9999469  0.8749899  )
        79           Al  tau(  79) = (  0.2501339  0.1246813  0.8745229  )
        80           Al  tau(  80) = (  0.2508110  0.2492515  0.9985147  )
        81           Al  tau(  81) = (  0.3754663  0.3751433  0.9997572  )
        82           Al  tau(  82) = (  0.3751033  0.2500073  0.1249318  )
        83           Al  tau(  83) = (  0.2514381  0.3763855  0.1249316  )
        84           Al  tau(  84) = (  0.2515692  0.2501714  0.2515692  )
        85           Al  tau(  85) = (  0.3755854  0.3752618  0.2502246  )
        86           Al  tau(  86) = (  0.3754306  0.2499843  0.3754306  )
        87           Al  tau(  87) = (  0.2502246  0.3752618  0.3755854  )
        88           Al  tau(  88) = (  0.2499944  0.2499823  0.5001653  )
        89           Al  tau(  89) = (  0.3750436  0.3749821  0.5000740  )
        90           Al  tau(  90) = (  0.3750683  0.2499808  0.6249852  )
        91           Al  tau(  91) = (  0.2500079  0.3750412  0.6249789  )
        92           Al  tau(  92) = (  0.2501488  0.2501481  0.7496864  )
        93           Al  tau(  93) = (  0.3750778  0.3750231  0.7499537  )
        94           Al  tau(  94) = (  0.3753205  0.2500098  0.8746675  )
        95           Al  tau(  95) = (  0.2502179  0.3751345  0.8745362  )
        96           Al  tau(  96) = (  0.2502525  0.5005624  0.9997665  )
        97           Al  tau(  97) = (  0.3749625  0.6251686  0.9999967  )
        98           Al  tau(  98) = (  0.3754259  0.5004041  0.1250111  )
        99           Al  tau(  99) = (  0.2500041  0.6252550  0.1249224  )
       100           Al  tau( 100) = (  0.2502201  0.5005695  0.2502201  )
       101           Al  tau( 101) = (  0.3750816  0.6250522  0.2499870  )
       102           Al  tau( 102) = (  0.3750300  0.5000532  0.3750300  )
       103           Al  tau( 103) = (  0.2499870  0.6250522  0.3750816  )
       104           Al  tau( 104) = (  0.2500586  0.5000622  0.5000689  )
       105           Al  tau( 105) = (  0.3749690  0.6250133  0.4999953  )
       106           Al  tau( 106) = (  0.3750015  0.5000229  0.6250148  )
       107           Al  tau( 107) = (  0.2499904  0.6250007  0.6249877  )
       108           Al  tau( 108) = (  0.2500006  0.5000636  0.7499409  )
       109           Al  tau( 109) = (  0.3750105  0.6249779  0.7500280  )
       110           Al  tau( 110) = (  0.3750647  0.5000477  0.8749378  )
       111           Al  tau( 111) = (  0.2500063  0.6251512  0.8750130  )
       112           Al  tau( 112) = (  0.2492331  0.7507764  0.9999738  )
       113           Al  tau( 113) = (  0.3750997  0.8749508  0.9999884  )
       114           Al  tau( 114) = (  0.3749743  0.7499911  0.1249244  )
       115           Al  tau( 115) = (  0.2499117  0.8748878  0.1249117  )
       116           Al  tau( 116) = (  0.2501659  0.7498549  0.2501659  )
       117           Al  tau( 117) = (  0.3749879  0.8749994  0.2500045  )
       118           Al  tau( 118) = (  0.3750309  0.7500243  0.3750309  )
       119           Al  tau( 119) = (  0.2500045  0.8749994  0.3749879  )
       120           Al  tau( 120) = (  0.2499989  0.7500145  0.5000183  )
       121           Al  tau( 121) = (  0.3750101  0.8750024  0.4999889  )
       122           Al  tau( 122) = (  0.3750481  0.7500156  0.6249809  )
       123           Al  tau( 123) = (  0.2500259  0.8750553  0.6250760  )
       124           Al  tau( 124) = (  0.2501642  0.7498562  0.7498398  )
       125           Al  tau( 125) = (  0.3749090  0.8750827  0.7500082  )
       126           Al  tau( 126) = (  0.3749361  0.7500011  0.8750526  )
       127           Al  tau( 127) = (  0.2498706  0.8750348  0.8750382  )
       128           Al  tau( 128) = (  0.5000764  0.9999308  0.9999922  )
       129           Al  tau( 129) = (  0.6249635  0.1249484  0.9999734  )
       130           Al  tau( 130) = (  0.6249679  0.9999449  0.1249734  )
       131           Al  tau( 131) = (  0.5001833  0.1250233  0.1250358  )
       132           Al  tau( 132) = (  0.5000629  0.9999380  0.2500315  )
       133           Al  tau( 133) = (  0.6250787  0.1248988  0.2500313  )
       134           Al  tau( 134) = (  0.6251050  0.9999815  0.3749126  )
       135           Al  tau( 135) = (  0.5000741  0.1250030  0.3750882  )
       136           Al  tau( 136) = (  0.4999973  0.0000050  0.4999973  )
       137           Al  tau( 137) = (  0.6249764  0.1249963  0.5000182  )
       138           Al  tau( 138) = (  0.6250954  0.9999703  0.6250954  )
       139           Al  tau( 139) = (  0.5000182  0.1249963  0.6249764  )
       140           Al  tau( 140) = (  0.4999896  0.0000075  0.7499804  )
       141           Al  tau( 141) = (  0.6250810  0.1249071  0.7499787  )
       142           Al  tau( 142) = (  0.6249752  0.9999863  0.8750109  )
       143           Al  tau( 143) = (  0.5000699  0.1250293  0.8748974  )
       144           Al  tau( 144) = (  0.5001734  0.2500295  0.9999899  )
       145           Al  tau( 145) = (  0.6251004  0.3749253  0.9999738  )
       146           Al  tau( 146) = (  0.6250823  0.2500056  0.1249245  )
       147           Al  tau( 147) = (  0.5001664  0.3750308  0.1250110  )
       148           Al  tau( 148) = (  0.5001653  0.2499823  0.2499944  )
       149           Al  tau( 149) = (  0.6249789  0.3750412  0.2500079  )
       150           Al  tau( 150) = (  0.6249852  0.2499808  0.3750683  )
       151           Al  tau( 151) = (  0.5000740  0.3749821  0.3750436  )
       152           Al  tau( 152) = (  0.5000727  0.2500582  0.5000727  )
       153           Al  tau( 153) = (  0.6250200  0.3749976  0.5000183  )
       154           Al  tau( 154) = (  0.6249804  0.2499800  0.6249804  )
       155           Al  tau( 155) = (  0.5000183  0.3749976  0.6250200  )
       156           Al  tau( 156) = (  0.5000692  0.2499864  0.7499441  )
       157           Al  tau( 157) = (  0.6249863  0.3750273  0.7500042  )
       158           Al  tau( 158) = (  0.6250838  0.2500022  0.8750234  )
       159           Al  tau( 159) = (  0.5000743  0.3750273  0.8749172  )
       160           Al  tau( 160) = (  0.5000659  0.5000588  0.9999981  )
       161           Al  tau( 161) = (  0.6251032  0.6251190  0.9999870  )
       162           Al  tau( 162) = (  0.6249795  0.5000465  0.1250099  )
       163           Al  tau( 163) = (  0.5000684  0.6250508  0.1250111  )
       164           Al  tau( 164) = (  0.5000689  0.5000622  0.2500586  )
       165           Al  tau( 165) = (  0.6249877  0.6250007  0.2499904  )
       166           Al  tau( 166) = (  0.6250148  0.5000229  0.3750015  )
       167           Al  tau( 167) = (  0.4999953  0.6250133  0.3749690  )
       168           Al  tau( 168) = (  0.4999892  0.4999890  0.4999892  )
       169           Al  tau( 169) = (  0.6250159  0.6250291  0.5000127  )
       170           Al  tau( 170) = (  0.6250225  0.5000235  0.6250225  )
       171           Al  tau( 171) = (  0.5000127  0.6250291  0.6250159  )
       172           Al  tau( 172) = (  0.4999963  0.4999972  0.7499456  )
       173           Al  tau( 173) = (  0.6249808  0.6249926  0.7500102  )
       174           Al  tau( 174) = (  0.6249762  0.5000175  0.8749735  )
       175           Al  tau( 175) = (  0.4999883  0.6249711  0.8750037  )
       176           Al  tau( 176) = (  0.5000168  0.7499780  0.9999871  )
       177           Al  tau( 177) = (  0.6249716  0.8750091  0.9999845  )
       178           Al  tau( 178) = (  0.6250846  0.7500030  0.1249218  )
       179           Al  tau( 179) = (  0.5000738  0.8748914  0.1250361  )
       180           Al  tau( 180) = (  0.5000183  0.7500145  0.2499989  )
       181           Al  tau( 181) = (  0.6250760  0.8750553  0.2500259  )
       182           Al  tau( 182) = (  0.6249809  0.7500156  0.3750481  )
       183           Al  tau( 183) = (  0.4999889  0.8750024  0.3750101  )
       184           Al  tau( 184) = (  0.5000060  0.7499441  0.5000060  )
       185           Al  tau( 185) = (  0.6249790  0.8749745  0.5000077  )
       186           Al  tau( 186) = (  0.6249874  0.7500228  0.6249874  )
       187           Al  tau( 187) = (  0.5000077  0.8749745  0.6249790  )
       188           Al  tau( 188) = (  0.5000137  0.7500100  0.7499999  )
       189           Al  tau( 189) = (  0.6250853  0.8750753  0.7499892  )
       190           Al  tau( 190) = (  0.6250791  0.7499961  0.8750519  )
       191           Al  tau( 191) = (  0.4999945  0.8749723  0.8749675  )
       192           Al  tau( 192) = (  0.7501522  0.9999355  0.0000008  )
       193           Al  tau( 193) = (  0.8764624  0.1226575  0.9997123  )
       194           Al  tau( 194) = (  0.8766548  0.9995400  0.1228241  )
       195           Al  tau( 195) = (  0.7499239  0.1249098  0.1249248  )
       196           Al  tau( 196) = (  0.7507215  0.9999250  0.2492146  )
       197           Al  tau( 197) = (  0.8745229  0.1246813  0.2501339  )
       198           Al  tau( 198) = (  0.8749899  0.9999469  0.3750740  )
       199           Al  tau( 199) = (  0.7499237  0.1249172  0.3749848  )
       200           Al  tau( 200) = (  0.7499804  0.0000075  0.4999896  )
       201           Al  tau( 201) = (  0.8748974  0.1250293  0.5000699  )
       202           Al  tau( 202) = (  0.8750109  0.9999863  0.6249752  )
       203           Al  tau( 203) = (  0.7499787  0.1249071  0.6250810  )
       204           Al  tau( 204) = (  0.7507966  0.0000170  0.7507966  )
       205           Al  tau( 205) = (  0.8750237  0.1249147  0.7500508  )
       206           Al  tau( 206) = (  0.8770361  0.9998732  0.8770361  )
       207           Al  tau( 207) = (  0.7500508  0.1249147  0.8750237  )
       208           Al  tau( 208) = (  0.7506029  0.2492236  0.9999990  )
       209           Al  tau( 209) = (  0.8744513  0.3752915  0.9997694  )
       210           Al  tau( 210) = (  0.8749538  0.2498754  0.1249123  )
       211           Al  tau( 211) = (  0.7498152  0.3749391  0.1249284  )
       212           Al  tau( 212) = (  0.7496864  0.2501481  0.2501488  )
       213           Al  tau( 213) = (  0.8745362  0.3751345  0.2502179  )
       214           Al  tau( 214) = (  0.8746675  0.2500098  0.3753205  )
       215           Al  tau( 215) = (  0.7499537  0.3750231  0.3750778  )
       216           Al  tau( 216) = (  0.7499441  0.2499864  0.5000692  )
       217           Al  tau( 217) = (  0.8749172  0.3750273  0.5000743  )
       218           Al  tau( 218) = (  0.8750234  0.2500022  0.6250838  )
       219           Al  tau( 219) = (  0.7500042  0.3750273  0.6249863  )
       220           Al  tau( 220) = (  0.7497850  0.2501367  0.7497850  )
       221           Al  tau( 221) = (  0.8750141  0.3749313  0.7499216  )
       222           Al  tau( 222) = (  0.8746212  0.2499260  0.8746212  )
       223           Al  tau( 223) = (  0.7499216  0.3749313  0.8750141  )
       224           Al  tau( 224) = (  0.7498972  0.5000709  0.9999918  )
       225           Al  tau( 225) = (  0.8749677  0.6250320  0.9999961  )
       226           Al  tau( 226) = (  0.8745553  0.5004105  0.1250369  )
       227           Al  tau( 227) = (  0.7499263  0.6251540  0.1249229  )
       228           Al  tau( 228) = (  0.7499409  0.5000636  0.2500006  )
       229           Al  tau( 229) = (  0.8750130  0.6251512  0.2500063  )
       230           Al  tau( 230) = (  0.8749378  0.5000477  0.3750647  )
       231           Al  tau( 231) = (  0.7500280  0.6249779  0.3750105  )
       232           Al  tau( 232) = (  0.7499456  0.4999972  0.4999963  )
       233           Al  tau( 233) = (  0.8750037  0.6249711  0.4999883  )
       234           Al  tau( 234) = (  0.8749735  0.5000175  0.6249762  )
       235           Al  tau( 235) = (  0.7500102  0.6249926  0.6249808  )
       236           Al  tau( 236) = (  0.7500220  0.4999901  0.7500220  )
       237           Al  tau( 237) = (  0.8750827  0.6250762  0.7500037  )
       238           Al  tau( 238) = (  0.8749190  0.5000495  0.8749190  )
       239           Al  tau( 239) = (  0.7500037  0.6250762  0.8750827  )
       240           Al  tau( 240) = (  0.7507720  0.7507912  0.9999882  )
       241           Al  tau( 241) = (  0.8771186  0.8770684  0.9999665  )
       242           Al  tau( 242) = (  0.8750416  0.7501077  0.1249172  )
       243           Al  tau( 243) = (  0.7500371  0.8750018  0.1249252  )
       244           Al  tau( 244) = (  0.7498398  0.7498562  0.2501642  )
       245           Al  tau( 245) = (  0.8750382  0.8750348  0.2498706  )
       246           Al  tau( 246) = (  0.8750526  0.7500011  0.3749361  )
       247           Al  tau( 247) = (  0.7500082  0.8750827  0.3749090  )
       248           Al  tau( 248) = (  0.7499999  0.7500100  0.5000137  )
       249           Al  tau( 249) = (  0.8749675  0.8749723  0.4999945  )
       250           Al  tau( 250) = (  0.8750519  0.7499961  0.6250791  )
       251           Al  tau( 251) = (  0.7499892  0.8750753  0.6250853  )
       252           Al  tau( 252) = (  0.7498495  0.7498581  0.7498495  )
       253           Al  tau( 253) = (  0.8750894  0.8750764  0.7501009  )
       254           Al  tau( 254) = (  0.8750699  0.7501069  0.8750699  )
       255           Al  tau( 255) = (  0.7501009  0.8750764  0.8750894  )

     number of k points=    63  Methfessel-Paxton smearing, width (Ry)=  0.0441
                       cart. coord. in units 2pi/alat
        k(    1) = (   0.0000000   0.0000000   0.0000000), wk =   0.0160000
        k(    2) = (   0.0000000   0.0000000   0.2000000), wk =   0.0320000
        k(    3) = (   0.0000000   0.0000000   0.4000000), wk =   0.0320000
        k(    4) = (   0.0000000   0.2000000   0.0000000), wk =   0.0320000
        k(    5) = (   0.0000000   0.2000000   0.2000000), wk =   0.0320000
        k(    6) = (   0.0000000   0.2000000   0.4000000), wk =   0.0320000
        k(    7) = (   0.0000000   0.2000000  -0.4000000), wk =   0.0320000
        k(    8) = (   0.0000000   0.2000000  -0.2000000), wk =   0.0320000
        k(    9) = (   0.0000000   0.4000000   0.0000000), wk =   0.0320000
        k(   10) = (   0.0000000   0.4000000   0.2000000), wk =   0.0320000
        k(   11) = (   0.0000000   0.4000000   0.4000000), wk =   0.0320000
        k(   12) = (   0.0000000   0.4000000  -0.4000000), wk =   0.0320000
        k(   13) = (   0.0000000   0.4000000  -0.2000000), wk =   0.0320000
        k(   14) = (   0.2000000   0.0000000   0.0000000), wk =   0.0320000
        k(   15) = (   0.2000000   0.0000000   0.2000000), wk =   0.0320000
        k(   16) = (   0.2000000   0.0000000   0.4000000), wk =   0.0320000
        k(   17) = (   0.2000000   0.0000000  -0.4000000), wk =   0.0320000
        k(   18) = (   0.2000000   0.0000000  -0.2000000), wk =   0.0320000
        k(   19) = (   0.2000000   0.2000000   0.0000000), wk =   0.0320000
        k(   20) = (   0.2000000   0.2000000   0.2000000), wk =   0.0320000
        k(   21) = (   0.2000000   0.2000000   0.4000000), wk =   0.0320000
        k(   22) = (   0.2000000   0.2000000  -0.4000000), wk =   0.0320000
        k(   23) = (   0.2000000   0.2000000  -0.2000000), wk =   0.0320000
        k(   24) = (   0.2000000   0.4000000   0.0000000), wk =   0.0320000
        k(   25) = (   0.2000000   0.4000000   0.2000000), wk =   0.0320000
        k(   26) = (   0.2000000   0.4000000   0.4000000), wk =   0.0320000
        k(   27) = (   0.2000000   0.4000000  -0.4000000), wk =   0.0320000
        k(   28) = (   0.2000000   0.4000000  -0.2000000), wk =   0.0320000
        k(   29) = (   0.2000000  -0.4000000   0.0000000), wk =   0.0320000
        k(   30) = (   0.2000000  -0.4000000   0.2000000), wk =   0.0320000
        k(   31) = (   0.2000000  -0.4000000   0.4000000), wk =   0.0320000
        k(   32) = (   0.2000000  -0.4000000  -0.4000000), wk =   0.0320000
        k(   33) = (   0.2000000  -0.4000000  -0.2000000), wk =   0.0320000
        k(   34) = (   0.2000000  -0.2000000   0.0000000), wk =   0.0320000
        k(   35) = (   0.2000000  -0.2000000   0.2000000), wk =   0.0320000
        k(   36) = (   0.2000000  -0.2000000   0.4000000), wk =   0.0320000
        k(   37) = (   0.2000000  -0.2000000  -0.4000000), wk =   0.0320000
        k(   38) = (   0.2000000  -0.2000000  -0.2000000), wk =   0.0320000
        k(   39) = (   0.4000000   0.0000000   0.0000000), wk =   0.0320000
        k(   40) = (   0.4000000   0.0000000   0.2000000), wk =   0.0320000
        k(   41) = (   0.4000000   0.0000000   0.4000000), wk =   0.0320000
        k(   42) = (   0.4000000   0.0000000  -0.4000000), wk =   0.0320000
        k(   43) = (   0.4000000   0.0000000  -0.2000000), wk =   0.0320000
        k(   44) = (   0.4000000   0.2000000   0.0000000), wk =   0.0320000
        k(   45) = (   0.4000000   0.2000000   0.2000000), wk =   0.0320000
        k(   46) = (   0.4000000   0.2000000   0.4000000), wk =   0.0320000
        k(   47) = (   0.4000000   0.2000000  -0.4000000), wk =   0.0320000
        k(   48) = (   0.4000000   0.2000000  -0.2000000), wk =   0.0320000
        k(   49) = (   0.4000000   0.4000000   0.0000000), wk =   0.0320000
        k(   50) = (   0.4000000   0.4000000   0.2000000), wk =   0.0320000
        k(   51) = (   0.4000000   0.4000000   0.4000000), wk =   0.0320000
        k(   52) = (   0.4000000   0.4000000  -0.4000000), wk =   0.0320000
        k(   53) = (   0.4000000   0.4000000  -0.2000000), wk =   0.0320000
        k(   54) = (   0.4000000  -0.4000000   0.0000000), wk =   0.0320000
        k(   55) = (   0.4000000  -0.4000000   0.2000000), wk =   0.0320000
        k(   56) = (   0.4000000  -0.4000000   0.4000000), wk =   0.0320000
        k(   57) = (   0.4000000  -0.4000000  -0.4000000), wk =   0.0320000
        k(   58) = (   0.4000000  -0.4000000  -0.2000000), wk =   0.0320000
        k(   59) = (   0.4000000  -0.2000000   0.0000000), wk =   0.0320000
        k(   60) = (   0.4000000  -0.2000000   0.2000000), wk =   0.0320000
        k(   61) = (   0.4000000  -0.2000000   0.4000000), wk =   0.0320000
        k(   62) = (   0.4000000  -0.2000000  -0.4000000), wk =   0.0320000
        k(   63) = (   0.4000000  -0.2000000  -0.2000000), wk =   0.0320000

                       cryst. coord.
        k(    1) = (   0.0000000   0.0000000   0.0000000), wk =   0.0160000
        k(    2) = (   0.0000000   0.0000000   0.2000000), wk =   0.0320000
        k(    3) = (   0.0000000   0.0000000   0.4000000), wk =   0.0320000
        k(    4) = (   0.0000000   0.2000000   0.0000000), wk =   0.0320000
        k(    5) = (   0.0000000   0.2000000   0.2000000), wk =   0.0320000
        k(    6) = (   0.0000000   0.2000000   0.4000000), wk =   0.0320000
        k(    7) = (   0.0000000   0.2000000  -0.4000000), wk =   0.0320000
        k(    8) = (   0.0000000   0.2000000  -0.2000000), wk =   0.0320000
        k(    9) = (   0.0000000   0.4000000   0.0000000), wk =   0.0320000
        k(   10) = (   0.0000000   0.4000000   0.2000000), wk =   0.0320000
        k(   11) = (   0.0000000   0.4000000   0.4000000), wk =   0.0320000
        k(   12) = (   0.0000000   0.4000000  -0.4000000), wk =   0.0320000
        k(   13) = (   0.0000000   0.4000000  -0.2000000), wk =   0.0320000
        k(   14) = (   0.2000000   0.0000000   0.0000000), wk =   0.0320000
        k(   15) = (   0.2000000   0.0000000   0.2000000), wk =   0.0320000
        k(   16) = (   0.2000000   0.0000000   0.4000000), wk =   0.0320000
        k(   17) = (   0.2000000   0.0000000  -0.4000000), wk =   0.0320000
        k(   18) = (   0.2000000   0.0000000  -0.2000000), wk =   0.0320000
        k(   19) = (   0.2000000   0.2000000   0.0000000), wk =   0.0320000
        k(   20) = (   0.2000000   0.2000000   0.2000000), wk =   0.0320000
        k(   21) = (   0.2000000   0.2000000   0.4000000), wk =   0.0320000
        k(   22) = (   0.2000000   0.2000000  -0.4000000), wk =   0.0320000
        k(   23) = (   0.2000000   0.2000000  -0.2000000), wk =   0.0320000
        k(   24) = (   0.2000000   0.4000000   0.0000000), wk =   0.0320000
        k(   25) = (   0.2000000   0.4000000   0.2000000), wk =   0.0320000
        k(   26) = (   0.2000000   0.4000000   0.4000000), wk =   0.0320000
        k(   27) = (   0.2000000   0.4000000  -0.4000000), wk =   0.0320000
        k(   28) = (   0.2000000   0.4000000  -0.2000000), wk =   0.0320000
        k(   29) = (   0.2000000  -0.4000000   0.0000000), wk =   0.0320000
        k(   30) = (   0.2000000  -0.4000000   0.2000000), wk =   0.0320000
        k(   31) = (   0.2000000  -0.4000000   0.4000000), wk =   0.0320000
        k(   32) = (   0.2000000  -0.4000000  -0.4000000), wk =   0.0320000
        k(   33) = (   0.2000000  -0.4000000  -0.2000000), wk =   0.0320000
        k(   34) = (   0.2000000  -0.2000000   0.0000000), wk =   0.0320000
        k(   35) = (   0.2000000  -0.2000000   0.2000000), wk =   0.0320000
        k(   36) = (   0.2000000  -0.2000000   0.4000000), wk =   0.0320000
        k(   37) = (   0.2000000  -0.2000000  -0.4000000), wk =   0.0320000
        k(   38) = (   0.2000000  -0.2000000  -0.2000000), wk =   0.0320000
        k(   39) = (   0.4000000   0.0000000   0.0000000), wk =   0.0320000
        k(   40) = (   0.4000000   0.0000000   0.2000000), wk =   0.0320000
        k(   41) = (   0.4000000   0.0000000   0.4000000), wk =   0.0320000
        k(   42) = (   0.4000000   0.0000000  -0.4000000), wk =   0.0320000
        k(   43) = (   0.4000000   0.0000000  -0.2000000), wk =   0.0320000
        k(   44) = (   0.4000000   0.2000000   0.0000000), wk =   0.0320000
        k(   45) = (   0.4000000   0.2000000   0.2000000), wk =   0.0320000
        k(   46) = (   0.4000000   0.2000000   0.4000000), wk =   0.0320000
        k(   47) = (   0.4000000   0.2000000  -0.4000000), wk =   0.0320000
        k(   48) = (   0.4000000   0.2000000  -0.2000000), wk =   0.0320000
        k(   49) = (   0.4000000   0.4000000   0.0000000), wk =   0.0320000
        k(   50) = (   0.4000000   0.4000000   0.2000000), wk =   0.0320000
        k(   51) = (   0.4000000   0.4000000   0.4000000), wk =   0.0320000
        k(   52) = (   0.4000000   0.4000000  -0.4000000), wk =   0.0320000
        k(   53) = (   0.4000000   0.4000000  -0.2000000), wk =   0.0320000
        k(   54) = (   0.4000000  -0.4000000   0.0000000), wk =   0.0320000
        k(   55) = (   0.4000000  -0.4000000   0.2000000), wk =   0.0320000
        k(   56) = (   0.4000000  -0.4000000   0.4000000), wk =   0.0320000
        k(   57) = (   0.4000000  -0.4000000  -0.4000000), wk =   0.0320000
        k(   58) = (   0.4000000  -0.4000000  -0.2000000), wk =   0.0320000
        k(   59) = (   0.4000000  -0.2000000   0.0000000), wk =   0.0320000
        k(   60) = (   0.4000000  -0.2000000   0.2000000), wk =   0.0320000
        k(   61) = (   0.4000000  -0.2000000   0.4000000), wk =   0.0320000
        k(   62) = (   0.4000000  -0.2000000  -0.4000000), wk =   0.0320000
        k(   63) = (   0.4000000  -0.2000000  -0.2000000), wk =   0.0320000

     Dense  grid:  3895379 G-vectors     FFT dimensions: ( 200, 200, 200)

     Smooth grid:   985619 G-vectors     FFT dimensions: ( 125, 125, 125)

     Dynamical RAM for                 wfc:      95.67 MB

     Dynamical RAM for     wfc (w. buffer):    1626.32 MB

     Dynamical RAM for           str. fact:      13.21 MB

     Dynamical RAM for           local pot:       0.00 MB

     Dynamical RAM for          nlocal pot:     956.66 MB

     Dynamical RAM for                qrad:      15.65 MB

     Dynamical RAM for          rho,v,vnew:      40.87 MB

     Dynamical RAM for               rhoin:      13.62 MB

     Dynamical RAM for            rho*nmix:     105.67 MB

     Dynamical RAM for           G-vectors:      25.60 MB

     Dynamical RAM for          h,s,v(r/c):      38.41 MB

     Dynamical RAM for          <psi|beta>:      32.01 MB

     Dynamical RAM for                 psi:     382.66 MB

     Dynamical RAM for                hpsi:     382.66 MB

     Dynamical RAM for                spsi:     382.66 MB

     Dynamical RAM for      wfcinit/wfcrot:     449.93 MB

     Dynamical RAM for           addusdens:     731.43 MB

     Dynamical RAM for          addusforce:    1571.17 MB

     Dynamical RAM for         addusstress:     334.34 MB

     Estimated static dynamical RAM per process >       2.79 GB

     Estimated max dynamical RAM per process >       4.32 GB

     Estimated total dynamical RAM >     155.52 GB

     Initial potential from superposition of free atoms

     starting charge  763.41736, renormalised to  764.00000
     Starting wfcs are 1020 randomized atomic wfcs
