begin
comment 4 atoms, species Al4
lattice      7.6820149679     0.0000000000     0.0000000000
lattice      0.0000000000     7.6666816660     0.0000000000
lattice      0.0000000000     0.0000000000     7.6666816660
atom      7.6781977747     0.0000000000     0.0000000000   Al  0.0 0.0   -3.15999976e-06 -1.57499988e-06 -1.56999988e-06
atom      3.8371257618     3.8333093368     0.0000000000   Al  0.0 0.0    3.17999976e-06  1.56999988e-06 -1.56499988e-06
atom      3.8371257618     0.0000000000     3.8333093368   Al  0.0 0.0    3.17499976e-06 -1.56999988e-06  1.56499988e-06
atom      7.6781993111     3.8333093368     3.8333093368   Al  0.0 0.0   -3.19499976e-06  1.56999988e-06  1.56999988e-06
energy -7.900541028714231e+01
charge 0.0000
end
