begin
comment 22 atoms, species Al6Mg8Si8
lattice     27.4003777073     0.0000000000    -8.1576893095
lattice      0.0000000000     7.7886629638     0.0000000000
lattice      0.0000000000     0.0000000000    12.5708247190
atom      0.0386579970     0.0000000000    12.4156095163   Al  0.0 0.0   -3.89999971e-07  1.99999985e-08  9.99999925e-09
atom      2.0079115714     3.8943343408     3.6184251093   Mg  0.0 0.0   -4.41324967e-04 -4.49999966e-08 -3.40299974e-05
atom      4.2390429139     3.8943343408    10.0655395074   Mg  0.0 0.0   -8.15959939e-04  1.49999989e-08 -3.27114975e-04
atom      9.5385133938     0.0000000000    -1.8840841921   Mg  0.0 0.0    8.17519939e-04 -9.99999925e-09  3.27269975e-04
atom     11.7696704664     0.0000000000     4.5631159728   Mg  0.0 0.0    4.41044967e-04 -4.99999962e-08  3.44149974e-05
atom      1.6191302516     0.0000000000     7.7328172817   Si  0.0 0.0   -2.63674980e-04 -1.19999991e-07 -4.47099966e-05
atom      5.0363548097     0.0000000000     1.0934563960   Si  0.0 0.0    4.46369966e-04 -8.49999936e-08  4.22749968e-04
atom      6.0095259991     0.0000000000     5.8592338160   Al  0.0 0.0   -3.98079970e-04  1.49999989e-08 -5.94709955e-04
atom      7.7679531183     3.8943343408     2.3222243581   Al  0.0 0.0    3.97714970e-04 -1.99999985e-08  5.94444955e-04
atom      8.7410213875     3.8943343408     7.0879874836   Si  0.0 0.0   -4.46559966e-04  4.99999962e-09 -4.23169968e-04
atom     12.1583002647     3.8943343408     0.4487266593   Si  0.0 0.0    2.63564980e-04 -1.64999988e-07  4.49799966e-05
atom     13.7388525684     3.8943343408     8.3367705793   Al  0.0 0.0   -3.79999971e-07 -1.99999985e-08  0.00000000e+00
atom     15.7081061428     0.0000000000    -0.4604138277   Mg  0.0 0.0   -4.41424967e-04  3.99999970e-08 -3.39699974e-05
atom     17.9392374853     0.0000000000     5.9867005704   Mg  0.0 0.0   -8.16004939e-04  4.99999962e-09 -3.27174975e-04
atom     23.2387079652     3.8943343408    -5.9629231291   Mg  0.0 0.0    8.17494939e-04 -9.99999925e-09  3.27169975e-04
atom     25.4698650378     3.8943343408     0.4842798948   Mg  0.0 0.0    4.40914967e-04  5.49999959e-08  3.44999974e-05
atom     15.3193219641     3.8943343408     3.6539783447   Si  0.0 0.0   -2.63764980e-04  1.49999989e-07 -4.48649966e-05
atom     18.7365493812     3.8943343408    -2.9853825410   Si  0.0 0.0    4.46309966e-04 -1.99999985e-08  4.22764968e-04
atom     19.7097177117     3.8943343408     1.7803948790   Al  0.0 0.0   -3.98009970e-04  1.99999985e-08 -5.94649955e-04
atom     21.4681476898     0.0000000000    -1.7566117200   Al  0.0 0.0    3.97699970e-04 -1.99999985e-08  5.94469955e-04
atom     22.4412131000     0.0000000000     3.0091514055   Si  0.0 0.0   -4.46559966e-04  1.04999992e-07 -4.23199968e-04
atom     25.8584948361     0.0000000000    -3.6301122777   Si  0.0 0.0    2.63509980e-04  1.39999989e-07  4.48149966e-05
energy -2.986841098240343e+02
charge 0.0000
end
