begin
comment uuid: f3fa01d6-c4c2-41e8-a4f9-0bdf19d6b2f9 
lattice 7.5568642819 0.0000000000 0.0000000000
lattice 0.0000000000 7.5568642819 0.0000000000
lattice 0.0000000000 0.0000000000 7.5568642819
atom   0.000000    0.000000   0.000000 Al  0.0   0.0  -0.0000000050  -0.0000000050  0.0000000000
atom   0.000000    3.778432   3.778432 Al  0.0   0.0  0.0000000050  -0.0000000050  0.0000000000
atom   3.778432    0.000000   3.778432 Al  0.0   0.0  0.0000000000  0.0000000050  -0.0000000050
atom   3.778432    3.778432   0.000000 Al  0.0   0.0  0.0000000000  0.0000000000  0.0000000000
energy -79.005002025000010
charge 0.000000000000000
end
begin
comment uuid: e6e70d86-5a66-4a43-bd53-1e0c27762baa 
lattice 7.6331962444 0.0000000000 0.0000000000
lattice 0.0000000000 7.6331962444 0.0000000000
lattice 0.0000000000 0.0000000000 7.6331962444
atom   0.000000    0.000000   0.000000 Al  0.0   0.0  -0.0000000050  -0.0000000050  0.0000000000
atom   0.000000    3.816598   3.816598 Al  0.0   0.0  0.0000000050  -0.0000000050  0.0000000050
atom   3.816598    0.000000   3.816598 Al  0.0   0.0  0.0000000000  0.0000000050  -0.0000000050
atom   3.816598    3.816598   0.000000 Al  0.0   0.0  -0.0000000000  0.0000000000  0.0000000000
energy -79.005550755000030
charge 0.000000000000000
end
begin
comment uuid: ef82131e-e868-4da5-af2b-f2cd6e693404 
lattice 7.7095282068 0.0000000000 0.0000000000
lattice 0.0000000000 7.7095282068 0.0000000000
lattice 0.0000000000 0.0000000000 7.7095282068
atom   0.000000    0.000000   0.000000 Al  0.0   0.0  -0.0000000000  0.0000000000  -0.0000000000
atom   0.000000    3.854764   3.854764 Al  0.0   0.0  0.0000000000  -0.0000000050  0.0000000000
atom   3.854764    0.000000   3.854764 Al  0.0   0.0  -0.0000000000  0.0000000000  -0.0000000000
atom   3.854764    3.854764   0.000000 Al  0.0   0.0  -0.0000000000  -0.0000000000  0.0000000000
energy -79.005038395000028
charge 0.000000000000000
end
begin
comment uuid: d2ceed6f-2562-4a52-8c54-91af07c0829f 
lattice 7.6331962444 0.0000000000 0.0000000000
lattice 0.0000000000 7.6331962444 0.0076331962
lattice 0.0000000000 0.0076331962 7.6331962444
atom   0.000000    0.000000   0.000000 Al  0.0   0.0  -0.0000000050  -0.0000000050  0.0000000000
atom   0.000000    3.820415   3.820415 Al  0.0   0.0  0.0000000050  -0.0000000050  0.0000000050
atom   3.816598    0.003817   3.816598 Al  0.0   0.0  0.0000000000  0.0000000050  -0.0000000050
atom   3.816598    3.816598   0.003817 Al  0.0   0.0  -0.0000000000  0.0000000000  0.0000000000
energy -79.005549730000013
charge 0.000000000000000
end
