begin
comment 4 atoms, species Al4
lattice      7.5568642819     0.0000000000     0.0000000000
lattice      0.0000000000     7.5568642819     0.0000000000
lattice      0.0000000000     0.0000000000     7.5568642819
atom      0.0000000000     0.0000000000     0.0000000000   Al  0.0 0.0   -1.03569151e-14 -1.03412442e-14 -1.03379091e-14
atom     -0.0000000000     3.7784321410     3.7784321410   Al  0.0 0.0   -1.03677103e-14  1.03617508e-14  1.04394489e-14
atom      3.7784321410    -0.0000000000     3.7784321410   Al  0.0 0.0    1.03512477e-14 -1.03440441e-14  1.03098411e-14
atom      3.7784321410     3.7784321410    -0.0000000000   Al  0.0 0.0    1.03547561e-14  1.03512635e-14 -1.03788531e-14
energy -7.900406276166785e+01
charge 0.0000
end
begin
comment 4 atoms, species Al4
lattice      7.6331962444     0.0000000000     0.0000000000
lattice      0.0000000000     7.6331962444     0.0000000000
lattice      0.0000000000     0.0000000000     7.6331962444
atom      0.0000000000     0.0000000000     0.0000000000   Al  0.0 0.0    1.10614369e-13  1.10647816e-13  1.10710836e-13
atom     -0.0000000000     3.8165981222     3.8165981222   Al  0.0 0.0    1.10633800e-13 -1.10615210e-13 -1.10612190e-13
atom      3.8165981222    -0.0000000000     3.8165981222   Al  0.0 0.0   -1.10615988e-13  1.10601561e-13 -1.10693717e-13
atom      3.8165981222     3.8165981222    -0.0000000000   Al  0.0 0.0   -1.10632991e-13 -1.10597180e-13  1.10716386e-13
energy -7.900482169101606e+01
charge 0.0000
end
begin
comment 4 atoms, species Al4
lattice      7.7095282068     0.0000000000     0.0000000000
lattice      0.0000000000     7.7095282068     0.0000000000
lattice      0.0000000000     0.0000000000     7.7095282068
atom      0.0000000000     0.0000000000     0.0000000000   Al  0.0 0.0   -1.82356571e-13 -1.82346769e-13 -1.82306620e-13
atom     -0.0000000000     3.8547641034     3.8547641034   Al  0.0 0.0   -1.82362104e-13  1.82347187e-13  1.82403222e-13
atom      3.8547641034    -0.0000000000     3.8547641034   Al  0.0 0.0    1.82358460e-13 -1.82364066e-13  1.82345765e-13
atom      3.8547641034     3.8547641034    -0.0000000000   Al  0.0 0.0    1.82355222e-13  1.82357399e-13 -1.82372914e-13
energy -7.900447030555391e+01
charge 0.0000
end
begin
comment 4 atoms, species Al4
lattice      7.6331962444     0.0000000000     0.0000000000
lattice      0.0000000000     7.6331962444     0.0076331962
lattice      0.0000000000     0.0076331962     7.6331962444
atom      0.0000000000     0.0000000000     0.0000000000   Al  0.0 0.0    1.10723535e-13 -5.26169748e-14 -1.83741837e-13
atom     -0.0000000000     3.8204147203     3.8204147203   Al  0.0 0.0    1.10716653e-13  5.25812270e-14  1.83728560e-13
atom      3.8165981222     0.0038165981     3.8165981222   Al  0.0 0.0   -1.10721511e-13 -5.61109988e-14  1.84551559e-13
atom      3.8165981222     3.8165981222     0.0038165981   Al  0.0 0.0   -1.10728258e-13  5.61681063e-14 -1.84655622e-13
energy -7.900482057095303e+01
charge 0.0000
end
