
     Program PWSCF v.6.3 starts on 26Feb2020 at 10:33:42 

     This program is part of the open-source Quantum ESPRESSO suite
     for quantum simulation of materials; please cite
         "P. Giannozzi et al., J. Phys.:Condens. Matter 21 395502 (2009);
         "P. Giannozzi et al., J. Phys.:Condens. Matter 29 465901 (2017);
          URL http://www.quantum-espresso.org", 
     in publications or presentations arising from this work. More details at
     http://www.quantum-espresso.org/quote

 *** WARNING: using old-style file format, will disappear from next version ***

     Parallel version (MPI & OpenMP), running on     288 processor cores
     Number of MPI processes:               288
     Threads/MPI process:                     1

     MPI processes distributed on     8 nodes
     K-points division:     npool     =      36
     R & G space division:  proc/nbgrp/npool/nimage =       8
     Reading input from aiida.in
Warning: card &IONS ignored
Warning: card   !PRESS_CONV_THR = 0.05                 ! JUST FOR VOLUME RELAXATIONS ignored
Warning: card / ignored

     Current dimensions of program PWSCF are:
     Max number of different atomic species (ntypx) = 10
     Max number of k-points (npk) =  40000
     Max angular momentum in pseudopotentials (lmaxx) =  3
               file Al.pbe-n-kjpaw_psl.1.0.0.UPF: wavefunction(s)  3S 3P renormalized

     Subspace diagonalization in iterative solution of the eigenvalue problem:
     one sub-group per band group will be used
     scalapack distributed-memory algorithm (size of sub-group:  2*  2 procs)

 
     Parallelization info
     --------------------
     sticks:   dense  smooth     PW     G-vecs:    dense   smooth      PW
     Min        3740    1497    390               486920   123201   16474
     Max        3741    1498    391               486925   123204   16481
     Sum       29921   11977   3125              3895379   985619  131827
 


     bravais-lattice index     =            0
     lattice parameter (alat)  =      30.6665  a.u.
     unit-cell volume          =   28839.7502 (a.u.)^3
     number of atoms/cell      =          256
     number of atomic types    =            2
     number of electrons       =       770.00
     number of Kohn-Sham states=          462
     kinetic-energy cutoff     =      40.0000  Ry
     charge density cutoff     =     400.0000  Ry
     convergence threshold     =      1.0E-12
     mixing beta               =       0.4000
     number of iterations used =            8  local-TF  mixing
     Exchange-correlation      = SLA PW PBX PBC ( 1  4  3  4 0 0)

     celldm(1)=  30.666473  celldm(2)=   0.000000  celldm(3)=   0.000000
     celldm(4)=   0.000000  celldm(5)=   0.000000  celldm(6)=   0.000000

     crystal axes: (cart. coord. in units of alat)
               a(1) = (   1.000000   0.000000   0.000000 )  
               a(2) = (   0.000000   1.000000   0.000000 )  
               a(3) = (   0.000000   0.000000   1.000000 )  

     reciprocal axes: (cart. coord. in units 2 pi/alat)
               b(1) = (  1.000000  0.000000  0.000000 )  
               b(2) = (  0.000000  1.000000  0.000000 )  
               b(3) = (  0.000000  0.000000  1.000000 )  


     PseudoPot. # 1 for Si read from file:
     /users/aglensk/Dropbox/Albert/scripts/dotfiles/scripts/potentials/quantum_espresso/pseudo_SSSPefV1.1_alalloy/Si.pbe-n-rrkjus_psl.1.0.0.UPF
     MD5 check sum: 0b0bb1205258b0d07b9f9672cf965d36
     Pseudo is Ultrasoft + core correction, Zval =  4.0
     Generated using "atomic" code by A. Dal Corso v.5.1
     Using radial grid of 1141 points,  6 beta functions with: 
                l(1) =   0
                l(2) =   0
                l(3) =   1
                l(4) =   1
                l(5) =   2
                l(6) =   2
     Q(r) pseudized with 0 coefficients 


     PseudoPot. # 2 for Al read from file:
     /users/aglensk/Dropbox/Albert/scripts/dotfiles/scripts/potentials/quantum_espresso/pseudo_SSSPefV1.1_alalloy/Al.pbe-n-kjpaw_psl.1.0.0.UPF
     MD5 check sum: cfc449ca30b5f3223ec38ddd88ac046d
     Pseudo is Projector augmented-wave + core cor, Zval =  3.0
     Generated using "atomic" code by A. Dal Corso v.5.1
     Shape of augmentation charge: PSQ
     Using radial grid of 1135 points,  6 beta functions with: 
                l(1) =   0
                l(2) =   0
                l(3) =   1
                l(4) =   1
                l(5) =   2
                l(6) =   2
     Q(r) pseudized with 0 coefficients 


     atomic species   valence    mass     pseudopotential
        Si             4.00    28.08500     Si( 1.00)
        Al             3.00    26.98154     Al( 1.00)

     No symmetry found


                                    s                        frac. trans.

      isym =  1     identity                                     

 cryst.   s( 1) = (     1          0          0      )
                  (     0          1          0      )
                  (     0          0          1      )

 cart.    s( 1) = (  1.0000000  0.0000000  0.0000000 )
                  (  0.0000000  1.0000000  0.0000000 )
                  (  0.0000000  0.0000000  1.0000000 )


   Cartesian axes

     site n.     atom                  positions (alat units)
         1           Si  tau(   1) = (   0.0000000   0.0007000   0.0000000  )
         2           Al  tau(   2) = (   0.1241951   0.0001027   0.1241951  )
         3           Al  tau(   3) = (   0.1235482   0.1250000   0.0000000  )
         4           Al  tau(   4) = (   0.0000000   0.1250000   0.1235482  )
         5           Al  tau(   5) = (   0.0000000   0.0001246   0.2495510  )
         6           Al  tau(   6) = (   0.1249846   0.1250000   0.2498261  )
         7           Al  tau(   7) = (   0.1249850   0.0000163   0.3749458  )
         8           Al  tau(   8) = (   0.0000000   0.1250000   0.3748997  )
         9           Al  tau(   9) = (   0.0000000   0.0000193   0.5000000  )
        10           Al  tau(  10) = (   0.1250159   0.1250000   0.5000000  )
        11           Al  tau(  11) = (   0.1249850   0.0000163   0.6250542  )
        12           Al  tau(  12) = (   0.0000000   0.1250000   0.6251003  )
        13           Al  tau(  13) = (   0.0000000   0.0001246   0.7504490  )
        14           Al  tau(  14) = (   0.1249846   0.1250000   0.7501739  )
        15           Al  tau(  15) = (   0.1241951   0.0001027   0.8758049  )
        16           Al  tau(  16) = (   0.0000000   0.1250000   0.8764518  )
        17           Si  tau(  17) = (   0.0000000   0.2493000   0.0000000  )
        18           Al  tau(  18) = (   0.1242410   0.3742166   0.0000000  )
        19           Al  tau(  19) = (   0.1241951   0.2498973   0.1241951  )
        20           Al  tau(  20) = (   0.0000000   0.3742166   0.1242410  )
        21           Al  tau(  21) = (   0.0000000   0.2498754   0.2495510  )
        22           Al  tau(  22) = (   0.1249881   0.3749900   0.2499021  )
        23           Al  tau(  23) = (   0.1249850   0.2499837   0.3749458  )
        24           Al  tau(  24) = (   0.0000000   0.3750033   0.3749567  )
        25           Al  tau(  25) = (   0.0000000   0.2499807   0.5000000  )
        26           Al  tau(  26) = (   0.1250079   0.3750194   0.5000000  )
        27           Al  tau(  27) = (   0.1249850   0.2499837   0.6250542  )
        28           Al  tau(  28) = (   0.0000000   0.3750033   0.6250433  )
        29           Al  tau(  29) = (   0.0000000   0.2498754   0.7504490  )
        30           Al  tau(  30) = (   0.1249881   0.3749900   0.7500980  )
        31           Al  tau(  31) = (   0.1241951   0.2498973   0.8758049  )
        32           Al  tau(  32) = (   0.0000000   0.3742166   0.8757590  )
        33           Al  tau(  33) = (   0.0000000   0.4996628   0.0000000  )
        34           Al  tau(  34) = (   0.1249851   0.6250000   0.0000000  )
        35           Al  tau(  35) = (   0.1249977   0.4999219   0.1249977  )
        36           Al  tau(  36) = (   0.0000000   0.6250000   0.1249851  )
        37           Al  tau(  37) = (   0.0000000   0.4998662   0.2498465  )
        38           Al  tau(  38) = (   0.1249768   0.6250000   0.2499697  )
        39           Al  tau(  39) = (   0.1249886   0.4999820   0.3750046  )
        40           Al  tau(  40) = (   0.0000000   0.6250000   0.3750251  )
        41           Al  tau(  41) = (   0.0000000   0.4999814   0.5000000  )
        42           Al  tau(  42) = (   0.1250037   0.6250000   0.5000000  )
        43           Al  tau(  43) = (   0.1249886   0.4999820   0.6249954  )
        44           Al  tau(  44) = (   0.0000000   0.6250000   0.6249749  )
        45           Al  tau(  45) = (   0.0000000   0.4998662   0.7501535  )
        46           Al  tau(  46) = (   0.1249768   0.6250000   0.7500303  )
        47           Al  tau(  47) = (   0.1249977   0.4999219   0.8750023  )
        48           Al  tau(  48) = (   0.0000000   0.6250000   0.8750149  )
        49           Al  tau(  49) = (   0.0000000   0.7503372   0.0000000  )
        50           Al  tau(  50) = (   0.1242410   0.8757834   0.0000000  )
        51           Al  tau(  51) = (   0.1249977   0.7500782   0.1249977  )
        52           Al  tau(  52) = (   0.0000000   0.8757834   0.1242410  )
        53           Al  tau(  53) = (   0.0000000   0.7501338   0.2498465  )
        54           Al  tau(  54) = (   0.1249881   0.8750100   0.2499021  )
        55           Al  tau(  55) = (   0.1249886   0.7500180   0.3750046  )
        56           Al  tau(  56) = (   0.0000000   0.8749966   0.3749567  )
        57           Al  tau(  57) = (   0.0000000   0.7500187   0.5000000  )
        58           Al  tau(  58) = (   0.1250079   0.8749807   0.5000000  )
        59           Al  tau(  59) = (   0.1249886   0.7500180   0.6249954  )
        60           Al  tau(  60) = (   0.0000000   0.8749966   0.6250433  )
        61           Al  tau(  61) = (   0.0000000   0.7501338   0.7501535  )
        62           Al  tau(  62) = (   0.1249881   0.8750100   0.7500980  )
        63           Al  tau(  63) = (   0.1249977   0.7500782   0.8750023  )
        64           Al  tau(  64) = (   0.0000000   0.8757834   0.8757590  )
        65           Al  tau(  65) = (   0.2495510   0.0001246   0.0000000  )
        66           Al  tau(  66) = (   0.3748997   0.1250000   0.0000000  )
        67           Al  tau(  67) = (   0.3749458   0.0000163   0.1249850  )
        68           Al  tau(  68) = (   0.2498261   0.1250000   0.1249846  )
        69           Al  tau(  69) = (   0.2499056   0.9999602   0.2499056  )
        70           Al  tau(  70) = (   0.3749937   0.1250000   0.2499712  )
        71           Al  tau(  71) = (   0.3750151   0.9999988   0.3750151  )
        72           Al  tau(  72) = (   0.2499712   0.1250000   0.3749937  )
        73           Al  tau(  73) = (   0.2499794   0.0000012   0.5000000  )
        74           Al  tau(  74) = (   0.3750210   0.1250000   0.5000000  )
        75           Al  tau(  75) = (   0.3750151   0.9999988   0.6249849  )
        76           Al  tau(  76) = (   0.2499712   0.1250000   0.6250063  )
        77           Al  tau(  77) = (   0.2499056   0.9999602   0.7500944  )
        78           Al  tau(  78) = (   0.3749937   0.1250000   0.7500288  )
        79           Al  tau(  79) = (   0.3749458   0.0000163   0.8750150  )
        80           Al  tau(  80) = (   0.2498261   0.1250000   0.8750154  )
        81           Al  tau(  81) = (   0.2495510   0.2498754   0.0000000  )
        82           Al  tau(  82) = (   0.3749567   0.3750033   0.0000000  )
        83           Al  tau(  83) = (   0.3749458   0.2499837   0.1249850  )
        84           Al  tau(  84) = (   0.2499021   0.3749900   0.1249881  )
        85           Al  tau(  85) = (   0.2499056   0.2500398   0.2499056  )
        86           Al  tau(  86) = (   0.3749987   0.3749921   0.2499851  )
        87           Al  tau(  87) = (   0.3750151   0.2500012   0.3750151  )
        88           Al  tau(  88) = (   0.2499851   0.3749921   0.3749987  )
        89           Al  tau(  89) = (   0.2499794   0.2499988   0.5000000  )
        90           Al  tau(  90) = (   0.3750004   0.3749875   0.5000000  )
        91           Al  tau(  91) = (   0.3750151   0.2500012   0.6249849  )
        92           Al  tau(  92) = (   0.2499851   0.3749921   0.6250013  )
        93           Al  tau(  93) = (   0.2499056   0.2500398   0.7500944  )
        94           Al  tau(  94) = (   0.3749987   0.3749921   0.7500149  )
        95           Al  tau(  95) = (   0.3749458   0.2499837   0.8750150  )
        96           Al  tau(  96) = (   0.2499021   0.3749900   0.8750119  )
        97           Al  tau(  97) = (   0.2498465   0.4998662   0.0000000  )
        98           Al  tau(  98) = (   0.3750251   0.6250000   0.0000000  )
        99           Al  tau(  99) = (   0.3750046   0.4999820   0.1249886  )
       100           Al  tau( 100) = (   0.2499697   0.6250000   0.1249768  )
       101           Al  tau( 101) = (   0.2500428   0.5000448   0.2500428  )
       102           Al  tau( 102) = (   0.3750037   0.6250000   0.2499982  )
       103           Al  tau( 103) = (   0.3749907   0.4999998   0.3749907  )
       104           Al  tau( 104) = (   0.2499982   0.6250000   0.3750037  )
       105           Al  tau( 105) = (   0.2500003   0.4999954   0.5000000  )
       106           Al  tau( 106) = (   0.3749725   0.6250000   0.5000000  )
       107           Al  tau( 107) = (   0.3749907   0.4999998   0.6250093  )
       108           Al  tau( 108) = (   0.2499982   0.6250000   0.6249963  )
       109           Al  tau( 109) = (   0.2500428   0.5000448   0.7499572  )
       110           Al  tau( 110) = (   0.3750037   0.6250000   0.7500019  )
       111           Al  tau( 111) = (   0.3750046   0.4999820   0.8750114  )
       112           Al  tau( 112) = (   0.2499697   0.6250000   0.8750232  )
       113           Al  tau( 113) = (   0.2498465   0.7501338   0.0000000  )
       114           Al  tau( 114) = (   0.3749567   0.8749966   0.0000000  )
       115           Al  tau( 115) = (   0.3750046   0.7500180   0.1249886  )
       116           Al  tau( 116) = (   0.2499021   0.8750100   0.1249881  )
       117           Al  tau( 117) = (   0.2500428   0.7499552   0.2500428  )
       118           Al  tau( 118) = (   0.3749987   0.8750079   0.2499851  )
       119           Al  tau( 119) = (   0.3749907   0.7500002   0.3749907  )
       120           Al  tau( 120) = (   0.2499851   0.8750079   0.3749987  )
       121           Al  tau( 121) = (   0.2500003   0.7500046   0.5000000  )
       122           Al  tau( 122) = (   0.3750004   0.8750125   0.5000000  )
       123           Al  tau( 123) = (   0.3749907   0.7500002   0.6250093  )
       124           Al  tau( 124) = (   0.2499851   0.8750079   0.6250013  )
       125           Al  tau( 125) = (   0.2500428   0.7499552   0.7499572  )
       126           Al  tau( 126) = (   0.3749987   0.8750079   0.7500149  )
       127           Al  tau( 127) = (   0.3750046   0.7500180   0.8750114  )
       128           Al  tau( 128) = (   0.2499021   0.8750100   0.8750119  )
       129           Al  tau( 129) = (   0.5000000   0.0000193   0.0000000  )
       130           Al  tau( 130) = (   0.6251003   0.1250000   0.0000000  )
       131           Al  tau( 131) = (   0.6250542   0.0000163   0.1249850  )
       132           Al  tau( 132) = (   0.5000000   0.1250000   0.1250159  )
       133           Al  tau( 133) = (   0.5000000   0.0000012   0.2499794  )
       134           Al  tau( 134) = (   0.6250063   0.1250000   0.2499712  )
       135           Al  tau( 135) = (   0.6249849   0.9999988   0.3750151  )
       136           Al  tau( 136) = (   0.5000000   0.1250000   0.3750210  )
       137           Al  tau( 137) = (   0.5000000   0.9999985   0.5000000  )
       138           Al  tau( 138) = (   0.6249790   0.1250000   0.5000000  )
       139           Al  tau( 139) = (   0.6249849   0.9999988   0.6249849  )
       140           Al  tau( 140) = (   0.5000000   0.1250000   0.6249790  )
       141           Al  tau( 141) = (   0.5000000   0.0000012   0.7500206  )
       142           Al  tau( 142) = (   0.6250063   0.1250000   0.7500288  )
       143           Al  tau( 143) = (   0.6250542   0.0000163   0.8750150  )
       144           Al  tau( 144) = (   0.5000000   0.1250000   0.8749842  )
       145           Al  tau( 145) = (   0.5000000   0.2499807   0.0000000  )
       146           Al  tau( 146) = (   0.6250433   0.3750033   0.0000000  )
       147           Al  tau( 147) = (   0.6250542   0.2499837   0.1249850  )
       148           Al  tau( 148) = (   0.5000000   0.3750194   0.1250079  )
       149           Al  tau( 149) = (   0.5000000   0.2499988   0.2499794  )
       150           Al  tau( 150) = (   0.6250013   0.3749921   0.2499851  )
       151           Al  tau( 151) = (   0.6249849   0.2500012   0.3750151  )
       152           Al  tau( 152) = (   0.5000000   0.3749875   0.3750004  )
       153           Al  tau( 153) = (   0.5000000   0.2500016   0.5000000  )
       154           Al  tau( 154) = (   0.6249996   0.3749875   0.5000000  )
       155           Al  tau( 155) = (   0.6249849   0.2500012   0.6249849  )
       156           Al  tau( 156) = (   0.5000000   0.3749875   0.6249996  )
       157           Al  tau( 157) = (   0.5000000   0.2499988   0.7500206  )
       158           Al  tau( 158) = (   0.6250013   0.3749921   0.7500149  )
       159           Al  tau( 159) = (   0.6250542   0.2499837   0.8750150  )
       160           Al  tau( 160) = (   0.5000000   0.3750194   0.8749921  )
       161           Al  tau( 161) = (   0.5000000   0.4999814   0.0000000  )
       162           Al  tau( 162) = (   0.6249749   0.6250000   0.0000000  )
       163           Al  tau( 163) = (   0.6249954   0.4999820   0.1249886  )
       164           Al  tau( 164) = (   0.5000000   0.6250000   0.1250037  )
       165           Al  tau( 165) = (   0.5000000   0.4999954   0.2500003  )
       166           Al  tau( 166) = (   0.6249963   0.6250000   0.2499982  )
       167           Al  tau( 167) = (   0.6250093   0.4999998   0.3749907  )
       168           Al  tau( 168) = (   0.5000000   0.6250000   0.3749725  )
       169           Al  tau( 169) = (   0.5000000   0.5000043   0.5000000  )
       170           Al  tau( 170) = (   0.6250275   0.6250000   0.5000000  )
       171           Al  tau( 171) = (   0.6250093   0.4999998   0.6250093  )
       172           Al  tau( 172) = (   0.5000000   0.6250000   0.6250275  )
       173           Al  tau( 173) = (   0.5000000   0.4999954   0.7499997  )
       174           Al  tau( 174) = (   0.6249963   0.6250000   0.7500019  )
       175           Al  tau( 175) = (   0.6249954   0.4999820   0.8750114  )
       176           Al  tau( 176) = (   0.5000000   0.6250000   0.8749963  )
       177           Al  tau( 177) = (   0.5000000   0.7500187   0.0000000  )
       178           Al  tau( 178) = (   0.6250433   0.8749966   0.0000000  )
       179           Al  tau( 179) = (   0.6249954   0.7500180   0.1249886  )
       180           Al  tau( 180) = (   0.5000000   0.8749807   0.1250079  )
       181           Al  tau( 181) = (   0.5000000   0.7500046   0.2500003  )
       182           Al  tau( 182) = (   0.6250013   0.8750079   0.2499851  )
       183           Al  tau( 183) = (   0.6250093   0.7500002   0.3749907  )
       184           Al  tau( 184) = (   0.5000000   0.8750125   0.3750004  )
       185           Al  tau( 185) = (   0.5000000   0.7499957   0.5000000  )
       186           Al  tau( 186) = (   0.6249996   0.8750125   0.5000000  )
       187           Al  tau( 187) = (   0.6250093   0.7500002   0.6250093  )
       188           Al  tau( 188) = (   0.5000000   0.8750125   0.6249996  )
       189           Al  tau( 189) = (   0.5000000   0.7500046   0.7499997  )
       190           Al  tau( 190) = (   0.6250013   0.8750079   0.7500149  )
       191           Al  tau( 191) = (   0.6249954   0.7500180   0.8750114  )
       192           Al  tau( 192) = (   0.5000000   0.8749807   0.8749921  )
       193           Al  tau( 193) = (   0.7504490   0.0001246   0.0000000  )
       194           Al  tau( 194) = (   0.8764518   0.1250000   0.0000000  )
       195           Al  tau( 195) = (   0.8758049   0.0001027   0.1241951  )
       196           Al  tau( 196) = (   0.7501739   0.1250000   0.1249846  )
       197           Al  tau( 197) = (   0.7500944   0.9999602   0.2499056  )
       198           Al  tau( 198) = (   0.8750154   0.1250000   0.2498261  )
       199           Al  tau( 199) = (   0.8750150   0.0000163   0.3749458  )
       200           Al  tau( 200) = (   0.7500288   0.1250000   0.3749937  )
       201           Al  tau( 201) = (   0.7500206   0.0000012   0.5000000  )
       202           Al  tau( 202) = (   0.8749842   0.1250000   0.5000000  )
       203           Al  tau( 203) = (   0.8750150   0.0000163   0.6250542  )
       204           Al  tau( 204) = (   0.7500288   0.1250000   0.6250063  )
       205           Al  tau( 205) = (   0.7500944   0.9999602   0.7500944  )
       206           Al  tau( 206) = (   0.8750154   0.1250000   0.7501739  )
       207           Al  tau( 207) = (   0.8758049   0.0001027   0.8758049  )
       208           Al  tau( 208) = (   0.7501739   0.1250000   0.8750154  )
       209           Al  tau( 209) = (   0.7504490   0.2498754   0.0000000  )
       210           Al  tau( 210) = (   0.8757590   0.3742166   0.0000000  )
       211           Al  tau( 211) = (   0.8758049   0.2498973   0.1241951  )
       212           Al  tau( 212) = (   0.7500980   0.3749900   0.1249881  )
       213           Al  tau( 213) = (   0.7500944   0.2500398   0.2499056  )
       214           Al  tau( 214) = (   0.8750119   0.3749900   0.2499021  )
       215           Al  tau( 215) = (   0.8750150   0.2499837   0.3749458  )
       216           Al  tau( 216) = (   0.7500149   0.3749921   0.3749987  )
       217           Al  tau( 217) = (   0.7500206   0.2499988   0.5000000  )
       218           Al  tau( 218) = (   0.8749921   0.3750194   0.5000000  )
       219           Al  tau( 219) = (   0.8750150   0.2499837   0.6250542  )
       220           Al  tau( 220) = (   0.7500149   0.3749921   0.6250013  )
       221           Al  tau( 221) = (   0.7500944   0.2500398   0.7500944  )
       222           Al  tau( 222) = (   0.8750119   0.3749900   0.7500980  )
       223           Al  tau( 223) = (   0.8758049   0.2498973   0.8758049  )
       224           Al  tau( 224) = (   0.7500980   0.3749900   0.8750119  )
       225           Al  tau( 225) = (   0.7501535   0.4998662   0.0000000  )
       226           Al  tau( 226) = (   0.8750149   0.6250000   0.0000000  )
       227           Al  tau( 227) = (   0.8750023   0.4999219   0.1249977  )
       228           Al  tau( 228) = (   0.7500303   0.6250000   0.1249768  )
       229           Al  tau( 229) = (   0.7499572   0.5000448   0.2500428  )
       230           Al  tau( 230) = (   0.8750232   0.6250000   0.2499697  )
       231           Al  tau( 231) = (   0.8750114   0.4999820   0.3750046  )
       232           Al  tau( 232) = (   0.7500019   0.6250000   0.3750037  )
       233           Al  tau( 233) = (   0.7499997   0.4999954   0.5000000  )
       234           Al  tau( 234) = (   0.8749963   0.6250000   0.5000000  )
       235           Al  tau( 235) = (   0.8750114   0.4999820   0.6249954  )
       236           Al  tau( 236) = (   0.7500019   0.6250000   0.6249963  )
       237           Al  tau( 237) = (   0.7499572   0.5000448   0.7499572  )
       238           Al  tau( 238) = (   0.8750232   0.6250000   0.7500303  )
       239           Al  tau( 239) = (   0.8750023   0.4999219   0.8750023  )
       240           Al  tau( 240) = (   0.7500303   0.6250000   0.8750232  )
       241           Al  tau( 241) = (   0.7501535   0.7501338   0.0000000  )
       242           Al  tau( 242) = (   0.8757590   0.8757834   0.0000000  )
       243           Al  tau( 243) = (   0.8750023   0.7500782   0.1249977  )
       244           Al  tau( 244) = (   0.7500980   0.8750100   0.1249881  )
       245           Al  tau( 245) = (   0.7499572   0.7499552   0.2500428  )
       246           Al  tau( 246) = (   0.8750119   0.8750100   0.2499021  )
       247           Al  tau( 247) = (   0.8750114   0.7500180   0.3750046  )
       248           Al  tau( 248) = (   0.7500149   0.8750079   0.3749987  )
       249           Al  tau( 249) = (   0.7499997   0.7500046   0.5000000  )
       250           Al  tau( 250) = (   0.8749921   0.8749807   0.5000000  )
       251           Al  tau( 251) = (   0.8750114   0.7500180   0.6249954  )
       252           Al  tau( 252) = (   0.7500149   0.8750079   0.6250013  )
       253           Al  tau( 253) = (   0.7499572   0.7499552   0.7499572  )
       254           Al  tau( 254) = (   0.8750119   0.8750100   0.7500980  )
       255           Al  tau( 255) = (   0.8750023   0.7500782   0.8750023  )
       256           Al  tau( 256) = (   0.7500980   0.8750100   0.8750119  )

   Crystallographic axes

     site n.     atom                  positions (cryst. coord.)
         1           Si  tau(   1) = (  0.0000000  0.0007000  0.0000000  )
         2           Al  tau(   2) = (  0.1241951  0.0001027  0.1241951  )
         3           Al  tau(   3) = (  0.1235482  0.1250000  0.0000000  )
         4           Al  tau(   4) = (  0.0000000  0.1250000  0.1235482  )
         5           Al  tau(   5) = (  0.0000000  0.0001246  0.2495510  )
         6           Al  tau(   6) = (  0.1249846  0.1250000  0.2498261  )
         7           Al  tau(   7) = (  0.1249850  0.0000163  0.3749458  )
         8           Al  tau(   8) = (  0.0000000  0.1250000  0.3748997  )
         9           Al  tau(   9) = (  0.0000000  0.0000193  0.5000000  )
        10           Al  tau(  10) = (  0.1250159  0.1250000  0.5000000  )
        11           Al  tau(  11) = (  0.1249850  0.0000163  0.6250542  )
        12           Al  tau(  12) = (  0.0000000  0.1250000  0.6251003  )
        13           Al  tau(  13) = (  0.0000000  0.0001246  0.7504490  )
        14           Al  tau(  14) = (  0.1249846  0.1250000  0.7501739  )
        15           Al  tau(  15) = (  0.1241951  0.0001027  0.8758049  )
        16           Al  tau(  16) = (  0.0000000  0.1250000  0.8764518  )
        17           Si  tau(  17) = (  0.0000000  0.2493000  0.0000000  )
        18           Al  tau(  18) = (  0.1242410  0.3742166  0.0000000  )
        19           Al  tau(  19) = (  0.1241951  0.2498973  0.1241951  )
        20           Al  tau(  20) = (  0.0000000  0.3742166  0.1242410  )
        21           Al  tau(  21) = (  0.0000000  0.2498754  0.2495510  )
        22           Al  tau(  22) = (  0.1249881  0.3749900  0.2499021  )
        23           Al  tau(  23) = (  0.1249850  0.2499837  0.3749458  )
        24           Al  tau(  24) = (  0.0000000  0.3750033  0.3749567  )
        25           Al  tau(  25) = (  0.0000000  0.2499807  0.5000000  )
        26           Al  tau(  26) = (  0.1250079  0.3750194  0.5000000  )
        27           Al  tau(  27) = (  0.1249850  0.2499837  0.6250542  )
        28           Al  tau(  28) = (  0.0000000  0.3750033  0.6250433  )
        29           Al  tau(  29) = (  0.0000000  0.2498754  0.7504490  )
        30           Al  tau(  30) = (  0.1249881  0.3749900  0.7500980  )
        31           Al  tau(  31) = (  0.1241951  0.2498973  0.8758049  )
        32           Al  tau(  32) = (  0.0000000  0.3742166  0.8757590  )
        33           Al  tau(  33) = (  0.0000000  0.4996628  0.0000000  )
        34           Al  tau(  34) = (  0.1249851  0.6250000  0.0000000  )
        35           Al  tau(  35) = (  0.1249977  0.4999219  0.1249977  )
        36           Al  tau(  36) = (  0.0000000  0.6250000  0.1249851  )
        37           Al  tau(  37) = (  0.0000000  0.4998662  0.2498465  )
        38           Al  tau(  38) = (  0.1249768  0.6250000  0.2499697  )
        39           Al  tau(  39) = (  0.1249886  0.4999820  0.3750046  )
        40           Al  tau(  40) = (  0.0000000  0.6250000  0.3750251  )
        41           Al  tau(  41) = (  0.0000000  0.4999814  0.5000000  )
        42           Al  tau(  42) = (  0.1250037  0.6250000  0.5000000  )
        43           Al  tau(  43) = (  0.1249886  0.4999820  0.6249954  )
        44           Al  tau(  44) = (  0.0000000  0.6250000  0.6249749  )
        45           Al  tau(  45) = (  0.0000000  0.4998662  0.7501535  )
        46           Al  tau(  46) = (  0.1249768  0.6250000  0.7500303  )
        47           Al  tau(  47) = (  0.1249977  0.4999219  0.8750023  )
        48           Al  tau(  48) = (  0.0000000  0.6250000  0.8750149  )
        49           Al  tau(  49) = (  0.0000000  0.7503372  0.0000000  )
        50           Al  tau(  50) = (  0.1242410  0.8757834  0.0000000  )
        51           Al  tau(  51) = (  0.1249977  0.7500782  0.1249977  )
        52           Al  tau(  52) = (  0.0000000  0.8757834  0.1242410  )
        53           Al  tau(  53) = (  0.0000000  0.7501338  0.2498465  )
        54           Al  tau(  54) = (  0.1249881  0.8750100  0.2499021  )
        55           Al  tau(  55) = (  0.1249886  0.7500180  0.3750046  )
        56           Al  tau(  56) = (  0.0000000  0.8749966  0.3749567  )
        57           Al  tau(  57) = (  0.0000000  0.7500187  0.5000000  )
        58           Al  tau(  58) = (  0.1250079  0.8749807  0.5000000  )
        59           Al  tau(  59) = (  0.1249886  0.7500180  0.6249954  )
        60           Al  tau(  60) = (  0.0000000  0.8749966  0.6250433  )
        61           Al  tau(  61) = (  0.0000000  0.7501338  0.7501535  )
        62           Al  tau(  62) = (  0.1249881  0.8750100  0.7500980  )
        63           Al  tau(  63) = (  0.1249977  0.7500782  0.8750023  )
        64           Al  tau(  64) = (  0.0000000  0.8757834  0.8757590  )
        65           Al  tau(  65) = (  0.2495510  0.0001246  0.0000000  )
        66           Al  tau(  66) = (  0.3748997  0.1250000  0.0000000  )
        67           Al  tau(  67) = (  0.3749458  0.0000163  0.1249850  )
        68           Al  tau(  68) = (  0.2498261  0.1250000  0.1249846  )
        69           Al  tau(  69) = (  0.2499056  0.9999602  0.2499056  )
        70           Al  tau(  70) = (  0.3749937  0.1250000  0.2499712  )
        71           Al  tau(  71) = (  0.3750151  0.9999988  0.3750151  )
        72           Al  tau(  72) = (  0.2499712  0.1250000  0.3749937  )
        73           Al  tau(  73) = (  0.2499794  0.0000012  0.5000000  )
        74           Al  tau(  74) = (  0.3750210  0.1250000  0.5000000  )
        75           Al  tau(  75) = (  0.3750151  0.9999988  0.6249849  )
        76           Al  tau(  76) = (  0.2499712  0.1250000  0.6250063  )
        77           Al  tau(  77) = (  0.2499056  0.9999602  0.7500944  )
        78           Al  tau(  78) = (  0.3749937  0.1250000  0.7500288  )
        79           Al  tau(  79) = (  0.3749458  0.0000163  0.8750150  )
        80           Al  tau(  80) = (  0.2498261  0.1250000  0.8750154  )
        81           Al  tau(  81) = (  0.2495510  0.2498754  0.0000000  )
        82           Al  tau(  82) = (  0.3749567  0.3750033  0.0000000  )
        83           Al  tau(  83) = (  0.3749458  0.2499837  0.1249850  )
        84           Al  tau(  84) = (  0.2499021  0.3749900  0.1249881  )
        85           Al  tau(  85) = (  0.2499056  0.2500398  0.2499056  )
        86           Al  tau(  86) = (  0.3749987  0.3749921  0.2499851  )
        87           Al  tau(  87) = (  0.3750151  0.2500012  0.3750151  )
        88           Al  tau(  88) = (  0.2499851  0.3749921  0.3749987  )
        89           Al  tau(  89) = (  0.2499794  0.2499988  0.5000000  )
        90           Al  tau(  90) = (  0.3750004  0.3749875  0.5000000  )
        91           Al  tau(  91) = (  0.3750151  0.2500012  0.6249849  )
        92           Al  tau(  92) = (  0.2499851  0.3749921  0.6250013  )
        93           Al  tau(  93) = (  0.2499056  0.2500398  0.7500944  )
        94           Al  tau(  94) = (  0.3749987  0.3749921  0.7500149  )
        95           Al  tau(  95) = (  0.3749458  0.2499837  0.8750150  )
        96           Al  tau(  96) = (  0.2499021  0.3749900  0.8750119  )
        97           Al  tau(  97) = (  0.2498465  0.4998662  0.0000000  )
        98           Al  tau(  98) = (  0.3750251  0.6250000  0.0000000  )
        99           Al  tau(  99) = (  0.3750046  0.4999820  0.1249886  )
       100           Al  tau( 100) = (  0.2499697  0.6250000  0.1249768  )
       101           Al  tau( 101) = (  0.2500428  0.5000448  0.2500428  )
       102           Al  tau( 102) = (  0.3750037  0.6250000  0.2499982  )
       103           Al  tau( 103) = (  0.3749907  0.4999998  0.3749907  )
       104           Al  tau( 104) = (  0.2499982  0.6250000  0.3750037  )
       105           Al  tau( 105) = (  0.2500003  0.4999954  0.5000000  )
       106           Al  tau( 106) = (  0.3749725  0.6250000  0.5000000  )
       107           Al  tau( 107) = (  0.3749907  0.4999998  0.6250093  )
       108           Al  tau( 108) = (  0.2499982  0.6250000  0.6249963  )
       109           Al  tau( 109) = (  0.2500428  0.5000448  0.7499572  )
       110           Al  tau( 110) = (  0.3750037  0.6250000  0.7500019  )
       111           Al  tau( 111) = (  0.3750046  0.4999820  0.8750114  )
       112           Al  tau( 112) = (  0.2499697  0.6250000  0.8750232  )
       113           Al  tau( 113) = (  0.2498465  0.7501338  0.0000000  )
       114           Al  tau( 114) = (  0.3749567  0.8749966  0.0000000  )
       115           Al  tau( 115) = (  0.3750046  0.7500180  0.1249886  )
       116           Al  tau( 116) = (  0.2499021  0.8750100  0.1249881  )
       117           Al  tau( 117) = (  0.2500428  0.7499552  0.2500428  )
       118           Al  tau( 118) = (  0.3749987  0.8750079  0.2499851  )
       119           Al  tau( 119) = (  0.3749907  0.7500002  0.3749907  )
       120           Al  tau( 120) = (  0.2499851  0.8750079  0.3749987  )
       121           Al  tau( 121) = (  0.2500003  0.7500046  0.5000000  )
       122           Al  tau( 122) = (  0.3750004  0.8750125  0.5000000  )
       123           Al  tau( 123) = (  0.3749907  0.7500002  0.6250093  )
       124           Al  tau( 124) = (  0.2499851  0.8750079  0.6250013  )
       125           Al  tau( 125) = (  0.2500428  0.7499552  0.7499572  )
       126           Al  tau( 126) = (  0.3749987  0.8750079  0.7500149  )
       127           Al  tau( 127) = (  0.3750046  0.7500180  0.8750114  )
       128           Al  tau( 128) = (  0.2499021  0.8750100  0.8750119  )
       129           Al  tau( 129) = (  0.5000000  0.0000193  0.0000000  )
       130           Al  tau( 130) = (  0.6251003  0.1250000  0.0000000  )
       131           Al  tau( 131) = (  0.6250542  0.0000163  0.1249850  )
       132           Al  tau( 132) = (  0.5000000  0.1250000  0.1250159  )
       133           Al  tau( 133) = (  0.5000000  0.0000012  0.2499794  )
       134           Al  tau( 134) = (  0.6250063  0.1250000  0.2499712  )
       135           Al  tau( 135) = (  0.6249849  0.9999988  0.3750151  )
       136           Al  tau( 136) = (  0.5000000  0.1250000  0.3750210  )
       137           Al  tau( 137) = (  0.5000000  0.9999985  0.5000000  )
       138           Al  tau( 138) = (  0.6249790  0.1250000  0.5000000  )
       139           Al  tau( 139) = (  0.6249849  0.9999988  0.6249849  )
       140           Al  tau( 140) = (  0.5000000  0.1250000  0.6249790  )
       141           Al  tau( 141) = (  0.5000000  0.0000012  0.7500206  )
       142           Al  tau( 142) = (  0.6250063  0.1250000  0.7500288  )
       143           Al  tau( 143) = (  0.6250542  0.0000163  0.8750150  )
       144           Al  tau( 144) = (  0.5000000  0.1250000  0.8749842  )
       145           Al  tau( 145) = (  0.5000000  0.2499807  0.0000000  )
       146           Al  tau( 146) = (  0.6250433  0.3750033  0.0000000  )
       147           Al  tau( 147) = (  0.6250542  0.2499837  0.1249850  )
       148           Al  tau( 148) = (  0.5000000  0.3750194  0.1250079  )
       149           Al  tau( 149) = (  0.5000000  0.2499988  0.2499794  )
       150           Al  tau( 150) = (  0.6250013  0.3749921  0.2499851  )
       151           Al  tau( 151) = (  0.6249849  0.2500012  0.3750151  )
       152           Al  tau( 152) = (  0.5000000  0.3749875  0.3750004  )
       153           Al  tau( 153) = (  0.5000000  0.2500016  0.5000000  )
       154           Al  tau( 154) = (  0.6249996  0.3749875  0.5000000  )
       155           Al  tau( 155) = (  0.6249849  0.2500012  0.6249849  )
       156           Al  tau( 156) = (  0.5000000  0.3749875  0.6249996  )
       157           Al  tau( 157) = (  0.5000000  0.2499988  0.7500206  )
       158           Al  tau( 158) = (  0.6250013  0.3749921  0.7500149  )
       159           Al  tau( 159) = (  0.6250542  0.2499837  0.8750150  )
       160           Al  tau( 160) = (  0.5000000  0.3750194  0.8749921  )
       161           Al  tau( 161) = (  0.5000000  0.4999814  0.0000000  )
       162           Al  tau( 162) = (  0.6249749  0.6250000  0.0000000  )
       163           Al  tau( 163) = (  0.6249954  0.4999820  0.1249886  )
       164           Al  tau( 164) = (  0.5000000  0.6250000  0.1250037  )
       165           Al  tau( 165) = (  0.5000000  0.4999954  0.2500003  )
       166           Al  tau( 166) = (  0.6249963  0.6250000  0.2499982  )
       167           Al  tau( 167) = (  0.6250093  0.4999998  0.3749907  )
       168           Al  tau( 168) = (  0.5000000  0.6250000  0.3749725  )
       169           Al  tau( 169) = (  0.5000000  0.5000043  0.5000000  )
       170           Al  tau( 170) = (  0.6250275  0.6250000  0.5000000  )
       171           Al  tau( 171) = (  0.6250093  0.4999998  0.6250093  )
       172           Al  tau( 172) = (  0.5000000  0.6250000  0.6250275  )
       173           Al  tau( 173) = (  0.5000000  0.4999954  0.7499997  )
       174           Al  tau( 174) = (  0.6249963  0.6250000  0.7500019  )
       175           Al  tau( 175) = (  0.6249954  0.4999820  0.8750114  )
       176           Al  tau( 176) = (  0.5000000  0.6250000  0.8749963  )
       177           Al  tau( 177) = (  0.5000000  0.7500187  0.0000000  )
       178           Al  tau( 178) = (  0.6250433  0.8749966  0.0000000  )
       179           Al  tau( 179) = (  0.6249954  0.7500180  0.1249886  )
       180           Al  tau( 180) = (  0.5000000  0.8749807  0.1250079  )
       181           Al  tau( 181) = (  0.5000000  0.7500046  0.2500003  )
       182           Al  tau( 182) = (  0.6250013  0.8750079  0.2499851  )
       183           Al  tau( 183) = (  0.6250093  0.7500002  0.3749907  )
       184           Al  tau( 184) = (  0.5000000  0.8750125  0.3750004  )
       185           Al  tau( 185) = (  0.5000000  0.7499957  0.5000000  )
       186           Al  tau( 186) = (  0.6249996  0.8750125  0.5000000  )
       187           Al  tau( 187) = (  0.6250093  0.7500002  0.6250093  )
       188           Al  tau( 188) = (  0.5000000  0.8750125  0.6249996  )
       189           Al  tau( 189) = (  0.5000000  0.7500046  0.7499997  )
       190           Al  tau( 190) = (  0.6250013  0.8750079  0.7500149  )
       191           Al  tau( 191) = (  0.6249954  0.7500180  0.8750114  )
       192           Al  tau( 192) = (  0.5000000  0.8749807  0.8749921  )
       193           Al  tau( 193) = (  0.7504490  0.0001246  0.0000000  )
       194           Al  tau( 194) = (  0.8764518  0.1250000  0.0000000  )
       195           Al  tau( 195) = (  0.8758049  0.0001027  0.1241951  )
       196           Al  tau( 196) = (  0.7501739  0.1250000  0.1249846  )
       197           Al  tau( 197) = (  0.7500944  0.9999602  0.2499056  )
       198           Al  tau( 198) = (  0.8750154  0.1250000  0.2498261  )
       199           Al  tau( 199) = (  0.8750150  0.0000163  0.3749458  )
       200           Al  tau( 200) = (  0.7500288  0.1250000  0.3749937  )
       201           Al  tau( 201) = (  0.7500206  0.0000012  0.5000000  )
       202           Al  tau( 202) = (  0.8749842  0.1250000  0.5000000  )
       203           Al  tau( 203) = (  0.8750150  0.0000163  0.6250542  )
       204           Al  tau( 204) = (  0.7500288  0.1250000  0.6250063  )
       205           Al  tau( 205) = (  0.7500944  0.9999602  0.7500944  )
       206           Al  tau( 206) = (  0.8750154  0.1250000  0.7501739  )
       207           Al  tau( 207) = (  0.8758049  0.0001027  0.8758049  )
       208           Al  tau( 208) = (  0.7501739  0.1250000  0.8750154  )
       209           Al  tau( 209) = (  0.7504490  0.2498754  0.0000000  )
       210           Al  tau( 210) = (  0.8757590  0.3742166  0.0000000  )
       211           Al  tau( 211) = (  0.8758049  0.2498973  0.1241951  )
       212           Al  tau( 212) = (  0.7500980  0.3749900  0.1249881  )
       213           Al  tau( 213) = (  0.7500944  0.2500398  0.2499056  )
       214           Al  tau( 214) = (  0.8750119  0.3749900  0.2499021  )
       215           Al  tau( 215) = (  0.8750150  0.2499837  0.3749458  )
       216           Al  tau( 216) = (  0.7500149  0.3749921  0.3749987  )
       217           Al  tau( 217) = (  0.7500206  0.2499988  0.5000000  )
       218           Al  tau( 218) = (  0.8749921  0.3750194  0.5000000  )
       219           Al  tau( 219) = (  0.8750150  0.2499837  0.6250542  )
       220           Al  tau( 220) = (  0.7500149  0.3749921  0.6250013  )
       221           Al  tau( 221) = (  0.7500944  0.2500398  0.7500944  )
       222           Al  tau( 222) = (  0.8750119  0.3749900  0.7500980  )
       223           Al  tau( 223) = (  0.8758049  0.2498973  0.8758049  )
       224           Al  tau( 224) = (  0.7500980  0.3749900  0.8750119  )
       225           Al  tau( 225) = (  0.7501535  0.4998662  0.0000000  )
       226           Al  tau( 226) = (  0.8750149  0.6250000  0.0000000  )
       227           Al  tau( 227) = (  0.8750023  0.4999219  0.1249977  )
       228           Al  tau( 228) = (  0.7500303  0.6250000  0.1249768  )
       229           Al  tau( 229) = (  0.7499572  0.5000448  0.2500428  )
       230           Al  tau( 230) = (  0.8750232  0.6250000  0.2499697  )
       231           Al  tau( 231) = (  0.8750114  0.4999820  0.3750046  )
       232           Al  tau( 232) = (  0.7500019  0.6250000  0.3750037  )
       233           Al  tau( 233) = (  0.7499997  0.4999954  0.5000000  )
       234           Al  tau( 234) = (  0.8749963  0.6250000  0.5000000  )
       235           Al  tau( 235) = (  0.8750114  0.4999820  0.6249954  )
       236           Al  tau( 236) = (  0.7500019  0.6250000  0.6249963  )
       237           Al  tau( 237) = (  0.7499572  0.5000448  0.7499572  )
       238           Al  tau( 238) = (  0.8750232  0.6250000  0.7500303  )
       239           Al  tau( 239) = (  0.8750023  0.4999219  0.8750023  )
       240           Al  tau( 240) = (  0.7500303  0.6250000  0.8750232  )
       241           Al  tau( 241) = (  0.7501535  0.7501338  0.0000000  )
       242           Al  tau( 242) = (  0.8757590  0.8757834  0.0000000  )
       243           Al  tau( 243) = (  0.8750023  0.7500782  0.1249977  )
       244           Al  tau( 244) = (  0.7500980  0.8750100  0.1249881  )
       245           Al  tau( 245) = (  0.7499572  0.7499552  0.2500428  )
       246           Al  tau( 246) = (  0.8750119  0.8750100  0.2499021  )
       247           Al  tau( 247) = (  0.8750114  0.7500180  0.3750046  )
       248           Al  tau( 248) = (  0.7500149  0.8750079  0.3749987  )
       249           Al  tau( 249) = (  0.7499997  0.7500046  0.5000000  )
       250           Al  tau( 250) = (  0.8749921  0.8749807  0.5000000  )
       251           Al  tau( 251) = (  0.8750114  0.7500180  0.6249954  )
       252           Al  tau( 252) = (  0.7500149  0.8750079  0.6250013  )
       253           Al  tau( 253) = (  0.7499572  0.7499552  0.7499572  )
       254           Al  tau( 254) = (  0.8750119  0.8750100  0.7500980  )
       255           Al  tau( 255) = (  0.8750023  0.7500782  0.8750023  )
       256           Al  tau( 256) = (  0.7500980  0.8750100  0.8750119  )

     number of k points=    63  Methfessel-Paxton smearing, width (Ry)=  0.0441
                       cart. coord. in units 2pi/alat
        k(    1) = (   0.0000000   0.0000000   0.0000000), wk =   0.0160000
        k(    2) = (   0.0000000   0.0000000   0.2000000), wk =   0.0320000
        k(    3) = (   0.0000000   0.0000000   0.4000000), wk =   0.0320000
        k(    4) = (   0.0000000   0.2000000   0.0000000), wk =   0.0320000
        k(    5) = (   0.0000000   0.2000000   0.2000000), wk =   0.0320000
        k(    6) = (   0.0000000   0.2000000   0.4000000), wk =   0.0320000
        k(    7) = (   0.0000000   0.2000000  -0.4000000), wk =   0.0320000
        k(    8) = (   0.0000000   0.2000000  -0.2000000), wk =   0.0320000
        k(    9) = (   0.0000000   0.4000000   0.0000000), wk =   0.0320000
        k(   10) = (   0.0000000   0.4000000   0.2000000), wk =   0.0320000
        k(   11) = (   0.0000000   0.4000000   0.4000000), wk =   0.0320000
        k(   12) = (   0.0000000   0.4000000  -0.4000000), wk =   0.0320000
        k(   13) = (   0.0000000   0.4000000  -0.2000000), wk =   0.0320000
        k(   14) = (   0.2000000   0.0000000   0.0000000), wk =   0.0320000
        k(   15) = (   0.2000000   0.0000000   0.2000000), wk =   0.0320000
        k(   16) = (   0.2000000   0.0000000   0.4000000), wk =   0.0320000
        k(   17) = (   0.2000000   0.0000000  -0.4000000), wk =   0.0320000
        k(   18) = (   0.2000000   0.0000000  -0.2000000), wk =   0.0320000
        k(   19) = (   0.2000000   0.2000000   0.0000000), wk =   0.0320000
        k(   20) = (   0.2000000   0.2000000   0.2000000), wk =   0.0320000
        k(   21) = (   0.2000000   0.2000000   0.4000000), wk =   0.0320000
        k(   22) = (   0.2000000   0.2000000  -0.4000000), wk =   0.0320000
        k(   23) = (   0.2000000   0.2000000  -0.2000000), wk =   0.0320000
        k(   24) = (   0.2000000   0.4000000   0.0000000), wk =   0.0320000
        k(   25) = (   0.2000000   0.4000000   0.2000000), wk =   0.0320000
        k(   26) = (   0.2000000   0.4000000   0.4000000), wk =   0.0320000
        k(   27) = (   0.2000000   0.4000000  -0.4000000), wk =   0.0320000
        k(   28) = (   0.2000000   0.4000000  -0.2000000), wk =   0.0320000
        k(   29) = (   0.2000000  -0.4000000   0.0000000), wk =   0.0320000
        k(   30) = (   0.2000000  -0.4000000   0.2000000), wk =   0.0320000
        k(   31) = (   0.2000000  -0.4000000   0.4000000), wk =   0.0320000
        k(   32) = (   0.2000000  -0.4000000  -0.4000000), wk =   0.0320000
        k(   33) = (   0.2000000  -0.4000000  -0.2000000), wk =   0.0320000
        k(   34) = (   0.2000000  -0.2000000   0.0000000), wk =   0.0320000
        k(   35) = (   0.2000000  -0.2000000   0.2000000), wk =   0.0320000
        k(   36) = (   0.2000000  -0.2000000   0.4000000), wk =   0.0320000
        k(   37) = (   0.2000000  -0.2000000  -0.4000000), wk =   0.0320000
        k(   38) = (   0.2000000  -0.2000000  -0.2000000), wk =   0.0320000
        k(   39) = (   0.4000000   0.0000000   0.0000000), wk =   0.0320000
        k(   40) = (   0.4000000   0.0000000   0.2000000), wk =   0.0320000
        k(   41) = (   0.4000000   0.0000000   0.4000000), wk =   0.0320000
        k(   42) = (   0.4000000   0.0000000  -0.4000000), wk =   0.0320000
        k(   43) = (   0.4000000   0.0000000  -0.2000000), wk =   0.0320000
        k(   44) = (   0.4000000   0.2000000   0.0000000), wk =   0.0320000
        k(   45) = (   0.4000000   0.2000000   0.2000000), wk =   0.0320000
        k(   46) = (   0.4000000   0.2000000   0.4000000), wk =   0.0320000
        k(   47) = (   0.4000000   0.2000000  -0.4000000), wk =   0.0320000
        k(   48) = (   0.4000000   0.2000000  -0.2000000), wk =   0.0320000
        k(   49) = (   0.4000000   0.4000000   0.0000000), wk =   0.0320000
        k(   50) = (   0.4000000   0.4000000   0.2000000), wk =   0.0320000
        k(   51) = (   0.4000000   0.4000000   0.4000000), wk =   0.0320000
        k(   52) = (   0.4000000   0.4000000  -0.4000000), wk =   0.0320000
        k(   53) = (   0.4000000   0.4000000  -0.2000000), wk =   0.0320000
        k(   54) = (   0.4000000  -0.4000000   0.0000000), wk =   0.0320000
        k(   55) = (   0.4000000  -0.4000000   0.2000000), wk =   0.0320000
        k(   56) = (   0.4000000  -0.4000000   0.4000000), wk =   0.0320000
        k(   57) = (   0.4000000  -0.4000000  -0.4000000), wk =   0.0320000
        k(   58) = (   0.4000000  -0.4000000  -0.2000000), wk =   0.0320000
        k(   59) = (   0.4000000  -0.2000000   0.0000000), wk =   0.0320000
        k(   60) = (   0.4000000  -0.2000000   0.2000000), wk =   0.0320000
        k(   61) = (   0.4000000  -0.2000000   0.4000000), wk =   0.0320000
        k(   62) = (   0.4000000  -0.2000000  -0.4000000), wk =   0.0320000
        k(   63) = (   0.4000000  -0.2000000  -0.2000000), wk =   0.0320000

                       cryst. coord.
        k(    1) = (   0.0000000   0.0000000   0.0000000), wk =   0.0160000
        k(    2) = (   0.0000000   0.0000000   0.2000000), wk =   0.0320000
        k(    3) = (   0.0000000   0.0000000   0.4000000), wk =   0.0320000
        k(    4) = (   0.0000000   0.2000000   0.0000000), wk =   0.0320000
        k(    5) = (   0.0000000   0.2000000   0.2000000), wk =   0.0320000
        k(    6) = (   0.0000000   0.2000000   0.4000000), wk =   0.0320000
        k(    7) = (   0.0000000   0.2000000  -0.4000000), wk =   0.0320000
        k(    8) = (   0.0000000   0.2000000  -0.2000000), wk =   0.0320000
        k(    9) = (   0.0000000   0.4000000   0.0000000), wk =   0.0320000
        k(   10) = (   0.0000000   0.4000000   0.2000000), wk =   0.0320000
        k(   11) = (   0.0000000   0.4000000   0.4000000), wk =   0.0320000
        k(   12) = (   0.0000000   0.4000000  -0.4000000), wk =   0.0320000
        k(   13) = (   0.0000000   0.4000000  -0.2000000), wk =   0.0320000
        k(   14) = (   0.2000000   0.0000000   0.0000000), wk =   0.0320000
        k(   15) = (   0.2000000   0.0000000   0.2000000), wk =   0.0320000
        k(   16) = (   0.2000000   0.0000000   0.4000000), wk =   0.0320000
        k(   17) = (   0.2000000   0.0000000  -0.4000000), wk =   0.0320000
        k(   18) = (   0.2000000   0.0000000  -0.2000000), wk =   0.0320000
        k(   19) = (   0.2000000   0.2000000   0.0000000), wk =   0.0320000
        k(   20) = (   0.2000000   0.2000000   0.2000000), wk =   0.0320000
        k(   21) = (   0.2000000   0.2000000   0.4000000), wk =   0.0320000
        k(   22) = (   0.2000000   0.2000000  -0.4000000), wk =   0.0320000
        k(   23) = (   0.2000000   0.2000000  -0.2000000), wk =   0.0320000
        k(   24) = (   0.2000000   0.4000000   0.0000000), wk =   0.0320000
        k(   25) = (   0.2000000   0.4000000   0.2000000), wk =   0.0320000
        k(   26) = (   0.2000000   0.4000000   0.4000000), wk =   0.0320000
        k(   27) = (   0.2000000   0.4000000  -0.4000000), wk =   0.0320000
        k(   28) = (   0.2000000   0.4000000  -0.2000000), wk =   0.0320000
        k(   29) = (   0.2000000  -0.4000000   0.0000000), wk =   0.0320000
        k(   30) = (   0.2000000  -0.4000000   0.2000000), wk =   0.0320000
        k(   31) = (   0.2000000  -0.4000000   0.4000000), wk =   0.0320000
        k(   32) = (   0.2000000  -0.4000000  -0.4000000), wk =   0.0320000
        k(   33) = (   0.2000000  -0.4000000  -0.2000000), wk =   0.0320000
        k(   34) = (   0.2000000  -0.2000000   0.0000000), wk =   0.0320000
        k(   35) = (   0.2000000  -0.2000000   0.2000000), wk =   0.0320000
        k(   36) = (   0.2000000  -0.2000000   0.4000000), wk =   0.0320000
        k(   37) = (   0.2000000  -0.2000000  -0.4000000), wk =   0.0320000
        k(   38) = (   0.2000000  -0.2000000  -0.2000000), wk =   0.0320000
        k(   39) = (   0.4000000   0.0000000   0.0000000), wk =   0.0320000
        k(   40) = (   0.4000000   0.0000000   0.2000000), wk =   0.0320000
        k(   41) = (   0.4000000   0.0000000   0.4000000), wk =   0.0320000
        k(   42) = (   0.4000000   0.0000000  -0.4000000), wk =   0.0320000
        k(   43) = (   0.4000000   0.0000000  -0.2000000), wk =   0.0320000
        k(   44) = (   0.4000000   0.2000000   0.0000000), wk =   0.0320000
        k(   45) = (   0.4000000   0.2000000   0.2000000), wk =   0.0320000
        k(   46) = (   0.4000000   0.2000000   0.4000000), wk =   0.0320000
        k(   47) = (   0.4000000   0.2000000  -0.4000000), wk =   0.0320000
        k(   48) = (   0.4000000   0.2000000  -0.2000000), wk =   0.0320000
        k(   49) = (   0.4000000   0.4000000   0.0000000), wk =   0.0320000
        k(   50) = (   0.4000000   0.4000000   0.2000000), wk =   0.0320000
        k(   51) = (   0.4000000   0.4000000   0.4000000), wk =   0.0320000
        k(   52) = (   0.4000000   0.4000000  -0.4000000), wk =   0.0320000
        k(   53) = (   0.4000000   0.4000000  -0.2000000), wk =   0.0320000
        k(   54) = (   0.4000000  -0.4000000   0.0000000), wk =   0.0320000
        k(   55) = (   0.4000000  -0.4000000   0.2000000), wk =   0.0320000
        k(   56) = (   0.4000000  -0.4000000   0.4000000), wk =   0.0320000
        k(   57) = (   0.4000000  -0.4000000  -0.4000000), wk =   0.0320000
        k(   58) = (   0.4000000  -0.4000000  -0.2000000), wk =   0.0320000
        k(   59) = (   0.4000000  -0.2000000   0.0000000), wk =   0.0320000
        k(   60) = (   0.4000000  -0.2000000   0.2000000), wk =   0.0320000
        k(   61) = (   0.4000000  -0.2000000   0.4000000), wk =   0.0320000
        k(   62) = (   0.4000000  -0.2000000  -0.4000000), wk =   0.0320000
        k(   63) = (   0.4000000  -0.2000000  -0.2000000), wk =   0.0320000

     Dense  grid:  3895379 G-vectors     FFT dimensions: ( 200, 200, 200)

     Smooth grid:   985619 G-vectors     FFT dimensions: ( 125, 125, 125)

     Dynamical RAM for                 wfc:     108.56 MB

     Dynamical RAM for     wfc (w. buffer):     325.69 MB

     Dynamical RAM for           str. fact:      14.86 MB

     Dynamical RAM for           local pot:       0.00 MB

     Dynamical RAM for          nlocal pot:    1082.81 MB

     Dynamical RAM for                qrad:      15.65 MB

     Dynamical RAM for          rho,v,vnew:      45.18 MB

     Dynamical RAM for               rhoin:      15.06 MB

     Dynamical RAM for            rho*nmix:     118.88 MB

     Dynamical RAM for           G-vectors:      28.80 MB

     Dynamical RAM for          h,s,v(r/c):      39.08 MB

     Dynamical RAM for          <psi|beta>:      32.48 MB

     Dynamical RAM for                 psi:     434.25 MB

     Dynamical RAM for                hpsi:     434.25 MB

     Dynamical RAM for                spsi:     434.25 MB

     Dynamical RAM for      wfcinit/wfcrot:     505.26 MB

     Dynamical RAM for           addusdens:      98.03 MB

     Dynamical RAM for          addusforce:     201.19 MB

     Dynamical RAM for         addusstress:      45.09 MB

     Estimated static dynamical RAM per process >       1.67 GB

     Estimated max dynamical RAM per process >       3.01 GB

     Estimated total dynamical RAM >     866.72 GB

     Initial potential from superposition of free atoms

     starting charge  769.41717, renormalised to  770.00000
     Starting wfcs are 1024 randomized atomic wfcs
     Checking if some PAW data can be deallocated... 
       PAW data deallocated on    4 nodes for type:  2

     total cpu time spent up to now is      201.9 secs

     Self-consistent Calculation

     iteration #  1     ecut=    40.00 Ry     beta= 0.40
     Davidson diagonalization with overlap
     ethr =  1.00E-02,  avg # of iterations =  3.0

     Threshold (ethr) on eigenvalues was too large:
     Diagonalizing with lowered threshold

     Davidson diagonalization with overlap
     ethr =  1.84E-04,  avg # of iterations =  7.8

     total cpu time spent up to now is      996.2 secs

     total energy              =  -10056.65842868 Ry
     Harris-Foulkes estimate   =  -10056.82316922 Ry
     estimated scf accuracy    <       1.42868174 Ry

     iteration #  2     ecut=    40.00 Ry     beta= 0.40
     Davidson diagonalization with overlap
     ethr =  1.86E-04,  avg # of iterations =  1.2

     total cpu time spent up to now is     1223.2 secs

     total energy              =  -10056.45492566 Ry
     Harris-Foulkes estimate   =  -10056.66458307 Ry
     estimated scf accuracy    <       0.74304612 Ry

     iteration #  3     ecut=    40.00 Ry     beta= 0.40
     Davidson diagonalization with overlap
     ethr =  9.65E-05,  avg # of iterations =  1.0

     total cpu time spent up to now is     1448.7 secs

     total energy              =  -10056.46604819 Ry
     Harris-Foulkes estimate   =  -10056.46890286 Ry
     estimated scf accuracy    <       0.00340453 Ry

     iteration #  4     ecut=    40.00 Ry     beta= 0.40
     Davidson diagonalization with overlap
     c_bands:  1 eigenvalues not converged
     ethr =  4.42E-07,  avg # of iterations = 21.5

     total cpu time spent up to now is     2183.9 secs

     total energy              =  -10056.46898945 Ry
     Harris-Foulkes estimate   =  -10056.46893134 Ry
     estimated scf accuracy    <       0.00375754 Ry

     iteration #  5     ecut=    40.00 Ry     beta= 0.40
     Davidson diagonalization with overlap
     ethr =  4.42E-07,  avg # of iterations =  5.3

     total cpu time spent up to now is     2466.6 secs

     total energy              =  -10056.46833007 Ry
     Harris-Foulkes estimate   =  -10056.46899015 Ry
     estimated scf accuracy    <       0.00420035 Ry

     iteration #  6     ecut=    40.00 Ry     beta= 0.40
     Davidson diagonalization with overlap
     ethr =  4.42E-07,  avg # of iterations =  2.0

     total cpu time spent up to now is     2716.3 secs

     total energy              =  -10056.46848854 Ry
     Harris-Foulkes estimate   =  -10056.46849643 Ry
     estimated scf accuracy    <       0.00012921 Ry

     iteration #  7     ecut=    40.00 Ry     beta= 0.40
     Davidson diagonalization with overlap
     ethr =  1.68E-08,  avg # of iterations =  6.8

     total cpu time spent up to now is     3109.8 secs

     total energy              =  -10056.46851342 Ry
     Harris-Foulkes estimate   =  -10056.46851394 Ry
     estimated scf accuracy    <       0.00001885 Ry

     iteration #  8     ecut=    40.00 Ry     beta= 0.40
     Davidson diagonalization with overlap
     ethr =  2.45E-09,  avg # of iterations =  1.5

     total cpu time spent up to now is     3339.6 secs

     total energy              =  -10056.46851175 Ry
     Harris-Foulkes estimate   =  -10056.46851353 Ry
     estimated scf accuracy    <       0.00001257 Ry

     iteration #  9     ecut=    40.00 Ry     beta= 0.40
     Davidson diagonalization with overlap
     ethr =  1.63E-09,  avg # of iterations =  2.0

     total cpu time spent up to now is     3576.6 secs

     total energy              =  -10056.46851228 Ry
     Harris-Foulkes estimate   =  -10056.46851244 Ry
     estimated scf accuracy    <       0.00000074 Ry

     iteration # 10     ecut=    40.00 Ry     beta= 0.40
     Davidson diagonalization with overlap
     ethr =  9.59E-11,  avg # of iterations =  4.1

     total cpu time spent up to now is     3957.7 secs

     total energy              =  -10056.46851220 Ry
     Harris-Foulkes estimate   =  -10056.46851219 Ry
     estimated scf accuracy    <       0.00000208 Ry

     iteration # 11     ecut=    40.00 Ry     beta= 0.40
     Davidson diagonalization with overlap
     ethr =  9.59E-11,  avg # of iterations =  1.0

     total cpu time spent up to now is     4183.1 secs

     total energy              =  -10056.46851185 Ry
     Harris-Foulkes estimate   =  -10056.46851212 Ry
     estimated scf accuracy    <       0.00000216 Ry

     iteration # 12     ecut=    40.00 Ry     beta= 0.40
     Davidson diagonalization with overlap
     ethr =  9.59E-11,  avg # of iterations =  2.0

     total cpu time spent up to now is     4427.6 secs

     total energy              =  -10056.46851189 Ry
     Harris-Foulkes estimate   =  -10056.46851189 Ry
     estimated scf accuracy    <       0.00000008 Ry

     iteration # 13     ecut=    40.00 Ry     beta= 0.40
     Davidson diagonalization with overlap
     ethr =  1.04E-11,  avg # of iterations =  4.0

     total cpu time spent up to now is     4678.9 secs

     total energy              =  -10056.46851187 Ry
     Harris-Foulkes estimate   =  -10056.46851187 Ry
     estimated scf accuracy    <       0.00000001 Ry

     iteration # 14     ecut=    40.00 Ry     beta= 0.40
     Davidson diagonalization with overlap
     ethr =  1.57E-12,  avg # of iterations =  4.7

     total cpu time spent up to now is     5033.4 secs

     total energy              =  -10056.46851165 Ry
     Harris-Foulkes estimate   =  -10056.46851164 Ry
     estimated scf accuracy    <          2.8E-09 Ry

     iteration # 15     ecut=    40.00 Ry     beta= 0.40
     Davidson diagonalization with overlap
     ethr =  3.59E-13,  avg # of iterations =  2.0

     total cpu time spent up to now is     5284.9 secs

     total energy              =  -10056.46851161 Ry
     Harris-Foulkes estimate   =  -10056.46851161 Ry
     estimated scf accuracy    <          3.1E-09 Ry

     iteration # 16     ecut=    40.00 Ry     beta= 0.40
     Davidson diagonalization with overlap
     ethr =  3.59E-13,  avg # of iterations =  2.0

     total cpu time spent up to now is     5524.4 secs

     total energy              =  -10056.46851159 Ry
     Harris-Foulkes estimate   =  -10056.46851160 Ry
     estimated scf accuracy    <          2.0E-09 Ry

     iteration # 17     ecut=    40.00 Ry     beta= 0.40
     Davidson diagonalization with overlap
     ethr =  2.58E-13,  avg # of iterations =  2.2

     total cpu time spent up to now is     5763.6 secs

     total energy              =  -10056.46851159 Ry
     Harris-Foulkes estimate   =  -10056.46851159 Ry
     estimated scf accuracy    <          8.8E-11 Ry

     iteration # 18     ecut=    40.00 Ry     beta= 0.40
     Davidson diagonalization with overlap
     ethr =  1.00E-13,  avg # of iterations =  1.1

     total cpu time spent up to now is     5990.8 secs

     total energy              =  -10056.46851158 Ry
     Harris-Foulkes estimate   =  -10056.46851158 Ry
     estimated scf accuracy    <          2.1E-11 Ry

     iteration # 19     ecut=    40.00 Ry     beta= 0.40
     Davidson diagonalization with overlap
     ethr =  1.00E-13,  avg # of iterations =  1.0

     total cpu time spent up to now is     6215.9 secs

     total energy              =  -10056.46851158 Ry
     Harris-Foulkes estimate   =  -10056.46851158 Ry
     estimated scf accuracy    <          4.5E-12 Ry

     iteration # 20     ecut=    40.00 Ry     beta= 0.40
     Davidson diagonalization with overlap
     ethr =  1.00E-13,  avg # of iterations =  1.0

     total cpu time spent up to now is     6441.1 secs

     total energy              =  -10056.46851158 Ry
     Harris-Foulkes estimate   =  -10056.46851158 Ry
     estimated scf accuracy    <          7.5E-12 Ry

     iteration # 21     ecut=    40.00 Ry     beta= 0.40
     Davidson diagonalization with overlap
     ethr =  1.00E-13,  avg # of iterations =  1.0

     total cpu time spent up to now is     6666.2 secs

     total energy              =  -10056.46851157 Ry
     Harris-Foulkes estimate   =  -10056.46851157 Ry
     estimated scf accuracy    <          1.5E-12 Ry

     iteration # 22     ecut=    40.00 Ry     beta= 0.40
     Davidson diagonalization with overlap
     ethr =  1.00E-13,  avg # of iterations =  1.0

     total cpu time spent up to now is     6890.0 secs

     End of self-consistent calculation

          k = 0.0000 0.0000 0.0000 (123065 PWs)   bands (ev):

    -3.3288  -2.9443  -2.7593  -2.6997  -2.6997  -2.6987  -2.6979  -2.3529
    -2.3316  -2.1457  -2.1457  -2.1413  -2.1405  -2.1405  -2.1388  -2.1388
    -2.1384  -2.1384  -2.1380  -1.7283  -1.6796  -1.5867  -1.5867  -1.5862
    -1.5862  -1.5810  -1.5810  -1.1326  -1.1314  -1.0384  -1.0377  -1.0377
    -1.0260  -0.8107  -0.6955  -0.5213  -0.5106  -0.5106  -0.4896  -0.4896
    -0.4779  -0.4750  -0.4748  -0.4748  -0.4747  -0.4746  -0.4746  -0.4746
    -0.4745  -0.4745  -0.4743  -0.4735  -0.4735  -0.4732  -0.4730  -0.4727
    -0.4727  -0.1403  -0.0363   0.0409   0.0411   0.0411   0.0520   0.0520
     0.0687   0.0754   0.0754   0.0754   0.0755   0.0759   0.0761   0.0761
     0.0761   0.0762   0.0767   0.0767   0.0776   0.0776   0.0786   0.0789
     0.0789   0.9814   1.0833   1.1319   1.1526   1.1526   1.1534   1.1534
     1.1668   1.1668   1.1669   1.1698   1.1739   1.4587   1.5471   1.6350
     1.6553   1.6553   1.6717   1.6717   1.6924   1.7062   1.7066   1.7066
     1.7084   1.7105   1.7110   1.7130   1.7131   1.7131   1.7145   1.7146
     1.7151   1.7152   1.7154   1.7161   1.7161   1.7166   1.7166   1.7168
     1.7173   1.7173   1.7173   2.0567   2.1460   2.1892   2.1892   2.2106
     2.2228   2.2299   2.2299   2.2423   2.2459   2.2477   2.2477   2.2478
     2.2493   2.2497   2.2497   2.2501   2.2501   2.2505   2.2509   2.2516
     2.2527   2.2539   2.2539   2.6642   2.6800   2.7455   2.7455   2.7456
     2.7473   2.7500   2.7500   2.7853   2.7854   2.7867   2.7869   2.7872
     2.7872   2.7872   2.7872   2.7910   2.7910   2.7912   2.7913   2.7922
     2.7922   2.7923   2.7923   3.2236   3.2236   3.2256   3.2463   3.3290
     3.4291   3.4291   3.4293   3.7107   3.7331   3.8061   3.8061   3.8139
     3.8139   3.8185   3.8407   3.8500   3.8533   3.8533   3.8574   3.8589
     3.8602   3.8607   3.8607   3.8620   3.8620   3.8632   3.8634   3.8642
     3.8642   3.8642   3.8669   4.1932   4.1932   4.2063   4.2283   4.2430
     4.2430   4.2798   4.2828   4.2841   4.2846   4.2868   4.2874   4.2874
     4.2882   4.2883   4.2883   4.2886   4.2890   4.2891   4.2891   4.2892
     4.2897   4.2901   4.2902   4.2902   4.3690   4.5005   4.5005   4.5035
     4.5035   4.5070   4.5122   4.5122   4.5126   4.5137   4.5153   4.5153
     4.5176   4.5199   4.5201   4.5204   4.5204   4.5208   4.5209   4.5209
     4.5211   4.5218   4.5227   4.8733   4.8787   4.8787   5.3073   5.3487
     5.3487   5.3922   5.3922   5.4167   5.4169   5.4169   5.4172   5.4172
     5.4172   5.4174   5.8161   5.8455   5.8455   5.8563   5.8779   5.8879
     5.8879   5.9309   5.9313   5.9313   5.9323   5.9330   5.9332   5.9354
     5.9599   5.9599   5.9733   5.9870   5.9903   5.9903   5.9929   5.9949
     6.0016   6.0016   6.0030   6.0036   6.0036   6.0044   6.0052   6.0057
     6.0058   6.0058   6.0062   6.0071   6.0071   6.0074   6.1078   6.1935
     6.1936   6.4035   6.4113   6.4113   6.4225   6.4384   6.4384   6.4404
     6.4472   6.4539   6.4543   6.4543   6.4543   6.5358   6.6905   6.7186
     6.7232   6.7291   6.7291   6.7342   6.7361   6.7389   6.7400   6.7400
     6.7405   6.8518   6.9034   6.9034   6.9150   6.9150   6.9529   6.9552
     6.9607   6.9607   6.9609   6.9609   6.9639   6.9667   6.9683   7.0138
     7.0138   7.0155   7.0155   7.0288   7.0341   7.0377   7.0387   7.0419
     7.0419   7.0423   7.0423   7.0437   7.0440   7.0455   7.0459   7.0499
     7.0500   7.0502   7.0502   7.0503   7.0503   7.2476   7.2990   7.3696
     7.3722   7.3729   7.3731   7.3779   7.3779   7.3790   7.3790   7.3793
     7.3793   7.3809   7.3934   7.3934   7.4504   7.4504   7.4716   7.4716
     7.4717   7.4731   7.4750   7.4750   7.4783   7.4817   7.4825   7.4833
     7.4833   7.4838   7.4843   7.4851   7.4861   7.4861   7.4865   7.4875
     7.4884   7.9621   7.9639   7.9639   7.9749   7.9820   7.9894   8.4391
     8.4595   8.5407   8.5407   8.5832   8.5832   8.5986   8.5989   8.6056
     8.6068   8.6202   8.6225   8.6225   8.6239   8.6239   8.6242   8.6260
     8.6261   8.6272   8.6272   8.6274   8.6274   8.6274   8.6274   8.6707
     8.7391   8.8395   8.8396   8.8396   8.8404   8.8711   8.8754   8.8845
     8.8845   8.8889   8.9089   8.9090   8.9090   8.9147   8.9239   8.9259
     8.9269   8.9269   8.9277   8.9284   8.9295   8.9295   8.9297   8.9303
     8.9309   8.9310   8.9314   8.9314   8.9335   8.9711

     occupation numbers 
     1.0000   1.0000   1.0000   1.0000   1.0000   1.0000   1.0000   1.0000
     1.0000   1.0000   1.0000   1.0000   1.0000   1.0000   1.0000   1.0000
     1.0000   1.0000   1.0000   1.0000   1.0000   1.0000   1.0000   1.0000
     1.0000   1.0000   1.0000   1.0000   1.0000   1.0000   1.0000   1.0000
     1.0000   1.0000   1.0000   1.0000   1.0000   1.0000   1.0000   1.0000
     1.0000   1.0000   1.0000   1.0000   1.0000   1.0000   1.0000   1.0000
     1.0000   1.0000   1.0000   1.0000   1.0000   1.0000   1.0000   1.0000
     1.0000   1.0000   1.0000   1.0000   1.0000   1.0000   1.0000   1.0000
     1.0000   1.0000   1.0000   1.0000   1.0000   1.0000   1.0000   1.0000
     1.0000   1.0000   1.0000   1.0000   1.0000   1.0000   1.0000   1.0000
     1.0000   1.0000   1.0000   1.0000   1.0000   1.0000   1.0000   1.0000
     1.0000   1.0000   1.0000   1.0000   1.0000   1.0000   1.0000   1.0000
     1.0000   1.0000   1.0000   1.0000   1.0000   1.0000   1.0000   1.0000
     1.0000   1.0000   1.0000   1.0000   1.0000   1.0000   1.0000   1.0000
     1.0000   1.0000   1.0000   1.0000   1.0000   1.0000   1.0000   1.0000
     1.0000   1.0000   1.0000   1.0000   1.0000   1.0000   1.0000   1.0000
     1.0000   1.0000   1.0000   1.0000   1.0000   1.0000   1.0000   1.0000
     1.0000   1.0000   1.0000   1.0000   1.0000   1.0000   1.0000   1.0000
     1.0000   1.0000   1.0000   1.0000   1.0000   1.0000   1.0000   1.0000
     1.0000   1.0000   1.0000   1.0000   1.0000   1.0000   1.0000   1.0000
     1.0000   1.0000   1.0000   1.0000   1.0000   1.0000   1.0000   1.0000
     1.0000   1.0000   1.0000   1.0000   1.0000   1.0000   1.0000   1.0000
     1.0000   1.0000   1.0000   1.0000   1.0000   1.0000   1.0000   1.0000
     1.0000   1.0000   1.0000   1.0000   1.0000   1.0000   1.0000   1.0000
     1.0000   1.0000   1.0000   1.0000   1.0000   1.0000   1.0000   1.0000
     1.0000   1.0000   1.0000   1.0000   1.0000   1.0000   1.0000   1.0000
     1.0000   1.0000   1.0000   1.0000   1.0000   1.0000   1.0000   1.0000
     1.0000   1.0000   1.0000   1.0000   1.0000   1.0000   1.0000   1.0000
     1.0000   1.0000   1.0000   1.0000   1.0000   1.0000   1.0000   1.0000
     1.0000   1.0000   1.0000   1.0000   1.0000   1.0000   1.0000   1.0000
     1.0000   1.0000   1.0000   1.0000   1.0000   1.0000   1.0000   1.0000
     1.0000   1.0000   1.0000   1.0000   1.0000   1.0000   1.0000   1.0000
     1.0000   1.0000   1.0000   1.0000   1.0000   1.0000   1.0000   1.0000
     1.0000   1.0000   1.0000   1.0000   1.0000   1.0000   1.0000   1.0000
     1.0000   1.0000   1.0000   1.0000   1.0000   1.0000   1.0000   1.0001
     1.0001   1.0001   1.0001   1.0001   1.0001   1.0001   1.0001   1.0001
     1.0001   1.0001   1.0001   1.0001   1.0001   1.0001   1.0001   1.0001
     1.0001   1.0001   1.0001   1.0001   1.0001   1.0001   1.0002   1.0005
     1.0005   1.0024   1.0026   1.0026   1.0028   1.0031   1.0031   1.0031
     1.0032   1.0034   1.0034   1.0034   1.0034   1.0056   1.0126   1.0144
     1.0147   1.0150   1.0150   1.0154   1.0155   1.0157   1.0158   1.0158
     1.0158   1.0240   1.0279   1.0279   1.0288   1.0288   1.0313   1.0315
     1.0318   1.0318   1.0318   1.0318   1.0320   1.0322   1.0323   1.0345
     1.0345   1.0345   1.0345   1.0349   1.0351   1.0352   1.0352   1.0352
     1.0352   1.0353   1.0353   1.0353   1.0353   1.0353   1.0353   1.0354
     1.0354   1.0354   1.0354   1.0354   1.0354   1.0147   0.9983   0.9656
     0.9642   0.9638   0.9636   0.9609   0.9609   0.9603   0.9603   0.9601
     0.9601   0.9592   0.9517   0.9517   0.9119   0.9119   0.8947   0.8947
     0.8946   0.8935   0.8918   0.8918   0.8890   0.8861   0.8855   0.8847
     0.8847   0.8843   0.8839   0.8832   0.8823   0.8823   0.8819   0.8810
     0.8802   0.2800   0.2778   0.2778   0.2642   0.2555   0.2467  -0.0307
    -0.0326  -0.0354  -0.0354  -0.0346  -0.0346  -0.0339  -0.0339  -0.0336
    -0.0336  -0.0329  -0.0328  -0.0328  -0.0327  -0.0327  -0.0327  -0.0326
    -0.0326  -0.0325  -0.0325  -0.0325  -0.0325  -0.0325  -0.0325  -0.0297
    -0.0247  -0.0171  -0.0171  -0.0171  -0.0171  -0.0150  -0.0147  -0.0141
    -0.0141  -0.0139  -0.0126  -0.0126  -0.0126  -0.0123  -0.0118  -0.0117
    -0.0116  -0.0116  -0.0116  -0.0115  -0.0115  -0.0115  -0.0114  -0.0114
    -0.0114  -0.0114  -0.0113  -0.0113  -0.0112  -0.0093

          k = 0.0000 0.0000 0.2000 (123202 PWs)   bands (ev):

    -3.3101  -2.9954  -2.8054  -2.7398  -2.6773  -2.6761  -2.5086  -2.4124
    -2.4088  -2.3417  -2.3405  -2.2084  -2.1742  -2.1184  -2.1182  -1.9718
    -1.9454  -1.8954  -1.8941  -1.8338  -1.8160  -1.7840  -1.7838  -1.4845
    -1.4323  -1.3856  -1.3396  -1.3392  -1.1157  -1.0793  -1.0165  -1.0159
    -0.9521  -0.9308  -0.8959  -0.8948  -0.7827  -0.7175  -0.6853  -0.6839
    -0.5989  -0.5929  -0.4980  -0.4711  -0.4681  -0.4633  -0.4536  -0.4527
    -0.4515  -0.3791  -0.3766  -0.3439  -0.3435  -0.2773  -0.2709  -0.2433
    -0.2422  -0.1854  -0.1515  -0.1380  -0.1362  -0.1313  -0.1230  -0.1221
    -0.1209  -0.0631  -0.0311  -0.0135  -0.0125   0.2132   0.2818   0.2999
     0.3036   0.3076   0.3166   0.3175   0.3187   0.4992   0.5038   0.5350
     0.5351   0.7065   0.7121   0.7453   0.7458   1.0487   1.0496   1.1712
     1.1724   1.1886   1.2311   1.2522   1.2834   1.2890   1.2908   1.3005
     1.3017   1.3029   1.4621   1.4993   1.5036   1.5156   1.5195   1.5867
     1.5936   1.6102   1.6139   1.6177   1.6235   1.6244   1.6945   1.7044
     1.7108   1.7236   1.8736   1.9351   1.9358   1.9501   1.9834   2.0244
     2.0325   2.0468   2.0868   2.1162   2.1312   2.1399   2.1508   2.1539
     2.1584   2.1659   2.1660   2.1686   2.1703   2.1715   2.2255   2.2319
     2.2532   2.2540   2.2611   2.2616   2.2714   2.2714   2.3520   2.4494
     2.4618   2.4685   2.4805   2.5499   2.5570   2.5750   2.5789   2.5822
     2.5834   2.5953   2.5953   2.8416   2.8599   2.8916   2.9030   2.9036
     2.9112   2.9131   2.9183   2.9827   2.9856   3.0070   3.0081   3.0132
     3.0145   3.0260   3.0260   3.2033   3.2080   3.2352   3.2361   3.4003
     3.4036   3.4216   3.4296   3.4364   3.4476   3.4487   3.4495   3.6438
     3.7329   3.7374   3.7414   3.7452   3.7618   3.7710   3.7730   3.7741
     3.7876   3.7883   3.7984   3.8375   3.8425   3.8470   3.8712   3.8735
     3.8793   3.8809   3.8819   3.9453   3.9511   3.9627   3.9665   3.9693
     3.9703   3.9819   3.9820   4.1533   4.1590   4.1600   4.1823   4.1851
     4.1897   4.1920   4.1933   4.2631   4.2855   4.2902   4.3038   4.4660
     4.4663   4.4822   4.5066   4.5067   4.5859   4.6140   4.6196   4.6420
     4.6432   4.6497   4.6523   4.6523   4.8119   4.8131   4.8416   4.8511
     4.8517   4.8569   4.8675   4.8675   4.8987   4.9046   4.9466   4.9818
     5.0068   5.0169   5.0176   5.0408   5.0626   5.0652   5.0663   5.0734
     5.0736   5.0746   5.1967   5.2070   5.3123   5.3724   5.3807   5.3811
     5.3907   5.4144   5.4170   5.4375   5.4854   5.4995   5.5328   5.5331
     5.5532   5.5577   5.5687   5.5893   5.5900   5.5980   5.5996   5.6007
     5.6227   5.6241   5.7144   5.7286   5.7297   5.7470   5.8409   5.8656
     5.8656   5.8748   6.1145   6.1224   6.1356   6.1388   6.1599   6.2155
     6.3346   6.3369   6.3852   6.3911   6.4060   6.4140   6.4225   6.4273
     6.4369   6.4388   6.4425   6.4428   6.4442   6.4443   6.4480   6.4482
     6.4945   6.4995   6.5028   6.5037   6.5165   6.5404   6.5451   6.5515
     6.5546   6.5555   6.5710   6.5749   6.6060   6.6134   6.6408   6.6409
     6.6482   6.7011   6.7383   6.7509   6.7545   6.8294   6.8345   6.8355
     6.8381   6.8727   6.8752   6.8884   6.8907   6.9263   6.9439   6.9467
     6.9681   6.9823   6.9824   7.0225   7.0589   7.0684   7.0723   7.0812
     7.0902   7.0994   7.1040   7.1085   7.1102   7.1147   7.1148   7.1162
     7.1513   7.1731   7.1754   7.2418   7.2478   7.2485   7.2635   7.2776
     7.2828   7.2931   7.2934   7.3246   7.3574   7.3705   7.3803   7.3858
     7.3907   7.5286   7.5527   7.5799   7.5854   7.6341   7.6473   7.6529
     7.6644   7.6706   7.6760   7.6882   7.6886   7.6940   7.6955   7.7068
     7.7069   7.7473   7.7498   7.7786   7.7788   7.7962   7.8244   7.8872
     7.8980   7.9013   7.9185   7.9487   7.9810   7.9948   8.0122   8.0169
     8.0189   8.0221   8.0224   8.1807   8.1811   8.1895   8.1904   8.2133
     8.2136   8.2171   8.2192   8.4514   8.4985   8.5249   8.5303   8.6050
     8.6068   8.6209   8.6382   8.6386   8.6676   8.6721   8.6752   8.6904
     8.6911   8.7122   8.7160   8.8914   8.9286   8.9308   8.9329   9.0359
     9.0439   9.0447   9.0457   9.0551   9.0554   9.0675   9.0675   9.1350
     9.1358   9.1474   9.1518   9.1519   9.1785   9.1951   9.2019   9.2074
     9.2223   9.2333   9.2496   9.2525   9.2564   9.2615

     occupation numbers 
     1.0000   1.0000   1.0000   1.0000   1.0000   1.0000   1.0000   1.0000
     1.0000   1.0000   1.0000   1.0000   1.0000   1.0000   1.0000   1.0000
     1.0000   1.0000   1.0000   1.0000   1.0000   1.0000   1.0000   1.0000
     1.0000   1.0000   1.0000   1.0000   1.0000   1.0000   1.0000   1.0000
     1.0000   1.0000   1.0000   1.0000   1.0000   1.0000   1.0000   1.0000
     1.0000   1.0000   1.0000   1.0000   1.0000   1.0000   1.0000   1.0000
     1.0000   1.0000   1.0000   1.0000   1.0000   1.0000   1.0000   1.0000
     1.0000   1.0000   1.0000   1.0000   1.0000   1.0000   1.0000   1.0000
     1.0000   1.0000   1.0000   1.0000   1.0000   1.0000   1.0000   1.0000
     1.0000   1.0000   1.0000   1.0000   1.0000   1.0000   1.0000   1.0000
     1.0000   1.0000   1.0000   1.0000   1.0000   1.0000   1.0000   1.0000
     1.0000   1.0000   1.0000   1.0000   1.0000   1.0000   1.0000   1.0000
     1.0000   1.0000   1.0000   1.0000   1.0000   1.0000   1.0000   1.0000
     1.0000   1.0000   1.0000   1.0000   1.0000   1.0000   1.0000   1.0000
     1.0000   1.0000   1.0000   1.0000   1.0000   1.0000   1.0000   1.0000
     1.0000   1.0000   1.0000   1.0000   1.0000   1.0000   1.0000   1.0000
     1.0000   1.0000   1.0000   1.0000   1.0000   1.0000   1.0000   1.0000
     1.0000   1.0000   1.0000   1.0000   1.0000   1.0000   1.0000   1.0000
     1.0000   1.0000   1.0000   1.0000   1.0000   1.0000   1.0000   1.0000
     1.0000   1.0000   1.0000   1.0000   1.0000   1.0000   1.0000   1.0000
     1.0000   1.0000   1.0000   1.0000   1.0000   1.0000   1.0000   1.0000
     1.0000   1.0000   1.0000   1.0000   1.0000   1.0000   1.0000   1.0000
     1.0000   1.0000   1.0000   1.0000   1.0000   1.0000   1.0000   1.0000
     1.0000   1.0000   1.0000   1.0000   1.0000   1.0000   1.0000   1.0000
     1.0000   1.0000   1.0000   1.0000   1.0000   1.0000   1.0000   1.0000
     1.0000   1.0000   1.0000   1.0000   1.0000   1.0000   1.0000   1.0000
     1.0000   1.0000   1.0000   1.0000   1.0000   1.0000   1.0000   1.0000
     1.0000   1.0000   1.0000   1.0000   1.0000   1.0000   1.0000   1.0000
     1.0000   1.0000   1.0000   1.0000   1.0000   1.0000   1.0000   1.0000
     1.0000   1.0000   1.0000   1.0000   1.0000   1.0000   1.0000   1.0000
     1.0000   1.0000   1.0000   1.0000   1.0000   1.0000   1.0000   1.0000
     1.0000   1.0000   1.0000   1.0000   1.0000   1.0000   1.0000   1.0000
     1.0000   1.0000   1.0000   1.0000   1.0000   1.0000   1.0000   1.0000
[...]
     atom   75 type  2   force =    -0.00000001   -0.00000001   -0.00000001
     atom   76 type  2   force =    -0.00000004   -0.00000001    0.00000008
     atom   77 type  2   force =    -0.00000007    0.00000005    0.00000005
     atom   78 type  2   force =    -0.00000008    0.00000000    0.00000002
     atom   79 type  2   force =    -0.00000008    0.00000003    0.00000003
     atom   80 type  2   force =    -0.00000013   -0.00000001    0.00000005
     atom   81 type  2   force =    -0.00000015   -0.00000007   -0.00000002
     atom   82 type  2   force =    -0.00000006    0.00000000    0.00000001
     atom   83 type  2   force =    -0.00000006   -0.00000000   -0.00000002
     atom   84 type  2   force =    -0.00000008   -0.00000003   -0.00000005
     atom   85 type  2   force =    -0.00000007   -0.00000002   -0.00000006
     atom   86 type  2   force =    -0.00000001    0.00000001   -0.00000000
     atom   87 type  2   force =     0.00000002    0.00000000    0.00000001
     atom   88 type  2   force =    -0.00000001    0.00000002   -0.00000001
     atom   89 type  2   force =     0.00000001   -0.00000001    0.00000002
     atom   90 type  2   force =     0.00000003    0.00000003    0.00000000
     atom   91 type  2   force =    -0.00000000   -0.00000000    0.00000003
     atom   92 type  2   force =    -0.00000000   -0.00000001    0.00000005
     atom   93 type  2   force =    -0.00000007   -0.00000004    0.00000006
     atom   94 type  2   force =    -0.00000002   -0.00000001   -0.00000001
     atom   95 type  2   force =    -0.00000010   -0.00000004   -0.00000001
     atom   96 type  2   force =    -0.00000009   -0.00000005    0.00000002
     atom   97 type  2   force =    -0.00000008   -0.00000003   -0.00000000
     atom   98 type  2   force =    -0.00000004   -0.00000001   -0.00000000
     atom   99 type  2   force =    -0.00000003   -0.00000001   -0.00000001
     atom  100 type  2   force =    -0.00000003   -0.00000000   -0.00000003
     atom  101 type  2   force =    -0.00000002   -0.00000001   -0.00000001
     atom  102 type  2   force =     0.00000001    0.00000001    0.00000003
     atom  103 type  2   force =     0.00000002    0.00000002    0.00000004
     atom  104 type  2   force =     0.00000002   -0.00000001    0.00000002
     atom  105 type  2   force =     0.00000003    0.00000002   -0.00000001
     atom  106 type  2   force =     0.00000003    0.00000000    0.00000001
     atom  107 type  2   force =     0.00000003    0.00000002   -0.00000002
     atom  108 type  2   force =     0.00000004    0.00000001   -0.00000001
     atom  109 type  2   force =    -0.00000003   -0.00000002    0.00000002
     atom  110 type  2   force =     0.00000001    0.00000001   -0.00000003
     atom  111 type  2   force =    -0.00000002   -0.00000000   -0.00000000
     atom  112 type  2   force =    -0.00000006   -0.00000000    0.00000002
     atom  113 type  2   force =    -0.00000007    0.00000003   -0.00000000
     atom  114 type  2   force =    -0.00000007    0.00000005    0.00000000
     atom  115 type  2   force =    -0.00000003    0.00000001    0.00000001
     atom  116 type  2   force =    -0.00000007    0.00000007   -0.00000004
     atom  117 type  2   force =     0.00000000    0.00000002   -0.00000002
     atom  118 type  2   force =    -0.00000003   -0.00000000    0.00000001
     atom  119 type  2   force =     0.00000004   -0.00000001    0.00000003
     atom  120 type  2   force =     0.00000002    0.00000001   -0.00000002
     atom  121 type  2   force =     0.00000005   -0.00000002    0.00000001
     atom  122 type  2   force =     0.00000004   -0.00000002    0.00000001
     atom  123 type  2   force =     0.00000003   -0.00000001   -0.00000003
     atom  124 type  2   force =     0.00000001    0.00000002    0.00000002
     atom  125 type  2   force =    -0.00000002    0.00000001    0.00000001
     atom  126 type  2   force =    -0.00000001    0.00000001   -0.00000002
     atom  127 type  2   force =    -0.00000003    0.00000000   -0.00000001
     atom  128 type  2   force =    -0.00000008    0.00000006    0.00000004
     atom  129 type  2   force =    -0.00000002    0.00000001   -0.00000002
     atom  130 type  2   force =     0.00000011   -0.00000000    0.00000001
     atom  131 type  2   force =     0.00000007    0.00000002   -0.00000002
     atom  132 type  2   force =     0.00000001   -0.00000000   -0.00000001
     atom  133 type  2   force =    -0.00000001   -0.00000000    0.00000003
     atom  134 type  2   force =     0.00000006    0.00000002    0.00000001
     atom  135 type  2   force =    -0.00000000    0.00000002    0.00000002
     atom  136 type  2   force =     0.00000001    0.00000000    0.00000003
     atom  137 type  2   force =    -0.00000001   -0.00000002    0.00000000
     atom  138 type  2   force =    -0.00000002    0.00000001   -0.00000001
     atom  139 type  2   force =    -0.00000002   -0.00000000   -0.00000000
     atom  140 type  2   force =    -0.00000000   -0.00000000   -0.00000002
     atom  141 type  2   force =    -0.00000001   -0.00000002   -0.00000001
     atom  142 type  2   force =     0.00000005   -0.00000000   -0.00000001
     atom  143 type  2   force =     0.00000007   -0.00000001    0.00000001
     atom  144 type  2   force =    -0.00000003   -0.00000003    0.00000001
     atom  145 type  2   force =     0.00000000   -0.00000000    0.00000001
     atom  146 type  2   force =     0.00000008   -0.00000001    0.00000001
     atom  147 type  2   force =     0.00000009    0.00000000   -0.00000001
     atom  148 type  2   force =     0.00000001   -0.00000000    0.00000000
     atom  149 type  2   force =     0.00000003    0.00000001    0.00000002
     atom  150 type  2   force =     0.00000004   -0.00000001    0.00000002
     atom  151 type  2   force =     0.00000001    0.00000001    0.00000000
     atom  152 type  2   force =     0.00000003    0.00000002    0.00000004
     atom  153 type  2   force =     0.00000002    0.00000001    0.00000000
     atom  154 type  2   force =    -0.00000002    0.00000003   -0.00000001
     atom  155 type  2   force =    -0.00000000    0.00000001   -0.00000001
     atom  156 type  2   force =     0.00000001    0.00000002   -0.00000002
     atom  157 type  2   force =    -0.00000002    0.00000001   -0.00000003
     atom  158 type  2   force =     0.00000003    0.00000001   -0.00000001
     atom  159 type  2   force =     0.00000010    0.00000000    0.00000001
     atom  160 type  2   force =    -0.00000000    0.00000002   -0.00000002
     atom  161 type  2   force =    -0.00000001   -0.00000001   -0.00000001
     atom  162 type  2   force =     0.00000000   -0.00000002    0.00000000
     atom  163 type  2   force =     0.00000004   -0.00000003    0.00000001
     atom  164 type  2   force =    -0.00000002    0.00000000    0.00000003
     atom  165 type  2   force =     0.00000001    0.00000001    0.00000004
     atom  166 type  2   force =    -0.00000001    0.00000001    0.00000005
     atom  167 type  2   force =    -0.00000001   -0.00000001    0.00000003
     atom  168 type  2   force =    -0.00000000    0.00000001    0.00000004
     atom  169 type  2   force =     0.00000001    0.00000001   -0.00000000
     atom  170 type  2   force =    -0.00000004   -0.00000001   -0.00000001
     atom  171 type  2   force =    -0.00000002   -0.00000000   -0.00000003
     atom  172 type  2   force =    -0.00000001    0.00000001   -0.00000004
     atom  173 type  2   force =     0.00000000    0.00000001   -0.00000004
     atom  174 type  2   force =    -0.00000002   -0.00000001   -0.00000004
     atom  175 type  2   force =     0.00000002   -0.00000003   -0.00000002
     atom  176 type  2   force =    -0.00000001   -0.00000001   -0.00000003
     atom  177 type  2   force =    -0.00000002    0.00000001   -0.00000001
     atom  178 type  2   force =     0.00000005    0.00000004   -0.00000002
     atom  179 type  2   force =     0.00000002    0.00000001    0.00000004
     atom  180 type  2   force =    -0.00000001   -0.00000000    0.00000001
     atom  181 type  2   force =    -0.00000000   -0.00000002    0.00000005
     atom  182 type  2   force =     0.00000002   -0.00000002    0.00000001
     atom  183 type  2   force =    -0.00000004   -0.00000002    0.00000002
     atom  184 type  2   force =    -0.00000001   -0.00000003    0.00000004
     atom  185 type  2   force =    -0.00000002   -0.00000001    0.00000001
     atom  186 type  2   force =    -0.00000006   -0.00000003   -0.00000000
     atom  187 type  2   force =    -0.00000005   -0.00000001   -0.00000002
     atom  188 type  2   force =    -0.00000002   -0.00000003   -0.00000003
     atom  189 type  2   force =    -0.00000000   -0.00000000   -0.00000005
     atom  190 type  2   force =     0.00000001    0.00000000    0.00000001
     atom  191 type  2   force =     0.00000000    0.00000004   -0.00000003
     atom  192 type  2   force =    -0.00000000    0.00000001   -0.00000002
     atom  193 type  2   force =     0.00000016    0.00000007   -0.00000001
     atom  194 type  2   force =     0.00000017    0.00000001   -0.00000001
     atom  195 type  2   force =     0.00000011    0.00000010   -0.00000009
     atom  196 type  2   force =     0.00000015    0.00000002   -0.00000006
     atom  197 type  2   force =     0.00000009    0.00000004   -0.00000005
     atom  198 type  2   force =     0.00000006   -0.00000001   -0.00000012
     atom  199 type  2   force =     0.00000001    0.00000005   -0.00000008
     atom  200 type  2   force =     0.00000003    0.00000000   -0.00000005
     atom  201 type  2   force =    -0.00000000    0.00000002   -0.00000003
     atom  202 type  2   force =     0.00000000   -0.00000001   -0.00000002
     atom  203 type  2   force =     0.00000005    0.00000003    0.00000008
     atom  204 type  2   force =     0.00000002    0.00000002    0.00000005
     atom  205 type  2   force =     0.00000007    0.00000002    0.00000008
     atom  206 type  2   force =     0.00000009   -0.00000000    0.00000015
     atom  207 type  2   force =     0.00000012    0.00000009    0.00000009
     atom  208 type  2   force =     0.00000017    0.00000001    0.00000006
     atom  209 type  2   force =     0.00000016   -0.00000005    0.00000001
     atom  210 type  2   force =     0.00000008   -0.00000012   -0.00000000
     atom  211 type  2   force =     0.00000010   -0.00000008   -0.00000010
     atom  212 type  2   force =     0.00000008   -0.00000005   -0.00000003
     atom  213 type  2   force =     0.00000006   -0.00000002   -0.00000005
     atom  214 type  2   force =     0.00000003   -0.00000004   -0.00000008
     atom  215 type  2   force =    -0.00000001   -0.00000003   -0.00000009
     atom  216 type  2   force =    -0.00000002    0.00000001   -0.00000002
     atom  217 type  2   force =    -0.00000003    0.00000000   -0.00000001
     atom  218 type  2   force =    -0.00000002    0.00000003   -0.00000001
     atom  219 type  2   force =     0.00000001   -0.00000004    0.00000008
     atom  220 type  2   force =    -0.00000002    0.00000000    0.00000001
     atom  221 type  2   force =     0.00000007   -0.00000002    0.00000006
     atom  222 type  2   force =     0.00000003   -0.00000004    0.00000010
     atom  223 type  2   force =     0.00000011   -0.00000009    0.00000011
     atom  224 type  2   force =     0.00000008   -0.00000004    0.00000003
     atom  225 type  2   force =     0.00000006   -0.00000008    0.00000000
     atom  226 type  2   force =     0.00000005   -0.00000003   -0.00000001
     atom  227 type  2   force =     0.00000002   -0.00000010   -0.00000003
     atom  228 type  2   force =     0.00000002   -0.00000002    0.00000001
     atom  229 type  2   force =     0.00000002   -0.00000004    0.00000000
     atom  230 type  2   force =    -0.00000001   -0.00000002   -0.00000000
     atom  231 type  2   force =    -0.00000001   -0.00000003   -0.00000001
     atom  232 type  2   force =    -0.00000003   -0.00000002    0.00000001
     atom  233 type  2   force =    -0.00000003   -0.00000001   -0.00000002
     atom  234 type  2   force =    -0.00000002   -0.00000001   -0.00000001
     atom  235 type  2   force =    -0.00000001   -0.00000001    0.00000001
     atom  236 type  2   force =    -0.00000003   -0.00000002   -0.00000001
     atom  237 type  2   force =     0.00000001   -0.00000003    0.00000001
     atom  238 type  2   force =     0.00000002   -0.00000002    0.00000004
     atom  239 type  2   force =     0.00000006   -0.00000007    0.00000003
     atom  240 type  2   force =     0.00000004   -0.00000003   -0.00000002
     atom  241 type  2   force =     0.00000006    0.00000006    0.00000000
     atom  242 type  2   force =     0.00000010    0.00000013   -0.00000002
     atom  243 type  2   force =     0.00000003    0.00000008   -0.00000003
     atom  244 type  2   force =     0.00000008    0.00000006   -0.00000001
     atom  245 type  2   force =    -0.00000000    0.00000002   -0.00000000
     atom  246 type  2   force =     0.00000003    0.00000008   -0.00000007
     atom  247 type  2   force =    -0.00000000    0.00000001   -0.00000000
     atom  248 type  2   force =     0.00000001    0.00000000   -0.00000002
     atom  249 type  2   force =    -0.00000003   -0.00000002   -0.00000001
     atom  250 type  2   force =     0.00000001   -0.00000000   -0.00000001
     atom  251 type  2   force =     0.00000000    0.00000001    0.00000002
     atom  252 type  2   force =    -0.00000001   -0.00000001    0.00000003
     atom  253 type  2   force =     0.00000001    0.00000003    0.00000001
     atom  254 type  2   force =     0.00000004    0.00000006    0.00000010
     atom  255 type  2   force =     0.00000006    0.00000008    0.00000001
     atom  256 type  2   force =     0.00000008    0.00000006    0.00000000

     Total force =     0.004596     Total SCF correction =     0.000001


     Computing stress (Cartesian axis) and pressure

          total   stress  (Ry/bohr**3)                   (kbar)     P=  -10.88
  -0.00007398  -0.00000000   0.00000000        -10.88     -0.00      0.00
  -0.00000000  -0.00007394  -0.00000000         -0.00    -10.88     -0.00
   0.00000000  -0.00000000  -0.00007397          0.00     -0.00    -10.88

     kinetic stress (kbar)   1443.56     -0.00     -0.00
                               -0.00   1443.55     -0.00
                               -0.00     -0.00   1443.56

     local   stress (kbar)    626.09     -0.00      0.00
                               -0.00    622.06      0.00
                                0.00      0.00    626.09

     nonloc. stress (kbar)   1044.22      0.00     -0.00
                                0.00   1044.19      0.00
                               -0.00      0.00   1044.22

     hartree stress (kbar)      4.09      0.00     -0.00
                                0.00      5.99      0.00
                               -0.00      0.00      4.09

     exc-cor stress (kbar)    524.88      0.00     -0.00
                                0.00    524.88     -0.00
                               -0.00     -0.00    524.88

     corecor stress (kbar)  -1298.31     -0.00      0.00
                               -0.00  -1298.31      0.00
                                0.00      0.00  -1298.31

     ewald   stress (kbar)  -2355.40      0.00     -0.00
                                0.00  -2353.23     -0.00
                               -0.00     -0.00  -2355.40

     hubbard stress (kbar)      0.00      0.00      0.00
                                0.00      0.00      0.00
                                0.00      0.00      0.00

     london  stress (kbar)      0.00      0.00      0.00
                                0.00      0.00      0.00
                                0.00      0.00      0.00

     DFT-D3  stress (kbar)      0.00      0.00      0.00
                                0.00      0.00      0.00
                                0.00      0.00      0.00

     XDM     stress (kbar)      0.00      0.00      0.00
                                0.00      0.00      0.00
                                0.00      0.00      0.00

     dft-nl  stress (kbar)      0.00      0.00      0.00
                                0.00      0.00      0.00
                                0.00      0.00      0.00

     TS-vdW  stress (kbar)      0.00      0.00      0.00
                                0.00      0.00      0.00
                                0.00      0.00      0.00



     Writing output data file aiida.save/
 
     init_run     :    197.52s CPU    199.87s WALL (       1 calls)
     electrons    :   6636.21s CPU   6688.60s WALL (       1 calls)
     forces       :     95.06s CPU     96.08s WALL (       1 calls)
     stress       :   1264.62s CPU   1266.10s WALL (       1 calls)

     Called by init_run:
     wfcinit      :    188.69s CPU    190.69s WALL (       1 calls)
     wfcinit:atom :      0.39s CPU      0.63s WALL (       2 calls)
     wfcinit:wfcr :    185.88s CPU    186.81s WALL (       2 calls)
     potinit      :      2.40s CPU      2.52s WALL (       1 calls)
     hinit0       :      2.90s CPU      2.98s WALL (       1 calls)

     Called by electrons:
     c_bands      :   5739.39s CPU   5781.21s WALL (      23 calls)
     sum_band     :    822.48s CPU    827.16s WALL (      23 calls)
     v_of_rho     :     35.93s CPU     38.00s WALL (      23 calls)
     v_h          :      3.77s CPU      3.78s WALL (      23 calls)
     v_xc         :     34.50s CPU     36.65s WALL (      25 calls)
     newd         :      7.57s CPU      9.61s WALL (      23 calls)
     PAW_pot      :      4.77s CPU      4.78s WALL (      23 calls)
     mix_rho      :     21.09s CPU     22.79s WALL (      23 calls)

     Called by c_bands:
     init_us_2    :     83.69s CPU     84.28s WALL (      98 calls)
     cegterg      :   4959.78s CPU   4999.64s WALL (      47 calls)

     Called by sum_band:
     sum_band:bec :      1.44s CPU      1.44s WALL (      46 calls)
     addusdens    :      6.20s CPU      8.57s WALL (      23 calls)

     Called by *egterg:
     h_psi        :   3308.92s CPU   3323.07s WALL (     199 calls)
     s_psi        :    949.39s CPU    951.32s WALL (     199 calls)
     g_psi        :      4.02s CPU      4.02s WALL (     150 calls)
     cdiaghg      :    226.70s CPU    230.74s WALL (     195 calls)
     cegterg:over :    275.64s CPU    277.14s WALL (     150 calls)
     cegterg:upda :    152.37s CPU    158.68s WALL (     150 calls)
     cegterg:last :    102.63s CPU    102.70s WALL (      49 calls)
     cdiaghg:chol :      9.90s CPU      9.97s WALL (     195 calls)
     cdiaghg:inve :      4.39s CPU      4.39s WALL (     195 calls)
     cdiaghg:para :     50.03s CPU     50.86s WALL (     390 calls)

     Called by h_psi:
     h_psi:pot    :   3304.49s CPU   3312.42s WALL (     199 calls)
     h_psi:calbec :    972.53s CPU    972.82s WALL (     199 calls)
     vloc_psi     :   1381.80s CPU   1387.23s WALL (     199 calls)
     add_vuspsi   :    950.15s CPU    952.37s WALL (     199 calls)

     General routines
     calbec       :   1444.32s CPU   1444.75s WALL (     255 calls)
     fft          :     40.62s CPU     43.22s WALL (     324 calls)
     ffts         :      9.47s CPU      9.54s WALL (     313 calls)
     fftw         :   1415.47s CPU   1420.83s WALL (  126290 calls)
     interpolate  :      3.87s CPU      3.98s WALL (      23 calls)
 
     Parallel routines
     fft_scatt_xy :    473.86s CPU    475.38s WALL (  126927 calls)
     fft_scatt_yz :    274.72s CPU    277.30s WALL (  126927 calls)

     PAW routines
     PAW_pot      :      4.77s CPU      4.78s WALL (      23 calls)
 
     PWSCF        :      2h19m CPU      2h21m WALL

 
   This run was terminated on:  12:55: 6  26Feb2020            

=------------------------------------------------------------------------------=
   JOB DONE.
=------------------------------------------------------------------------------=
