begin
comment 256 atoms, species Al254Si2
lattice     30.6664728719     0.0000000000     0.0000000000
lattice      0.0000000000    30.6664728719     0.0000000000
lattice      0.0000000000     0.0000000000    30.6664728719
atom      0.0000000000     0.0214665310     0.0000000000   Si  0.0 0.0    3.99999970e-08  3.79074972e-04  4.99999962e-09
atom      3.8086256650     0.0031494468     3.8086256650   Al  0.0 0.0    2.90749978e-05  1.52634989e-04  2.90749978e-05
atom      3.7887875237     3.8333091090     0.0000000000   Al  0.0 0.0    3.68639972e-04  3.99999970e-08 -3.99999970e-08
atom      0.0000000000     3.8333091090     3.7887875237   Al  0.0 0.0   -2.49999981e-08  3.49999974e-08  3.68639972e-04
atom      0.0000000000     0.0038210425     7.6528489717   Al  0.0 0.0   -4.99999962e-09  1.67339987e-04 -2.17734984e-04
atom      3.8328368453     3.8333091090     7.6612853183   Al  0.0 0.0   -1.38004990e-04  1.49999989e-08 -3.11569977e-04
atom      3.8328491119     0.0004998635    11.4982652041   Al  0.0 0.0   -5.20549961e-05  1.57099988e-05 -9.68849927e-05
atom      0.0000000000     3.8333091090    11.4968514797   Al  0.0 0.0    3.99999970e-08  9.99999925e-09 -1.37494990e-04
atom      0.0000000000     0.0005918629    15.3332364360   Al  0.0 0.0    2.49999981e-08  3.03699977e-05  9.99999925e-09
atom      3.8337967059     3.8333091090    15.3332364360   Al  0.0 0.0   -3.08999977e-05 -0.00000000e+00 -2.49999981e-08
atom      3.8328491119     0.0004998635    19.1682076678   Al  0.0 0.0   -5.20749961e-05  1.56599988e-05  9.69199927e-05
atom      0.0000000000     3.8333091090    19.1696213922   Al  0.0 0.0    2.99999977e-08  4.99999962e-09  1.37474990e-04
atom      0.0000000000     0.0038210425    23.0136239003   Al  0.0 0.0    3.49999974e-08  1.67309987e-04  2.17774984e-04
atom      3.8328368453     3.8333091090    23.0051875536   Al  0.0 0.0   -1.38004990e-04  1.49999989e-08  3.11659977e-04
atom      3.8086256650     0.0031494468    26.8578472069   Al  0.0 0.0    2.90149978e-05  1.52634989e-04 -2.90599978e-05
atom      0.0000000000     3.8333091090    26.8776853482   Al  0.0 0.0    8.49999936e-08  2.49999981e-08 -3.68629972e-04
atom      0.0000000000     7.6451516870     0.0000000000   Si  0.0 0.0    1.99999985e-08 -3.79084972e-04 -1.99999985e-08
atom      3.8100332561    11.4759032121     0.0000000000   Al  0.0 0.0    7.18949946e-05  5.72349957e-05 -2.99999977e-08
atom      3.8086256650     7.6634687712     3.8086256650   Al  0.0 0.0    2.90549978e-05 -1.52639989e-04  2.90599978e-05
atom      0.0000000000    11.4759032121     3.8100332561   Al  0.0 0.0    9.99999925e-09  5.72349957e-05  7.18699946e-05
atom      0.0000000000     7.6627971755     7.6528489717   Al  0.0 0.0    9.99999925e-09 -1.67364987e-04 -2.17739984e-04
atom      3.8329441780    11.4996206622     7.6636159703   Al  0.0 0.0   -8.26099938e-05 -1.02614992e-04 -1.64219988e-04
atom      3.8328491119     7.6661183545    11.4982652041   Al  0.0 0.0   -5.20449961e-05 -1.56649988e-05 -9.68999927e-05
atom      0.0000000000    11.5000285263    11.4985994687   Al  0.0 0.0    5.49999959e-08 -6.97299948e-05 -1.00374992e-04
atom      0.0000000000     7.6660263551    15.3332364360   Al  0.0 0.0    4.49999966e-08 -3.03649977e-05 -4.99999962e-09
atom      3.8335513741    11.5005222565    15.3332364360   Al  0.0 0.0   -1.69599987e-05 -1.30299990e-05 -4.49999966e-08
atom      3.8328491119     7.6661183545    19.1682076678   Al  0.0 0.0   -5.20849961e-05 -1.56299988e-05  9.69299927e-05
atom      0.0000000000    11.5000285263    19.1678734032   Al  0.0 0.0    1.99999985e-08 -6.97499948e-05  1.00364992e-04
atom      0.0000000000     7.6627971755    23.0136239003   Al  0.0 0.0    5.99999955e-08 -1.67359987e-04  2.17759984e-04
atom      3.8329441780    11.4996206622    23.0028599683   Al  0.0 0.0   -8.25849938e-05 -1.02634992e-04  1.64229988e-04
atom      3.8086256650     7.6634687712    26.8578472069   Al  0.0 0.0    2.90249978e-05 -1.52609989e-04 -2.90699978e-05
atom      0.0000000000    11.4759032121    26.8564396158   Al  0.0 0.0    6.49999951e-08  5.72199957e-05 -7.18799946e-05
atom      0.0000000000    15.3228957013     0.0000000000   Al  0.0 0.0    4.99999962e-09 -5.36849960e-05 -0.00000000e+00
atom      3.8328521785    19.1665455449     0.0000000000   Al  0.0 0.0   -8.80999934e-05 -2.49999981e-08  3.49999974e-08
atom      3.8332385761    15.3308413844     3.8332385761   Al  0.0 0.0   -8.51199936e-05 -1.38469990e-04 -8.51199936e-05
atom      0.0000000000    19.1665455449     3.8328521785   Al  0.0 0.0    3.49999974e-08  1.49999989e-08 -8.81099934e-05
atom      0.0000000000    15.3291332619     7.6619109144   Al  0.0 0.0    2.49999981e-08 -1.79409987e-04 -2.10804984e-04
atom      3.8325976468    19.1665455449     7.6656890238   Al  0.0 0.0   -3.78549972e-05 -2.49999981e-08 -2.44449982e-05
atom      3.8329595112    15.3326844394    11.5000683927   Al  0.0 0.0   -2.11649984e-05 -1.67549987e-05 -3.23749976e-05
atom      0.0000000000    19.1665455449    11.5006970554   Al  0.0 0.0    4.99999962e-08  4.99999962e-09 -6.55149951e-05
atom      0.0000000000    15.3326660396    15.3332364360   Al  0.0 0.0    4.49999966e-08 -3.36399975e-05  4.99999962e-09
atom      3.8334225749    19.1665455449    15.3332364360   Al  0.0 0.0    2.48999981e-06 -1.49999989e-08 -3.99999970e-08
atom      3.8329595112    15.3326844394    19.1664044792   Al  0.0 0.0   -2.11799984e-05 -1.67999987e-05  3.23599976e-05
atom      0.0000000000    19.1665455449    19.1657758165   Al  0.0 0.0    1.99999985e-08  9.99999925e-09  6.54899951e-05
atom      0.0000000000    15.3291332619    23.0045619575   Al  0.0 0.0    5.49999959e-08 -1.79424987e-04  2.10869984e-04
atom      3.8325976468    19.1665455449    23.0007838481   Al  0.0 0.0   -3.78799972e-05 -9.99999925e-09  2.44599982e-05
atom      3.8332385761    15.3308413844    26.8332342958   Al  0.0 0.0   -8.51299936e-05 -1.38509990e-04  8.51249936e-05
atom      0.0000000000    19.1665455449    26.8336206934   Al  0.0 0.0   -1.49999989e-08 -2.99999977e-08  8.81049934e-05
atom      0.0000000000    23.0101953886     0.0000000000   Al  0.0 0.0    1.49999989e-08  5.36999960e-05 -1.49999989e-08
atom      3.8100332561    26.8571878778     0.0000000000   Al  0.0 0.0    7.19049946e-05 -5.72449957e-05 -2.49999981e-08
atom      3.8332385761    23.0022527721     3.8332385761   Al  0.0 0.0   -8.51299936e-05  1.38444990e-04 -8.51099936e-05
atom      0.0000000000    26.8571878778     3.8100332561   Al  0.0 0.0   -2.99999977e-08 -5.72099957e-05  7.19049946e-05
atom      0.0000000000    23.0039578280     7.6619109144   Al  0.0 0.0    3.49999974e-08  1.79449987e-04 -2.10844984e-04
atom      3.8329441780    26.8334704277     7.6636159703   Al  0.0 0.0   -8.26199938e-05  1.02559992e-04 -1.64239988e-04
atom      3.8329595112    23.0004066504    11.5000683927   Al  0.0 0.0   -2.11849984e-05  1.67449987e-05 -3.23799976e-05
atom      0.0000000000    26.8330594969    11.4985994687   Al  0.0 0.0    9.99999925e-09  6.97699948e-05 -1.00364992e-04
atom      0.0000000000    23.0004281170    15.3332364360   Al  0.0 0.0    4.99999962e-08  3.35949975e-05 -1.49999989e-08
atom      3.8335513741    26.8325719000    15.3332364360   Al  0.0 0.0   -1.69499987e-05  1.29849990e-05 -4.99999962e-09
atom      3.8329595112    23.0004066504    19.1664044792   Al  0.0 0.0   -2.11549984e-05  1.67999987e-05  3.23699976e-05
atom      0.0000000000    26.8330594969    19.1678734032   Al  0.0 0.0    5.49999959e-08  6.97749948e-05  1.00359992e-04
atom      0.0000000000    23.0039578280    23.0045619575   Al  0.0 0.0    9.99999925e-09  1.79439987e-04  2.10824984e-04
atom      3.8329441780    26.8334704277    23.0028599683   Al  0.0 0.0   -8.25699938e-05  1.02579992e-04  1.64214988e-04
atom      3.8332385761    23.0022527721    26.8332342958   Al  0.0 0.0   -8.51499936e-05  1.38504990e-04  8.51299936e-05
atom      0.0000000000    26.8571878778    26.8564396158   Al  0.0 0.0    4.49999966e-08 -5.72199957e-05 -7.18949946e-05
atom      7.6528489717     0.0038210425     0.0000000000   Al  0.0 0.0   -2.17729984e-04  1.67334987e-04 -3.49999974e-08
atom     11.4968514797     3.8333091090     0.0000000000   Al  0.0 0.0   -1.37524990e-04 -1.49999989e-08  1.99999985e-08
atom     11.4982652041     0.0004998635     3.8328491119   Al  0.0 0.0   -9.68799927e-05  1.56999988e-05 -5.20599961e-05
atom      7.6612853183     3.8333091090     3.8328368453   Al  0.0 0.0   -3.11574977e-04  2.99999977e-08 -1.37984990e-04
atom      7.6637233029    30.6652523463     7.6637233029   Al  0.0 0.0   -1.66474987e-04 -1.98899985e-05 -1.66489987e-04
atom     11.4997341282     3.8333091090     7.6657350236   Al  0.0 0.0   -5.57099958e-05  4.99999962e-09 -2.48099981e-05
atom     11.5003903907    30.6664360721    11.5003903907   Al  0.0 0.0   -2.49149981e-05  3.89499971e-06 -2.49049981e-05
atom      7.6657350236     3.8333091090    11.4997341282   Al  0.0 0.0   -2.48399981e-05  9.99999925e-09 -5.56999958e-05
atom      7.6659864886     0.0000367998    15.3332364360   Al  0.0 0.0   -2.67099980e-05 -5.54999958e-06 -4.49999966e-08
atom     11.5005713229     3.8333091090    15.3332364360   Al  0.0 0.0   -1.17499991e-06 -1.49999989e-08 -2.99999977e-08
atom     11.5003903907    30.6664360721    19.1660824812   Al  0.0 0.0   -2.49149981e-05  3.86499971e-06  2.49699981e-05
atom      7.6657350236     3.8333091090    19.1667387437   Al  0.0 0.0   -2.48249981e-05  4.99999962e-09  5.56449958e-05
atom      7.6637233029    30.6652523463    23.0027495690   Al  0.0 0.0   -1.66494987e-04 -1.99649985e-05  1.66494987e-04
atom     11.4997341282     3.8333091090    23.0007378484   Al  0.0 0.0   -5.56599958e-05 -1.49999989e-08  2.48599981e-05
atom     11.4982652041     0.0004998635    26.8336237600   Al  0.0 0.0   -9.69299927e-05  1.56849988e-05  5.20549961e-05
atom      7.6612853183     3.8333091090    26.8336360266   Al  0.0 0.0   -3.11604977e-04  9.99999925e-09  1.37944990e-04
atom      7.6528489717     7.6627971755     0.0000000000   Al  0.0 0.0   -2.17759984e-04 -1.67374987e-04 -1.99999985e-08
atom     11.4985994687    11.5000285263     0.0000000000   Al  0.0 0.0   -1.00374992e-04 -6.97499948e-05  2.99999977e-08
atom     11.4982652041     7.6661183545     3.8328491119   Al  0.0 0.0   -9.69049927e-05 -1.56749988e-05 -5.20649961e-05
atom      7.6636159703    11.4996206622     3.8329441780   Al  0.0 0.0   -1.64254988e-04 -1.02599992e-04 -8.25949938e-05
atom      7.6637233029     7.6678387436     7.6637233029   Al  0.0 0.0   -1.66499987e-04  1.98749985e-05 -1.66449987e-04
atom     11.4998874606    11.4996850618     7.6661612875   Al  0.0 0.0   -2.41399982e-05 -1.13449991e-05 -2.00699985e-05
atom     11.5003903907     7.6666550177    11.5003903907   Al  0.0 0.0   -2.48999981e-05 -3.89999971e-06 -2.49549981e-05
atom      7.6661612875    11.4996850618    11.4998874606   Al  0.0 0.0   -2.01099985e-05 -1.12899992e-05 -2.41399982e-05
atom      7.6659864886     7.6665814182    15.3332364360   Al  0.0 0.0   -2.67349980e-05  5.52499958e-06 -4.99999962e-08
atom     11.4999395936    11.4995439961    15.3332364360   Al  0.0 0.0   -1.23549991e-05 -2.05549985e-05 -0.00000000e+00
atom     11.5003903907     7.6666550177    19.1660824812   Al  0.0 0.0   -2.49299981e-05 -3.89499971e-06  2.49499981e-05
atom      7.6661612875    11.4996850618    19.1665854114   Al  0.0 0.0   -2.01149985e-05 -1.12899992e-05  2.42049982e-05
atom      7.6637233029     7.6678387436    23.0027495690   Al  0.0 0.0   -1.66524987e-04  1.99499985e-05  1.66514987e-04
atom     11.4998874606    11.4996850618    23.0003115844   Al  0.0 0.0   -2.41449982e-05 -1.12949992e-05  2.01299985e-05
atom     11.4982652041     7.6661183545    26.8336237600   Al  0.0 0.0   -9.69249927e-05 -1.56149988e-05  5.20499961e-05
atom      7.6636159703    11.4996206622    26.8335286939   Al  0.0 0.0   -1.64259988e-04 -1.02604992e-04  8.25999938e-05
atom      7.6619109144    15.3291332619     0.0000000000   Al  0.0 0.0   -2.10849984e-04 -1.79424987e-04 -2.49999981e-08
atom     11.5006970554    19.1665455449     0.0000000000   Al  0.0 0.0   -6.55299951e-05 -9.99999925e-09  2.99999977e-08
atom     11.5000683927    15.3326844394     3.8329595112   Al  0.0 0.0   -3.23649976e-05 -1.67299987e-05 -2.11999984e-05
atom      7.6656890238    19.1665455449     3.8325976468   Al  0.0 0.0   -2.44649982e-05 -1.49999989e-08 -3.78549972e-05
atom      7.6679307430    15.3346102939     7.6679307430   Al  0.0 0.0    3.08799977e-05  2.90599978e-05  3.08949977e-05
atom     11.5000407929    19.1665455449     7.6665630183   Al  0.0 0.0    1.23899991e-05 -2.99999977e-08 -1.74049987e-05
atom     11.4996421288    15.3332303027    11.4996421288   Al  0.0 0.0   -1.02249992e-05 -7.23999946e-06 -1.02299992e-05
atom      7.6665630183    19.1665455449    11.5000407929   Al  0.0 0.0   -1.74449987e-05  1.99999985e-08  1.23999991e-05
atom      7.6666274179    15.3330953702    15.3332364360   Al  0.0 0.0    9.32499930e-06  1.26999990e-06 -3.99999970e-08
atom     11.4990839990    19.1665455449    15.3332364360   Al  0.0 0.0   -4.10049969e-05  9.99999925e-09 -4.99999962e-09
atom     11.4996421288    15.3332303027    19.1668307431   Al  0.0 0.0   -1.02349992e-05 -7.27499945e-06  1.02349992e-05
atom      7.6665630183    19.1665455449    19.1664320790   Al  0.0 0.0   -1.73849987e-05  1.99999985e-08 -1.23899991e-05
atom      7.6679307430    15.3346102939    22.9985421289   Al  0.0 0.0    3.09349977e-05  2.90199978e-05 -3.08999977e-05
atom     11.5000407929    19.1665455449    22.9999129202   Al  0.0 0.0    1.24249991e-05 -3.49999974e-08  1.73899987e-05
atom     11.5000683927    15.3326844394    26.8335133607   Al  0.0 0.0   -3.23649976e-05 -1.67699987e-05  2.10899984e-05
atom      7.6656890238    19.1665455449    26.8338752251   Al  0.0 0.0   -2.44349982e-05 -4.99999962e-09  3.78949972e-05
atom      7.6619109144    23.0039578280     0.0000000000   Al  0.0 0.0   -2.10839984e-04  1.79449987e-04 -1.99999985e-08
atom     11.4985994687    26.8330594969     0.0000000000   Al  0.0 0.0   -1.00404992e-04  6.97749948e-05  1.49999989e-08
atom     11.5000683927    23.0004066504     3.8329595112   Al  0.0 0.0   -3.23949976e-05  1.67899987e-05 -2.11699984e-05
atom      7.6636159703    26.8334704277     3.8329441780   Al  0.0 0.0   -1.64219988e-04  1.02574992e-04 -8.26099938e-05
atom      7.6679307430    22.9984807959     7.6679307430   Al  0.0 0.0    3.08849977e-05 -2.90399978e-05  3.08799977e-05
atom     11.4998874606    26.8334060281     7.6661612875   Al  0.0 0.0   -2.41449982e-05  1.12649992e-05 -2.00799985e-05
atom     11.4996421288    22.9998607872    11.4996421288   Al  0.0 0.0   -1.02449992e-05  7.26999945e-06 -1.02249992e-05
atom      7.6661612875    26.8334060281    11.4998874606   Al  0.0 0.0   -2.00949985e-05  1.12949992e-05 -2.41149982e-05
atom      7.6666274179    22.9999957197    15.3332364360   Al  0.0 0.0    9.33499930e-06 -1.28499990e-06 -1.99999985e-08
atom     11.4999395936    26.8335470938    15.3332364360   Al  0.0 0.0   -1.23699991e-05  2.05599985e-05  9.99999925e-09
atom     11.4996421288    22.9998607872    19.1668307431   Al  0.0 0.0   -1.02549992e-05  7.30499945e-06  1.02199992e-05
atom      7.6661612875    26.8334060281    19.1665854114   Al  0.0 0.0   -2.00799985e-05  1.12699992e-05  2.42049982e-05
atom      7.6679307430    22.9984807959    22.9985421289   Al  0.0 0.0    3.09199977e-05 -2.89599978e-05 -3.09349977e-05
atom     11.4998874606    26.8334060281    23.0003115844   Al  0.0 0.0   -2.41649982e-05  1.12749992e-05  2.01149985e-05
atom     11.5000683927    23.0004066504    26.8335133607   Al  0.0 0.0   -3.23849976e-05  1.67999987e-05  2.10999984e-05
atom      7.6636159703    26.8334704277    26.8335286939   Al  0.0 0.0   -1.64239988e-04  1.02594992e-04  8.25749938e-05
atom     15.3332364360     0.0005918629     0.0000000000   Al  0.0 0.0    1.49999989e-08  3.03849977e-05  1.49999989e-08
atom     19.1696213922     3.8333091090     0.0000000000   Al  0.0 0.0    1.37449990e-04  1.49999989e-08  4.99999962e-09
atom     19.1682076678     0.0004998635     3.8328491119   Al  0.0 0.0    9.69199927e-05  1.56449988e-05 -5.20549961e-05
atom     15.3332364360     3.8333091090     3.8337967059   Al  0.0 0.0    9.99999925e-09  0.00000000e+00 -3.08949977e-05
atom     15.3332364360     0.0000367998     7.6659864886   Al  0.0 0.0   -2.99999977e-08 -5.55499958e-06 -2.67349980e-05
atom     19.1667387437     3.8333091090     7.6657350236   Al  0.0 0.0    5.56499958e-05  1.99999985e-08 -2.47949981e-05
atom     19.1660824812    30.6664360721    11.5003903907   Al  0.0 0.0    2.49549981e-05  3.90499971e-06 -2.48799981e-05
atom     15.3332364360     3.8333091090    11.5005713229   Al  0.0 0.0   -1.49999989e-08  2.49999981e-08 -1.17499991e-06
atom     15.3332364360    30.6664268722    15.3332364360   Al  0.0 0.0    9.99999925e-09 -2.08999984e-06 -2.49999981e-08
atom     19.1659015490     3.8333091090    15.3332364360   Al  0.0 0.0    1.16499991e-06  3.49999974e-08 -4.99999962e-09
atom     19.1660824812    30.6664360721    19.1660824812   Al  0.0 0.0    2.49299981e-05  3.87499971e-06  2.49549981e-05
atom     15.3332364360     3.8333091090    19.1659015490   Al  0.0 0.0    1.99999985e-08 -9.99999925e-09  1.17999991e-06
atom     15.3332364360     0.0000367998    23.0004863833   Al  0.0 0.0    9.99999925e-09 -5.57499958e-06  2.67049980e-05
atom     19.1667387437     3.8333091090    23.0007378484   Al  0.0 0.0    5.56799958e-05 -4.99999962e-09  2.48449981e-05
atom     19.1682076678     0.0004998635    26.8336237600   Al  0.0 0.0    9.68849927e-05  1.56849988e-05  5.20299961e-05
atom     15.3332364360     3.8333091090    26.8326792327   Al  0.0 0.0    1.49999989e-08 -4.99999962e-09  3.08499977e-05
atom     15.3332364360     7.6660263551     0.0000000000   Al  0.0 0.0    1.99999985e-08 -3.03399977e-05  4.99999962e-09
atom     19.1678734032    11.5000285263     0.0000000000   Al  0.0 0.0    1.00349992e-04 -6.97449948e-05  9.99999925e-09
atom     19.1682076678     7.6661183545     3.8328491119   Al  0.0 0.0    9.69049927e-05 -1.56299988e-05 -5.20649961e-05
atom     15.3332364360    11.5005222565     3.8335513741   Al  0.0 0.0    1.99999985e-08 -1.30249990e-05 -1.69249987e-05
atom     15.3332364360     7.6665814182     7.6659864886   Al  0.0 0.0   -1.49999989e-08  5.54499958e-06 -2.67099980e-05
atom     19.1665854114    11.4996850618     7.6661612875   Al  0.0 0.0    2.41749982e-05 -1.13049992e-05 -2.00849985e-05
atom     19.1660824812     7.6666550177    11.5003903907   Al  0.0 0.0    2.49699981e-05 -3.87999971e-06 -2.49449981e-05
atom     15.3332364360    11.4995439961    11.4999395936   Al  0.0 0.0    1.49999989e-08 -2.05449985e-05 -1.23599991e-05
atom     15.3332364360     7.6666672843    15.3332364360   Al  0.0 0.0    9.99999925e-09  2.09499984e-06 -2.49999981e-08
atom     19.1665332784    11.4995439961    15.3332364360   Al  0.0 0.0    1.23949991e-05 -2.05449985e-05 -3.49999974e-08
atom     19.1660824812     7.6666550177    19.1660824812   Al  0.0 0.0    2.49399981e-05 -3.90499971e-06  2.49199981e-05
atom     15.3332364360    11.4995439961    19.1665332784   Al  0.0 0.0   -4.99999962e-09 -2.05449985e-05  1.24199991e-05
atom     15.3332364360     7.6665814182    23.0004863833   Al  0.0 0.0    0.00000000e+00  5.53499958e-06  2.67099980e-05
atom     19.1665854114    11.4996850618    23.0003115844   Al  0.0 0.0    2.41499982e-05 -1.12749992e-05  2.01249985e-05
atom     19.1682076678     7.6661183545    26.8336237600   Al  0.0 0.0    9.69049927e-05 -1.56449988e-05  5.20549961e-05
atom     15.3332364360    11.5005222565    26.8329214978   Al  0.0 0.0    3.99999970e-08 -1.30249990e-05  1.69149987e-05
atom     15.3332364360    15.3326660396     0.0000000000   Al  0.0 0.0    2.99999977e-08 -3.36099975e-05  1.49999989e-08
atom     19.1657758165    19.1665455449     0.0000000000   Al  0.0 0.0    6.54749951e-05 -3.49999974e-08 -9.99999925e-09
atom     19.1664044792    15.3326844394     3.8329595112   Al  0.0 0.0    3.23899976e-05 -1.67999987e-05 -2.11649984e-05
atom     15.3332364360    19.1665455449     3.8334225749   Al  0.0 0.0   -1.49999989e-08 -2.49999981e-08  2.50999981e-06
atom     15.3332364360    15.3330953702     7.6666274179   Al  0.0 0.0    2.99999977e-08  1.27999990e-06  9.32499930e-06
atom     19.1664320790    19.1665455449     7.6665630183   Al  0.0 0.0   -1.23949991e-05 -1.99999985e-08 -1.73799987e-05
atom     19.1668307431    15.3332303027    11.4996421288   Al  0.0 0.0    1.02399992e-05 -7.30499945e-06 -1.02399992e-05
atom     15.3332364360    19.1665455449    11.4990839990   Al  0.0 0.0   -4.99999962e-09 -4.99999962e-09 -4.09949969e-05
atom     15.3332364360    15.3333683018    15.3332364360   Al  0.0 0.0   -0.00000000e+00  7.43499944e-06 -1.99999985e-08
atom     19.1673888729    19.1665455449    15.3332364360   Al  0.0 0.0    4.10549969e-05 -9.99999925e-09 -9.99999925e-09
atom     19.1668307431    15.3332303027    19.1668307431   Al  0.0 0.0    1.02099992e-05 -7.26999945e-06  1.02199992e-05
atom     15.3332364360    19.1665455449    19.1673888729   Al  0.0 0.0   -9.99999925e-09 -4.99999962e-09  4.10499969e-05
atom     15.3332364360    15.3330953702    22.9998454540   Al  0.0 0.0    1.99999985e-08  1.25999991e-06 -9.31999930e-06
atom     19.1664320790    19.1665455449    22.9999129202   Al  0.0 0.0   -1.23799991e-05 -4.99999962e-09  1.74149987e-05
atom     19.1664044792    15.3326844394    26.8335133607   Al  0.0 0.0    3.23499976e-05 -1.67799987e-05  2.11199984e-05
atom     15.3332364360    19.1665455449    26.8330502970   Al  0.0 0.0    2.49999981e-08 -1.49999989e-08 -2.51499981e-06
atom     15.3332364360    23.0004281170     0.0000000000   Al  0.0 0.0    1.99999985e-08  3.36249975e-05 -1.99999985e-08
atom     19.1678734032    26.8330594969     0.0000000000   Al  0.0 0.0    1.00344992e-04  6.97549948e-05  4.99999962e-09
atom     19.1664044792    23.0004066504     3.8329595112   Al  0.0 0.0    3.23699976e-05  1.68149987e-05 -2.11249984e-05
atom     15.3332364360    26.8325719000     3.8335513741   Al  0.0 0.0    1.49999989e-08  1.30349990e-05 -1.69299987e-05
atom     15.3332364360    22.9999957197     7.6666274179   Al  0.0 0.0   -0.00000000e+00 -1.25499991e-06  9.34999930e-06
atom     19.1665854114    26.8334060281     7.6661612875   Al  0.0 0.0    2.41899982e-05  1.12499992e-05 -2.01199985e-05
atom     19.1668307431    22.9998607872    11.4996421288   Al  0.0 0.0    1.02199992e-05  7.28999945e-06 -1.02399992e-05
atom     15.3332364360    26.8335470938    11.4999395936   Al  0.0 0.0   -4.99999962e-09  2.05549985e-05 -1.23649991e-05
atom     15.3332364360    22.9997227881    15.3332364360   Al  0.0 0.0   -4.99999962e-09 -7.43999944e-06 -9.99999925e-09
atom     19.1665332784    26.8335470938    15.3332364360   Al  0.0 0.0    1.23949991e-05  2.05899985e-05 -2.99999977e-08
atom     19.1668307431    22.9998607872    19.1668307431   Al  0.0 0.0    1.01999992e-05  7.24499946e-06  1.02349992e-05
atom     15.3332364360    26.8335470938    19.1665332784   Al  0.0 0.0   -1.49999989e-08  2.05699985e-05  1.23949991e-05
atom     15.3332364360    22.9999957197    22.9998454540   Al  0.0 0.0   -4.99999962e-09 -1.27999990e-06 -9.29999930e-06
atom     19.1665854114    26.8334060281    23.0003115844   Al  0.0 0.0    2.41399982e-05  1.13099991e-05  2.01049985e-05
atom     19.1664044792    23.0004066504    26.8335133607   Al  0.0 0.0    3.23599976e-05  1.67649987e-05  2.11199984e-05
atom     15.3332364360    26.8325719000    26.8329214978   Al  0.0 0.0   -0.00000000e+00  1.29899990e-05  1.68999987e-05
atom     23.0136239003     0.0038210425     0.0000000000   Al  0.0 0.0    2.17779984e-04  1.67344987e-04  4.99999962e-08
atom     26.8776853482     3.8333091090     0.0000000000   Al  0.0 0.0   -3.68649972e-04  1.49999989e-08  4.49999966e-08
atom     26.8578472069     0.0031494468     3.8086256650   Al  0.0 0.0   -2.90699978e-05  1.52589989e-04  2.90399978e-05
atom     23.0051875536     3.8333091090     3.8328368453   Al  0.0 0.0    3.11639977e-04  9.99999925e-09 -1.37984990e-04
atom     23.0027495690    30.6652523463     7.6637233029   Al  0.0 0.0    1.66519987e-04 -1.99449985e-05 -1.66509987e-04
atom     26.8336360266     3.8333091090     7.6612853183   Al  0.0 0.0    1.37924990e-04  1.99999985e-08 -3.11614977e-04
atom     26.8336237600     0.0004998635    11.4982652041   Al  0.0 0.0    5.20599961e-05  1.56399988e-05 -9.69049927e-05
atom     23.0007378484     3.8333091090    11.4997341282   Al  0.0 0.0    2.48449981e-05  9.99999925e-09 -5.56449958e-05
atom     23.0004863833     0.0000367998    15.3332364360   Al  0.0 0.0    2.67099980e-05 -5.54499958e-06  9.99999925e-09
atom     26.8326792327     3.8333091090    15.3332364360   Al  0.0 0.0    3.08449977e-05  4.99999962e-09 -1.99999985e-08
atom     26.8336237600     0.0004998635    19.1682076678   Al  0.0 0.0    5.20449961e-05  1.56649988e-05  9.68949927e-05
atom     23.0007378484     3.8333091090    19.1667387437   Al  0.0 0.0    2.48499981e-05 -9.99999925e-09  5.57149958e-05
atom     23.0027495690    30.6652523463    23.0027495690   Al  0.0 0.0    1.66489987e-04 -1.98599985e-05  1.66484987e-04
atom     26.8336360266     3.8333091090    23.0051875536   Al  0.0 0.0    1.37889990e-04  1.99999985e-08  3.11599977e-04
atom     26.8578472069     0.0031494468    26.8578472069   Al  0.0 0.0   -2.90949978e-05  1.52619989e-04 -2.91049978e-05
atom     23.0051875536     3.8333091090    26.8336360266   Al  0.0 0.0    3.11624977e-04  2.49999981e-08  1.37924990e-04
atom     23.0136239003     7.6627971755     0.0000000000   Al  0.0 0.0    2.17749984e-04 -1.67354987e-04  3.49999974e-08
atom     26.8564396158    11.4759032121     0.0000000000   Al  0.0 0.0   -7.18799946e-05  5.72449957e-05  1.49999989e-08
atom     26.8578472069     7.6634687712     3.8086256650   Al  0.0 0.0   -2.90749978e-05 -1.52649989e-04  2.90299978e-05
atom     23.0028599683    11.4996206622     3.8329441780   Al  0.0 0.0    1.64199988e-04 -1.02624992e-04 -8.25849938e-05
atom     23.0027495690     7.6678387436     7.6637233029   Al  0.0 0.0    1.66499987e-04  1.99549985e-05 -1.66474987e-04
atom     26.8335286939    11.4996206622     7.6636159703   Al  0.0 0.0    8.25699938e-05 -1.02619992e-04 -1.64219988e-04
atom     26.8336237600     7.6661183545    11.4982652041   Al  0.0 0.0    5.20399961e-05 -1.56699988e-05 -9.69099927e-05
atom     23.0003115844    11.4996850618    11.4998874606   Al  0.0 0.0    2.00899985e-05 -1.12949992e-05 -2.41699982e-05
atom     23.0004863833     7.6665814182    15.3332364360   Al  0.0 0.0    2.66899980e-05  5.52999958e-06 -2.49999981e-08
atom     26.8329214978    11.5005222565    15.3332364360   Al  0.0 0.0    1.69149987e-05 -1.29899990e-05 -1.99999985e-08
atom     26.8336237600     7.6661183545    19.1682076678   Al  0.0 0.0    5.20449961e-05 -1.56899988e-05  9.69199927e-05
atom     23.0003115844    11.4996850618    19.1665854114   Al  0.0 0.0    2.00849985e-05 -1.12899992e-05  2.41649982e-05
atom     23.0027495690     7.6678387436    23.0027495690   Al  0.0 0.0    1.66464987e-04  1.99049985e-05  1.66514987e-04
atom     26.8335286939    11.4996206622    23.0028599683   Al  0.0 0.0    8.25849938e-05 -1.02599992e-04  1.64199988e-04
atom     26.8578472069     7.6634687712    26.8578472069   Al  0.0 0.0   -2.91099978e-05 -1.52664989e-04 -2.90849978e-05
atom     23.0028599683    11.4996206622    26.8335286939   Al  0.0 0.0    1.64204988e-04 -1.02634992e-04  8.25899938e-05
atom     23.0045619575    15.3291332619     0.0000000000   Al  0.0 0.0    2.10829984e-04 -1.79414987e-04  1.49999989e-08
atom     26.8336206934    19.1665455449     0.0000000000   Al  0.0 0.0    8.81049934e-05 -0.00000000e+00 -3.99999970e-08
atom     26.8332342958    15.3308413844     3.8332385761   Al  0.0 0.0    8.51349936e-05 -1.38484990e-04 -8.51249936e-05
atom     23.0007838481    19.1665455449     3.8325976468   Al  0.0 0.0    2.44449982e-05 -3.99999970e-08 -3.78849972e-05
atom     22.9985421289    15.3346102939     7.6679307430   Al  0.0 0.0   -3.09149977e-05  2.89949978e-05  3.09399977e-05
atom     26.8338752251    19.1665455449     7.6656890238   Al  0.0 0.0    3.78799972e-05 -9.99999925e-09 -2.44299982e-05
atom     26.8335133607    15.3326844394    11.5000683927   Al  0.0 0.0    2.10949984e-05 -1.67949987e-05 -3.23599976e-05
atom     22.9999129202    19.1665455449    11.5000407929   Al  0.0 0.0    1.73749987e-05 -9.99999925e-09  1.24249991e-05
atom     22.9998454540    15.3330953702    15.3332364360   Al  0.0 0.0   -9.31999930e-06  1.26999990e-06 -1.99999985e-08
atom     26.8330502970    19.1665455449    15.3332364360   Al  0.0 0.0   -2.52499981e-06  4.49999966e-08 -1.49999989e-08
atom     26.8335133607    15.3326844394    19.1664044792   Al  0.0 0.0    2.10949984e-05 -1.67699987e-05  3.23799976e-05
atom     22.9999129202    19.1665455449    19.1664320790   Al  0.0 0.0    1.74199987e-05 -3.99999970e-08 -1.23649991e-05
atom     22.9985421289    15.3346102939    22.9985421289   Al  0.0 0.0   -3.08799977e-05  2.90799978e-05 -3.08699977e-05
atom     26.8338752251    19.1665455449    23.0007838481   Al  0.0 0.0    3.78199972e-05  1.49999989e-08  2.44549982e-05
atom     26.8332342958    15.3308413844    26.8332342958   Al  0.0 0.0    8.51149936e-05 -1.38464990e-04  8.51149936e-05
atom     23.0007838481    19.1665455449    26.8338752251   Al  0.0 0.0    2.44499982e-05 -2.99999977e-08  3.78449972e-05
atom     23.0045619575    23.0039578280     0.0000000000   Al  0.0 0.0    2.10854984e-04  1.79484987e-04 -0.00000000e+00
atom     26.8564396158    26.8571878778     0.0000000000   Al  0.0 0.0   -7.19099946e-05 -5.72299957e-05  2.99999977e-08
atom     26.8332342958    23.0022527721     3.8332385761   Al  0.0 0.0    8.51349936e-05  1.38509990e-04 -8.51049936e-05
atom     23.0028599683    26.8334704277     3.8329441780   Al  0.0 0.0    1.64224988e-04  1.02589992e-04 -8.25749938e-05
atom     22.9985421289    22.9984807959     7.6679307430   Al  0.0 0.0   -3.09149977e-05 -2.89649978e-05  3.09149977e-05
atom     26.8335286939    26.8334704277     7.6636159703   Al  0.0 0.0    8.25649938e-05  1.02619992e-04 -1.64239988e-04