begin
comment 4 atoms, species Al4
lattice      7.6331373306    -0.3816568665     0.0000000000
lattice     -0.3816568665     7.6331373306     0.0000000000
lattice      0.0000000000     0.0000000000     7.6522680006
atom      0.0000000000     0.0000000000     0.0000000000   Al  0.0 0.0   -2.95279011e-14  1.33759037e-13 -1.94135875e-13
atom     -0.1908284333     3.8165686653     3.8261340003   Al  0.0 0.0   -1.79932180e-13 -2.10044922e-13  1.94127488e-13
atom      3.8165686653    -0.1908284333     3.8261340003   Al  0.0 0.0    1.79935689e-13  2.10039444e-13  1.94170280e-13
atom      3.6257402320     3.6257402320     0.0000000000   Al  0.0 0.0    2.94919382e-14 -1.33629815e-13 -1.94078419e-13
energy -7.900151769755124e+01
charge 0.0000
end
begin
comment 4 atoms, species Al4
lattice      7.6331373306    -0.2968442295     0.0000000000
lattice     -0.2968442295     7.6331373306     0.0000000000
lattice      0.0000000000     0.0000000000     7.6446987577
atom      0.0000000000     0.0000000000     0.0000000000   Al  0.0 0.0   -1.76392410e-13 -1.49443041e-13 -5.18689390e-14
atom     -0.1484221148     3.8165686653     3.8223493789   Al  0.0 0.0   -1.22434025e-13  6.40725810e-14  5.19537137e-14
atom      3.8165686653    -0.1484221148     3.8223493789   Al  0.0 0.0    1.22386887e-13 -6.41109904e-14  5.19979195e-14
atom      3.6681465505     3.6681465505     0.0000000000   Al  0.0 0.0    1.76403939e-13  1.49385292e-13 -5.17351961e-14
energy -7.900289630355397e+01
charge 0.0000
end
begin
comment 4 atoms, species Al4
lattice      7.6331373306    -0.2120315925     0.0000000000
lattice     -0.2120315925     7.6331373306     0.0000000000
lattice      0.0000000000     0.0000000000     7.6390316451
atom      0.0000000000     0.0000000000     0.0000000000   Al  0.0 0.0   -1.87179537e-13 -9.21824859e-14 -2.26414404e-13
atom     -0.1060157963     3.8165686653     3.8195158226   Al  0.0 0.0   -1.66655777e-13  1.96239745e-14  2.26405825e-13
atom      3.8165686653    -0.1060157963     3.8195158226   Al  0.0 0.0    1.66720042e-13 -1.95847726e-14  2.26421317e-13
atom      3.7105528690     3.7105528690     0.0000000000   Al  0.0 0.0    1.87136940e-13  9.22138230e-14 -2.26606067e-13
energy -7.900390289094904e+01
charge 0.0000
end
begin
comment 4 atoms, species Al4
lattice      7.6331373306    -0.1272189555     0.0000000000
lattice     -0.1272189555     7.6331373306     0.0000000000
lattice      0.0000000000     0.0000000000     7.6352582357
atom      0.0000000000     0.0000000000     0.0000000000   Al  0.0 0.0   -8.93471760e-14  1.00334388e-13  2.17505735e-13
atom     -0.0636094778     3.8165686653     3.8176291178   Al  0.0 0.0   -1.13699063e-13 -1.25242343e-13 -2.17071127e-13
atom      3.8165686653    -0.0636094778     3.8176291178   Al  0.0 0.0    1.13734973e-13  1.25386707e-13 -2.16900418e-13
atom      3.7529591875     3.7529591875     0.0000000000   Al  0.0 0.0    8.93571950e-14 -1.00382060e-13  2.17059076e-13
energy -7.900456496657318e+01
charge 0.0000
end
begin
comment 4 atoms, species Al4
lattice      7.6331373306    -0.0424063185     0.0000000000
lattice     -0.0424063185     7.6331373306     0.0000000000
lattice      0.0000000000     0.0000000000     7.6333729285
atom      0.0000000000     0.0000000000     0.0000000000   Al  0.0 0.0    5.22957267e-14  1.81929087e-13  1.67581021e-13
atom     -0.0212031593     3.8165686653     3.8166864643   Al  0.0 0.0    3.52627787e-14 -1.78385748e-13 -1.67249416e-13
atom      3.8165686653    -0.0212031593     3.8166864643   Al  0.0 0.0   -3.52310179e-14  1.78418940e-13 -1.67195727e-13
atom      3.7953655060     3.7953655060     0.0000000000   Al  0.0 0.0   -5.22891386e-14 -1.81860548e-13  1.67521025e-13
energy -7.900489421159321e+01
charge 0.0000
end
begin
comment 4 atoms, species Al4
lattice      7.6331373306     0.0424063185     0.0000000000
lattice      0.0424063185     7.6331373306     0.0000000000
lattice      0.0000000000     0.0000000000     7.6333729285
atom      0.0000000000     0.0000000000     0.0000000000   Al  0.0 0.0    3.52151812e-14  1.78451942e-13  1.67431226e-13
atom      0.0212031593     3.8165686653     3.8166864643   Al  0.0 0.0    5.22338585e-14 -1.81978158e-13 -1.67235478e-13
atom      3.8165686653     0.0212031593     3.8166864643   Al  0.0 0.0   -5.22294137e-14  1.82003944e-13 -1.67158501e-13
atom      3.8377718246     3.8377718246     0.0000000000   Al  0.0 0.0   -3.52276601e-14 -1.78403955e-13  1.67295161e-13
energy -7.900489421159321e+01
charge 0.0000
end
begin
comment 4 atoms, species Al4
lattice      7.6331373306     0.1272189555     0.0000000000
lattice      0.1272189555     7.6331373306     0.0000000000
lattice      0.0000000000     0.0000000000     7.6352582357
atom      0.0000000000     0.0000000000     0.0000000000   Al  0.0 0.0   -1.13831136e-13  1.25247312e-13  2.17156113e-13
atom      0.0636094778     3.8165686653     3.8176291178   Al  0.0 0.0   -8.93665529e-14 -1.00337815e-13 -2.17028143e-13
atom      3.8165686653     0.0636094778     3.8176291178   Al  0.0 0.0    8.93877003e-14  1.00413158e-13 -2.17018296e-13
atom      3.8801781431     3.8801781431     0.0000000000   Al  0.0 0.0    1.13772744e-13 -1.25339095e-13  2.17342464e-13
energy -7.900456496657318e+01
charge 0.0000
end
begin
comment 4 atoms, species Al4
lattice      7.6331373306     0.2120315925     0.0000000000
lattice      0.2120315925     7.6331373306     0.0000000000
lattice      0.0000000000     0.0000000000     7.6390316451
atom      0.0000000000     0.0000000000     0.0000000000   Al  0.0 0.0   -1.66747433e-13 -1.95609143e-14 -2.26533664e-13
atom      0.1060157963     3.8165686653     3.8195158226   Al  0.0 0.0   -1.87122207e-13  9.21864154e-14  2.26383119e-13
atom      3.8165686653     0.1060157963     3.8195158226   Al  0.0 0.0    1.87172223e-13 -9.22229167e-14  2.26384256e-13
atom      3.9225844616     3.9225844616     0.0000000000   Al  0.0 0.0    1.66673547e-13  1.95729011e-14 -2.26525455e-13
energy -7.900390289094904e+01
charge 0.0000
end
begin
comment 4 atoms, species Al4
lattice      7.6331373306     0.2968442295     0.0000000000
lattice      0.2968442295     7.6331373306     0.0000000000
lattice      0.0000000000     0.0000000000     7.6446987577
atom      0.0000000000     0.0000000000     0.0000000000   Al  0.0 0.0   -1.22387634e-13 -6.41334365e-14 -5.20062239e-14
atom      0.1484221148     3.8165686653     3.8223493789   Al  0.0 0.0   -1.76380608e-13  1.49358326e-13  5.19367138e-14
atom      3.8165686653     0.1484221148     3.8223493789   Al  0.0 0.0    1.76381434e-13 -1.49341376e-13  5.19055219e-14
atom      3.9649907801     3.9649907801     0.0000000000   Al  0.0 0.0    1.22392538e-13  6.41432151e-14 -5.18005655e-14
energy -7.900289630355395e+01
charge 0.0000
end
begin
comment 4 atoms, species Al4
lattice      7.6331373306     0.3816568665     0.0000000000
lattice      0.3816568665     7.6331373306     0.0000000000
lattice      0.0000000000     0.0000000000     7.6522680006
atom      0.0000000000     0.0000000000     0.0000000000   Al  0.0 0.0   -1.79977032e-13  2.10034033e-13 -1.94143697e-13
atom      0.1908284333     3.8165686653     3.8261340003   Al  0.0 0.0   -2.93884007e-14 -1.33686095e-13  1.94139839e-13
atom      3.8165686653     0.1908284333     3.8261340003   Al  0.0 0.0    2.94931031e-14  1.33644347e-13  1.94154761e-13
atom      4.0073970986     4.0073970986     0.0000000000   Al  0.0 0.0    1.79927894e-13 -2.09882871e-13 -1.94308927e-13
energy -7.900151769755124e+01
charge 0.0000
end
