
     Program PWSCF v.6.3 starts on 22Feb2020 at 14:12:43 

     This program is part of the open-source Quantum ESPRESSO suite
     for quantum simulation of materials; please cite
         "P. Giannozzi et al., J. Phys.:Condens. Matter 21 395502 (2009);
         "P. Giannozzi et al., J. Phys.:Condens. Matter 29 465901 (2017);
          URL http://www.quantum-espresso.org", 
     in publications or presentations arising from this work. More details at
     http://www.quantum-espresso.org/quote

 *** WARNING: using old-style file format, will disappear from next version ***

     Parallel version (MPI & OpenMP), running on      36 processor cores
     Number of MPI processes:                36
     Threads/MPI process:                     1

     MPI processes distributed on     1 nodes
     K-points division:     npool     =       4
     R & G space division:  proc/nbgrp/npool/nimage =       9
     Reading input from aiida.in
Warning: card &IONS ignored
Warning: card   !PRESS_CONV_THR = 0.05                 ! JUST FOR VOLUME RELAXATIONS ignored
Warning: card / ignored

     Current dimensions of program PWSCF are:
     Max number of different atomic species (ntypx) = 10
     Max number of k-points (npk) =  40000
     Max angular momentum in pseudopotentials (lmaxx) =  3
               file Al.pbe-n-kjpaw_psl.1.0.0.UPF: wavefunction(s)  3S 3P renormalized
               file Mg.pbe-n-kjpaw_psl.0.3.0.UPF: wavefunction(s)  3S renormalized

     Subspace diagonalization in iterative solution of the eigenvalue problem:
     one sub-group per band group will be used
     scalapack distributed-memory algorithm (size of sub-group:  2*  2 procs)

 
     Parallelization info
     --------------------
     sticks:   dense  smooth     PW     G-vecs:    dense   smooth      PW
     Min        1041     416    119               169149    42808    6499
     Max        1041     418    119               169153    42811    6503
     Sum        9369    3753   1071              1522361   385283   58505
 


     bravais-lattice index     =            0
     lattice parameter (alat)  =      38.3331  a.u.
     unit-cell volume          =   11265.5275 (a.u.)^3
     number of atoms/cell      =          100
     number of atomic types    =            3
     number of electrons       =       301.00
     number of Kohn-Sham states=          181
     kinetic-energy cutoff     =      40.0000  Ry
     charge density cutoff     =     400.0000  Ry
     convergence threshold     =      1.0E-12
     mixing beta               =       0.4000
     number of iterations used =            8  local-TF  mixing
     Exchange-correlation      = PBE ( 1  4  3  4 0 0)

     celldm(1)=  38.333092  celldm(2)=   0.000000  celldm(3)=   0.000000
     celldm(4)=   0.000000  celldm(5)=   0.000000  celldm(6)=   0.000000

     crystal axes: (cart. coord. in units of alat)
               a(1) = (   1.000000   0.000000   0.000000 )  
               a(2) = (   0.000000   0.200000   0.000000 )  
               a(3) = (   0.000000   0.000000   1.000000 )  

     reciprocal axes: (cart. coord. in units 2 pi/alat)
               b(1) = (  1.000000  0.000000  0.000000 )  
               b(2) = (  0.000000  5.000000  0.000000 )  
               b(3) = (  0.000000  0.000000  1.000000 )  


     PseudoPot. # 1 for Al read from file:
     /users/aglensk/Dropbox/Albert/scripts/dotfiles/scripts/potentials/quantum_espresso/pseudo_SSSPefV1.1_alalloy/Al.pbe-n-kjpaw_psl.1.0.0.UPF
     MD5 check sum: cfc449ca30b5f3223ec38ddd88ac046d
     Pseudo is Projector augmented-wave + core cor, Zval =  3.0
     Generated using "atomic" code by A. Dal Corso v.5.1
     Shape of augmentation charge: PSQ
     Using radial grid of 1135 points,  6 beta functions with: 
                l(1) =   0
                l(2) =   0
                l(3) =   1
                l(4) =   1
                l(5) =   2
                l(6) =   2
     Q(r) pseudized with 0 coefficients 


     PseudoPot. # 2 for Mg read from file:
     /users/aglensk/Dropbox/Albert/scripts/dotfiles/scripts/potentials/quantum_espresso/pseudo_SSSPefV1.1_alalloy/Mg.pbe-n-kjpaw_psl.0.3.0.UPF
     MD5 check sum: 24ecedc7f3e3cbe212e682f4413594e4
     Pseudo is Projector augmented-wave + core cor, Zval =  2.0
     Generated using "atomic" code by A. Dal Corso v.5.0.99 svn rev. 10869
     Shape of augmentation charge: PSQ
     Using radial grid of 1129 points,  4 beta functions with: 
                l(1) =   0
                l(2) =   0
                l(3) =   1
                l(4) =   1
     Q(r) pseudized with 0 coefficients 


     PseudoPot. # 3 for Si read from file:
     /users/aglensk/Dropbox/Albert/scripts/dotfiles/scripts/potentials/quantum_espresso/pseudo_SSSPefV1.1_alalloy/Si.pbe-n-rrkjus_psl.1.0.0.UPF
     MD5 check sum: 0b0bb1205258b0d07b9f9672cf965d36
     Pseudo is Ultrasoft + core correction, Zval =  4.0
     Generated using "atomic" code by A. Dal Corso v.5.1
     Using radial grid of 1141 points,  6 beta functions with: 
                l(1) =   0
                l(2) =   0
                l(3) =   1
                l(4) =   1
                l(5) =   2
                l(6) =   2
     Q(r) pseudized with 0 coefficients 


     atomic species   valence    mass     pseudopotential
        Al             3.00    26.98154     Al( 1.00)
        Mg             2.00    24.30500     Mg( 1.00)
        Si             4.00    28.08500     Si( 1.00)

     No symmetry found


                                    s                        frac. trans.

      isym =  1     identity                                     

 cryst.   s( 1) = (     1          0          0      )
                  (     0          1          0      )
                  (     0          0          1      )

 cart.    s( 1) = (  1.0000000  0.0000000  0.0000000 )
                  (  0.0000000  1.0000000  0.0000000 )
                  (  0.0000000  0.0000000  1.0000000 )


   Cartesian axes

     site n.     atom                  positions (alat units)
         1           Al  tau(   1) = (   0.0981760   0.0997917   0.9976923  )
         2           Al  tau(   2) = (   0.9985855   0.1997897   0.9976937  )
         3           Al  tau(   3) = (   0.0979254   0.1997955   0.0970655  )
         4           Al  tau(   4) = (   0.9986033   0.0997930   0.0971855  )
         5           Al  tau(   5) = (   0.0977014   0.0998003   0.1966640  )
         6           Al  tau(   6) = (   0.9986567   0.1997968   0.1967030  )
         7           Al  tau(   7) = (   0.0968734   0.1998093   0.2967581  )
         8           Al  tau(   8) = (   0.9987032   0.0998047   0.2971347  )
         9           Al  tau(   9) = (   0.0960369   0.0998166   0.3981588  )
        10           Al  tau(  10) = (   0.9987200   0.1998115   0.3980693  )
        11           Al  tau(  11) = (   0.0968670   0.1998092   0.4995706  )
        12           Al  tau(  12) = (   0.9986782   0.0998051   0.4990305  )
        13           Al  tau(  13) = (   0.0976989   0.0998002   0.5996532  )
        14           Al  tau(  14) = (   0.9986216   0.1997972   0.5995107  )
        15           Al  tau(  15) = (   0.0979135   0.1997955   0.6991634  )
        16           Al  tau(  16) = (   0.9985961   0.0997930   0.6990039  )
        17           Al  tau(  17) = (   0.0981858   0.0997917   0.7984507  )
        18           Al  tau(  18) = (   0.9985815   0.1997897   0.7984849  )
        19           Al  tau(  19) = (   0.0981740   0.1997890   0.8980732  )
        20           Al  tau(  20) = (   0.9985781   0.0997897   0.8980867  )
        21           Al  tau(  21) = (   0.2972189   0.0998059   0.9973139  )
        22           Al  tau(  22) = (   0.1974070   0.1997972   0.9973500  )
        23           Al  tau(  23) = (   0.2965645   0.1998131   0.0960780  )
        24           Al  tau(  24) = (   0.1975887   0.0998031   0.0971098  )
        25           Al  tau(  25) = (   0.2984860   0.0998327   0.1981926  )
        26           Al  tau(  26) = (   0.1967449   0.1998111   0.1961536  )
        27           Al  tau(  27) = (   0.2942665   0.1998393   0.2942554  )
        28           Al  tau(  28) = (   0.1961909   0.0998237   0.2967719  )
        29           Al  tau(  29) = (   0.2868886   0.0998535   0.3981880  )
        30           Al  tau(  30) = (   0.1916891   0.1998327   0.3981889  )
        31           Al  tau(  31) = (   0.2943101   0.1998391   0.5021524  )
        32           Al  tau(  32) = (   0.1962131   0.0998233   0.4996222  )
        33           Al  tau(  33) = (   0.2985885   0.0998330   0.5981761  )
        34           Al  tau(  34) = (   0.1967830   0.1998109   0.6002138  )
        35           Al  tau(  35) = (   0.2966553   0.1998131   0.7002184  )
        36           Al  tau(  36) = (   0.1976431   0.0998024   0.6991223  )
        37           Al  tau(  37) = (   0.2973035   0.0998056   0.7988641  )
        38           Al  tau(  38) = (   0.1974347   0.1997970   0.7987996  )
        39           Al  tau(  39) = (   0.2972310   0.1998025   0.8980718  )
        40           Al  tau(  40) = (   0.1976315   0.0997933   0.8980673  )
        41           Al  tau(  41) = (   0.4982560   0.0998255   0.9960714  )
        42           Al  tau(  42) = (   0.3972280   0.1998166   0.9969585  )
        43           Al  tau(  43) = (   0.4983665   0.1998428   0.0933650  )
        44           Al  tau(  44) = (   0.3979458   0.0998268   0.0968817  )
        45           Al  tau(  45) = (   0.3936379   0.1998382   0.1939144  )
        46           Al  tau(  46) = (   0.3937819   0.1998384   0.6025374  )
        47           Al  tau(  47) = (   0.4986084   0.1998440   0.7029051  )
        48           Al  tau(  48) = (   0.3981643   0.0998270   0.6994515  )
        49           Al  tau(  49) = (   0.4984234   0.0998261   0.8001761  )
        50           Al  tau(  50) = (   0.3973475   0.1998163   0.7992689  )
        51           Al  tau(  51) = (   0.4982231   0.1998211   0.8981227  )
        52           Al  tau(  52) = (   0.3975461   0.0998138   0.8980963  )
        53           Al  tau(  53) = (   0.6993786   0.0998052   0.9972034  )
        54           Al  tau(  54) = (   0.5993313   0.1998166   0.9968548  )
        55           Al  tau(  55) = (   0.7003801   0.1998127   0.0957200  )
        56           Al  tau(  56) = (   0.5988219   0.0998269   0.0966528  )
        57           Al  tau(  57) = (   0.6987345   0.0998331   0.1978631  )
        58           Al  tau(  58) = (   0.6037810   0.1998378   0.1935917  )
        59           Al  tau(  59) = (   0.7032157   0.1998389   0.2938850  )
        60           Al  tau(  60) = (   0.7107877   0.0998541   0.3980598  )
        61           Al  tau(  61) = (   0.7032538   0.1998395   0.5021512  )
        62           Al  tau(  62) = (   0.6989381   0.0998333   0.5983422  )
        63           Al  tau(  63) = (   0.6039069   0.1998389   0.6025618  )
        64           Al  tau(  64) = (   0.7004572   0.1998134   0.7004370  )
        65           Al  tau(  65) = (   0.5990977   0.0998274   0.6995499  )
        66           Al  tau(  66) = (   0.6994694   0.0998054   0.7990784  )
        67           Al  tau(  67) = (   0.5994447   0.1998165   0.7993924  )
        68           Al  tau(  68) = (   0.6994033   0.1998024   0.8981515  )
        69           Al  tau(  69) = (   0.5989422   0.0998136   0.8981460  )
        70           Al  tau(  70) = (   0.8989150   0.0997918   0.9976283  )
        71           Al  tau(  71) = (   0.7995106   0.1997972   0.9972119  )
        72           Al  tau(  72) = (   0.8992709   0.1997964   0.0968809  )
        73           Al  tau(  73) = (   0.7994111   0.0998031   0.0968517  )
        74           Al  tau(  74) = (   0.8995423   0.0998007   0.1964401  )
        75           Al  tau(  75) = (   0.8005180   0.1998109   0.1957329  )
        76           Al  tau(  76) = (   0.9005297   0.1998096   0.2964816  )
        77           Al  tau(  77) = (   0.8012082   0.0998246   0.2964416  )
        78           Al  tau(  78) = (   0.9014401   0.0998183   0.3979512  )
        79           Al  tau(  79) = (   0.8058766   0.1998338   0.3979414  )
        80           Al  tau(  80) = (   0.9005285   0.1998103   0.4994669  )
        81           Al  tau(  81) = (   0.8012871   0.0998247   0.4995964  )
        82           Al  tau(  82) = (   0.8995881   0.0998016   0.5997029  )
        83           Al  tau(  83) = (   0.8005686   0.1998115   0.6003647  )
        84           Al  tau(  84) = (   0.8992817   0.1997971   0.6992906  )
        85           Al  tau(  85) = (   0.7995110   0.0998037   0.6993674  )
        86           Al  tau(  86) = (   0.8989365   0.0997921   0.7985706  )
        87           Al  tau(  87) = (   0.7995386   0.1997974   0.7990157  )
        88           Al  tau(  88) = (   0.8988953   0.1997892   0.8981223  )
        89           Al  tau(  89) = (   0.7991871   0.0997936   0.8981403  )
        90           Mg  tau(  90) = (   0.4106936   0.0998722   0.3072985  )
        91           Mg  tau(  91) = (   0.5869583   0.0998719   0.3070989  )
        92           Si  tau(  92) = (   0.4985198   0.0998645   0.1841388  )
        93           Si  tau(  93) = (   0.4987420   0.1998829   0.2635349  )
        94           Si  tau(  94) = (   0.3679560   0.1998701   0.3982117  )
        95           Mg  tau(  95) = (   0.4989693   0.1998946   0.3981416  )
        96           Mg  tau(  96) = (   0.4107754   0.0998723   0.4890983  )
        97           Mg  tau(  97) = (   0.5871228   0.0998723   0.4890641  )
        98           Si  tau(  98) = (   0.6297357   0.1998702   0.3980306  )
        99           Si  tau(  99) = (   0.4988327   0.1998842   0.5327208  )
       100           Si  tau( 100) = (   0.4987751   0.0998660   0.6121649  )

   Crystallographic axes

     site n.     atom                  positions (cryst. coord.)
         1           Al  tau(   1) = (  0.0981760  0.4989583  0.9976923  )
         2           Al  tau(   2) = (  0.9985855  0.9989486  0.9976937  )
         3           Al  tau(   3) = (  0.0979254  0.9989775  0.0970655  )
         4           Al  tau(   4) = (  0.9986033  0.4989650  0.0971855  )
         5           Al  tau(   5) = (  0.0977014  0.4990016  0.1966640  )
         6           Al  tau(   6) = (  0.9986567  0.9989843  0.1967030  )
         7           Al  tau(   7) = (  0.0968734  0.9990466  0.2967581  )
         8           Al  tau(   8) = (  0.9987032  0.4990233  0.2971347  )
         9           Al  tau(   9) = (  0.0960369  0.4990828  0.3981588  )
        10           Al  tau(  10) = (  0.9987200  0.9990573  0.3980693  )
        11           Al  tau(  11) = (  0.0968670  0.9990459  0.4995706  )
        12           Al  tau(  12) = (  0.9986782  0.4990255  0.4990305  )
        13           Al  tau(  13) = (  0.0976989  0.4990009  0.5996532  )
        14           Al  tau(  14) = (  0.9986216  0.9989859  0.5995107  )
        15           Al  tau(  15) = (  0.0979135  0.9989775  0.6991634  )
        16           Al  tau(  16) = (  0.9985961  0.4989651  0.6990039  )
        17           Al  tau(  17) = (  0.0981858  0.4989585  0.7984507  )
        18           Al  tau(  18) = (  0.9985815  0.9989486  0.7984849  )
        19           Al  tau(  19) = (  0.0981740  0.9989453  0.8980732  )
        20           Al  tau(  20) = (  0.9985781  0.4989486  0.8980867  )
        21           Al  tau(  21) = (  0.2972189  0.4990293  0.9973139  )
        22           Al  tau(  22) = (  0.1974070  0.9989859  0.9973500  )
        23           Al  tau(  23) = (  0.2965645  0.9990656  0.0960780  )
        24           Al  tau(  24) = (  0.1975887  0.4990153  0.0971098  )
        25           Al  tau(  25) = (  0.2984860  0.4991634  0.1981926  )
        26           Al  tau(  26) = (  0.1967449  0.9990554  0.1961536  )
        27           Al  tau(  27) = (  0.2942665  0.9991968  0.2942554  )
        28           Al  tau(  28) = (  0.1961909  0.4991185  0.2967719  )
        29           Al  tau(  29) = (  0.2868886  0.4992677  0.3981880  )
        30           Al  tau(  30) = (  0.1916891  0.9991638  0.3981889  )
        31           Al  tau(  31) = (  0.2943101  0.9991953  0.5021524  )
        32           Al  tau(  32) = (  0.1962131  0.4991163  0.4996222  )
        33           Al  tau(  33) = (  0.2985885  0.4991650  0.5981761  )
        34           Al  tau(  34) = (  0.1967830  0.9990545  0.6002138  )
        35           Al  tau(  35) = (  0.2966553  0.9990654  0.7002184  )
        36           Al  tau(  36) = (  0.1976431  0.4990122  0.6991223  )
        37           Al  tau(  37) = (  0.2973035  0.4990280  0.7988641  )
        38           Al  tau(  38) = (  0.1974347  0.9989850  0.7987996  )
        39           Al  tau(  39) = (  0.2972310  0.9990125  0.8980718  )
        40           Al  tau(  40) = (  0.1976315  0.4989667  0.8980673  )
        41           Al  tau(  41) = (  0.4982560  0.4991276  0.9960714  )
        42           Al  tau(  42) = (  0.3972280  0.9990829  0.9969585  )
        43           Al  tau(  43) = (  0.4983665  0.9992139  0.0933650  )
        44           Al  tau(  44) = (  0.3979458  0.4991342  0.0968817  )
        45           Al  tau(  45) = (  0.3936379  0.9991910  0.1939144  )
        46           Al  tau(  46) = (  0.3937819  0.9991918  0.6025374  )
        47           Al  tau(  47) = (  0.4986084  0.9992200  0.7029051  )
        48           Al  tau(  48) = (  0.3981643  0.4991352  0.6994515  )
        49           Al  tau(  49) = (  0.4984234  0.4991306  0.8001761  )
        50           Al  tau(  50) = (  0.3973475  0.9990816  0.7992689  )
        51           Al  tau(  51) = (  0.4982231  0.9991056  0.8981227  )
        52           Al  tau(  52) = (  0.3975461  0.4990690  0.8980963  )
        53           Al  tau(  53) = (  0.6993786  0.4990258  0.9972034  )
        54           Al  tau(  54) = (  0.5993313  0.9990830  0.9968548  )
        55           Al  tau(  55) = (  0.7003801  0.9990637  0.0957200  )
        56           Al  tau(  56) = (  0.5988219  0.4991343  0.0966528  )
        57           Al  tau(  57) = (  0.6987345  0.4991655  0.1978631  )
        58           Al  tau(  58) = (  0.6037810  0.9991891  0.1935917  )
        59           Al  tau(  59) = (  0.7032157  0.9991947  0.2938850  )
        60           Al  tau(  60) = (  0.7107877  0.4992703  0.3980598  )
        61           Al  tau(  61) = (  0.7032538  0.9991976  0.5021512  )
        62           Al  tau(  62) = (  0.6989381  0.4991664  0.5983422  )
        63           Al  tau(  63) = (  0.6039069  0.9991944  0.6025618  )
        64           Al  tau(  64) = (  0.7004572  0.9990670  0.7004370  )
        65           Al  tau(  65) = (  0.5990977  0.4991370  0.6995499  )
        66           Al  tau(  66) = (  0.6994694  0.4990268  0.7990784  )
        67           Al  tau(  67) = (  0.5994447  0.9990828  0.7993924  )
        68           Al  tau(  68) = (  0.6994033  0.9990121  0.8981515  )
        69           Al  tau(  69) = (  0.5989422  0.4990679  0.8981460  )
        70           Al  tau(  70) = (  0.8989150  0.4989593  0.9976283  )
        71           Al  tau(  71) = (  0.7995106  0.9989859  0.9972119  )
        72           Al  tau(  72) = (  0.8992709  0.9989818  0.0968809  )
        73           Al  tau(  73) = (  0.7994111  0.4990157  0.0968517  )
        74           Al  tau(  74) = (  0.8995423  0.4990037  0.1964401  )
        75           Al  tau(  75) = (  0.8005180  0.9990546  0.1957329  )
        76           Al  tau(  76) = (  0.9005297  0.9990482  0.2964816  )
        77           Al  tau(  77) = (  0.8012082  0.4991228  0.2964416  )
        78           Al  tau(  78) = (  0.9014401  0.4990915  0.3979512  )
        79           Al  tau(  79) = (  0.8058766  0.9991689  0.3979414  )
        80           Al  tau(  80) = (  0.9005285  0.9990516  0.4994669  )
        81           Al  tau(  81) = (  0.8012871  0.4991235  0.4995964  )
        82           Al  tau(  82) = (  0.8995881  0.4990082  0.5997029  )
        83           Al  tau(  83) = (  0.8005686  0.9990577  0.6003647  )
        84           Al  tau(  84) = (  0.8992817  0.9989857  0.6992906  )
        85           Al  tau(  85) = (  0.7995110  0.4990186  0.6993674  )
        86           Al  tau(  86) = (  0.8989365  0.4989604  0.7985706  )
        87           Al  tau(  87) = (  0.7995386  0.9989873  0.7990157  )
        88           Al  tau(  88) = (  0.8988953  0.9989458  0.8981223  )
        89           Al  tau(  89) = (  0.7991871  0.4989683  0.8981403  )
        90           Mg  tau(  90) = (  0.4106936  0.4993610  0.3072985  )
        91           Mg  tau(  91) = (  0.5869583  0.4993594  0.3070989  )
        92           Si  tau(  92) = (  0.4985198  0.4993226  0.1841388  )
        93           Si  tau(  93) = (  0.4987420  0.9994146  0.2635349  )
        94           Si  tau(  94) = (  0.3679560  0.9993504  0.3982117  )
        95           Mg  tau(  95) = (  0.4989693  0.9994733  0.3981416  )
        96           Mg  tau(  96) = (  0.4107754  0.4993616  0.4890983  )
        97           Mg  tau(  97) = (  0.5871228  0.4993616  0.4890641  )
        98           Si  tau(  98) = (  0.6297357  0.9993512  0.3980306  )
        99           Si  tau(  99) = (  0.4988327  0.9994213  0.5327208  )
       100           Si  tau( 100) = (  0.4987751  0.4993298  0.6121649  )

     number of k points=   164  Methfessel-Paxton smearing, width (Ry)=  0.0441
                       cart. coord. in units 2pi/alat
        k(    1) = (   0.0000000   0.0000000   0.0000000), wk =   0.0062500
        k(    2) = (   0.0000000   0.0000000   0.2500000), wk =   0.0125000
        k(    3) = (   0.0000000   0.0000000  -0.5000000), wk =   0.0062500
        k(    4) = (   0.0000000   0.2500000   0.0000000), wk =   0.0125000
        k(    5) = (   0.0000000   0.2500000   0.2500000), wk =   0.0125000
        k(    6) = (   0.0000000   0.2500000  -0.5000000), wk =   0.0125000
        k(    7) = (   0.0000000   0.2500000  -0.2500000), wk =   0.0125000
        k(    8) = (   0.0000000   0.5000000   0.0000000), wk =   0.0125000
        k(    9) = (   0.0000000   0.5000000   0.2500000), wk =   0.0125000
        k(   10) = (   0.0000000   0.5000000  -0.5000000), wk =   0.0125000
        k(   11) = (   0.0000000   0.5000000  -0.2500000), wk =   0.0125000
        k(   12) = (   0.0000000   0.7500000   0.0000000), wk =   0.0125000
        k(   13) = (   0.0000000   0.7500000   0.2500000), wk =   0.0125000
        k(   14) = (   0.0000000   0.7500000  -0.5000000), wk =   0.0125000
        k(   15) = (   0.0000000   0.7500000  -0.2500000), wk =   0.0125000
        k(   16) = (   0.0000000   1.0000001   0.0000000), wk =   0.0125000
        k(   17) = (   0.0000000   1.0000001   0.2500000), wk =   0.0125000
        k(   18) = (   0.0000000   1.0000001  -0.5000000), wk =   0.0125000
        k(   19) = (   0.0000000   1.0000001  -0.2500000), wk =   0.0125000
        k(   20) = (   0.0000000   1.2500001   0.0000000), wk =   0.0125000
        k(   21) = (   0.0000000   1.2500001   0.2500000), wk =   0.0125000
        k(   22) = (   0.0000000   1.2500001  -0.5000000), wk =   0.0125000
        k(   23) = (   0.0000000   1.2500001  -0.2500000), wk =   0.0125000
        k(   24) = (   0.0000000   1.5000001   0.0000000), wk =   0.0125000
        k(   25) = (   0.0000000   1.5000001   0.2500000), wk =   0.0125000
        k(   26) = (   0.0000000   1.5000001  -0.5000000), wk =   0.0125000
        k(   27) = (   0.0000000   1.5000001  -0.2500000), wk =   0.0125000
        k(   28) = (   0.0000000   1.7500001   0.0000000), wk =   0.0125000
        k(   29) = (   0.0000000   1.7500001   0.2500000), wk =   0.0125000
        k(   30) = (   0.0000000   1.7500001  -0.5000000), wk =   0.0125000
        k(   31) = (   0.0000000   1.7500001  -0.2500000), wk =   0.0125000
        k(   32) = (   0.0000000   2.0000001   0.0000000), wk =   0.0125000
        k(   33) = (   0.0000000   2.0000001   0.2500000), wk =   0.0125000
        k(   34) = (   0.0000000   2.0000001  -0.5000000), wk =   0.0125000
        k(   35) = (   0.0000000   2.0000001  -0.2500000), wk =   0.0125000
        k(   36) = (   0.0000000   2.2500001   0.0000000), wk =   0.0125000
        k(   37) = (   0.0000000   2.2500001   0.2500000), wk =   0.0125000
        k(   38) = (   0.0000000   2.2500001  -0.5000000), wk =   0.0125000
        k(   39) = (   0.0000000   2.2500001  -0.2500000), wk =   0.0125000
        k(   40) = (   0.0000000  -2.5000001   0.0000000), wk =   0.0062500
        k(   41) = (   0.0000000  -2.5000001   0.2500000), wk =   0.0125000
        k(   42) = (   0.0000000  -2.5000001  -0.5000000), wk =   0.0062500
        k(   43) = (   0.2500000   0.0000000   0.0000000), wk =   0.0125000
        k(   44) = (   0.2500000   0.0000000   0.2500000), wk =   0.0125000
        k(   45) = (   0.2500000   0.0000000  -0.5000000), wk =   0.0125000
        k(   46) = (   0.2500000   0.0000000  -0.2500000), wk =   0.0125000
        k(   47) = (   0.2500000   0.2500000   0.0000000), wk =   0.0125000
        k(   48) = (   0.2500000   0.2500000   0.2500000), wk =   0.0125000
        k(   49) = (   0.2500000   0.2500000  -0.5000000), wk =   0.0125000
        k(   50) = (   0.2500000   0.2500000  -0.2500000), wk =   0.0125000
        k(   51) = (   0.2500000   0.5000000   0.0000000), wk =   0.0125000
        k(   52) = (   0.2500000   0.5000000   0.2500000), wk =   0.0125000
        k(   53) = (   0.2500000   0.5000000  -0.5000000), wk =   0.0125000
        k(   54) = (   0.2500000   0.5000000  -0.2500000), wk =   0.0125000
        k(   55) = (   0.2500000   0.7500000   0.0000000), wk =   0.0125000
        k(   56) = (   0.2500000   0.7500000   0.2500000), wk =   0.0125000
        k(   57) = (   0.2500000   0.7500000  -0.5000000), wk =   0.0125000
        k(   58) = (   0.2500000   0.7500000  -0.2500000), wk =   0.0125000
        k(   59) = (   0.2500000   1.0000001   0.0000000), wk =   0.0125000
        k(   60) = (   0.2500000   1.0000001   0.2500000), wk =   0.0125000
        k(   61) = (   0.2500000   1.0000001  -0.5000000), wk =   0.0125000
        k(   62) = (   0.2500000   1.0000001  -0.2500000), wk =   0.0125000
        k(   63) = (   0.2500000   1.2500001   0.0000000), wk =   0.0125000
        k(   64) = (   0.2500000   1.2500001   0.2500000), wk =   0.0125000
        k(   65) = (   0.2500000   1.2500001  -0.5000000), wk =   0.0125000
        k(   66) = (   0.2500000   1.2500001  -0.2500000), wk =   0.0125000
        k(   67) = (   0.2500000   1.5000001   0.0000000), wk =   0.0125000
        k(   68) = (   0.2500000   1.5000001   0.2500000), wk =   0.0125000
        k(   69) = (   0.2500000   1.5000001  -0.5000000), wk =   0.0125000
        k(   70) = (   0.2500000   1.5000001  -0.2500000), wk =   0.0125000
        k(   71) = (   0.2500000   1.7500001   0.0000000), wk =   0.0125000
        k(   72) = (   0.2500000   1.7500001   0.2500000), wk =   0.0125000
        k(   73) = (   0.2500000   1.7500001  -0.5000000), wk =   0.0125000
        k(   74) = (   0.2500000   1.7500001  -0.2500000), wk =   0.0125000
        k(   75) = (   0.2500000   2.0000001   0.0000000), wk =   0.0125000
        k(   76) = (   0.2500000   2.0000001   0.2500000), wk =   0.0125000
        k(   77) = (   0.2500000   2.0000001  -0.5000000), wk =   0.0125000
        k(   78) = (   0.2500000   2.0000001  -0.2500000), wk =   0.0125000
        k(   79) = (   0.2500000   2.2500001   0.0000000), wk =   0.0125000
        k(   80) = (   0.2500000   2.2500001   0.2500000), wk =   0.0125000
        k(   81) = (   0.2500000   2.2500001  -0.5000000), wk =   0.0125000
        k(   82) = (   0.2500000   2.2500001  -0.2500000), wk =   0.0125000
        k(   83) = (   0.2500000  -2.5000001   0.0000000), wk =   0.0125000
        k(   84) = (   0.2500000  -2.5000001   0.2500000), wk =   0.0125000
        k(   85) = (   0.2500000  -2.5000001  -0.5000000), wk =   0.0125000
        k(   86) = (   0.2500000  -2.5000001  -0.2500000), wk =   0.0125000
        k(   87) = (   0.2500000  -2.2500001   0.0000000), wk =   0.0125000
        k(   88) = (   0.2500000  -2.2500001   0.2500000), wk =   0.0125000
        k(   89) = (   0.2500000  -2.2500001  -0.5000000), wk =   0.0125000
        k(   90) = (   0.2500000  -2.2500001  -0.2500000), wk =   0.0125000
        k(   91) = (   0.2500000  -2.0000001   0.0000000), wk =   0.0125000
        k(   92) = (   0.2500000  -2.0000001   0.2500000), wk =   0.0125000
        k(   93) = (   0.2500000  -2.0000001  -0.5000000), wk =   0.0125000
        k(   94) = (   0.2500000  -2.0000001  -0.2500000), wk =   0.0125000
        k(   95) = (   0.2500000  -1.7500001   0.0000000), wk =   0.0125000
        k(   96) = (   0.2500000  -1.7500001   0.2500000), wk =   0.0125000
        k(   97) = (   0.2500000  -1.7500001  -0.5000000), wk =   0.0125000
        k(   98) = (   0.2500000  -1.7500001  -0.2500000), wk =   0.0125000
        k(   99) = (   0.2500000  -1.5000001   0.0000000), wk =   0.0125000
        k(  100) = (   0.2500000  -1.5000001   0.2500000), wk =   0.0125000
        k(  101) = (   0.2500000  -1.5000001  -0.5000000), wk =   0.0125000
        k(  102) = (   0.2500000  -1.5000001  -0.2500000), wk =   0.0125000
        k(  103) = (   0.2500000  -1.2500001   0.0000000), wk =   0.0125000
        k(  104) = (   0.2500000  -1.2500001   0.2500000), wk =   0.0125000
        k(  105) = (   0.2500000  -1.2500001  -0.5000000), wk =   0.0125000
        k(  106) = (   0.2500000  -1.2500001  -0.2500000), wk =   0.0125000
        k(  107) = (   0.2500000  -1.0000001   0.0000000), wk =   0.0125000
        k(  108) = (   0.2500000  -1.0000001   0.2500000), wk =   0.0125000
        k(  109) = (   0.2500000  -1.0000001  -0.5000000), wk =   0.0125000
        k(  110) = (   0.2500000  -1.0000001  -0.2500000), wk =   0.0125000
        k(  111) = (   0.2500000  -0.7500000   0.0000000), wk =   0.0125000
        k(  112) = (   0.2500000  -0.7500000   0.2500000), wk =   0.0125000
        k(  113) = (   0.2500000  -0.7500000  -0.5000000), wk =   0.0125000
        k(  114) = (   0.2500000  -0.7500000  -0.2500000), wk =   0.0125000
        k(  115) = (   0.2500000  -0.5000000   0.0000000), wk =   0.0125000
        k(  116) = (   0.2500000  -0.5000000   0.2500000), wk =   0.0125000
        k(  117) = (   0.2500000  -0.5000000  -0.5000000), wk =   0.0125000
        k(  118) = (   0.2500000  -0.5000000  -0.2500000), wk =   0.0125000
        k(  119) = (   0.2500000  -0.2500000   0.0000000), wk =   0.0125000
        k(  120) = (   0.2500000  -0.2500000   0.2500000), wk =   0.0125000
        k(  121) = (   0.2500000  -0.2500000  -0.5000000), wk =   0.0125000
        k(  122) = (   0.2500000  -0.2500000  -0.2500000), wk =   0.0125000
        k(  123) = (  -0.5000000   0.0000000   0.0000000), wk =   0.0062500
        k(  124) = (  -0.5000000   0.0000000   0.2500000), wk =   0.0125000
        k(  125) = (  -0.5000000   0.0000000  -0.5000000), wk =   0.0062500
        k(  126) = (  -0.5000000   0.2500000   0.0000000), wk =   0.0125000
        k(  127) = (  -0.5000000   0.2500000   0.2500000), wk =   0.0125000
        k(  128) = (  -0.5000000   0.2500000  -0.5000000), wk =   0.0125000
        k(  129) = (  -0.5000000   0.2500000  -0.2500000), wk =   0.0125000
        k(  130) = (  -0.5000000   0.5000000   0.0000000), wk =   0.0125000
        k(  131) = (  -0.5000000   0.5000000   0.2500000), wk =   0.0125000
        k(  132) = (  -0.5000000   0.5000000  -0.5000000), wk =   0.0125000
        k(  133) = (  -0.5000000   0.5000000  -0.2500000), wk =   0.0125000
        k(  134) = (  -0.5000000   0.7500000   0.0000000), wk =   0.0125000
        k(  135) = (  -0.5000000   0.7500000   0.2500000), wk =   0.0125000
        k(  136) = (  -0.5000000   0.7500000  -0.5000000), wk =   0.0125000
        k(  137) = (  -0.5000000   0.7500000  -0.2500000), wk =   0.0125000
        k(  138) = (  -0.5000000   1.0000001   0.0000000), wk =   0.0125000
        k(  139) = (  -0.5000000   1.0000001   0.2500000), wk =   0.0125000
        k(  140) = (  -0.5000000   1.0000001  -0.5000000), wk =   0.0125000
        k(  141) = (  -0.5000000   1.0000001  -0.2500000), wk =   0.0125000
        k(  142) = (  -0.5000000   1.2500001   0.0000000), wk =   0.0125000
        k(  143) = (  -0.5000000   1.2500001   0.2500000), wk =   0.0125000
        k(  144) = (  -0.5000000   1.2500001  -0.5000000), wk =   0.0125000
        k(  145) = (  -0.5000000   1.2500001  -0.2500000), wk =   0.0125000
        k(  146) = (  -0.5000000   1.5000001   0.0000000), wk =   0.0125000
        k(  147) = (  -0.5000000   1.5000001   0.2500000), wk =   0.0125000
        k(  148) = (  -0.5000000   1.5000001  -0.5000000), wk =   0.0125000
        k(  149) = (  -0.5000000   1.5000001  -0.2500000), wk =   0.0125000
        k(  150) = (  -0.5000000   1.7500001   0.0000000), wk =   0.0125000
        k(  151) = (  -0.5000000   1.7500001   0.2500000), wk =   0.0125000
        k(  152) = (  -0.5000000   1.7500001  -0.5000000), wk =   0.0125000
        k(  153) = (  -0.5000000   1.7500001  -0.2500000), wk =   0.0125000
        k(  154) = (  -0.5000000   2.0000001   0.0000000), wk =   0.0125000
        k(  155) = (  -0.5000000   2.0000001   0.2500000), wk =   0.0125000
        k(  156) = (  -0.5000000   2.0000001  -0.5000000), wk =   0.0125000
        k(  157) = (  -0.5000000   2.0000001  -0.2500000), wk =   0.0125000
        k(  158) = (  -0.5000000   2.2500001   0.0000000), wk =   0.0125000
        k(  159) = (  -0.5000000   2.2500001   0.2500000), wk =   0.0125000
        k(  160) = (  -0.5000000   2.2500001  -0.5000000), wk =   0.0125000
        k(  161) = (  -0.5000000   2.2500001  -0.2500000), wk =   0.0125000
        k(  162) = (  -0.5000000  -2.5000001   0.0000000), wk =   0.0062500
        k(  163) = (  -0.5000000  -2.5000001   0.2500000), wk =   0.0125000
        k(  164) = (  -0.5000000  -2.5000001  -0.5000000), wk =   0.0062500

                       cryst. coord.
        k(    1) = (   0.0000000   0.0000000   0.0000000), wk =   0.0062500
        k(    2) = (   0.0000000   0.0000000   0.2500000), wk =   0.0125000
        k(    3) = (   0.0000000   0.0000000  -0.5000000), wk =   0.0062500
        k(    4) = (   0.0000000   0.0500000   0.0000000), wk =   0.0125000
        k(    5) = (   0.0000000   0.0500000   0.2500000), wk =   0.0125000
        k(    6) = (   0.0000000   0.0500000  -0.5000000), wk =   0.0125000
        k(    7) = (   0.0000000   0.0500000  -0.2500000), wk =   0.0125000
        k(    8) = (   0.0000000   0.1000000   0.0000000), wk =   0.0125000
        k(    9) = (   0.0000000   0.1000000   0.2500000), wk =   0.0125000
        k(   10) = (   0.0000000   0.1000000  -0.5000000), wk =   0.0125000
        k(   11) = (   0.0000000   0.1000000  -0.2500000), wk =   0.0125000
        k(   12) = (   0.0000000   0.1500000   0.0000000), wk =   0.0125000
        k(   13) = (   0.0000000   0.1500000   0.2500000), wk =   0.0125000
        k(   14) = (   0.0000000   0.1500000  -0.5000000), wk =   0.0125000
        k(   15) = (   0.0000000   0.1500000  -0.2500000), wk =   0.0125000
        k(   16) = (   0.0000000   0.2000000   0.0000000), wk =   0.0125000
        k(   17) = (   0.0000000   0.2000000   0.2500000), wk =   0.0125000
        k(   18) = (   0.0000000   0.2000000  -0.5000000), wk =   0.0125000
        k(   19) = (   0.0000000   0.2000000  -0.2500000), wk =   0.0125000
        k(   20) = (   0.0000000   0.2500000   0.0000000), wk =   0.0125000
        k(   21) = (   0.0000000   0.2500000   0.2500000), wk =   0.0125000
        k(   22) = (   0.0000000   0.2500000  -0.5000000), wk =   0.0125000
        k(   23) = (   0.0000000   0.2500000  -0.2500000), wk =   0.0125000
        k(   24) = (   0.0000000   0.3000000   0.0000000), wk =   0.0125000
        k(   25) = (   0.0000000   0.3000000   0.2500000), wk =   0.0125000
        k(   26) = (   0.0000000   0.3000000  -0.5000000), wk =   0.0125000
        k(   27) = (   0.0000000   0.3000000  -0.2500000), wk =   0.0125000
        k(   28) = (   0.0000000   0.3500000   0.0000000), wk =   0.0125000
        k(   29) = (   0.0000000   0.3500000   0.2500000), wk =   0.0125000
        k(   30) = (   0.0000000   0.3500000  -0.5000000), wk =   0.0125000
        k(   31) = (   0.0000000   0.3500000  -0.2500000), wk =   0.0125000
        k(   32) = (   0.0000000   0.4000000   0.0000000), wk =   0.0125000
        k(   33) = (   0.0000000   0.4000000   0.2500000), wk =   0.0125000
        k(   34) = (   0.0000000   0.4000000  -0.5000000), wk =   0.0125000
        k(   35) = (   0.0000000   0.4000000  -0.2500000), wk =   0.0125000
        k(   36) = (   0.0000000   0.4500000   0.0000000), wk =   0.0125000
        k(   37) = (   0.0000000   0.4500000   0.2500000), wk =   0.0125000
        k(   38) = (   0.0000000   0.4500000  -0.5000000), wk =   0.0125000
        k(   39) = (   0.0000000   0.4500000  -0.2500000), wk =   0.0125000
        k(   40) = (   0.0000000  -0.5000000   0.0000000), wk =   0.0062500
        k(   41) = (   0.0000000  -0.5000000   0.2500000), wk =   0.0125000
        k(   42) = (   0.0000000  -0.5000000  -0.5000000), wk =   0.0062500
        k(   43) = (   0.2500000   0.0000000   0.0000000), wk =   0.0125000
        k(   44) = (   0.2500000   0.0000000   0.2500000), wk =   0.0125000
        k(   45) = (   0.2500000   0.0000000  -0.5000000), wk =   0.0125000
        k(   46) = (   0.2500000   0.0000000  -0.2500000), wk =   0.0125000
        k(   47) = (   0.2500000   0.0500000   0.0000000), wk =   0.0125000
        k(   48) = (   0.2500000   0.0500000   0.2500000), wk =   0.0125000
        k(   49) = (   0.2500000   0.0500000  -0.5000000), wk =   0.0125000
        k(   50) = (   0.2500000   0.0500000  -0.2500000), wk =   0.0125000
        k(   51) = (   0.2500000   0.1000000   0.0000000), wk =   0.0125000
        k(   52) = (   0.2500000   0.1000000   0.2500000), wk =   0.0125000
        k(   53) = (   0.2500000   0.1000000  -0.5000000), wk =   0.0125000
        k(   54) = (   0.2500000   0.1000000  -0.2500000), wk =   0.0125000
        k(   55) = (   0.2500000   0.1500000   0.0000000), wk =   0.0125000
        k(   56) = (   0.2500000   0.1500000   0.2500000), wk =   0.0125000
        k(   57) = (   0.2500000   0.1500000  -0.5000000), wk =   0.0125000
        k(   58) = (   0.2500000   0.1500000  -0.2500000), wk =   0.0125000
        k(   59) = (   0.2500000   0.2000000   0.0000000), wk =   0.0125000
        k(   60) = (   0.2500000   0.2000000   0.2500000), wk =   0.0125000
        k(   61) = (   0.2500000   0.2000000  -0.5000000), wk =   0.0125000
        k(   62) = (   0.2500000   0.2000000  -0.2500000), wk =   0.0125000
        k(   63) = (   0.2500000   0.2500000   0.0000000), wk =   0.0125000
        k(   64) = (   0.2500000   0.2500000   0.2500000), wk =   0.0125000
        k(   65) = (   0.2500000   0.2500000  -0.5000000), wk =   0.0125000
        k(   66) = (   0.2500000   0.2500000  -0.2500000), wk =   0.0125000
        k(   67) = (   0.2500000   0.3000000   0.0000000), wk =   0.0125000
        k(   68) = (   0.2500000   0.3000000   0.2500000), wk =   0.0125000
        k(   69) = (   0.2500000   0.3000000  -0.5000000), wk =   0.0125000
        k(   70) = (   0.2500000   0.3000000  -0.2500000), wk =   0.0125000
        k(   71) = (   0.2500000   0.3500000   0.0000000), wk =   0.0125000
        k(   72) = (   0.2500000   0.3500000   0.2500000), wk =   0.0125000
        k(   73) = (   0.2500000   0.3500000  -0.5000000), wk =   0.0125000
        k(   74) = (   0.2500000   0.3500000  -0.2500000), wk =   0.0125000
        k(   75) = (   0.2500000   0.4000000   0.0000000), wk =   0.0125000
        k(   76) = (   0.2500000   0.4000000   0.2500000), wk =   0.0125000
        k(   77) = (   0.2500000   0.4000000  -0.5000000), wk =   0.0125000
        k(   78) = (   0.2500000   0.4000000  -0.2500000), wk =   0.0125000
        k(   79) = (   0.2500000   0.4500000   0.0000000), wk =   0.0125000
        k(   80) = (   0.2500000   0.4500000   0.2500000), wk =   0.0125000
        k(   81) = (   0.2500000   0.4500000  -0.5000000), wk =   0.0125000
        k(   82) = (   0.2500000   0.4500000  -0.2500000), wk =   0.0125000
        k(   83) = (   0.2500000  -0.5000000   0.0000000), wk =   0.0125000
        k(   84) = (   0.2500000  -0.5000000   0.2500000), wk =   0.0125000
        k(   85) = (   0.2500000  -0.5000000  -0.5000000), wk =   0.0125000
        k(   86) = (   0.2500000  -0.5000000  -0.2500000), wk =   0.0125000
        k(   87) = (   0.2500000  -0.4500000   0.0000000), wk =   0.0125000
        k(   88) = (   0.2500000  -0.4500000   0.2500000), wk =   0.0125000
        k(   89) = (   0.2500000  -0.4500000  -0.5000000), wk =   0.0125000
        k(   90) = (   0.2500000  -0.4500000  -0.2500000), wk =   0.0125000
        k(   91) = (   0.2500000  -0.4000000   0.0000000), wk =   0.0125000
        k(   92) = (   0.2500000  -0.4000000   0.2500000), wk =   0.0125000
        k(   93) = (   0.2500000  -0.4000000  -0.5000000), wk =   0.0125000
        k(   94) = (   0.2500000  -0.4000000  -0.2500000), wk =   0.0125000
        k(   95) = (   0.2500000  -0.3500000   0.0000000), wk =   0.0125000
        k(   96) = (   0.2500000  -0.3500000   0.2500000), wk =   0.0125000
        k(   97) = (   0.2500000  -0.3500000  -0.5000000), wk =   0.0125000
        k(   98) = (   0.2500000  -0.3500000  -0.2500000), wk =   0.0125000
        k(   99) = (   0.2500000  -0.3000000   0.0000000), wk =   0.0125000
        k(  100) = (   0.2500000  -0.3000000   0.2500000), wk =   0.0125000
        k(  101) = (   0.2500000  -0.3000000  -0.5000000), wk =   0.0125000
        k(  102) = (   0.2500000  -0.3000000  -0.2500000), wk =   0.0125000
        k(  103) = (   0.2500000  -0.2500000   0.0000000), wk =   0.0125000
        k(  104) = (   0.2500000  -0.2500000   0.2500000), wk =   0.0125000
        k(  105) = (   0.2500000  -0.2500000  -0.5000000), wk =   0.0125000
        k(  106) = (   0.2500000  -0.2500000  -0.2500000), wk =   0.0125000
        k(  107) = (   0.2500000  -0.2000000   0.0000000), wk =   0.0125000
        k(  108) = (   0.2500000  -0.2000000   0.2500000), wk =   0.0125000
        k(  109) = (   0.2500000  -0.2000000  -0.5000000), wk =   0.0125000
        k(  110) = (   0.2500000  -0.2000000  -0.2500000), wk =   0.0125000
        k(  111) = (   0.2500000  -0.1500000   0.0000000), wk =   0.0125000
        k(  112) = (   0.2500000  -0.1500000   0.2500000), wk =   0.0125000
        k(  113) = (   0.2500000  -0.1500000  -0.5000000), wk =   0.0125000
        k(  114) = (   0.2500000  -0.1500000  -0.2500000), wk =   0.0125000
        k(  115) = (   0.2500000  -0.1000000   0.0000000), wk =   0.0125000
        k(  116) = (   0.2500000  -0.1000000   0.2500000), wk =   0.0125000
        k(  117) = (   0.2500000  -0.1000000  -0.5000000), wk =   0.0125000
        k(  118) = (   0.2500000  -0.1000000  -0.2500000), wk =   0.0125000
        k(  119) = (   0.2500000  -0.0500000   0.0000000), wk =   0.0125000
        k(  120) = (   0.2500000  -0.0500000   0.2500000), wk =   0.0125000
        k(  121) = (   0.2500000  -0.0500000  -0.5000000), wk =   0.0125000
        k(  122) = (   0.2500000  -0.0500000  -0.2500000), wk =   0.0125000
        k(  123) = (  -0.5000000   0.0000000   0.0000000), wk =   0.0062500
        k(  124) = (  -0.5000000   0.0000000   0.2500000), wk =   0.0125000
        k(  125) = (  -0.5000000   0.0000000  -0.5000000), wk =   0.0062500
        k(  126) = (  -0.5000000   0.0500000   0.0000000), wk =   0.0125000
        k(  127) = (  -0.5000000   0.0500000   0.2500000), wk =   0.0125000
        k(  128) = (  -0.5000000   0.0500000  -0.5000000), wk =   0.0125000
        k(  129) = (  -0.5000000   0.0500000  -0.2500000), wk =   0.0125000
        k(  130) = (  -0.5000000   0.1000000   0.0000000), wk =   0.0125000
        k(  131) = (  -0.5000000   0.1000000   0.2500000), wk =   0.0125000
        k(  132) = (  -0.5000000   0.1000000  -0.5000000), wk =   0.0125000
        k(  133) = (  -0.5000000   0.1000000  -0.2500000), wk =   0.0125000
        k(  134) = (  -0.5000000   0.1500000   0.0000000), wk =   0.0125000
        k(  135) = (  -0.5000000   0.1500000   0.2500000), wk =   0.0125000
        k(  136) = (  -0.5000000   0.1500000  -0.5000000), wk =   0.0125000
        k(  137) = (  -0.5000000   0.1500000  -0.2500000), wk =   0.0125000
        k(  138) = (  -0.5000000   0.2000000   0.0000000), wk =   0.0125000
        k(  139) = (  -0.5000000   0.2000000   0.2500000), wk =   0.0125000
        k(  140) = (  -0.5000000   0.2000000  -0.5000000), wk =   0.0125000
        k(  141) = (  -0.5000000   0.2000000  -0.2500000), wk =   0.0125000
        k(  142) = (  -0.5000000   0.2500000   0.0000000), wk =   0.0125000
        k(  143) = (  -0.5000000   0.2500000   0.2500000), wk =   0.0125000
        k(  144) = (  -0.5000000   0.2500000  -0.5000000), wk =   0.0125000
        k(  145) = (  -0.5000000   0.2500000  -0.2500000), wk =   0.0125000
        k(  146) = (  -0.5000000   0.3000000   0.0000000), wk =   0.0125000
        k(  147) = (  -0.5000000   0.3000000   0.2500000), wk =   0.0125000
        k(  148) = (  -0.5000000   0.3000000  -0.5000000), wk =   0.0125000
        k(  149) = (  -0.5000000   0.3000000  -0.2500000), wk =   0.0125000
        k(  150) = (  -0.5000000   0.3500000   0.0000000), wk =   0.0125000
        k(  151) = (  -0.5000000   0.3500000   0.2500000), wk =   0.0125000
        k(  152) = (  -0.5000000   0.3500000  -0.5000000), wk =   0.0125000
        k(  153) = (  -0.5000000   0.3500000  -0.2500000), wk =   0.0125000
        k(  154) = (  -0.5000000   0.4000000   0.0000000), wk =   0.0125000
        k(  155) = (  -0.5000000   0.4000000   0.2500000), wk =   0.0125000
        k(  156) = (  -0.5000000   0.4000000  -0.5000000), wk =   0.0125000
        k(  157) = (  -0.5000000   0.4000000  -0.2500000), wk =   0.0125000
        k(  158) = (  -0.5000000   0.4500000   0.0000000), wk =   0.0125000
        k(  159) = (  -0.5000000   0.4500000   0.2500000), wk =   0.0125000
        k(  160) = (  -0.5000000   0.4500000  -0.5000000), wk =   0.0125000
        k(  161) = (  -0.5000000   0.4500000  -0.2500000), wk =   0.0125000
        k(  162) = (  -0.5000000  -0.5000000   0.0000000), wk =   0.0062500
        k(  163) = (  -0.5000000  -0.5000000   0.2500000), wk =   0.0125000
        k(  164) = (  -0.5000000  -0.5000000  -0.5000000), wk =   0.0062500

     Dense  grid:  1522361 G-vectors     FFT dimensions: ( 250,  50, 250)

     Smooth grid:   385283 G-vectors     FFT dimensions: ( 160,  32, 160)

     Dynamical RAM for                 wfc:      14.77 MB

     Dynamical RAM for     wfc (w. buffer):     620.24 MB

     Dynamical RAM for           str. fact:       7.74 MB

     Dynamical RAM for           local pot:       0.00 MB

     Dynamical RAM for          nlocal pot:     142.78 MB

     Dynamical RAM for                qrad:      29.33 MB

     Dynamical RAM for          rho,v,vnew:      15.75 MB

     Dynamical RAM for               rhoin:       5.25 MB

     Dynamical RAM for            rho*nmix:      41.30 MB

     Dynamical RAM for           G-vectors:      10.01 MB

     Dynamical RAM for          h,s,v(r/c):       6.00 MB

     Dynamical RAM for          <psi|beta>:       4.83 MB

     Dynamical RAM for                 psi:      59.07 MB

     Dynamical RAM for                hpsi:      59.07 MB

     Dynamical RAM for                spsi:      59.07 MB

     Dynamical RAM for      wfcinit/wfcrot:      68.94 MB

     Dynamical RAM for           addusdens:     179.38 MB

     Dynamical RAM for          addusforce:     313.98 MB

     Dynamical RAM for         addusstress:     130.66 MB

     Estimated static dynamical RAM per process >     896.08 MB

     Estimated max dynamical RAM per process >       1.18 GB

     Estimated total dynamical RAM >      42.54 GB

     Initial potential from superposition of free atoms

     starting charge  300.78820, renormalised to  301.00000
     Starting wfcs are  400 randomized atomic wfcs
     Checking if some PAW data can be deallocated... 
       PAW data deallocated on    5 nodes for type:  1
       PAW data deallocated on   32 nodes for type:  2

     total cpu time spent up to now is      214.8 secs

     Self-consistent Calculation

     iteration #  1     ecut=    40.00 Ry     beta= 0.40
     Davidson diagonalization with overlap
     ethr =  1.00E-02,  avg # of iterations =  3.0

     total cpu time spent up to now is      613.2 secs

     total energy              =   -3752.15366303 Ry
     Harris-Foulkes estimate   =   -3752.33031484 Ry
     estimated scf accuracy    <       3.85413215 Ry

     iteration #  2     ecut=    40.00 Ry     beta= 0.40
     Davidson diagonalization with overlap
     ethr =  1.28E-03,  avg # of iterations =  2.5

     total cpu time spent up to now is      915.5 secs

     total energy              =   -3752.06463601 Ry
     Harris-Foulkes estimate   =   -3752.36787188 Ry
     estimated scf accuracy    <       2.13862870 Ry

     iteration #  3     ecut=    40.00 Ry     beta= 0.40
     Davidson diagonalization with overlap
     ethr =  7.11E-04,  avg # of iterations =  3.2

     total cpu time spent up to now is     1230.9 secs

     total energy              =   -3752.23539648 Ry
     Harris-Foulkes estimate   =   -3752.24924798 Ry
     estimated scf accuracy    <       0.13554671 Ry

     iteration #  4     ecut=    40.00 Ry     beta= 0.40
     Davidson diagonalization with overlap
     ethr =  4.50E-05,  avg # of iterations =  9.4

     total cpu time spent up to now is     1788.4 secs

     total energy              =   -3752.26827111 Ry
     Harris-Foulkes estimate   =   -3752.26727625 Ry
     estimated scf accuracy    <       0.04931056 Ry

     iteration #  5     ecut=    40.00 Ry     beta= 0.40
     Davidson diagonalization with overlap
     ethr =  1.64E-05,  avg # of iterations =  1.3

     total cpu time spent up to now is     2073.6 secs

     total energy              =   -3752.26048067 Ry
     Harris-Foulkes estimate   =   -3752.26895080 Ry
     estimated scf accuracy    <       0.06991236 Ry

     iteration #  6     ecut=    40.00 Ry     beta= 0.40
     Davidson diagonalization with overlap
     ethr =  1.64E-05,  avg # of iterations =  1.5

     total cpu time spent up to now is     2360.0 secs

     total energy              =   -3752.26293674 Ry
     Harris-Foulkes estimate   =   -3752.26302324 Ry
     estimated scf accuracy    <       0.00034807 Ry

     iteration #  7     ecut=    40.00 Ry     beta= 0.40
     Davidson diagonalization with overlap
     c_bands:  1 eigenvalues not converged
     c_bands:  1 eigenvalues not converged
     c_bands:  1 eigenvalues not converged
     ethr =  1.16E-07,  avg # of iterations =  6.3

     total cpu time spent up to now is     3005.3 secs

     total energy              =   -3752.26370123 Ry
     Harris-Foulkes estimate   =   -3752.26374529 Ry
     estimated scf accuracy    <       0.00439294 Ry

     iteration #  8     ecut=    40.00 Ry     beta= 0.40
     Davidson diagonalization with overlap
     ethr =  1.16E-07,  avg # of iterations =  2.4

     total cpu time spent up to now is     3315.2 secs

     total energy              =   -3752.26332577 Ry
     Harris-Foulkes estimate   =   -3752.26370157 Ry
     estimated scf accuracy    <       0.00351430 Ry

     iteration #  9     ecut=    40.00 Ry     beta= 0.40
     Davidson diagonalization with overlap
     ethr =  1.16E-07,  avg # of iterations =  4.7

     total cpu time spent up to now is     3709.8 secs

     total energy              =   -3752.26357582 Ry
     Harris-Foulkes estimate   =   -3752.26358794 Ry
     estimated scf accuracy    <       0.00077604 Ry

     iteration # 10     ecut=    40.00 Ry     beta= 0.40
     Davidson diagonalization with overlap
     ethr =  1.16E-07,  avg # of iterations =  1.1

     total cpu time spent up to now is     3992.2 secs

     total energy              =   -3752.26353150 Ry
     Harris-Foulkes estimate   =   -3752.26357716 Ry
     estimated scf accuracy    <       0.00059021 Ry

     iteration # 11     ecut=    40.00 Ry     beta= 0.40
     Davidson diagonalization with overlap
     ethr =  1.16E-07,  avg # of iterations =  2.1

     total cpu time spent up to now is     4290.3 secs

     total energy              =   -3752.26355471 Ry
     Harris-Foulkes estimate   =   -3752.26355518 Ry
     estimated scf accuracy    <       0.00000093 Ry

     iteration # 12     ecut=    40.00 Ry     beta= 0.40
     Davidson diagonalization with overlap
     ethr =  3.09E-10,  avg # of iterations =  6.2

     total cpu time spent up to now is     4845.9 secs

     total energy              =   -3752.26355610 Ry
     Harris-Foulkes estimate   =   -3752.26355619 Ry
     estimated scf accuracy    <       0.00000113 Ry

     iteration # 13     ecut=    40.00 Ry     beta= 0.40
     Davidson diagonalization with overlap
     ethr =  3.09E-10,  avg # of iterations =  1.0

     total cpu time spent up to now is     5127.3 secs

     total energy              =   -3752.26355602 Ry
     Harris-Foulkes estimate   =   -3752.26355609 Ry
     estimated scf accuracy    <       0.00000033 Ry

     iteration # 14     ecut=    40.00 Ry     beta= 0.40
     Davidson diagonalization with overlap
     ethr =  1.10E-10,  avg # of iterations =  3.1

     total cpu time spent up to now is     5444.3 secs

     total energy              =   -3752.26355603 Ry
     Harris-Foulkes estimate   =   -3752.26355604 Ry
     estimated scf accuracy    <       0.00000009 Ry

     iteration # 15     ecut=    40.00 Ry     beta= 0.40
     Davidson diagonalization with overlap
     ethr =  3.09E-11,  avg # of iterations =  4.1

     total cpu time spent up to now is     5811.5 secs

     total energy              =   -3752.26355599 Ry
     Harris-Foulkes estimate   =   -3752.26355602 Ry
     estimated scf accuracy    <       0.00000033 Ry

     iteration # 16     ecut=    40.00 Ry     beta= 0.40
     Davidson diagonalization with overlap
     ethr =  3.09E-11,  avg # of iterations =  2.4

     total cpu time spent up to now is     6125.5 secs

     total energy              =   -3752.26355593 Ry
     Harris-Foulkes estimate   =   -3752.26355593 Ry
     estimated scf accuracy    <          3.1E-09 Ry

     iteration # 17     ecut=    40.00 Ry     beta= 0.40
     Davidson diagonalization with overlap
     ethr =  1.04E-12,  avg # of iterations =  5.1

     total cpu time spent up to now is     6568.3 secs

     total energy              =   -3752.26355591 Ry
     Harris-Foulkes estimate   =   -3752.26355591 Ry
     estimated scf accuracy    <          9.9E-09 Ry

     iteration # 18     ecut=    40.00 Ry     beta= 0.40
     Davidson diagonalization with overlap
     ethr =  1.04E-12,  avg # of iterations =  2.1

     total cpu time spent up to now is     6867.8 secs

     total energy              =   -3752.26355589 Ry
     Harris-Foulkes estimate   =   -3752.26355589 Ry
     estimated scf accuracy    <          6.7E-10 Ry

     iteration # 19     ecut=    40.00 Ry     beta= 0.40
     Davidson diagonalization with overlap
     ethr =  2.22E-13,  avg # of iterations =  3.4

     total cpu time spent up to now is     7179.5 secs

     total energy              =   -3752.26355588 Ry
     Harris-Foulkes estimate   =   -3752.26355588 Ry
     estimated scf accuracy    <          6.3E-11 Ry

     iteration # 20     ecut=    40.00 Ry     beta= 0.40
     Davidson diagonalization with overlap
     ethr =  1.00E-13,  avg # of iterations =  4.1

     total cpu time spent up to now is     7525.1 secs

     total energy              =   -3752.26355588 Ry
     Harris-Foulkes estimate   =   -3752.26355588 Ry
     estimated scf accuracy    <          1.9E-10 Ry

     iteration # 21     ecut=    40.00 Ry     beta= 0.40
     Davidson diagonalization with overlap
     ethr =  1.00E-13,  avg # of iterations =  1.1

     total cpu time spent up to now is     7808.9 secs

     total energy              =   -3752.26355588 Ry
     Harris-Foulkes estimate   =   -3752.26355588 Ry
     estimated scf accuracy    <          1.8E-12 Ry

     iteration # 22     ecut=    40.00 Ry     beta= 0.40
     Davidson diagonalization with overlap
     ethr =  1.00E-13,  avg # of iterations =  1.0

     total cpu time spent up to now is     8089.7 secs

     total energy              =   -3752.26355588 Ry
     Harris-Foulkes estimate   =   -3752.26355588 Ry
     estimated scf accuracy    <          1.3E-12 Ry

     iteration # 23     ecut=    40.00 Ry     beta= 0.40
     Davidson diagonalization with overlap
     ethr =  1.00E-13,  avg # of iterations =  1.0

     total cpu time spent up to now is     8370.7 secs

     End of self-consistent calculation

          k = 0.0000 0.0000 0.0000 ( 48187 PWs)   bands (ev):

    -3.7492  -3.6751  -3.2429  -3.0547  -3.0443  -2.8744  -2.7643  -2.6860
    -2.5999  -2.5209  -2.1000  -1.9880  -1.9071  -1.8003  -1.7775  -1.7331
    -1.5768  -1.5580  -1.5306  -1.4264  -1.3920  -0.7448  -0.6648  -0.6591
    -0.5341  -0.3008  -0.1384  -0.1366  -0.0883  -0.0030   0.0740   0.1246
     0.1307   0.1380   0.3521   0.3553   0.5878   1.0199   1.1266   1.1550
     1.2274   1.2542   1.2547   1.3009   1.6695   1.9195   2.2773   2.3005
     2.3671   2.4143   2.4576   2.4952   2.6226   2.6439   2.7425   2.7622
     2.8690   2.9076   2.9681   3.1502   3.1778   3.3892   3.5710   3.6010
     3.6123   3.7141   3.7199   3.7541   3.8855   4.4315   4.4801   4.8080
     4.8215   4.8969   4.9652   5.0529   5.0947   5.1022   5.1191   5.1208
     5.1844   5.1981   5.2393   5.2396   5.3002   5.3280   5.3536   5.3651
     5.4050   5.4086   5.5029   5.5930   5.6687   5.6990   5.7960   5.8310
     5.9529   6.0085   6.0776   6.0835   6.1365   6.1612   6.1668   6.2158
     6.2345   6.2579   6.2597   6.2941   6.3567   6.4532   6.4630   6.4640
     6.4657   6.4887   6.5012   6.5181   6.5826   6.6063   6.6644   6.6906
     6.7599   6.8115   6.9831   7.0786   7.1493   7.2033   7.2059   7.2941
     7.2977   7.4101   7.4688   7.4750   7.5023   7.5096   7.5254   7.5553
     7.6455   7.6469   7.6537   7.6677   7.7166   7.7267   7.7688   7.7815
     7.8206   7.8269   7.8294   7.8302   7.8683   7.9174   7.9224   7.9417
     7.9964   8.0063   8.0235   8.0670   8.0871   8.1673   8.2299   8.3235
     8.3323   8.3491   8.4767   8.5774   8.8013   8.8299   8.8923   8.9359
     9.0346   9.0490   9.0831   9.1150   9.1487   9.1527   9.1736   9.1904
     9.2524   9.2548   9.2685   9.2876   9.3257

     occupation numbers 
     1.0000   1.0000   1.0000   1.0000   1.0000   1.0000   1.0000   1.0000
     1.0000   1.0000   1.0000   1.0000   1.0000   1.0000   1.0000   1.0000
     1.0000   1.0000   1.0000   1.0000   1.0000   1.0000   1.0000   1.0000
     1.0000   1.0000   1.0000   1.0000   1.0000   1.0000   1.0000   1.0000
     1.0000   1.0000   1.0000   1.0000   1.0000   1.0000   1.0000   1.0000
     1.0000   1.0000   1.0000   1.0000   1.0000   1.0000   1.0000   1.0000
     1.0000   1.0000   1.0000   1.0000   1.0000   1.0000   1.0000   1.0000
     1.0000   1.0000   1.0000   1.0000   1.0000   1.0000   1.0000   1.0000
     1.0000   1.0000   1.0000   1.0000   1.0000   1.0000   1.0000   1.0000
     1.0000   1.0000   1.0000   1.0000   1.0000   1.0000   1.0000   1.0000
     1.0000   1.0000   1.0000   1.0000   1.0000   1.0000   1.0000   1.0000
     1.0000   1.0000   1.0000   1.0000   1.0000   1.0000   1.0000   1.0000
     1.0001   1.0002   1.0003   1.0003   1.0005   1.0006   1.0006   1.0009
     1.0010   1.0012   1.0012   1.0015   1.0024   1.0044   1.0047   1.0047
     1.0048   1.0055   1.0059   1.0065   1.0092   1.0104   1.0137   1.0154
     1.0203   1.0243   1.0349   1.0338   1.0262   1.0148   1.0141   0.9818
     0.9801   0.9089   0.8578   0.8519   0.8245   0.8169   0.7998   0.7659
     0.6526   0.6506   0.6415   0.6226   0.5550   0.5408   0.4815   0.4637
     0.4090   0.4003   0.3968   0.3958   0.3442   0.2808   0.2746   0.2511
     0.1889   0.1785   0.1608   0.1197   0.1025   0.0451   0.0125  -0.0186
    -0.0206  -0.0239  -0.0354  -0.0328  -0.0167  -0.0148  -0.0111  -0.0089
    -0.0051  -0.0047  -0.0038  -0.0031  -0.0025  -0.0024  -0.0021  -0.0019
    -0.0012  -0.0012  -0.0011  -0.0009  -0.0007

          k = 0.0000 0.0000 0.2500 ( 48145 PWs)   bands (ev):

    -3.7404  -3.6866  -3.2250  -3.0971  -3.0382  -2.8431  -2.8200  -2.6655
    -2.5049  -2.4844  -2.1934  -2.0251  -2.0173  -1.8579  -1.8483  -1.7510
    -1.5561  -1.4510  -1.3884  -1.2809  -1.2041  -0.8499  -0.8476  -0.7991
    -0.5192  -0.3399  -0.3060  -0.1153  -0.0976  -0.0459   0.0252   0.1060
     0.1816   0.4169   0.4609   0.6131   0.7422   0.7496   0.8563   1.0144
     1.0290   1.4501   1.6341   1.6616   1.6838   1.8550   1.9244   1.9869
     2.2942   2.3144   2.3559   2.4268   2.5901   2.6236   2.6709   2.8581
     2.9085   3.0774   3.0824   3.2382   3.3193   3.3524   3.4134   3.5579
     3.6392   3.9771   3.9917   4.2522   4.3837   4.4340   4.4380   4.4724
     4.5669   4.6389   4.6980   4.7372   4.8346   4.8632   4.9138   4.9536
     5.0405   5.0796   5.1111   5.2791   5.3043   5.3614   5.4284   5.5463
     5.6060   5.6090   5.6098   5.6814   5.7148   5.7785   5.8675   5.8849
     5.9673   5.9712   6.0256   6.0477   6.1197   6.1415   6.1965   6.1982
     6.2307   6.2561   6.2970   6.3968   6.4254   6.4738   6.4760   6.5100
     6.5675   6.6347   6.6349   6.6483   6.6684   6.7308   6.7321   6.7966
     6.8248   6.9368   6.9413   6.9708   7.1061   7.1445   7.1775   7.1867
     7.1907   7.2045   7.2830   7.3359   7.3709   7.3783   7.4249   7.5168
     7.5720   7.5739   7.5966   7.6473   7.6589   7.7568   7.7898   7.8328
     7.8392   7.8421   7.8868   7.9033   7.9260   7.9966   8.0718   8.0980
     8.1191   8.1725   8.2384   8.2702   8.3099   8.3136   8.3432   8.3533
     8.3649   8.4559   8.5054   8.5198   8.6283   8.6464   8.6602   8.6923
     8.7036   8.7775   8.8155   8.9944   9.0131   9.0426   9.0456   9.0697
     9.0782   9.1620   9.1957   9.2539   9.2596

     occupation numbers 
     1.0000   1.0000   1.0000   1.0000   1.0000   1.0000   1.0000   1.0000
     1.0000   1.0000   1.0000   1.0000   1.0000   1.0000   1.0000   1.0000
     1.0000   1.0000   1.0000   1.0000   1.0000   1.0000   1.0000   1.0000
     1.0000   1.0000   1.0000   1.0000   1.0000   1.0000   1.0000   1.0000
     1.0000   1.0000   1.0000   1.0000   1.0000   1.0000   1.0000   1.0000
     1.0000   1.0000   1.0000   1.0000   1.0000   1.0000   1.0000   1.0000
     1.0000   1.0000   1.0000   1.0000   1.0000   1.0000   1.0000   1.0000
     1.0000   1.0000   1.0000   1.0000   1.0000   1.0000   1.0000   1.0000
     1.0000   1.0000   1.0000   1.0000   1.0000   1.0000   1.0000   1.0000
     1.0000   1.0000   1.0000   1.0000   1.0000   1.0000   1.0000   1.0000
     1.0000   1.0000   1.0000   1.0000   1.0000   1.0000   1.0000   1.0000
     1.0000   1.0000   1.0000   1.0000   1.0000   1.0000   1.0000   1.0000
     1.0001   1.0001   1.0002   1.0002   1.0004   1.0005   1.0007   1.0007
     1.0010   1.0012   1.0016   1.0031   1.0037   1.0050   1.0051   1.0062
     1.0085   1.0119   1.0120   1.0127   1.0140   1.0182   1.0183   1.0231
     1.0253   1.0330   1.0332   1.0345   1.0317   1.0270   1.0209   1.0189
     1.0180   1.0145   0.9869   0.9597   0.9377   0.9326   0.8970   0.8091
     0.7461   0.7438   0.7158   0.6501   0.6346   0.4984   0.4519   0.3922
     0.3835   0.3795   0.3199   0.2986   0.2702   0.1887   0.1155   0.0937
     0.0774   0.0420   0.0088  -0.0033  -0.0153  -0.0162  -0.0228  -0.0247
    -0.0266  -0.0349  -0.0354  -0.0351  -0.0296  -0.0283  -0.0273  -0.0249
    -0.0240  -0.0184  -0.0158  -0.0065  -0.0058  -0.0049  -0.0048  -0.0041
    -0.0039  -0.0023  -0.0018  -0.0012  -0.0011

          k = 0.0000 0.0000-0.5000 ( 48170 PWs)   bands (ev):

    -3.7242  -3.7055  -3.1758  -3.1703  -3.0124  -2.9047  -2.7571  -2.6802
    -2.4014  -2.3628  -2.3562  -2.1278  -2.0658  -1.8918  -1.8678  -1.8284
    -1.3831  -1.3719  -1.2953  -1.0861  -1.0423  -1.0276  -0.8703  -0.8350
    -0.8104  -0.6498  -0.2037  -0.1327  -0.0866   0.0040   0.1696   0.1928
     0.2560   0.3842   0.4329   0.5595   0.6803   0.8138   1.0084   1.0557
     1.3171   1.3573   1.3700   1.3875   1.8552   1.9368   1.9904   2.1799
     2.2045   2.2232   2.2949   2.3698   2.4207   2.4647   2.5912   2.6075
     2.9385   3.0025   3.0162   3.1832   3.7151   3.7878   3.9233   3.9416
     3.9916   4.0432   4.0471   4.0819   4.1162   4.2112   4.2751   4.3917
     4.4534   4.4558   4.5111   4.5954   4.8169   4.9146   4.9484   4.9545
     4.9610   4.9661   5.1094   5.1395   5.1475   5.2177   5.3493   5.4544
     5.4970   5.6761   5.6877   5.7088   5.7276   5.7529   5.7802   5.9396
     6.0064   6.1188   6.1517   6.1650   6.2054   6.2187   6.2518   6.2825
     6.2967   6.3171   6.3940   6.4453   6.5302   6.5329   6.5368   6.5811
     6.6196   6.6221   6.6582   6.6813   6.7084   6.7191   6.7718   6.8073
     6.8997   6.9153   6.9299   6.9552   6.9797   7.0323   7.1329   7.1555
     7.1567   7.1936   7.2422   7.2907   7.3344   7.3637   7.4108   7.4244
     7.4662   7.5929   7.6285   7.6906   7.6908   7.7029   7.7564   7.8015
     7.8060   7.8536   7.8624   7.9593   8.0164   8.0616   8.1010   8.1438
     8.1574   8.2518   8.2641   8.2693   8.3174   8.3357   8.3434   8.3563
     8.4624   8.5364   8.5528   8.5810   8.5976   8.6308   8.6851   8.7015
     8.7462   8.8166   8.8305   8.8688   8.8875   8.9172   8.9234   8.9254
     8.9338   9.0114   9.0848   9.2275   9.2987

     occupation numbers 
     1.0000   1.0000   1.0000   1.0000   1.0000   1.0000   1.0000   1.0000
     1.0000   1.0000   1.0000   1.0000   1.0000   1.0000   1.0000   1.0000
     1.0000   1.0000   1.0000   1.0000   1.0000   1.0000   1.0000   1.0000
     1.0000   1.0000   1.0000   1.0000   1.0000   1.0000   1.0000   1.0000
     1.0000   1.0000   1.0000   1.0000   1.0000   1.0000   1.0000   1.0000
     1.0000   1.0000   1.0000   1.0000   1.0000   1.0000   1.0000   1.0000
     1.0000   1.0000   1.0000   1.0000   1.0000   1.0000   1.0000   1.0000
     1.0000   1.0000   1.0000   1.0000   1.0000   1.0000   1.0000   1.0000
     1.0000   1.0000   1.0000   1.0000   1.0000   1.0000   1.0000   1.0000
     1.0000   1.0000   1.0000   1.0000   1.0000   1.0000   1.0000   1.0000
     1.0000   1.0000   1.0000   1.0000   1.0000   1.0000   1.0000   1.0000
     1.0000   1.0000   1.0000   1.0000   1.0000   1.0000   1.0000   1.0001
     1.0001   1.0004   1.0005   1.0006   1.0008   1.0009   1.0011   1.0014
     1.0016   1.0018   1.0030   1.0042   1.0070   1.0071   1.0072   1.0091
     1.0111   1.0112   1.0133   1.0148   1.0166   1.0174   1.0212   1.0240
     1.0308   1.0317   1.0326   1.0339   1.0348   1.0354   1.0286   1.0252
     1.0250   1.0173   1.0030   0.9834   0.9606   0.9425   0.9084   0.8974
     0.8603   0.7206   0.6750   0.5912   0.5909   0.5741   0.4991   0.4357
     0.4294   0.3639   0.3520   0.2304   0.1680   0.1246   0.0913   0.0601
     0.0512   0.0034  -0.0012  -0.0030  -0.0172  -0.0213  -0.0229  -0.0252
    -0.0351  -0.0346  -0.0340  -0.0326  -0.0317  -0.0295  -0.0254  -0.0242
    -0.0207  -0.0157  -0.0148  -0.0124  -0.0113  -0.0098  -0.0095  -0.0094
    -0.0090  -0.0059  -0.0038  -0.0014  -0.0008

          k = 0.0000 0.2500 0.0000 ( 48187 PWs)   bands (ev):

    -3.7275  -3.6534  -3.2206  -3.0328  -3.0223  -2.8520  -2.7424  -2.6637
    -2.5776  -2.5000  -2.0781  -1.9668  -1.8850  -1.7781  -1.7556  -1.7110
    -1.5546  -1.5362  -1.5086  -1.4043  -1.3710  -0.7241  -0.6432  -0.6374
    -0.5135  -0.2789  -0.1168  -0.1158  -0.0664   0.0187   0.0946   0.1463
     0.1526   0.1580   0.3738   0.3763   0.6091   1.0383   1.1464   1.1760
     1.2491   1.2749   1.2756   1.3224   1.6902   1.9380   2.2985   2.3204
     2.3877   2.4347   2.4756   2.5164   2.6439   2.6651   2.7621   2.7828
     2.8896   2.9254   2.9884   3.1633   3.1981   3.4032   3.5869   3.6216
     3.6320   3.7340   3.7383   3.7654   3.9050   4.0916   4.1283   4.5016
     4.7063   4.7129   4.8308   4.8381   4.8542   4.9735   4.9831   5.0141
     5.0995   5.1115   5.1484   5.1728   5.2022   5.2117   5.2298   5.2891
     5.3230   5.3458   5.3842   5.4206   5.5739   5.6692   5.7175   5.7292
     5.7648   5.8474   5.8847   5.9350   6.0069   6.0094   6.0309   6.0886
     6.1107   6.1350   6.1497   6.2338   6.2509   6.2729   6.3025   6.3245
     6.3943   6.5220   6.5857   6.6454   6.8311   6.8776   6.8921   6.9316
     6.9413   6.9848   7.0030   7.0814   7.1262   7.1378   7.1886   7.2175
     7.3075   7.3264   7.3575   7.4134   7.4282   7.5089   7.5254   7.5843
     7.6236   7.6299   7.6543   7.6933   7.7060   7.7109   7.7519   7.7756
     7.7943   7.8210   7.8279   7.8429   7.8526   7.9188   7.9516   7.9540
     7.9957   8.0761   8.1047   8.1383   8.2258   8.2819   8.3416   8.3441
     8.3925   8.5034   8.5041   8.6020   8.6888   8.7321   8.7554   8.7683
     8.7990   8.8362   8.8568   9.1320   9.1666   9.1806   9.2598   9.2866
     9.2936   9.3184   9.3539   9.3631   9.3741

     occupation numbers 
     1.0000   1.0000   1.0000   1.0000   1.0000   1.0000   1.0000   1.0000
     1.0000   1.0000   1.0000   1.0000   1.0000   1.0000   1.0000   1.0000
     1.0000   1.0000   1.0000   1.0000   1.0000   1.0000   1.0000   1.0000
     1.0000   1.0000   1.0000   1.0000   1.0000   1.0000   1.0000   1.0000
     1.0000   1.0000   1.0000   1.0000   1.0000   1.0000   1.0000   1.0000
     1.0000   1.0000   1.0000   1.0000   1.0000   1.0000   1.0000   1.0000
     1.0000   1.0000   1.0000   1.0000   1.0000   1.0000   1.0000   1.0000
     1.0000   1.0000   1.0000   1.0000   1.0000   1.0000   1.0000   1.0000
     1.0000   1.0000   1.0000   1.0000   1.0000   1.0000   1.0000   1.0000
     1.0000   1.0000   1.0000   1.0000   1.0000   1.0000   1.0000   1.0000
     1.0000   1.0000   1.0000   1.0000   1.0000   1.0000   1.0000   1.0000
     1.0000   1.0000   1.0000   1.0000   1.0000   1.0000   1.0000   1.0000
     1.0000   1.0000   1.0000   1.0001   1.0001   1.0002   1.0002   1.0003
     1.0004   1.0004   1.0005   1.0010   1.0011   1.0013   1.0016   1.0019
     1.0031   1.0066   1.0094   1.0126   1.0258   1.0292   1.0303   1.0327
     1.0332   1.0349   1.0353   1.0337   1.0295   1.0280   1.0184   1.0109
     0.9752   0.9651   0.9465   0.9064   0.8942   0.8176   0.7998   0.7312
     0.6813   0.6732   0.6407   0.5874   0.5698   0.5630   0.5054   0.4719
     0.4457   0.4085   0.3989   0.3784   0.3652   0.2791   0.2393   0.2365
     0.1897   0.1118   0.0883   0.0638   0.0143  -0.0072  -0.0225  -0.0230
    -0.0304  -0.0354  -0.0354  -0.0314  -0.0251  -0.0218  -0.0200  -0.0191
    -0.0169  -0.0144  -0.0131  -0.0028  -0.0022  -0.0020  -0.0011  -0.0009
    -0.0009  -0.0007  -0.0005  -0.0005  -0.0005

          k = 0.0000 0.2500 0.2500 ( 48142 PWs)   bands (ev):

    -3.7188  -3.6649  -3.2026  -3.0749  -3.0164  -2.8209  -2.7979  -2.6435
    -2.4837  -2.4624  -2.1712  -2.0032  -1.9959  -1.8357  -1.8263  -1.7292
    -1.5343  -1.4291  -1.3666  -1.2594  -1.1820  -0.8291  -0.8267  -0.7772
    -0.4974  -0.3180  -0.2849  -0.0934  -0.0759  -0.0244   0.0452   0.1275
     0.2016   0.4381   0.4826   0.6337   0.7632   0.7713   0.8778   1.0333
     1.0501   1.4694   1.6552   1.6830   1.7035   1.8745   1.9453   2.0082
     2.3156   2.3347   2.3759   2.4479   2.6098   2.6443   2.6892   2.8788
     2.9251   3.0976   3.1033   3.2547   3.3404   3.3726   3.4280   3.5687
     3.6590   3.9814   4.0116   4.0718   4.1039   4.3211   4.4027   4.4592
     4.5155   4.5996   4.6473   4.6832   4.7125   4.7306   4.7547   4.8564
     4.8684   4.9040   4.9093   4.9805   5.0497   5.1021   5.2229   5.2590
     5.3891   5.4786   5.5774   5.6254   5.6614   5.6973   5.7067   5.7757
     5.7923   5.8611   5.8729   5.8899   5.9874   6.0241   6.1055   6.1351
     6.1558   6.2034   6.2612   6.2966   6.3456   6.3802   6.4473   6.4784
     6.5741   6.6580   6.6837   6.7879   6.8010   6.8104   6.8147   6.9150
     6.9417   6.9539   6.9632   7.0248   7.0506   7.0874   7.1025   7.1795
     7.2442   7.2694   7.2719   7.3005   7.3548   7.4255   7.4380   7.5196
     7.5409   7.5619   7.5939   7.6340   7.6557   7.6838   7.7235   7.8561
     7.8781   7.9535   7.9638   7.9794   8.0228   8.0254   8.0546   8.0838
     8.1496   8.1892   8.2194   8.2807   8.2867   8.3319   8.3427   8.3955
     8.4217   8.4335   8.4731   8.5657   8.5756   8.6367   8.6623   8.6650
     8.6954   8.7000   8.9272   8.9969   9.0727   9.0767   9.1454   9.1684
     9.1873   9.2170   9.2469   9.2805   9.2895

     occupation numbers 
     1.0000   1.0000   1.0000   1.0000   1.0000   1.0000   1.0000   1.0000
     1.0000   1.0000   1.0000   1.0000   1.0000   1.0000   1.0000   1.0000
     1.0000   1.0000   1.0000   1.0000   1.0000   1.0000   1.0000   1.0000
     1.0000   1.0000   1.0000   1.0000   1.0000   1.0000   1.0000   1.0000
     1.0000   1.0000   1.0000   1.0000   1.0000   1.0000   1.0000   1.0000
     1.0000   1.0000   1.0000   1.0000   1.0000   1.0000   1.0000   1.0000
     1.0000   1.0000   1.0000   1.0000   1.0000   1.0000   1.0000   1.0000
     1.0000   1.0000   1.0000   1.0000   1.0000   1.0000   1.0000   1.0000
     1.0000   1.0000   1.0000   1.0000   1.0000   1.0000   1.0000   1.0000
     1.0000   1.0000   1.0000   1.0000   1.0000   1.0000   1.0000   1.0000
     1.0000   1.0000   1.0000   1.0000   1.0000   1.0000   1.0000   1.0000
     1.0000   1.0000   1.0000   1.0000   1.0000   1.0000   1.0000   1.0000
     1.0000   1.0000   1.0000   1.0000   1.0001   1.0002   1.0004   1.0005
     1.0005   1.0008   1.0012   1.0016   1.0022   1.0028   1.0043   1.0052
     1.0088   1.0133   1.0149   1.0225   1.0235   1.0242   1.0245   1.0317
     1.0332   1.0338   1.0342   1.0355   1.0351   1.0333   1.0320   1.0205
     1.0023   0.9927   0.9916   0.9787   0.9482   0.8965   0.8858   0.8061
     0.7825   0.7581   0.7192   0.6678   0.6389   0.6006   0.5453   0.3605
     0.3313   0.2370   0.2251   0.2074   0.1615   0.1589   0.1309   0.1053
     0.0562   0.0325   0.0172  -0.0068  -0.0087  -0.0205  -0.0227  -0.0307
    -0.0331  -0.0339  -0.0353  -0.0334  -0.0329  -0.0290  -0.0272  -0.0270
    -0.0246  -0.0243  -0.0093  -0.0064  -0.0041  -0.0040  -0.0025  -0.0022
    -0.0019  -0.0015  -0.0012  -0.0010  -0.0009

          k = 0.0000 0.2500-0.5000 ( 48222 PWs)   bands (ev):

    -3.7026  -3.6838  -3.1536  -3.1480  -2.9908  -2.8823  -2.7348  -2.6590
    -2.3791  -2.3410  -2.3345  -2.1056  -2.0441  -1.8696  -1.8464  -1.8062
    -1.3616  -1.3500  -1.2737  -1.0644  -1.0207  -1.0056  -0.8494  -0.8142
    -0.7883  -0.6278  -0.1823  -0.1111  -0.0646   0.0249   0.1907   0.2145
     0.2738   0.4057   0.4547   0.5808   0.7013   0.8353   1.0289   1.0773
     1.3347   1.3789   1.3905   1.4090   1.8749   1.9578   2.0104   2.2012
     2.2248   2.2423   2.3163   2.3908   2.4415   2.4855   2.6114   2.6278
     2.9533   3.0235   3.0365   3.2031   3.7338   3.7929   3.8726   3.9285
     4.0121   4.0475   4.0641   4.1011   4.1309   4.1387   4.2131   4.2309
     4.2949   4.4134   4.5261   4.5767   4.5774   4.6118   4.7609   4.8173
     4.8388   4.9448   4.9566   4.9749   4.9875   5.1029   5.1279   5.1637
     5.2850   5.3422   5.3597   5.5010   5.5614   5.6123   5.7222   5.7563
     5.8272   5.8368   5.9628   6.0187   6.1864   6.2050   6.2388   6.2805
     6.3044   6.3996   6.4197   6.4373   6.4694   6.5434   6.5764   6.5972
     6.6241   6.6272   6.7181   6.7250   6.7362   6.7447   6.7879   6.7940
     6.8184   6.8464   6.8474   6.9205   6.9725   6.9815   7.0230   7.1113
     7.2220   7.2596   7.3481   7.4330   7.4331   7.4404   7.4850   7.4988
     7.5628   7.5835   7.6458   7.6803   7.7179   7.7485   7.7674   7.7868
     7.8094   7.8725   7.9307   7.9333   7.9829   7.9855   7.9877   8.0493
     8.1046   8.1481   8.2281   8.2289   8.2671   8.4247   8.4529   8.4984
     8.5726   8.5805   8.6014   8.6181   8.6324   8.7648   8.7672   8.7982
     8.8112   8.8750   8.8787   8.8826   8.9274   8.9356   8.9492   8.9558
     9.0122   9.0621   9.0666   9.1063   9.1444

     occupation numbers 
     1.0000   1.0000   1.0000   1.0000   1.0000   1.0000   1.0000   1.0000
     1.0000   1.0000   1.0000   1.0000   1.0000   1.0000   1.0000   1.0000
     1.0000   1.0000   1.0000   1.0000   1.0000   1.0000   1.0000   1.0000
     1.0000   1.0000   1.0000   1.0000   1.0000   1.0000   1.0000   1.0000
     1.0000   1.0000   1.0000   1.0000   1.0000   1.0000   1.0000   1.0000
     1.0000   1.0000   1.0000   1.0000   1.0000   1.0000   1.0000   1.0000
     1.0000   1.0000   1.0000   1.0000   1.0000   1.0000   1.0000   1.0000
     1.0000   1.0000   1.0000   1.0000   1.0000   1.0000   1.0000   1.0000
     1.0000   1.0000   1.0000   1.0000   1.0000   1.0000   1.0000   1.0000
     1.0000   1.0000   1.0000   1.0000   1.0000   1.0000   1.0000   1.0000
     1.0000   1.0000   1.0000   1.0000   1.0000   1.0000   1.0000   1.0000
     1.0000   1.0000   1.0000   1.0000   1.0000   1.0000   1.0000   1.0000
     1.0000   1.0000   1.0001   1.0002   1.0007   1.0008   1.0010   1.0014
     1.0017   1.0032   1.0036   1.0040   1.0049   1.0075   1.0089   1.0099
     1.0114   1.0115   1.0173   1.0178   1.0186   1.0192   1.0225   1.0229
     1.0248   1.0270   1.0270   1.0321   1.0346   1.0349   1.0355   1.0312
     1.0095   0.9966   0.9525   0.8902   0.8901   0.8837   0.8421   0.8281
     0.7572   0.7321   0.6522   0.6054   0.5532   0.5101   0.4835   0.4562
     0.4246   0.3386   0.2644   0.2613   0.2036   0.2008   0.1983   0.1358
     0.0885   0.0573   0.0133   0.0129  -0.0022  -0.0333  -0.0348  -0.0354
    -0.0331  -0.0327  -0.0314  -0.0303  -0.0293  -0.0193  -0.0192  -0.0169
    -0.0160  -0.0120  -0.0118  -0.0116  -0.0093  -0.0089  -0.0083  -0.0080
    -0.0058  -0.0043  -0.0042  -0.0033  -0.0025

          k = 0.0000 0.2500-0.2500 ( 48142 PWs)   bands (ev):

    -3.7188  -3.6649  -3.2026  -3.0749  -3.0164  -2.8209  -2.7979  -2.6435
    -2.4837  -2.4624  -2.1712  -2.0032  -1.9959  -1.8357  -1.8263  -1.7292
    -1.5343  -1.4291  -1.3666  -1.2594  -1.1820  -0.8291  -0.8267  -0.7772
    -0.4974  -0.3180  -0.2849  -0.0934  -0.0759  -0.0244   0.0452   0.1275
     0.2016   0.4381   0.4826   0.6337   0.7632   0.7713   0.8778   1.0333
     1.0501   1.4694   1.6552   1.6830   1.7035   1.8745   1.9453   2.0082
     2.3156   2.3347   2.3759   2.4479   2.6098   2.6443   2.6892   2.8788
     2.9251   3.0976   3.1033   3.2547   3.3404   3.3726   3.4280   3.5687
     3.6590   3.9814   4.0116   4.0718   4.1039   4.3211   4.4027   4.4592
     4.5155   4.5996   4.6473   4.6832   4.7125   4.7306   4.7547   4.8564
     4.8684   4.9040   4.9093   4.9805   5.0497   5.1021   5.2229   5.2590
     5.3891   5.4786   5.5774   5.6254   5.6614   5.6973   5.7067   5.7757
     5.7923   5.8611   5.8729   5.8899   5.9874   6.0241   6.1055   6.1351
     6.1558   6.2034   6.2612   6.2966   6.3456   6.3802   6.4473   6.4784
     6.5741   6.6580   6.6837   6.7879   6.8010   6.8104   6.8147   6.9150
     6.9417   6.9539   6.9632   7.0248   7.0506   7.0874   7.1025   7.1795
     7.2442   7.2694   7.2719   7.3005   7.3548   7.4255   7.4380   7.5196
     7.5409   7.5619   7.5939   7.6340   7.6557   7.6838   7.7235   7.8561
     7.8781   7.9535   7.9638   7.9794   8.0228   8.0254   8.0546   8.0838
     8.1496   8.1892   8.2194   8.2806   8.2867   8.3319   8.3427   8.3955
     8.4217   8.4335   8.4731   8.5657   8.5756   8.6367   8.6623   8.6650
     8.6954   8.7000   8.9272   8.9969   9.0727   9.0767   9.1454   9.1684
     9.1873   9.2170   9.2469   9.2805   9.2895

     occupation numbers 
     1.0000   1.0000   1.0000   1.0000   1.0000   1.0000   1.0000   1.0000
     1.0000   1.0000   1.0000   1.0000   1.0000   1.0000   1.0000   1.0000
     1.0000   1.0000   1.0000   1.0000   1.0000   1.0000   1.0000   1.0000
     1.0000   1.0000   1.0000   1.0000   1.0000   1.0000   1.0000   1.0000
     1.0000   1.0000   1.0000   1.0000   1.0000   1.0000   1.0000   1.0000
[...]
     atom   20 type  1   force =     0.00000000    0.00000000    0.00000000
     atom   21 type  1   force =     0.00000000    0.00000000    0.00000000
     atom   22 type  1   force =     0.00000000    0.00000000    0.00000000
     atom   23 type  1   force =     0.00000000    0.00000000    0.00000000
     atom   24 type  1   force =     0.00000000    0.00000000    0.00000000
     atom   25 type  1   force =     0.00000000    0.00000000    0.00000000
     atom   26 type  1   force =     0.00000000    0.00000000    0.00000000
     atom   27 type  1   force =     0.00000000    0.00000000    0.00000000
     atom   28 type  1   force =     0.00000000    0.00000000    0.00000000
     atom   29 type  1   force =     0.00000000    0.00000000    0.00000000
     atom   30 type  1   force =     0.00000000    0.00000000    0.00000000
     atom   31 type  1   force =     0.00000000    0.00000000    0.00000000
     atom   32 type  1   force =     0.00000000    0.00000000    0.00000000
     atom   33 type  1   force =     0.00000000    0.00000000    0.00000000
     atom   34 type  1   force =     0.00000000    0.00000000    0.00000000
     atom   35 type  1   force =     0.00000000    0.00000000    0.00000000
     atom   36 type  1   force =     0.00000000    0.00000000    0.00000000
     atom   37 type  1   force =     0.00000000    0.00000000    0.00000000
     atom   38 type  1   force =     0.00000000    0.00000000    0.00000000
     atom   39 type  1   force =     0.00000000    0.00000000    0.00000000
     atom   40 type  1   force =     0.00000000    0.00000000    0.00000000
     atom   41 type  1   force =     0.00000000    0.00000000    0.00000000
     atom   42 type  1   force =     0.00000000    0.00000000    0.00000000
     atom   43 type  1   force =     0.00000000    0.00000000    0.00000000
     atom   44 type  1   force =     0.00000000    0.00000000    0.00000000
     atom   45 type  1   force =     0.00000000    0.00000000    0.00000000
     atom   46 type  1   force =     0.00000000    0.00000000    0.00000000
     atom   47 type  1   force =     0.00000000    0.00000000    0.00000000
     atom   48 type  1   force =     0.00000000    0.00000000    0.00000000
     atom   49 type  1   force =     0.00000000    0.00000000    0.00000000
     atom   50 type  1   force =     0.00000000    0.00000000    0.00000000
     atom   51 type  1   force =     0.00000000    0.00000000    0.00000000
     atom   52 type  1   force =     0.00000000    0.00000000    0.00000000
     atom   53 type  1   force =     0.00000000    0.00000000    0.00000000
     atom   54 type  1   force =     0.00000000    0.00000000    0.00000000
     atom   55 type  1   force =     0.00000000    0.00000000    0.00000000
     atom   56 type  1   force =     0.00000000    0.00000000    0.00000000
     atom   57 type  1   force =     0.00000000    0.00000000    0.00000000
     atom   58 type  1   force =     0.00000000    0.00000000    0.00000000
     atom   59 type  1   force =     0.00000000    0.00000000    0.00000000
     atom   60 type  1   force =     0.00000000    0.00000000    0.00000000
     atom   61 type  1   force =     0.00000000    0.00000000    0.00000000
     atom   62 type  1   force =     0.00000000    0.00000000    0.00000000
     atom   63 type  1   force =     0.00000000    0.00000000    0.00000000
     atom   64 type  1   force =     0.00000000    0.00000000    0.00000000
     atom   65 type  1   force =     0.00000000    0.00000000    0.00000000
     atom   66 type  1   force =     0.00000000    0.00000000    0.00000000
     atom   67 type  1   force =     0.00000000    0.00000000    0.00000000
     atom   68 type  1   force =     0.00000000    0.00000000    0.00000000
     atom   69 type  1   force =     0.00000000    0.00000000    0.00000000
     atom   70 type  1   force =     0.00000000    0.00000000    0.00000000
     atom   71 type  1   force =     0.00000000    0.00000000    0.00000000
     atom   72 type  1   force =     0.00000000    0.00000000    0.00000000
     atom   73 type  1   force =     0.00000000    0.00000000    0.00000000
     atom   74 type  1   force =     0.00000000    0.00000000    0.00000000
     atom   75 type  1   force =     0.00000000    0.00000000    0.00000000
     atom   76 type  1   force =     0.00000000    0.00000000    0.00000000
     atom   77 type  1   force =     0.00000000    0.00000000    0.00000000
     atom   78 type  1   force =     0.00000000    0.00000000    0.00000000
     atom   79 type  1   force =     0.00000000    0.00000000    0.00000000
     atom   80 type  1   force =     0.00000000    0.00000000    0.00000000
     atom   81 type  1   force =     0.00000000    0.00000000    0.00000000
     atom   82 type  1   force =     0.00000000    0.00000000    0.00000000
     atom   83 type  1   force =     0.00000000    0.00000000    0.00000000
     atom   84 type  1   force =     0.00000000    0.00000000    0.00000000
     atom   85 type  1   force =     0.00000000    0.00000000    0.00000000
     atom   86 type  1   force =     0.00000000    0.00000000    0.00000000
     atom   87 type  1   force =     0.00000000    0.00000000    0.00000000
     atom   88 type  1   force =     0.00000000    0.00000000    0.00000000
     atom   89 type  1   force =     0.00000000    0.00000000    0.00000000
     atom   90 type  2   force =     0.00000000    0.00000000    0.00000000
     atom   91 type  2   force =     0.00000000    0.00000000    0.00000000
     atom   92 type  3   force =     0.00000000    0.00000000    0.00000000
     atom   93 type  3   force =     0.00000000    0.00000000    0.00000000
     atom   94 type  3   force =     0.00000000    0.00000000    0.00000000
     atom   95 type  2   force =     0.00000000    0.00000000    0.00000000
     atom   96 type  2   force =     0.00000000    0.00000000    0.00000000
     atom   97 type  2   force =     0.00000000    0.00000000    0.00000000
     atom   98 type  3   force =     0.00000000    0.00000000    0.00000000
     atom   99 type  3   force =     0.00000000    0.00000000    0.00000000
     atom  100 type  3   force =     0.00000000    0.00000000    0.00000000
     The SCF correction term to forces
     atom    1 type  1   force =    -0.00000005    0.00000000   -0.00000002
     atom    2 type  1   force =    -0.00000000    0.00000000   -0.00000002
     atom    3 type  1   force =    -0.00000004   -0.00000000   -0.00000004
     atom    4 type  1   force =    -0.00000000   -0.00000000   -0.00000004
     atom    5 type  1   force =    -0.00000004   -0.00000000   -0.00000004
     atom    6 type  1   force =    -0.00000000    0.00000000   -0.00000004
     atom    7 type  1   force =    -0.00000004    0.00000000   -0.00000003
     atom    8 type  1   force =    -0.00000000   -0.00000000   -0.00000003
     atom    9 type  1   force =    -0.00000005   -0.00000000    0.00000000
     atom   10 type  1   force =     0.00000000   -0.00000000    0.00000001
     atom   11 type  1   force =    -0.00000005    0.00000000    0.00000003
     atom   12 type  1   force =     0.00000000   -0.00000000    0.00000003
     atom   13 type  1   force =    -0.00000004   -0.00000000    0.00000003
     atom   14 type  1   force =     0.00000000    0.00000000    0.00000003
     atom   15 type  1   force =    -0.00000004    0.00000000    0.00000004
     atom   16 type  1   force =     0.00000000   -0.00000000    0.00000004
     atom   17 type  1   force =    -0.00000005   -0.00000000    0.00000002
     atom   18 type  1   force =    -0.00000000    0.00000000    0.00000002
     atom   19 type  1   force =    -0.00000005   -0.00000000   -0.00000000
     atom   20 type  1   force =    -0.00000000    0.00000000   -0.00000000
     atom   21 type  1   force =    -0.00000006    0.00000000   -0.00000001
     atom   22 type  1   force =    -0.00000007   -0.00000000   -0.00000002
     atom   23 type  1   force =    -0.00000004   -0.00000000    0.00000002
     atom   24 type  1   force =    -0.00000005    0.00000000   -0.00000002
     atom   25 type  1   force =     0.00000002    0.00000000    0.00000003
     atom   26 type  1   force =    -0.00000002   -0.00000000   -0.00000003
     atom   27 type  1   force =     0.00000009   -0.00000000    0.00000001
     atom   28 type  1   force =     0.00000000    0.00000000   -0.00000003
     atom   29 type  1   force =     0.00000012    0.00000000    0.00000000
     atom   30 type  1   force =     0.00000001   -0.00000000    0.00000000
     atom   31 type  1   force =     0.00000009    0.00000000   -0.00000001
     atom   32 type  1   force =     0.00000000    0.00000000    0.00000003
     atom   33 type  1   force =     0.00000002   -0.00000000   -0.00000004
     atom   34 type  1   force =    -0.00000002    0.00000000    0.00000002
     atom   35 type  1   force =    -0.00000004    0.00000000   -0.00000002
     atom   36 type  1   force =    -0.00000005   -0.00000000    0.00000002
     atom   37 type  1   force =    -0.00000006   -0.00000000    0.00000002
     atom   38 type  1   force =    -0.00000007    0.00000000    0.00000002
     atom   39 type  1   force =    -0.00000006   -0.00000000    0.00000000
     atom   40 type  1   force =    -0.00000007    0.00000000   -0.00000000
     atom   41 type  1   force =     0.00000000    0.00000000   -0.00000002
     atom   42 type  1   force =    -0.00000004   -0.00000000   -0.00000001
     atom   43 type  1   force =     0.00000000    0.00000000    0.00000005
     atom   44 type  1   force =    -0.00000004   -0.00000000    0.00000004
     atom   45 type  1   force =     0.00000000   -0.00000000    0.00000010
     atom   46 type  1   force =     0.00000000    0.00000000   -0.00000011
     atom   47 type  1   force =     0.00000001    0.00000000   -0.00000005
     atom   48 type  1   force =    -0.00000003   -0.00000000   -0.00000005
     atom   49 type  1   force =     0.00000001   -0.00000000    0.00000002
     atom   50 type  1   force =    -0.00000004    0.00000000    0.00000002
     atom   51 type  1   force =     0.00000001    0.00000000   -0.00000000
     atom   52 type  1   force =    -0.00000004    0.00000000    0.00000000
     atom   53 type  1   force =     0.00000006    0.00000000   -0.00000002
     atom   54 type  1   force =     0.00000004    0.00000000   -0.00000002
     atom   55 type  1   force =     0.00000004    0.00000000    0.00000002
     atom   56 type  1   force =     0.00000004   -0.00000000    0.00000004
     atom   57 type  1   force =    -0.00000002   -0.00000000    0.00000003
     atom   58 type  1   force =    -0.00000000    0.00000000    0.00000010
     atom   59 type  1   force =    -0.00000009   -0.00000000    0.00000001
     atom   60 type  1   force =    -0.00000012    0.00000000    0.00000000
     atom   61 type  1   force =    -0.00000009   -0.00000000   -0.00000000
     atom   62 type  1   force =    -0.00000002   -0.00000000   -0.00000003
     atom   63 type  1   force =     0.00000000    0.00000000   -0.00000010
     atom   64 type  1   force =     0.00000004    0.00000000   -0.00000002
     atom   65 type  1   force =     0.00000004   -0.00000000   -0.00000004
     atom   66 type  1   force =     0.00000006   -0.00000000    0.00000002
     atom   67 type  1   force =     0.00000004    0.00000000    0.00000002
     atom   68 type  1   force =     0.00000006    0.00000000   -0.00000000
     atom   69 type  1   force =     0.00000004   -0.00000000   -0.00000000
     atom   70 type  1   force =     0.00000004    0.00000000   -0.00000002
     atom   71 type  1   force =     0.00000007    0.00000000   -0.00000002
     atom   72 type  1   force =     0.00000004   -0.00000000   -0.00000004
     atom   73 type  1   force =     0.00000005   -0.00000000   -0.00000002
     atom   74 type  1   force =     0.00000004    0.00000000   -0.00000004
     atom   75 type  1   force =     0.00000002    0.00000000   -0.00000003
     atom   76 type  1   force =     0.00000004   -0.00000000   -0.00000003
     atom   77 type  1   force =    -0.00000000    0.00000000   -0.00000003
     atom   78 type  1   force =     0.00000005    0.00000000    0.00000000
     atom   79 type  1   force =    -0.00000001   -0.00000000    0.00000000
     atom   80 type  1   force =     0.00000005   -0.00000000    0.00000003
     atom   81 type  1   force =    -0.00000001    0.00000000    0.00000003
     atom   82 type  1   force =     0.00000004   -0.00000000    0.00000003
     atom   83 type  1   force =     0.00000001    0.00000000    0.00000002
     atom   84 type  1   force =     0.00000004    0.00000000    0.00000004
     atom   85 type  1   force =     0.00000004   -0.00000000    0.00000002
     atom   86 type  1   force =     0.00000004    0.00000000    0.00000002
     atom   87 type  1   force =     0.00000006   -0.00000000    0.00000002
     atom   88 type  1   force =     0.00000004   -0.00000000    0.00000000
     atom   89 type  1   force =     0.00000006    0.00000000   -0.00000000
     atom   90 type  2   force =     0.00000003   -0.00000000    0.00000004
     atom   91 type  2   force =    -0.00000003    0.00000000    0.00000004
     atom   92 type  3   force =     0.00000000   -0.00000000    0.00000018
     atom   93 type  3   force =    -0.00000000    0.00000000    0.00000015
     atom   94 type  3   force =     0.00000015    0.00000000    0.00000000
     atom   95 type  2   force =    -0.00000000   -0.00000000    0.00000000
     atom   96 type  2   force =     0.00000003   -0.00000000   -0.00000004
     atom   97 type  2   force =    -0.00000003    0.00000000   -0.00000004
     atom   98 type  3   force =    -0.00000015   -0.00000000    0.00000000
     atom   99 type  3   force =     0.00000000   -0.00000000   -0.00000015
     atom  100 type  3   force =     0.00000000   -0.00000000   -0.00000018

     Total force =     0.004349     Total SCF correction =     0.000001


     Computing stress (Cartesian axis) and pressure

          total   stress  (Ry/bohr**3)                   (kbar)     P=   -0.28
   0.00001601  -0.00000000   0.00000004          2.35     -0.00      0.01
  -0.00000000  -0.00002209   0.00000000         -0.00     -3.25      0.00
   0.00000004   0.00000000   0.00000043          0.01      0.00      0.06

     kinetic stress (kbar)   1478.86      0.00     -0.00
                                0.00   1475.06      0.00
                               -0.00      0.00   1477.74

     local   stress (kbar)    542.97      0.00     -0.12
                                0.00    432.42      0.00
                               -0.12      0.00    621.26

     nonloc. stress (kbar)   1078.16     -0.00      0.00
                               -0.00   1072.90      0.00
                                0.00      0.00   1076.33

     hartree stress (kbar)     35.13     -0.00      0.04
                               -0.00     86.84      0.00
                                0.04      0.00     -1.32

     exc-cor stress (kbar)    681.83     -0.00      0.00
                               -0.00    681.70     -0.00
                                0.00     -0.00    681.78

     corecor stress (kbar)  -1464.12      0.00     -0.00
                                0.00  -1463.32     -0.00
                               -0.00     -0.00  -1463.84

     ewald   stress (kbar)  -2350.48     -0.00      0.09
                               -0.00  -2288.84     -0.00
                                0.09     -0.00  -2391.89

     hubbard stress (kbar)      0.00      0.00      0.00
                                0.00      0.00      0.00
                                0.00      0.00      0.00

     london  stress (kbar)      0.00      0.00      0.00
                                0.00      0.00      0.00
                                0.00      0.00      0.00

     DFT-D3  stress (kbar)      0.00      0.00      0.00
                                0.00      0.00      0.00
                                0.00      0.00      0.00

     XDM     stress (kbar)      0.00      0.00      0.00
                                0.00      0.00      0.00
                                0.00      0.00      0.00

     dft-nl  stress (kbar)      0.00      0.00      0.00
                                0.00      0.00      0.00
                                0.00      0.00      0.00

     TS-vdW  stress (kbar)      0.00      0.00      0.00
                                0.00      0.00      0.00
                                0.00      0.00      0.00



     Writing output data file aiida.save/
 
     init_run     :    211.12s CPU    212.52s WALL (       1 calls)
     electrons    :   8103.00s CPU   8156.10s WALL (       1 calls)
     forces       :    100.72s CPU    101.39s WALL (       1 calls)
     stress       :   1367.90s CPU   1373.91s WALL (       1 calls)

     Called by init_run:
     wfcinit      :    205.72s CPU    206.79s WALL (       1 calls)
     wfcinit:atom :      1.07s CPU      1.12s WALL (      41 calls)
     wfcinit:wfcr :    198.07s CPU    198.64s WALL (      41 calls)
     potinit      :      1.95s CPU      2.02s WALL (       1 calls)
     hinit0       :      2.37s CPU      2.41s WALL (       1 calls)

     Called by electrons:
     c_bands      :   7103.12s CPU   7139.94s WALL (      23 calls)
     sum_band     :    960.41s CPU    970.44s WALL (      23 calls)
     v_of_rho     :     13.03s CPU     13.71s WALL (      24 calls)
     v_h          :      1.44s CPU      1.44s WALL (      24 calls)
     v_xc         :     12.52s CPU     13.22s WALL (      26 calls)
     newd         :     10.31s CPU     15.55s WALL (      24 calls)
     PAW_pot      :     10.06s CPU     10.12s WALL (      24 calls)
     mix_rho      :      5.60s CPU      6.00s WALL (      23 calls)

     Called by c_bands:
     init_us_2    :    196.33s CPU    196.51s WALL (    2009 calls)
     cegterg      :   6160.64s CPU   6197.02s WALL (     943 calls)

     Called by sum_band:
     sum_band:bec :      4.67s CPU      4.68s WALL (     943 calls)
     addusdens    :     10.39s CPU     16.94s WALL (      23 calls)

     Called by *egterg:
     h_psi        :   4029.62s CPU   4044.70s WALL (    4072 calls)
     s_psi        :   1140.27s CPU   1140.68s WALL (    4072 calls)
     g_psi        :     11.57s CPU     11.60s WALL (    3088 calls)
     cdiaghg      :    366.23s CPU    374.98s WALL (    4031 calls)
     cegterg:over :    316.60s CPU    318.59s WALL (    3088 calls)
     cegterg:upda :    237.13s CPU    245.24s WALL (    3088 calls)
     cegterg:last :    122.25s CPU    122.47s WALL (     988 calls)
     cdiaghg:chol :     18.90s CPU     19.52s WALL (    4031 calls)
     cdiaghg:inve :      9.40s CPU      9.45s WALL (    4031 calls)
     cdiaghg:para :     83.91s CPU     85.43s WALL (    8062 calls)

     Called by h_psi:
     h_psi:pot    :   4008.85s CPU   4023.47s WALL (    4072 calls)
     h_psi:calbec :   1106.11s CPU   1107.14s WALL (    4072 calls)
     vloc_psi     :   1762.68s CPU   1775.55s WALL (    4072 calls)
     add_vuspsi   :   1140.00s CPU   1140.75s WALL (    4072 calls)

     General routines
     calbec       :   1677.47s CPU   1680.69s WALL (    5220 calls)
     fft          :     14.26s CPU     14.94s WALL (     336 calls)
     ffts         :      1.77s CPU      1.79s WALL (     379 calls)
     fftw         :   1782.17s CPU   1795.55s WALL ( 1033813 calls)
     interpolate  :      1.17s CPU      1.23s WALL (      24 calls)
 
     Parallel routines
     fft_scatt_xy :    321.31s CPU    323.38s WALL ( 1034528 calls)
     fft_scatt_yz :    492.91s CPU    497.19s WALL ( 1034528 calls)

     PAW routines
     PAW_pot      :     10.06s CPU     10.12s WALL (      24 calls)
 
     PWSCF        :      2h44m CPU      2h45m WALL

 
   This run was terminated on:  16:58:30  22Feb2020            

=------------------------------------------------------------------------------=
   JOB DONE.
=------------------------------------------------------------------------------=
