begin
comment 100 atoms, species Al89Mg5Si6
lattice     38.3330918399     0.0000000000     0.0000000000
lattice      0.0000000000     7.6666183680     0.0000000000
lattice      0.0000000000     0.0000000000    38.3330918399
atom      3.7633896245     3.8253244010    38.2446305638   Al  0.0 0.0    1.26909990e-04  1.36499990e-06  7.90249941e-05
atom     38.2788696815     7.6585569188    38.2446842302   Al  0.0 0.0   -7.57499943e-06  2.66999980e-06  2.50104981e-04
atom      3.7537833517     7.6587792507     3.7208207260   Al  0.0 0.0   -7.24749946e-05  2.23999983e-06 -1.41809989e-04
atom     38.2795520105     3.8253742340     3.7254206970   Al  0.0 0.0    3.71999972e-06  2.93999978e-06  1.16049991e-05
atom      3.7451967391     3.8256540655     7.5387391736   Al  0.0 0.0   -1.00824992e-04  3.17999976e-06 -3.21204976e-04
atom     38.2815989976     7.6588290837     7.5402341642   Al  0.0 0.0   -1.36199990e-05  4.21999968e-06 -1.45184989e-04
atom      3.7134569390     7.6593082474    11.3756555015   Al  0.0 0.0   -1.21349991e-04  2.32999982e-06 -1.08999992e-04
atom     38.2833814864     3.8258227312    11.3900917439   Al  0.0 0.0   -8.42999937e-06  3.82999971e-06  8.75199934e-05
atom      3.6813913077     3.8262788949    15.2626578473   Al  0.0 0.0   -2.22629983e-04  2.44999982e-06 -1.06999992e-06
atom     38.2840254823     7.6593925802    15.2592270355   Al  0.0 0.0   -1.86099986e-05  1.24499991e-06  1.69349987e-05
atom      3.7132116073     7.6593044141    19.1500856903   Al  0.0 0.0   -1.28594990e-04  2.51499981e-06  7.52599943e-05
atom     38.2824231591     3.8258380644    19.1293819874   Al  0.0 0.0   -1.10399992e-05  3.46499974e-06 -8.00649940e-05
atom      3.7451009064     3.8256502322    22.9865611877   Al  0.0 0.0   -1.11644992e-04  3.46999974e-06  2.18694984e-04
atom     38.2802535061     7.6588444170    22.9810987221   Al  0.0 0.0   -7.79499941e-06  4.14999969e-06  5.59399958e-05
atom      3.7533271879     7.6587792507    26.8010948233   Al  0.0 0.0   -7.19449946e-05  1.89999986e-06  1.36174990e-04
atom     38.2792760123     3.8253742340    26.7949806951   Al  0.0 0.0   -8.10499939e-06  3.34999975e-06  1.24199991e-05
atom      3.7637652888     3.8253244010    30.6070840127   Al  0.0 0.0    1.21789991e-04  1.28499990e-06 -6.93499948e-06
atom     38.2787163491     7.6585569188    30.6083950045   Al  0.0 0.0   -2.31049983e-05  2.73499979e-06 -2.20874983e-04
atom      3.7633129583     7.6585300856    34.4259224545   Al  0.0 0.0    3.33759975e-04  3.18999976e-06  6.28999953e-06
atom     38.2785860166     3.8252477348    34.4264399513   Al  0.0 0.0   -4.54349966e-05 -2.29499983e-06  3.14999976e-06
atom     11.3933193903     3.8258687309    38.2301253219   Al  0.0 0.0    2.33499982e-06  1.13499991e-06 -2.12399984e-05
atom      7.5672206608     7.6588444170    38.2315091465   Al  0.0 0.0   -3.13899976e-05  2.39999982e-06 -5.98699955e-05
atom     11.3682342150     7.6594539131     3.6829667978   Al  0.0 0.0   -9.25499930e-05  2.76999979e-06 -1.33549990e-04
atom      7.5741857836     3.8257613982     3.7225188820   Al  0.0 0.0   -1.15649991e-04  1.45999989e-06 -2.29209983e-04
atom     11.4418912509     3.8268960577     7.5973351378   Al  0.0 0.0   -8.95999933e-06 -4.84999964e-06  1.25774991e-04
atom      7.5418403207     7.6593772469     7.5191739635   Al  0.0 0.0   -2.60649980e-05  2.76499979e-06 -1.79484987e-04
atom     11.2801447699     7.6604582401    11.2797192726   Al  0.0 0.0   -2.13449984e-05 -1.64999988e-06  2.09344984e-04
atom      7.5206037879     3.8265510599    11.3761844982   Al  0.0 0.0    2.26939983e-04 -9.94999925e-07  7.58699943e-05
atom     10.9973270516     3.8276933860    15.2637771735   Al  0.0 0.0   -6.16599954e-05 -4.00499970e-06  1.69449987e-05
atom      7.3480358750     7.6602052417    15.2638116733   Al  0.0 0.0   -1.53169988e-04 -1.49499989e-06  8.49999936e-06
atom     11.2818160927     7.6604505735    19.2490540668   Al  0.0 0.0   -1.29599990e-05 -1.27499990e-06 -1.97634985e-04
atom      7.5214547825     3.8265357267    19.1520636778   Al  0.0 0.0    2.26049983e-04 -5.99999955e-07 -1.16754991e-04
atom     11.4458203928     3.8269075577    22.9299393777   Al  0.0 0.0    2.60899980e-05 -5.50999959e-06 -1.49779989e-04
atom      7.5433008115     7.6593695803    23.0080507190   Al  0.0 0.0   -3.39649974e-05  2.54999981e-06  8.08649939e-05
atom     11.3717148597     7.6594539131    26.8415362352   Al  0.0 0.0   -8.70099935e-05  2.52499981e-06  1.15834991e-04
atom      7.5762711038     3.8257345650    26.7995193332   Al  0.0 0.0   -1.19524991e-04  2.33999982e-06  2.55914981e-04
atom     11.3965623698     3.8258572309    30.6229309129   Al  0.0 0.0   -2.20049983e-05  1.40999989e-06  7.23499946e-05
atom      7.5682824875     7.6588367503    30.6204584285   Al  0.0 0.0   -3.59449973e-05  2.30499983e-06  1.23414991e-04
atom     11.3937832207     7.6590475823    34.4258687882   Al  0.0 0.0    6.57349951e-05  3.67999972e-06  2.43799982e-05
atom      7.5758264400     3.8253857339    34.4256962893   Al  0.0 0.0    9.01449932e-05  5.29999960e-06  3.66999972e-06
atom     19.0996930078     3.8266200595    38.1824964553   Al  0.0 0.0   -1.28499990e-06  1.39999989e-07 -1.23459991e-04
atom     15.2269774054     7.6595880789    38.2165017411   Al  0.0 0.0   -1.00229992e-04  8.14999939e-07 -1.10764992e-04
atom     19.1039288144     7.6605924059     3.5789691196   Al  0.0 0.0    5.58949958e-05 -8.74999934e-07 -5.72439957e-04
atom     15.2544928987     3.8266698925     3.7137751037   Al  0.0 0.0   -1.13744991e-04  8.24999938e-07  1.10479992e-04
atom     15.0893577724     7.6604160737     7.4333385043   Al  0.0 0.0   -4.12479969e-04 -2.65499980e-06 -3.74649972e-05
atom     15.0948777376     7.6604237403    23.0971214912   Al  0.0 0.0   -3.66559972e-04 -2.56999981e-06 -1.53419988e-04
atom     19.1132015893     7.6606384057    26.9445257530   Al  0.0 0.0   -3.78999972e-06 -1.53499988e-06  5.72519957e-04
atom     15.2628686793     3.8266775591    26.8121385870   Al  0.0 0.0   -1.57374988e-04  8.59999935e-07 -1.60254988e-04
atom     19.1061099673     3.8266430593    30.6732239294   Al  0.0 0.0   -4.00099970e-05 -3.89999971e-07  1.34304990e-04
atom     15.2315582098     7.6595765790    30.6384481485   Al  0.0 0.0   -9.68599927e-05  1.43499989e-06  1.33054990e-04
atom     19.0984318491     7.6597605778    34.4278199426   Al  0.0 0.0    5.87499956e-05  5.74999957e-07  2.90999978e-06
atom     15.2391711619     3.8261715623    34.4268079490   Al  0.0 0.0    1.63419988e-04  7.04999947e-07  1.52999989e-05
atom     26.8093441047     3.8258418977    38.2258895152   Al  0.0 0.0    2.49479981e-04  2.15999984e-06 -4.55399966e-05
atom     22.9742217654     7.6595880789    38.2125265994   Al  0.0 0.0    1.11149992e-04  4.04999970e-07 -6.98499948e-05
atom     26.8477346961     7.6594385799     3.6692435509   Al  0.0 0.0    1.62784988e-04  3.08499977e-06 -5.85499956e-05
atom     22.9546948884     3.8266737258     3.7050006590   Al  0.0 0.0    1.50664989e-04  4.94999963e-07  2.43344982e-04
atom     26.7846537602     3.8269113910     7.5847043840   Al  0.0 0.0    7.01549947e-05 -6.36499952e-06  1.17769991e-04
atom     23.1447925242     7.6604007405     7.4209684155   Al  0.0 0.0   -4.08999969e-05 -1.97499985e-06  2.22519983e-04
atom     26.9564320114     7.6604429069    11.2655206954   Al  0.0 0.0   -3.02999977e-06 -3.09999977e-07  3.97449970e-04
atom     27.2466901828     3.8277163859    15.2588628712   Al  0.0 0.0   -1.07949992e-05 -4.37499967e-06 -3.06449977e-05
atom     26.9578925022     7.6604659067    19.2490080671   Al  0.0 0.0    8.61549935e-05 -7.84999941e-07 -2.64639980e-04
atom     26.7924583777     3.8269190576    22.9363065043   Al  0.0 0.0   -7.30499945e-06 -5.32499960e-06 -2.60534980e-04
atom     23.1496186604     7.6604429069    23.0980568186   Al  0.0 0.0    2.44899982e-05 -2.91999978e-06 -2.21749983e-04
atom     26.8506901775     7.6594654130    26.8499158491   Al  0.0 0.0    2.52134981e-04  2.73499979e-06  1.49764989e-04
atom     22.9652671552     3.8266928923    26.8159105633   Al  0.0 0.0    3.17799976e-05  7.24999946e-07 -2.00219985e-04
atom     26.8128247494     3.8258495643    30.6311456945   Al  0.0 0.0    2.39269982e-04  2.13499984e-06  1.01199992e-05
atom     22.9785687380     7.6595842456    30.6431822853   Al  0.0 0.0    1.31284990e-04  9.84999926e-07  9.83299926e-05
atom     26.8102909320     7.6590437490    34.4289239356   Al  0.0 0.0    9.69349927e-05  3.38999975e-06 -2.89099978e-05
atom     22.9593063594     3.8261638957    34.4287131036   Al  0.0 0.0   -3.15849976e-05  1.29999990e-06 -1.76549987e-05
atom     34.4581912513     3.8253282343    38.2421772460   Al  0.0 0.0   -1.75449987e-04  1.49499989e-06  5.54449958e-05
atom     30.6477132568     7.6588444170    38.2262153465   Al  0.0 0.0    5.51449959e-05  2.27499983e-06 -3.14699976e-05
atom     34.4718339986     7.6588137505     3.7137444372   Al  0.0 0.0    3.37249975e-05  1.10499992e-06 -1.17264991e-04
atom     30.6438991141     3.8257613982     3.7126251109   Al  0.0 0.0    1.96199985e-04  1.45999989e-06 -2.59604980e-04
atom     34.4822375998     3.8256693988     7.5301563943   Al  0.0 0.0    1.36614990e-04  2.91999978e-06 -2.99439977e-04
atom     30.6863300135     7.6593695803     7.5030472318   Al  0.0 0.0    6.29499953e-06  3.66999972e-06 -3.09349977e-05
atom     34.5200876946     7.6593197473    11.3650564016   Al  0.0 0.0    8.96449933e-05  3.13499976e-06 -8.56499936e-06
atom     30.7127875135     3.8265855597    11.3635230780   Al  0.0 0.0   -2.19299984e-04 -2.23999983e-06  1.30674990e-04
atom     34.5549861415     3.8263440612    15.2546998974   Al  0.0 0.0    1.75184987e-04  5.29999960e-07  9.00349932e-05
atom     30.8917417194     7.6602474081    15.2543242331   Al  0.0 0.0    9.01549932e-05 -9.79999926e-07  8.97949933e-05
atom     34.5200416949     7.6593465805    19.1461105487   Al  0.0 0.0    9.13549931e-05  2.73499979e-06  1.56429988e-04
atom     30.7158119944     3.8265893930    19.1510746841   Al  0.0 0.0   -2.47469981e-04 -1.71499987e-06 -1.32489990e-04
atom     34.4839932554     3.8257038986    22.9884663423   Al  0.0 0.0    7.60649943e-05  2.47499981e-06  2.17549984e-04
atom     30.6882696679     7.6593925802    23.0138351825   Al  0.0 0.0    5.34749960e-05  3.49499974e-06  1.85299986e-05
atom     34.4722479960     7.6588405836    26.8059707926   Al  0.0 0.0    1.58999988e-05  5.54999958e-07  1.16114991e-04
atom     30.6477285900     3.8257843981    26.8089147740   Al  0.0 0.0    1.45949989e-04  1.47999989e-06  2.24269983e-04
atom     34.4590154127     3.8253397342    30.6116801504   Al  0.0 0.0   -1.89214986e-04  1.61999988e-06 -1.03349992e-05
atom     30.6487865833     7.6588520836    30.6287422096   Al  0.0 0.0    5.55149958e-05  2.19499984e-06  5.05299962e-05
atom     34.4574360893     7.6585377522    34.4278046094   Al  0.0 0.0   -3.68069972e-04  3.45499974e-06 -3.90749971e-05
atom     30.6353125016     3.8253972338    34.4284946050   Al  0.0 0.0    2.08749984e-05  5.07499962e-06 -2.49049981e-05
atom     15.7431554869     3.8284102149    11.7797016228   Mg  0.0 0.0   -1.03429992e-04 -4.73999964e-06  9.11599931e-05
atom     22.4999264201     3.8283987149    11.7720503376   Mg  0.0 0.0    2.44799982e-05 -4.50499966e-06  5.31549960e-05
atom     19.1098052774     3.8281150500     7.0586095317   Si  0.0 0.0    3.54049973e-05 -7.17999946e-06 -4.35309967e-04
atom     19.1183228904     7.6621295629    10.1021075247   Si  0.0 0.0    1.72879987e-04 -1.17149991e-05  3.03784977e-04
atom     14.1048911410     7.6616388993    15.2646856678   Si  0.0 0.0    8.79699934e-05 -9.75999927e-06 -2.17449984e-05
atom     19.1270360022     7.6625780601    15.2619985181   Mg  0.0 0.0   -2.96769978e-04 -1.20949991e-05 -9.60499928e-06
atom     15.7462911338     3.8284140482    18.7486500526   Mg  0.0 0.0   -1.36244990e-04 -4.32499967e-06 -9.76249927e-05
atom     22.5062322137     3.8284140482    18.7473390609   Mg  0.0 0.0   -7.96649940e-05 -4.28499968e-06 -1.83099986e-05
atom     24.1397164230     7.6616427327    15.2577435449   Si  0.0 0.0    1.79129987e-04 -9.63999928e-06  6.91999948e-06
atom     19.1217997018     7.6621793959    20.4208353514   Si  0.0 0.0    1.48494989e-04 -1.23499991e-05 -2.37234982e-04
atom     19.1195917157     3.8281725497    23.4661733329   Si  0.0 0.0   -1.34999990e-06 -7.31499945e-06  3.65419973e-04
energy -1.876131629097965e+03
charge 0.0000
end
