begin
comment 4 atoms, species Al4
lattice      7.6331373306    -0.3816568665     0.0000000000
lattice     -0.3816568665     7.6331373306     0.0000000000
lattice      0.0000000000     0.0000000000     7.6522680006
atom      0.0000000000     0.0000000000     0.0000000000   Al  0.0 0.0   -3.28129600e-14  1.35131161e-13 -1.96114994e-13
atom     -0.1908284333     3.8165686653     3.8261340003   Al  0.0 0.0   -1.76965586e-13 -2.07534315e-13  1.95993603e-13
atom      3.8165686653    -0.1908284333     3.8261340003   Al  0.0 0.0    1.77058161e-13  2.07440245e-13  1.95937930e-13
atom      3.6257402320     3.6257402320    -0.0000000000   Al  0.0 0.0    3.27629732e-14 -1.34985176e-13 -1.95992265e-13
energy -7.900218096531188e+01
charge 0.0000
end
begin
comment 4 atoms, species Al4
lattice      7.6331373306    -0.2968442295     0.0000000000
lattice     -0.2968442295     7.6331373306     0.0000000000
lattice      0.0000000000     0.0000000000     7.6446987577
atom      0.0000000000     0.0000000000     0.0000000000   Al  0.0 0.0   -1.75715092e-13 -1.48166496e-13 -5.27315593e-14
atom     -0.1484221148     3.8165686653     3.8223493789   Al  0.0 0.0   -1.24421908e-13  6.69044744e-14  5.27042672e-14
atom      3.8165686653    -0.1484221148     3.8223493789   Al  0.0 0.0    1.24449674e-13 -6.68572091e-14  5.27443488e-14
atom      3.6681465505     3.6681465505    -0.0000000000   Al  0.0 0.0    1.75704375e-13  1.48113166e-13 -5.29198726e-14
energy -7.900351389385678e+01
charge 0.0000
end
begin
comment 4 atoms, species Al4
lattice      7.6331373306    -0.2120315925     0.0000000000
lattice     -0.2120315925     7.6331373306     0.0000000000
lattice      0.0000000000     0.0000000000     7.6390316451
atom      0.0000000000     0.0000000000     0.0000000000   Al  0.0 0.0   -1.87784236e-13 -9.10332403e-14 -2.28609608e-13
atom     -0.1060157963     3.8165686653     3.8195158226   Al  0.0 0.0   -1.68586290e-13  2.15147067e-14  2.28820687e-13
atom      3.8165686653    -0.1060157963     3.8195158226   Al  0.0 0.0    1.68512699e-13 -2.15202895e-14  2.28758113e-13
atom      3.7105528690     3.7105528690    -0.0000000000   Al  0.0 0.0    1.87836038e-13  9.11097593e-14 -2.28758929e-13
energy -7.900448555138863e+01
charge 0.0000
end
begin
comment 4 atoms, species Al4
lattice      7.6331373306    -0.1272189555     0.0000000000
lattice     -0.1272189555     7.6331373306     0.0000000000
lattice      0.0000000000     0.0000000000     7.6352582357
atom      0.0000000000     0.0000000000     0.0000000000   Al  0.0 0.0   -9.09025910e-14  1.01847692e-13  2.19150695e-13
atom     -0.0636094778     3.8165686653     3.8176291178   Al  0.0 0.0   -1.14000195e-13 -1.25868172e-13 -2.19321834e-13
atom      3.8165686653    -0.0636094778     3.8176291178   Al  0.0 0.0    1.14067917e-13  1.25626682e-13 -2.19272355e-13
atom      3.7529591875     3.7529591875    -0.0000000000   Al  0.0 0.0    9.08638821e-14 -1.01730847e-13  2.19263702e-13
energy -7.900512324153412e+01
charge 0.0000
end
begin
comment 4 atoms, species Al4
lattice      7.6331373306    -0.0424063185     0.0000000000
lattice     -0.0424063185     7.6331373306     0.0000000000
lattice      0.0000000000     0.0000000000     7.6333729285
atom      0.0000000000     0.0000000000     0.0000000000   Al  0.0 0.0    5.24343935e-14  1.83668277e-13  1.68830642e-13
atom     -0.0212031593     3.8165686653     3.8166864643   Al  0.0 0.0    3.59104144e-14 -1.80393033e-13 -1.68838104e-13
atom      3.8165686653    -0.0212031593     3.8166864643   Al  0.0 0.0   -3.58636473e-14  1.80261171e-13 -1.68939538e-13
atom      3.7953655060     3.7953655060    -0.0000000000   Al  0.0 0.0   -5.24451142e-14 -1.83654841e-13  1.68911779e-13
energy -7.900543963600944e+01
charge 0.0000
end
begin
comment 4 atoms, species Al4
lattice      7.6331373306     0.0424063185     0.0000000000
lattice      0.0424063185     7.6331373306     0.0000000000
lattice      0.0000000000     0.0000000000     7.6333729285
atom      0.0000000000     0.0000000000     0.0000000000   Al  0.0 0.0    3.57942196e-14  1.80321897e-13  1.68978001e-13
atom      0.0212031593     3.8165686653     3.8166864643   Al  0.0 0.0    5.24540630e-14 -1.83613921e-13 -1.69034847e-13
atom      3.8165686653     0.0212031593     3.8166864643   Al  0.0 0.0   -5.24395957e-14  1.83529865e-13 -1.68820380e-13
atom      3.8377718246     3.8377718246    -0.0000000000   Al  0.0 0.0   -3.58546532e-14 -1.80261830e-13  1.68743848e-13
energy -7.900543963600946e+01
charge 0.0000
end
begin
comment 4 atoms, species Al4
lattice      7.6331373306     0.1272189555     0.0000000000
lattice      0.1272189555     7.6331373306     0.0000000000
lattice      0.0000000000     0.0000000000     7.6352582357
atom      0.0000000000     0.0000000000     0.0000000000   Al  0.0 0.0   -1.14034301e-13  1.25841591e-13  2.19161894e-13
atom      0.0636094778     3.8165686653     3.8176291178   Al  0.0 0.0   -9.09653688e-14 -1.01838279e-13 -2.19040230e-13
atom      3.8165686653     0.0636094778     3.8176291178   Al  0.0 0.0    9.08834030e-14  1.01703371e-13 -2.19289188e-13
atom      3.8801781431     3.8801781431    -0.0000000000   Al  0.0 0.0    1.14036856e-13 -1.25800521e-13  2.19088813e-13
energy -7.900512324153412e+01
charge 0.0000
end
begin
comment 4 atoms, species Al4
lattice      7.6331373306     0.2120315925     0.0000000000
lattice      0.2120315925     7.6331373306     0.0000000000
lattice      0.0000000000     0.0000000000     7.6390316451
atom      0.0000000000     0.0000000000     0.0000000000   Al  0.0 0.0   -1.68515047e-13 -2.15524154e-14 -2.28631941e-13
atom      0.1060157963     3.8165686653     3.8195158226   Al  0.0 0.0   -1.87849624e-13  9.11711745e-14  2.28914373e-13
atom      3.8165686653     0.1060157963     3.8195158226   Al  0.0 0.0    1.87795371e-13 -9.11644133e-14  2.28610100e-13
atom      3.9225844616     3.9225844616    -0.0000000000   Al  0.0 0.0    1.68570624e-13  2.15416749e-14 -2.28418015e-13
energy -7.900448555138863e+01
charge 0.0000
end
begin
comment 4 atoms, species Al4
lattice      7.6331373306     0.2968442295     0.0000000000
lattice      0.2968442295     7.6331373306     0.0000000000
lattice      0.0000000000     0.0000000000     7.6446987577
atom      0.0000000000     0.0000000000     0.0000000000   Al  0.0 0.0   -1.24484573e-13 -6.67098851e-14 -5.28288255e-14
atom      0.1484221148     3.8165686653     3.8223493789   Al  0.0 0.0   -1.75638689e-13  1.48104782e-13  5.27903075e-14
atom      3.8165686653     0.1484221148     3.8223493789   Al  0.0 0.0    1.75637474e-13 -1.48115227e-13  5.27877442e-14
atom      3.9649907801     3.9649907801    -0.0000000000   Al  0.0 0.0    1.24465241e-13  6.67156153e-14 -5.28373913e-14
energy -7.900351389385678e+01
charge 0.0000
end
begin
comment 4 atoms, species Al4
lattice      7.6331373306     0.3816568665     0.0000000000
lattice      0.3816568665     7.6331373306     0.0000000000
lattice      0.0000000000     0.0000000000     7.6522680006
atom      0.0000000000     0.0000000000     0.0000000000   Al  0.0 0.0   -1.76988066e-13  2.07508331e-13 -1.96056347e-13
atom      0.1908284333     3.8165686653     3.8261340003   Al  0.0 0.0   -3.26642445e-14 -1.35208742e-13  1.95979507e-13
atom      3.8165686653     0.1908284333     3.8261340003   Al  0.0 0.0    3.27206279e-14  1.34964684e-13  1.95946450e-13
atom      4.0073970986     4.0073970986    -0.0000000000   Al  0.0 0.0    1.76992392e-13 -2.07540811e-13 -1.96230536e-13
energy -7.900218096531188e+01
charge 0.0000
end
