begin
comment 256 atoms, species Al254MgSi
lattice     30.6664728719     0.0000000000     0.0000000000
lattice      0.0000000000    30.6664728719     0.0000000000
lattice      0.0000000000     0.0000000000    30.6664728719
atom      0.0353768431     0.0353768431     0.0000000000   Mg  0.0 0.0   -6.00999955e-06 -5.99999955e-06 -1.49999989e-08
atom      3.8812745392     0.0158392332     3.8639326488   Al  0.0 0.0   -7.33299945e-05 -1.79189987e-04  2.04744985e-04
atom      3.8667815641     3.8667815641     0.0000000000   Si  0.0 0.0    3.69604972e-04  3.69554972e-04  4.99999962e-09
atom      0.0158392332     3.8812745392     3.8639326488   Al  0.0 0.0   -1.79209987e-04 -7.33349945e-05  2.04724985e-04
atom      0.0003035981     0.0003035981     7.6682619409   Al  0.0 0.0    5.74349957e-05  5.74199957e-05 -8.69849935e-05
atom      3.8362285572     3.8362285572     7.6662440870   Al  0.0 0.0    1.89249986e-04  1.89224986e-04  2.91434978e-04
atom      3.8331864431     0.0001901321    11.5010006535   Al  0.0 0.0   -4.51499966e-06  3.22899976e-05  3.79799971e-05
atom      0.0001901321     3.8331864431    11.5010006535   Al  0.0 0.0    3.23049976e-05 -4.51499966e-06  3.79749971e-05
atom     30.6663103396    30.6663103396    15.3332364360   Al  0.0 0.0    1.53349988e-05  1.52749989e-05 -4.49999966e-08
atom      3.8331711099     3.8331711099    15.3332364360   Al  0.0 0.0    2.53399981e-05  2.52749981e-05 -1.49999989e-08
atom      3.8331864431     0.0001901321    19.1654722184   Al  0.0 0.0   -4.50499966e-06  3.23149976e-05 -3.79549971e-05
atom      0.0001901321     3.8331864431    19.1654722184   Al  0.0 0.0    3.23249976e-05 -4.50499966e-06 -3.79599971e-05
atom      0.0003035981     0.0003035981    22.9982139976   Al  0.0 0.0    5.74499957e-05  5.73949957e-05  8.69849935e-05
atom      3.8362285572     3.8362285572    23.0002318515   Al  0.0 0.0    1.89274986e-04  1.89249986e-04 -2.91459978e-04
atom      3.8812745392     0.0158392332    26.8025402231   Al  0.0 0.0   -7.33449945e-05 -1.79179987e-04 -2.04749985e-04
atom      0.0158392332     3.8812745392    26.8025402231   Al  0.0 0.0   -1.79199987e-04 -7.33349945e-05 -2.04734985e-04
atom      0.0223497254     7.6489297964     0.0000000000   Al  0.0 0.0   -1.72749987e-05 -4.57149966e-05  1.99999985e-08
atom      3.8332723092    11.4924784407     0.0000000000   Al  0.0 0.0    8.03999940e-06  1.42249989e-05  2.99999977e-08
atom      3.8352134970     7.6499141902     3.8119744438   Al  0.0 0.0    1.59164988e-04  2.47184981e-04  8.54499936e-05
atom      0.0004047974    11.4994059969     3.8330821771   Al  0.0 0.0    8.05049939e-05 -6.92049948e-05 -6.49549951e-05
atom      0.0004630637     7.6704361939     7.6683355405   Al  0.0 0.0    7.38699944e-05  3.22314976e-04  2.43859982e-04
atom      3.8332477760    11.4962350836     7.6633277054   Al  0.0 0.0    7.66999942e-06 -1.30624990e-04 -1.48844989e-04
atom      3.8331465767     7.6668758163    11.4986332018   Al  0.0 0.0    8.29999938e-06  1.01499992e-05  5.51499959e-06
atom      0.0002575984    11.4998843939    11.5001205257   Al  0.0 0.0    1.64999988e-05  4.66849965e-05  3.13849976e-05
atom     30.6662827398     7.6675443455    15.3332364360   Al  0.0 0.0    1.30349990e-05  3.71149972e-05 -1.49999989e-08
atom      3.8334961745    11.4994121302    15.3332364360   Al  0.0 0.0    1.00449992e-05 -2.93199978e-05 -9.99999925e-09
atom      3.8331465767     7.6668758163    19.1678427367   Al  0.0 0.0    8.32499937e-06  1.01299992e-05 -5.49999959e-06
atom      0.0002575984    11.4998843939    19.1663523462   Al  0.0 0.0    1.65049988e-05  4.66599965e-05 -3.13899976e-05
atom      0.0004630637     7.6704361939    22.9981373315   Al  0.0 0.0    7.38599944e-05  3.22329976e-04 -2.43854982e-04
atom      3.8332477760    11.4962350836    23.0031451665   Al  0.0 0.0    7.65499942e-06 -1.30614990e-04  1.48844989e-04
atom      3.8352134970     7.6499141902    26.8544984281   Al  0.0 0.0    1.59154988e-04  2.47164981e-04 -8.54949936e-05
atom      0.0004047974    11.4994059969    26.8333906948   Al  0.0 0.0    8.04849940e-05 -6.91849948e-05  6.49649951e-05
atom      0.0000459997    15.3316203128     0.0000000000   Al  0.0 0.0    2.46449981e-05 -7.18349946e-05 -4.99999962e-09
atom      3.8333765752    19.1638008956     0.0000000000   Al  0.0 0.0    6.91499948e-06 -1.08944992e-04  2.99999977e-08
atom      3.8332385761    15.3313872476     3.8330116442   Al  0.0 0.0    2.70099980e-05 -8.16049939e-05 -8.36499937e-06
atom     30.6662367401    19.1642179597     3.8334563081   Al  0.0 0.0    1.25299991e-05 -9.66599927e-05 -1.33949990e-05
atom      0.0002851982    15.3331720364     7.6669156828   Al  0.0 0.0    1.72849987e-05 -2.55899981e-05  3.06099977e-05
atom      3.8331343101    19.1666467443     7.6664955521   Al  0.0 0.0    5.41499959e-06 -6.55399951e-05  4.65999965e-06
atom      3.8334532414    15.3334511013    11.5001787920   Al  0.0 0.0    8.47499936e-06 -3.30949975e-05 -2.90849978e-05
atom     30.6664514054    19.1664075458    11.5003290578   Al  0.0 0.0    1.00499992e-06 -4.86049963e-05  5.07249962e-05
atom      0.0000000000    15.3334603012    15.3332364360   Al  0.0 0.0    2.51999981e-06  3.83999971e-06 -1.49999989e-08
atom      3.8334348415    19.1665884780    15.3332364360   Al  0.0 0.0    6.06999954e-06 -1.55499988e-06 -0.00000000e+00
atom      3.8334532414    15.3334511013    19.1662940799   Al  0.0 0.0    8.45999936e-06 -3.31099975e-05  2.91049978e-05
atom     30.6664514054    19.1664075458    19.1661438141   Al  0.0 0.0    9.94999925e-07 -4.85899963e-05 -5.07499962e-05
atom      0.0002851982    15.3331720364    22.9995571891   Al  0.0 0.0    1.73299987e-05 -2.55749981e-05 -3.05899977e-05
atom      3.8331343101    19.1666467443    22.9999773198   Al  0.0 0.0    5.41499959e-06 -6.55599951e-05 -4.62499965e-06
atom      3.8332385761    15.3313872476    26.8334612277   Al  0.0 0.0    2.70099980e-05 -8.15949939e-05  8.29999938e-06
atom     30.6662367401    19.1642179597    26.8330165639   Al  0.0 0.0    1.25349991e-05 -9.66749927e-05  1.33999990e-05
atom      0.0000797328    22.9963648093     0.0000000000   Al  0.0 0.0    2.52099981e-05  1.71999987e-05 -9.99999925e-09
atom      3.8765304359    26.7979954518     0.0000000000   Al  0.0 0.0   -8.65499935e-05  2.17069984e-04  1.49999989e-08
atom      3.8358513596    22.9928074985     3.8359249591   Al  0.0 0.0    1.58299988e-04 -2.57924981e-04  1.45169989e-04
atom      0.0011438594    26.7952201360     3.8740127184   Al  0.0 0.0    6.54799951e-05  3.03124977e-04 -2.54204981e-04
atom      0.0001625323    22.9962360101     7.6699516636   Al  0.0 0.0    1.23149991e-05 -2.85354979e-04  3.02494977e-04
atom      3.8359586922    26.8336636264     7.6723221819   Al  0.0 0.0    1.66429987e-04 -4.56349966e-05  2.03094985e-04
atom      3.8330944437    22.9989039933    11.5002309250   Al  0.0 0.0    4.87499963e-06 -3.02599977e-05  4.58899966e-05
atom      0.0002177320    26.8336605598    11.5024787775   Al  0.0 0.0    1.24699991e-05  1.84749986e-05  7.21849946e-05
atom     30.6664176723    22.9988303937    15.3332364360   Al  0.0 0.0   -2.16499984e-06 -5.33099960e-05  9.99999925e-09
atom      3.8332109763    26.8338905583    15.3332364360   Al  0.0 0.0    2.87549978e-05  1.02499992e-05 -1.49999989e-08
atom      3.8330944437    22.9989039933    19.1662419469   Al  0.0 0.0    4.88999963e-06 -3.02699977e-05 -4.58749966e-05
atom      0.0002177320    26.8336605598    19.1639940944   Al  0.0 0.0    1.24499991e-05  1.84699986e-05 -7.21649946e-05
atom      0.0001625323    22.9962360101    22.9965212083   Al  0.0 0.0    1.23299991e-05 -2.85349979e-04 -3.02484977e-04
atom      3.8359586922    26.8336636264    22.9941506900   Al  0.0 0.0    1.66369987e-04 -4.56549966e-05 -2.03059985e-04
atom      3.8358513596    22.9928074985    26.8305479128   Al  0.0 0.0    1.58304988e-04 -2.57924981e-04 -1.45164989e-04
atom      0.0011438594    26.7952201360    26.7924601535   Al  0.0 0.0    6.55099951e-05  3.03139977e-04  2.54234981e-04
atom      7.6489297964     0.0223497254     0.0000000000   Al  0.0 0.0   -4.56699966e-05 -1.72649987e-05 -9.99999925e-09
atom     11.4924784407     3.8332723092     0.0000000000   Al  0.0 0.0    1.42149989e-05  8.03499940e-06  9.99999925e-09
atom     11.4994059969     0.0004047974     3.8330821771   Al  0.0 0.0   -6.92299948e-05  8.04849940e-05 -6.49699951e-05
atom      7.6499141902     3.8352134970     3.8119744438   Al  0.0 0.0    2.47179981e-04  1.59164988e-04  8.54599936e-05
atom      7.6704361939     0.0004630637     7.6683355405   Al  0.0 0.0    3.22319976e-04  7.38249945e-05  2.43894982e-04
atom     11.4962350836     3.8332477760     7.6633277054   Al  0.0 0.0   -1.30664990e-04  7.66499942e-06 -1.48854989e-04
atom     11.4998843939     0.0002575984    11.5001205257   Al  0.0 0.0    4.66349965e-05  1.64999988e-05  3.13549976e-05
atom      7.6668758163     3.8331465767    11.4986332018   Al  0.0 0.0    1.01399992e-05  8.27499938e-06  5.49499959e-06
atom      7.6675443455    30.6662827398    15.3332364360   Al  0.0 0.0    3.71049972e-05  1.30749990e-05 -9.99999925e-09
atom     11.4994121302     3.8334961745    15.3332364360   Al  0.0 0.0   -2.93399978e-05  1.00349992e-05 -4.99999962e-09
atom     11.4998843939     0.0002575984    19.1663523462   Al  0.0 0.0    4.66349965e-05  1.64999988e-05 -3.13999976e-05
atom      7.6668758163     3.8331465767    19.1678427367   Al  0.0 0.0    1.01399992e-05  8.30999938e-06 -5.52499958e-06
atom      7.6704361939     0.0004630637    22.9981373315   Al  0.0 0.0    3.22299976e-04  7.38649944e-05 -2.43869982e-04
atom     11.4962350836     3.8332477760    23.0031451665   Al  0.0 0.0   -1.30649990e-04  7.67999942e-06  1.48854989e-04
atom     11.4994059969     0.0004047974    26.8333906948   Al  0.0 0.0   -6.92049948e-05  8.04899940e-05  6.49999951e-05
atom      7.6499141902     3.8352134970    26.8544984281   Al  0.0 0.0    2.47179981e-04  1.59179988e-04 -8.54749936e-05
atom      7.6490493957     7.6490493957     0.0000000000   Al  0.0 0.0    2.30584983e-04  2.30564983e-04  2.99999977e-08
atom     11.4957873531    11.4957873531     0.0000000000   Al  0.0 0.0   -1.40614989e-04 -1.40624989e-04  0.00000000e+00
atom     11.4975445420     7.6671088815     3.8334685746   Al  0.0 0.0   -1.10169992e-04 -4.05299970e-05 -5.56049958e-05
atom      7.6671088815    11.4975445420     3.8334685746   Al  0.0 0.0   -4.05199970e-05 -1.10139992e-04 -5.55799958e-05
atom      7.6659128891     7.6659128891     7.6633522386   Al  0.0 0.0   -7.26799945e-05 -7.26699945e-05 -1.69144987e-04
atom     11.5011079862    11.5011079862     7.6678356770   Al  0.0 0.0    2.54749981e-05  2.54799981e-05  3.36249975e-05
atom     11.4993722638     7.6662287538    11.4996635953   Al  0.0 0.0   -2.19399984e-05 -1.47899989e-05 -3.66099972e-05
atom      7.6662287538    11.4993722638    11.4996635953   Al  0.0 0.0   -1.48099989e-05 -2.19249984e-05 -3.66049972e-05
atom      7.6670567485     7.6670567485    15.3332364360   Al  0.0 0.0   -5.83499956e-06 -5.85499956e-06  9.99999925e-09
atom     11.5000837260    11.5000837260    15.3332364360   Al  0.0 0.0    1.76299987e-05  1.76299987e-05 -2.49999981e-08
atom     11.4993722638     7.6662287538    19.1668092766   Al  0.0 0.0   -2.19649983e-05 -1.47749989e-05  3.66349972e-05
atom      7.6662287538    11.4993722638    19.1668092766   Al  0.0 0.0   -1.47949989e-05 -2.19499984e-05  3.66399972e-05
atom      7.6659128891     7.6659128891    23.0031206333   Al  0.0 0.0   -7.26999945e-05 -7.27249945e-05  1.69134987e-04
atom     11.5011079862    11.5011079862    22.9986371950   Al  0.0 0.0    2.55299981e-05  2.54999981e-05 -3.36499975e-05
atom     11.4975445420     7.6671088815    26.8330042973   Al  0.0 0.0   -1.10164992e-04 -4.05149970e-05  5.55949958e-05
atom      7.6671088815    11.4975445420    26.8330042973   Al  0.0 0.0   -4.05149970e-05 -1.10124992e-04  5.55999958e-05
atom      7.6673020803    15.3315375134     0.0000000000   Al  0.0 0.0    2.01999985e-05 -7.67449942e-05  1.49999989e-08
atom     11.4994090636    19.1664136791     0.0000000000   Al  0.0 0.0    1.23049991e-05 -4.91199963e-05  4.49999966e-08
atom     11.4993231975    15.3329941708     3.8329993776   Al  0.0 0.0   -1.59449988e-05 -2.91599978e-05 -1.47049989e-05
atom      7.6674063463    19.1666896774     3.8333888418   Al  0.0 0.0    3.24199976e-05 -6.73049949e-05 -6.92999948e-06
atom      7.6665875515    15.3332548358     7.6663759528   Al  0.0 0.0   -1.08499992e-05 -2.02099985e-05 -1.33999990e-05
atom     11.4996697286    19.1666498110     7.6662563536   Al  0.0 0.0    1.76499987e-06  2.13999984e-06 -5.19999961e-07
atom     11.5001419923    15.3333591018    11.5002891913   Al  0.0 0.0    6.47499951e-06  8.54499936e-06  2.36049982e-05
atom      7.6663698195    19.1667448770    11.5001205257   Al  0.0 0.0   -3.62999973e-06  4.35999967e-06  3.68999972e-06
atom      7.6669800824    15.3335093676    15.3332364360   Al  0.0 0.0    2.02199985e-05  2.52999981e-06 -3.49999974e-08
atom     11.5002615915    19.1662787466    15.3332364360   Al  0.0 0.0    1.87299986e-05 -1.52499989e-05 -3.99999970e-08
atom     11.5001419923    15.3333591018    19.1661836806   Al  0.0 0.0    6.47999951e-06  8.52999936e-06 -2.35799982e-05
atom      7.6663698195    19.1667448770    19.1663523462   Al  0.0 0.0   -3.63499973e-06  4.35999967e-06 -3.67499972e-06
atom      7.6665875515    15.3332548358    23.0000969191   Al  0.0 0.0   -1.08499992e-05 -2.01849985e-05  1.34199990e-05
atom     11.4996697286    19.1666498110    23.0002165183   Al  0.0 0.0    1.76499987e-06  2.13499984e-06  5.14999961e-07
atom     11.4993231975    15.3329941708    26.8334734943   Al  0.0 0.0   -1.59249988e-05 -2.91749978e-05  1.46799989e-05
atom      7.6674063463    19.1666896774    26.8330840301   Al  0.0 0.0    3.23999976e-05 -6.73149949e-05  6.86999948e-06
atom      7.6702644616    22.9976896009     0.0000000000   Al  0.0 0.0    3.01369977e-04 -2.77209979e-04  9.99999925e-09
atom     11.4986056020    26.8367640068     0.0000000000   Al  0.0 0.0   -7.84899941e-05  1.81554986e-04  0.00000000e+00
atom     11.4993569306    22.9995786557     3.8326835129   Al  0.0 0.0    5.47299959e-05 -1.94249985e-05 -1.52899989e-05
atom      7.6759438924    26.8320260368     3.8360721582   Al  0.0 0.0    3.06984977e-04 -7.60999943e-05  1.08384992e-04
atom      7.6665415518    22.9997565212     7.6664372858   Al  0.0 0.0    4.01999970e-06  6.57999951e-06  8.38999937e-06
atom     11.5010343866    26.8322499020     7.6682680742   Al  0.0 0.0    9.78349926e-05 -3.21449976e-05  7.57999943e-05
atom     11.4996789285    23.0001398521    11.4997617280   Al  0.0 0.0   -1.53699988e-05  9.39999929e-07 -3.77499972e-06
atom      7.6667163507    26.8339426913    11.4996390621   Al  0.0 0.0    2.61899980e-05  1.44699989e-05  3.80699971e-05
atom      7.6669340826    22.9992505244    15.3332364360   Al  0.0 0.0    2.96499978e-06 -7.03999947e-06 -1.49999989e-08
atom     11.4999334603    26.8329766974    15.3332364360   Al  0.0 0.0    6.37499952e-06 -1.51199989e-05  2.49999981e-08
atom     11.4996789285    23.0001398521    19.1667111439   Al  0.0 0.0   -1.54049988e-05  9.84999926e-07  3.81499971e-06
atom      7.6667163507    26.8339426913    19.1668338098   Al  0.0 0.0    2.62149980e-05  1.44149989e-05 -3.80849971e-05
atom      7.6665415518    22.9997565212    23.0000355861   Al  0.0 0.0    4.01499970e-06  6.56499951e-06 -8.41499937e-06
atom     11.5010343866    26.8322499020    22.9982047977   Al  0.0 0.0    9.78449926e-05 -3.22149976e-05 -7.57799943e-05
atom     11.4993569306    22.9995786557    26.8337893590   Al  0.0 0.0    5.47349959e-05 -1.93899985e-05  1.52649989e-05
atom      7.6759438924    26.8320260368    26.8304007137   Al  0.0 0.0    3.07004977e-04 -7.61099943e-05 -1.08349992e-04
atom     15.3316203128     0.0000459997     0.0000000000   Al  0.0 0.0   -7.18199946e-05  2.45999982e-05 -4.99999962e-09
atom     19.1638008956     3.8333765752     0.0000000000   Al  0.0 0.0   -1.08914992e-04  6.88499948e-06  9.99999925e-09
atom     19.1642179597    30.6662367401     3.8334563081   Al  0.0 0.0   -9.66799927e-05  1.25199991e-05 -1.34049990e-05
atom     15.3313872476     3.8332385761     3.8330116442   Al  0.0 0.0   -8.16249939e-05  2.69949980e-05 -8.38499937e-06
atom     15.3331720364     0.0002851982     7.6669156828   Al  0.0 0.0   -2.55549981e-05  1.72399987e-05  3.06349977e-05
atom     19.1666467443     3.8331343101     7.6664955521   Al  0.0 0.0   -6.54949951e-05  5.35999960e-06  4.66999965e-06
atom     19.1664075458    30.6664514054    11.5003290578   Al  0.0 0.0   -4.86049963e-05  9.74999927e-07  5.07199962e-05
atom     15.3334511013     3.8334532414    11.5001787920   Al  0.0 0.0   -3.30999975e-05  8.44499937e-06 -2.90599978e-05
atom     15.3334603012     0.0000000000    15.3332364360   Al  0.0 0.0    3.84499971e-06  2.46499981e-06 -2.99999977e-08
atom     19.1665884780     3.8334348415    15.3332364360   Al  0.0 0.0   -1.53999988e-06  6.04999955e-06 -3.49999974e-08
atom     19.1664075458    30.6664514054    19.1661438141   Al  0.0 0.0   -4.85949963e-05  1.00499992e-06 -5.07249962e-05
atom     15.3334511013     3.8334532414    19.1662940799   Al  0.0 0.0   -3.30799975e-05  8.47999936e-06  2.91099978e-05
atom     15.3331720364     0.0002851982    22.9995571891   Al  0.0 0.0   -2.55249981e-05  1.72699987e-05 -3.05699977e-05
atom     19.1666467443     3.8331343101    22.9999773198   Al  0.0 0.0   -6.55249951e-05  5.35999960e-06 -4.64499965e-06
atom     19.1642179597    30.6662367401    26.8330165639   Al  0.0 0.0   -9.66799927e-05  1.25199991e-05  1.33749990e-05
atom     15.3313872476     3.8332385761    26.8334612277   Al  0.0 0.0   -8.16049939e-05  2.69849980e-05  8.32499937e-06
atom     15.3315375134     7.6673020803     0.0000000000   Al  0.0 0.0   -7.67399942e-05  2.02049985e-05 -4.99999962e-09
atom     19.1664136791    11.4994090636     0.0000000000   Al  0.0 0.0   -4.91099963e-05  1.23149991e-05 -4.99999962e-09
atom     19.1666896774     7.6674063463     3.8333888418   Al  0.0 0.0   -6.72899949e-05  3.24349976e-05 -6.91499948e-06
atom     15.3329941708    11.4993231975     3.8329993776   Al  0.0 0.0   -2.91549978e-05 -1.59199988e-05 -1.46849989e-05
atom     15.3332548358     7.6665875515     7.6663759528   Al  0.0 0.0   -2.02099985e-05 -1.08099992e-05 -1.34099990e-05
atom     19.1666498110    11.4996697286     7.6662563536   Al  0.0 0.0    2.14999984e-06  1.80499986e-06 -5.09999962e-07
atom     19.1667448770     7.6663698195    11.5001205257   Al  0.0 0.0    4.37499967e-06 -3.60999973e-06  3.68999972e-06
atom     15.3333591018    11.5001419923    11.5002891913   Al  0.0 0.0    8.54999936e-06  6.48999951e-06  2.36049982e-05
atom     15.3335093676     7.6669800824    15.3332364360   Al  0.0 0.0    2.51999981e-06  2.02349985e-05 -1.99999985e-08
atom     19.1662787466    11.5002615915    15.3332364360   Al  0.0 0.0   -1.52599989e-05  1.87699986e-05 -9.99999925e-09
atom     19.1667448770     7.6663698195    19.1663523462   Al  0.0 0.0    4.37499967e-06 -3.59999973e-06 -3.68499972e-06
atom     15.3333591018    11.5001419923    19.1661836806   Al  0.0 0.0    8.53999936e-06  6.48999951e-06 -2.35849982e-05
atom     15.3332548358     7.6665875515    23.0000969191   Al  0.0 0.0   -2.02099985e-05 -1.08349992e-05  1.34099990e-05
atom     19.1666498110    11.4996697286    23.0002165183   Al  0.0 0.0    2.15999984e-06  1.78999987e-06  5.09999962e-07
atom     19.1666896774     7.6674063463    26.8330840301   Al  0.0 0.0   -6.73149949e-05  3.24299976e-05  6.89499948e-06
atom     15.3329941708    11.4993231975    26.8334734943   Al  0.0 0.0   -2.91749978e-05 -1.59199988e-05  1.46599989e-05
atom     15.3337608326    15.3337608326     0.0000000000   Al  0.0 0.0   -2.30599983e-05 -2.30899983e-05  4.99999962e-09
atom     19.1662174137    19.1662174137     0.0000000000   Al  0.0 0.0   -5.27099960e-05 -5.27499960e-05  9.99999925e-09
atom     19.1664964786    15.3336596333     3.8336004405   Al  0.0 0.0   -4.50999966e-06  7.97499940e-06  9.65999927e-06
atom     15.3336596333    19.1664964786     3.8336004405   Al  0.0 0.0    7.94499940e-06 -4.50999966e-06  9.61999928e-06
atom     15.3331628364    15.3331628364     7.6669708824   Al  0.0 0.0   -1.20999991e-06 -1.25999991e-06  2.00549985e-05
atom     19.1668828761    19.1668828761     7.6664250192   Al  0.0 0.0    1.18399991e-05  1.18149991e-05  1.37499990e-06
atom     19.1663002132    15.3329052380    11.4997065284   Al  0.0 0.0   -1.55849988e-05 -1.75849987e-05 -1.29199990e-05
atom     15.3329052380    19.1663002132    11.4997065284   Al  0.0 0.0   -1.75949987e-05 -1.56049988e-05 -1.29199990e-05
atom     15.3328377718    15.3328377718    15.3332364360   Al  0.0 0.0   -2.09549984e-05 -2.09849984e-05 -2.49999981e-08
atom     19.1663584795    19.1663584795    15.3332364360   Al  0.0 0.0   -1.31699990e-05 -1.32449990e-05  4.99999962e-09
atom     19.1663002132    15.3329052380    19.1667663435   Al  0.0 0.0   -1.55799988e-05 -1.75849987e-05  1.29399990e-05
atom     15.3329052380    19.1663002132    19.1667663435   Al  0.0 0.0   -1.75849987e-05 -1.55699988e-05  1.29449990e-05
atom     15.3331628364    15.3331628364    22.9995019895   Al  0.0 0.0   -1.24499991e-06 -1.26499990e-06 -2.00199985e-05
atom     19.1668828761    19.1668828761    23.0000478527   Al  0.0 0.0    1.18549991e-05  1.18049991e-05 -1.38499990e-06
atom     19.1664964786    15.3336596333    26.8328724314   Al  0.0 0.0   -4.51499966e-06  7.96999940e-06 -9.62499928e-06
atom     15.3336596333    19.1664964786    26.8328724314   Al  0.0 0.0    7.97999940e-06 -4.53999966e-06 -9.64999927e-06
atom     15.3335431007    22.9988733268     0.0000000000   Al  0.0 0.0   -2.56349981e-05 -2.33449982e-05  2.49999981e-08
atom     19.1642179597    26.8337556258     0.0000000000   Al  0.0 0.0   -9.43599929e-05  3.31799975e-05  2.49999981e-08
atom     19.1666191445    22.9991585250     3.8330423107   Al  0.0 0.0   -6.41149952e-05 -4.63999965e-05 -4.59999965e-07
atom     15.3331904362    26.8335838936     3.8330361774   Al  0.0 0.0   -2.60749980e-05 -1.27299990e-05  1.28699990e-05
atom     15.3333621685    22.9995173227     7.6669064828   Al  0.0 0.0    6.01999955e-06 -1.15999991e-05 -2.65499980e-06
atom     19.1664750121    26.8333722949     7.6670107488   Al  0.0 0.0   -6.90149948e-05 -1.30249990e-05  4.51899966e-05
atom     19.1667080773    23.0005017165    11.4994673299   Al  0.0 0.0    4.05499970e-06  2.46699981e-05 -2.07049984e-05
atom     15.3333223021    26.8329736308    11.5000898593   Al  0.0 0.0    5.01999962e-06 -3.31999975e-06  1.08949992e-05
atom     15.3329727043    22.9997963876    15.3332364360   Al  0.0 0.0   -1.68499987e-05 -8.33999937e-06 -1.49999989e-08
atom     19.1665670115    26.8330594969    15.3332364360   Al  0.0 0.0    1.99999985e-08 -2.44499982e-06 -1.49999989e-08
atom     19.1667080773    23.0005017165    19.1670055420   Al  0.0 0.0    4.04499970e-06  2.46299981e-05  2.06649984e-05
atom     15.3333223021    26.8329736308    19.1663830126   Al  0.0 0.0    4.97999963e-06 -3.31999975e-06 -1.09249992e-05
atom     15.3333621685    22.9995173227    22.9995663891   Al  0.0 0.0    5.98999955e-06 -1.16149991e-05  2.62999980e-06
atom     19.1664750121    26.8333722949    22.9994621231   Al  0.0 0.0   -6.90099948e-05 -1.30199990e-05 -4.51299966e-05
atom     19.1666191445    22.9991585250    26.8334336279   Al  0.0 0.0   -6.40899952e-05 -4.64199965e-05  4.19999968e-07
atom     15.3331904362    26.8335838936    26.8334366945   Al  0.0 0.0   -2.60949980e-05 -1.26949990e-05 -1.28849990e-05
atom     22.9963648093     0.0000797328     0.0000000000   Al  0.0 0.0    1.72049987e-05  2.52349981e-05  4.99999962e-09
atom     26.7979954518     3.8765304359     0.0000000000   Al  0.0 0.0    2.17074984e-04 -8.65599935e-05  2.49999981e-08
atom     26.7952201360     0.0011438594     3.8740127184   Al  0.0 0.0    3.03129977e-04  6.55099951e-05 -2.54239981e-04
atom     22.9928074985     3.8358513596     3.8359249591   Al  0.0 0.0   -2.57934981e-04  1.58314988e-04  1.45164989e-04
atom     22.9962360101     0.0001625323     7.6699516636   Al  0.0 0.0   -2.85374979e-04  1.23249991e-05  3.02524977e-04
atom     26.8336636264     3.8359586922     7.6723221819   Al  0.0 0.0   -4.56499966e-05  1.66399987e-04  2.03059985e-04
atom     26.8336605598     0.0002177320    11.5024787775   Al  0.0 0.0    1.84449986e-05  1.24649991e-05  7.21849946e-05
atom     22.9989039933     3.8330944437    11.5002309250   Al  0.0 0.0   -3.02849977e-05  4.85499964e-06  4.59049965e-05
atom     22.9988303937    30.6664176723    15.3332364360   Al  0.0 0.0   -5.33199960e-05 -2.16499984e-06 -2.99999977e-08
atom     26.8338905583     3.8332109763    15.3332364360   Al  0.0 0.0    1.02349992e-05  2.87999978e-05 -3.99999970e-08
atom     26.8336605598     0.0002177320    19.1639940944   Al  0.0 0.0    1.84399986e-05  1.24649991e-05 -7.21549946e-05
atom     22.9989039933     3.8330944437    19.1662419469   Al  0.0 0.0   -3.02649977e-05  4.86999963e-06 -4.58549966e-05
atom     22.9962360101     0.0001625323    22.9965212083   Al  0.0 0.0   -2.85359979e-04  1.23449991e-05 -3.02489977e-04
atom     26.8336636264     3.8359586922    22.9941506900   Al  0.0 0.0   -4.56799966e-05  1.66404987e-04 -2.03064985e-04
atom     26.7952201360     0.0011438594    26.7924601535   Al  0.0 0.0    3.03139977e-04  6.55099951e-05  2.54244981e-04
atom     22.9928074985     3.8358513596    26.8305479128   Al  0.0 0.0   -2.57944981e-04  1.58299988e-04 -1.45169989e-04
atom     22.9976896009     7.6702644616     0.0000000000   Al  0.0 0.0   -2.77194979e-04  3.01354977e-04 -0.00000000e+00
atom     26.8367640068    11.4986056020     0.0000000000   Al  0.0 0.0    1.81504986e-04 -7.85199941e-05  0.00000000e+00
atom     26.8320260368     7.6759438924     3.8360721582   Al  0.0 0.0   -7.61099943e-05  3.06989977e-04  1.08354992e-04
atom     22.9995786557    11.4993569306     3.8326835129   Al  0.0 0.0   -1.94099985e-05  5.47499959e-05 -1.52649989e-05
atom     22.9997565212     7.6665415518     7.6664372858   Al  0.0 0.0    6.58499951e-06  4.01499970e-06  8.37999937e-06
atom     26.8322499020    11.5010343866     7.6682680742   Al  0.0 0.0   -3.21999976e-05  9.78499926e-05  7.58049943e-05
atom     26.8339426913     7.6667163507    11.4996390621   Al  0.0 0.0    1.44199989e-05  2.62149980e-05  3.81349971e-05
atom     23.0001398521    11.4996789285    11.4997617280   Al  0.0 0.0    9.44999929e-07 -1.53649988e-05 -3.80999971e-06
atom     22.9992505244     7.6669340826    15.3332364360   Al  0.0 0.0   -6.98999947e-06  2.92999978e-06  0.00000000e+00
atom     26.8329766974    11.4999334603    15.3332364360   Al  0.0 0.0   -1.50749989e-05  6.32499952e-06 -1.49999989e-08
atom     26.8339426913     7.6667163507    19.1668338098   Al  0.0 0.0    1.44199989e-05  2.62299980e-05 -3.80949971e-05
atom     23.0001398521    11.4996789285    19.1667111439   Al  0.0 0.0    9.44999929e-07 -1.53849988e-05  3.81499971e-06
atom     22.9997565212     7.6665415518    23.0000355861   Al  0.0 0.0    6.59499950e-06  4.00999970e-06 -8.39999937e-06
atom     26.8322499020    11.5010343866    22.9982047977   Al  0.0 0.0   -3.21899976e-05  9.78099926e-05 -7.57799943e-05
atom     26.8320260368     7.6759438924    26.8304007137   Al  0.0 0.0   -7.61199943e-05  3.07014977e-04 -1.08364992e-04
atom     22.9995786557    11.4993569306    26.8337893590   Al  0.0 0.0   -1.94199985e-05  5.47599959e-05  1.52699989e-05
atom     22.9988733268    15.3335431007     0.0000000000   Al  0.0 0.0   -2.33649982e-05 -2.56349981e-05  4.99999962e-09
atom     26.8337556258    19.1642179597     0.0000000000   Al  0.0 0.0    3.31599975e-05 -9.43649929e-05 -4.99999962e-09
atom     26.8335838936    15.3331904362     3.8330361774   Al  0.0 0.0   -1.27549990e-05 -2.60849980e-05  1.28899990e-05
atom     22.9991585250    19.1666191445     3.8330423107   Al  0.0 0.0   -4.64249965e-05 -6.41049952e-05 -4.69999965e-07
atom     22.9995173227    15.3333621685     7.6669064828   Al  0.0 0.0   -1.16399991e-05  5.99999955e-06 -2.61999980e-06
atom     26.8333722949    19.1664750121     7.6670107488   Al  0.0 0.0   -1.30399990e-05 -6.90149948e-05  4.51799966e-05
atom     26.8329736308    15.3333223021    11.5000898593   Al  0.0 0.0   -3.35999975e-06  4.98499963e-06  1.08649992e-05
atom     23.0005017165    19.1667080773    11.4994673299   Al  0.0 0.0    2.46499981e-05  4.02999970e-06 -2.06949984e-05
atom     22.9997963876    15.3329727043    15.3332364360   Al  0.0 0.0   -8.39999937e-06 -1.68099987e-05 -2.99999977e-08
atom     26.8330594969    19.1665670115    15.3332364360   Al  0.0 0.0   -2.45999982e-06  3.49999974e-08  1.99999985e-08
atom     26.8329736308    15.3333223021    19.1663830126   Al  0.0 0.0   -3.35499975e-06  4.98999962e-06 -1.09299992e-05
atom     23.0005017165    19.1667080773    19.1670055420   Al  0.0 0.0    2.46349981e-05  4.06499969e-06  2.06799984e-05
atom     22.9995173227    15.3333621685    22.9995663891   Al  0.0 0.0   -1.16499991e-05  6.00999955e-06  2.64999980e-06
atom     26.8333722949    19.1664750121    22.9994621231   Al  0.0 0.0   -1.30399990e-05 -6.89999948e-05 -4.51599966e-05
atom     26.8335838936    15.3331904362    26.8334366945   Al  0.0 0.0   -1.27449990e-05 -2.60899980e-05 -1.28849990e-05
atom     22.9991585250    19.1666191445    26.8334336279   Al  0.0 0.0   -4.64199965e-05 -6.41149952e-05  4.44999967e-07
atom     22.9962114770    22.9962114770     0.0000000000   Al  0.0 0.0   -2.85664979e-04 -2.85679979e-04  2.99999977e-08
atom     26.7946405397    26.7946405397     0.0000000000   Al  0.0 0.0    3.87619971e-04  3.87604971e-04  4.99999962e-09
atom     26.8308760440    22.9915747063     3.8359740255   Al  0.0 0.0   -1.36909990e-04 -2.69879980e-04  1.50924989e-04
atom     22.9915747063    26.8308760440     3.8359740255   Al  0.0 0.0   -2.69909980e-04 -1.36879990e-04  1.50899989e-04
atom     22.9994897229    22.9994897229     7.6669708824   Al  0.0 0.0   -2.51149981e-05 -2.51449981e-05  1.73849987e-05
atom     26.8301185822    26.8301185822     7.6754072291   Al  0.0 0.0   -1.63879988e-04 -1.63924988e-04  3.12824976e-04