
     Program PWSCF v.6.3 starts on 22Feb2020 at 11:27:22 

     This program is part of the open-source Quantum ESPRESSO suite
     for quantum simulation of materials; please cite
         "P. Giannozzi et al., J. Phys.:Condens. Matter 21 395502 (2009);
         "P. Giannozzi et al., J. Phys.:Condens. Matter 29 465901 (2017);
          URL http://www.quantum-espresso.org", 
     in publications or presentations arising from this work. More details at
     http://www.quantum-espresso.org/quote

 *** WARNING: using old-style file format, will disappear from next version ***

     Parallel version (MPI & OpenMP), running on      36 processor cores
     Number of MPI processes:                36
     Threads/MPI process:                     1

     MPI processes distributed on     1 nodes
     K-points division:     npool     =       4
     R & G space division:  proc/nbgrp/npool/nimage =       9
     Reading input from aiida.in
Warning: card &IONS ignored
Warning: card   !PRESS_CONV_THR = 0.05                 ! JUST FOR VOLUME RELAXATIONS ignored
Warning: card / ignored

     Current dimensions of program PWSCF are:
     Max number of different atomic species (ntypx) = 10
     Max number of k-points (npk) =  40000
     Max angular momentum in pseudopotentials (lmaxx) =  3
               file Mg.pbe-n-kjpaw_psl.0.3.0.UPF: wavefunction(s)  3S renormalized

     Subspace diagonalization in iterative solution of the eigenvalue problem:
     one sub-group per band group will be used
     scalapack distributed-memory algorithm (size of sub-group:  2*  2 procs)

 
     Parallelization info
     --------------------
     sticks:   dense  smooth     PW     G-vecs:    dense   smooth      PW
     Min         782     313     91                40857    10341    1616
     Max         783     314     92                40859    10342    1617
     Sum        7039    2821    823               367715    93073   14545
 


     bravais-lattice index     =            0
     lattice parameter (alat)  =      28.6012  a.u.
     unit-cell volume          =    2720.3607 (a.u.)^3
     number of atoms/cell      =           22
     number of atomic types    =            2
     number of electrons       =        68.00
     number of Kohn-Sham states=           41
     kinetic-energy cutoff     =      40.0000  Ry
     charge density cutoff     =     400.0000  Ry
     convergence threshold     =      1.0E-12
     mixing beta               =       0.4000
     number of iterations used =            8  local-TF  mixing
     Exchange-correlation      = PBE ( 1  4  3  4 0 0)

     celldm(1)=  28.601187  celldm(2)=   0.000000  celldm(3)=   0.000000
     celldm(4)=   0.000000  celldm(5)=   0.000000  celldm(6)=   0.000000

     crystal axes: (cart. coord. in units of alat)
               a(1) = (   0.940296   0.000000  -0.340358 )  
               a(2) = (   0.000000   0.270153   0.000000 )  
               a(3) = (   0.000000   0.000000   0.457720 )  

     reciprocal axes: (cart. coord. in units 2 pi/alat)
               b(1) = (  1.063495  0.000000  0.000000 )  
               b(2) = (  0.000000  3.701607  0.000000 )  
               b(3) = (  0.790808  0.000000  2.184741 )  


     PseudoPot. # 1 for Mg read from file:
     /users/aglensk/Dropbox/Albert/scripts/dotfiles/scripts/potentials/quantum_espresso/pseudo_SSSPefV1.1_alalloy/Mg.pbe-n-kjpaw_psl.0.3.0.UPF
     MD5 check sum: 24ecedc7f3e3cbe212e682f4413594e4
     Pseudo is Projector augmented-wave + core cor, Zval =  2.0
     Generated using "atomic" code by A. Dal Corso v.5.0.99 svn rev. 10869
     Shape of augmentation charge: PSQ
     Using radial grid of 1129 points,  4 beta functions with: 
                l(1) =   0
                l(2) =   0
                l(3) =   1
                l(4) =   1
     Q(r) pseudized with 0 coefficients 


     PseudoPot. # 2 for Si read from file:
     /users/aglensk/Dropbox/Albert/scripts/dotfiles/scripts/potentials/quantum_espresso/pseudo_SSSPefV1.1_alalloy/Si.pbe-n-rrkjus_psl.1.0.0.UPF
     MD5 check sum: 0b0bb1205258b0d07b9f9672cf965d36
     Pseudo is Ultrasoft + core correction, Zval =  4.0
     Generated using "atomic" code by A. Dal Corso v.5.1
     Using radial grid of 1141 points,  6 beta functions with: 
                l(1) =   0
                l(2) =   0
                l(3) =   1
                l(4) =   1
                l(5) =   2
                l(6) =   2
     Q(r) pseudized with 0 coefficients 


     atomic species   valence    mass     pseudopotential
        Mg             2.00    24.30500     Mg( 1.00)
        Si             4.00    28.08500     Si( 1.00)

     No symmetry found


                                    s                        frac. trans.

      isym =  1     identity                                     

 cryst.   s( 1) = (     1          0          0      )
                  (     0          1          0      )
                  (     0          0          1      )

 cart.    s( 1) = (  1.0000000  0.0000000  0.0000000 )
                  (  0.0000000  1.0000000  0.0000000 )
                  ( -0.0000000  0.0000000  1.0000000 )


   Cartesian axes

     site n.     atom                  positions (alat units)
         1           Mg  tau(   1) = (   0.0013288   0.2700257   0.4520014  )
         2           Mg  tau(   2) = (   0.0746719   0.1349450   0.1385313  )
         3           Mg  tau(   3) = (   0.1484251   0.1349441   0.3682378  )
         4           Mg  tau(   4) = (   0.3243793   0.2700160  -0.0921373  )
         5           Mg  tau(   5) = (   0.3981296   0.2700151   0.1375745  )
         6           Si  tau(   6) = (   0.0556162   0.2700170   0.2810125  )
         7           Si  tau(   7) = (   0.1824399   0.2700182   0.0468150  )
         8           Si  tau(   8) = (   0.1980909   0.2700220   0.2123316  )
         9           Si  tau(   9) = (   0.2747073   0.1349373   0.0637717  )
        10           Si  tau(  10) = (   0.2903592   0.1349412   0.2292878  )
        11           Si  tau(  11) = (   0.4171811   0.1349428  -0.0049098  )
        12           Mg  tau(  12) = (   0.4714763   0.1349349   0.2818226  )
        13           Mg  tau(  13) = (   0.5448195   0.2700151  -0.0316475  )
        14           Mg  tau(  14) = (   0.6185729   0.2700160   0.1980590  )
        15           Mg  tau(  15) = (   0.7945276   0.1349442  -0.2623160  )
        16           Mg  tau(  16) = (   0.8682781   0.1349450  -0.0326043  )
        17           Si  tau(  17) = (   0.5257643   0.1349428   0.1108337  )
        18           Si  tau(  18) = (   0.6525880   0.1349411  -0.1233638  )
        19           Si  tau(  19) = (   0.6682390   0.1349374   0.0421528  )
        20           Si  tau(  20) = (   0.7448554   0.2700219  -0.1064071  )
        21           Si  tau(  21) = (   0.7605072   0.2700182   0.0591090  )
        22           Si  tau(  22) = (   0.8873291   0.2700170  -0.1750886  )

   Crystallographic axes

     site n.     atom                  positions (cryst. coord.)
         1           Mg  tau(   1) = (  0.0014132  0.9995290  0.9885569  )
         2           Mg  tau(   2) = (  0.0794132  0.4995132  0.3617061  )
         3           Mg  tau(   3) = (  0.1578494  0.4995101  0.9218800  )
         4           Mg  tau(   4) = (  0.3449757  0.9994932  0.0552255  )
         5           Mg  tau(   5) = (  0.4234088  0.9994897  0.6154086  )
         6           Si  tau(   6) = (  0.0591475  0.9994968  0.6579212  )
         7           Si  tau(   7) = (  0.1940239  0.9995012  0.2465534  )
         8           Si  tau(   8) = (  0.2106687  0.9995152  0.6205414  )
         9           Si  tau(   9) = (  0.2921498  0.4994850  0.3565653  )
        10           Si  tau(  10) = (  0.3087955  0.4994992  0.7305527  )
        11           Si  tau(  11) = (  0.4436699  0.4995052  0.3191833  )
        12           Mg  tau(  12) = (  0.5014126  0.4994759  0.9885565  )
        13           Mg  tau(  13) = (  0.5794127  0.9994897  0.3617057  )
        14           Mg  tau(  14) = (  0.6578491  0.9994932  0.9218798  )
        15           Mg  tau(  15) = (  0.8449760  0.4995102  0.0552257  )
        16           Mg  tau(  16) = (  0.9234092  0.4995132  0.6154089  )
        17           Si  tau(  17) = (  0.5591476  0.4995052  0.6579213  )
        18           Si  tau(  18) = (  0.6940239  0.4994991  0.2465535  )
        19           Si  tau(  19) = (  0.7106687  0.4994852  0.6205414  )
        20           Si  tau(  20) = (  0.7921498  0.9995151  0.3565652  )
        21           Si  tau(  21) = (  0.8087954  0.9995013  0.7305526  )
        22           Si  tau(  22) = (  0.9436698  0.9994968  0.3191832  )

     number of k points=   782  Methfessel-Paxton smearing, width (Ry)=  0.0441
                       cart. coord. in units 2pi/alat
        k(    1) = (   0.0000000   0.0000000   0.0000000), wk =   0.0012821
        k(    2) = (   0.0608313   0.0000000   0.1680570), wk =   0.0025641
        k(    3) = (   0.1216627   0.0000000   0.3361140), wk =   0.0025641
        k(    4) = (   0.1824940   0.0000000   0.5041711), wk =   0.0025641
        k(    5) = (   0.2433254   0.0000000   0.6722281), wk =   0.0025641
        k(    6) = (   0.3041567   0.0000000   0.8402851), wk =   0.0025641
        k(    7) = (   0.3649881   0.0000000   1.0083421), wk =   0.0025641
        k(    8) = (   0.0000000   0.1850803   0.0000000), wk =   0.0025641
        k(    9) = (   0.0608313   0.1850803   0.1680570), wk =   0.0025641
        k(   10) = (   0.1216627   0.1850803   0.3361140), wk =   0.0025641
        k(   11) = (   0.1824940   0.1850803   0.5041711), wk =   0.0025641
        k(   12) = (   0.2433254   0.1850803   0.6722281), wk =   0.0025641
        k(   13) = (   0.3041567   0.1850803   0.8402851), wk =   0.0025641
        k(   14) = (   0.3649881   0.1850803   1.0083421), wk =   0.0025641
        k(   15) = (  -0.3649881   0.1850803  -1.0083421), wk =   0.0025641
        k(   16) = (  -0.3041567   0.1850803  -0.8402851), wk =   0.0025641
        k(   17) = (  -0.2433254   0.1850803  -0.6722281), wk =   0.0025641
        k(   18) = (  -0.1824940   0.1850803  -0.5041711), wk =   0.0025641
        k(   19) = (  -0.1216627   0.1850803  -0.3361140), wk =   0.0025641
        k(   20) = (  -0.0608313   0.1850803  -0.1680570), wk =   0.0025641
        k(   21) = (   0.0000000   0.3701607   0.0000000), wk =   0.0025641
        k(   22) = (   0.0608313   0.3701607   0.1680570), wk =   0.0025641
        k(   23) = (   0.1216627   0.3701607   0.3361140), wk =   0.0025641
        k(   24) = (   0.1824940   0.3701607   0.5041711), wk =   0.0025641
        k(   25) = (   0.2433254   0.3701607   0.6722281), wk =   0.0025641
        k(   26) = (   0.3041567   0.3701607   0.8402851), wk =   0.0025641
        k(   27) = (   0.3649881   0.3701607   1.0083421), wk =   0.0025641
        k(   28) = (  -0.3649881   0.3701607  -1.0083421), wk =   0.0025641
        k(   29) = (  -0.3041567   0.3701607  -0.8402851), wk =   0.0025641
        k(   30) = (  -0.2433254   0.3701607  -0.6722281), wk =   0.0025641
        k(   31) = (  -0.1824940   0.3701607  -0.5041711), wk =   0.0025641
        k(   32) = (  -0.1216627   0.3701607  -0.3361140), wk =   0.0025641
        k(   33) = (  -0.0608313   0.3701607  -0.1680570), wk =   0.0025641
        k(   34) = (   0.0000000   0.5552410   0.0000000), wk =   0.0025641
        k(   35) = (   0.0608313   0.5552410   0.1680570), wk =   0.0025641
        k(   36) = (   0.1216627   0.5552410   0.3361140), wk =   0.0025641
        k(   37) = (   0.1824940   0.5552410   0.5041711), wk =   0.0025641
        k(   38) = (   0.2433254   0.5552410   0.6722281), wk =   0.0025641
        k(   39) = (   0.3041567   0.5552410   0.8402851), wk =   0.0025641
        k(   40) = (   0.3649881   0.5552410   1.0083421), wk =   0.0025641
        k(   41) = (  -0.3649881   0.5552410  -1.0083421), wk =   0.0025641
        k(   42) = (  -0.3041567   0.5552410  -0.8402851), wk =   0.0025641
        k(   43) = (  -0.2433254   0.5552410  -0.6722281), wk =   0.0025641
        k(   44) = (  -0.1824940   0.5552410  -0.5041711), wk =   0.0025641
        k(   45) = (  -0.1216627   0.5552410  -0.3361140), wk =   0.0025641
        k(   46) = (  -0.0608313   0.5552410  -0.1680570), wk =   0.0025641
        k(   47) = (   0.0000000   0.7403214   0.0000000), wk =   0.0025641
        k(   48) = (   0.0608313   0.7403214   0.1680570), wk =   0.0025641
        k(   49) = (   0.1216627   0.7403214   0.3361140), wk =   0.0025641
        k(   50) = (   0.1824940   0.7403214   0.5041711), wk =   0.0025641
        k(   51) = (   0.2433254   0.7403214   0.6722281), wk =   0.0025641
        k(   52) = (   0.3041567   0.7403214   0.8402851), wk =   0.0025641
        k(   53) = (   0.3649881   0.7403214   1.0083421), wk =   0.0025641
        k(   54) = (  -0.3649881   0.7403214  -1.0083421), wk =   0.0025641
        k(   55) = (  -0.3041567   0.7403214  -0.8402851), wk =   0.0025641
        k(   56) = (  -0.2433254   0.7403214  -0.6722281), wk =   0.0025641
        k(   57) = (  -0.1824940   0.7403214  -0.5041711), wk =   0.0025641
        k(   58) = (  -0.1216627   0.7403214  -0.3361140), wk =   0.0025641
        k(   59) = (  -0.0608313   0.7403214  -0.1680570), wk =   0.0025641
        k(   60) = (   0.0000000   0.9254017   0.0000000), wk =   0.0025641
        k(   61) = (   0.0608313   0.9254017   0.1680570), wk =   0.0025641
        k(   62) = (   0.1216627   0.9254017   0.3361140), wk =   0.0025641
        k(   63) = (   0.1824940   0.9254017   0.5041711), wk =   0.0025641
        k(   64) = (   0.2433254   0.9254017   0.6722281), wk =   0.0025641
        k(   65) = (   0.3041567   0.9254017   0.8402851), wk =   0.0025641
        k(   66) = (   0.3649881   0.9254017   1.0083421), wk =   0.0025641
        k(   67) = (  -0.3649881   0.9254017  -1.0083421), wk =   0.0025641
        k(   68) = (  -0.3041567   0.9254017  -0.8402851), wk =   0.0025641
        k(   69) = (  -0.2433254   0.9254017  -0.6722281), wk =   0.0025641
        k(   70) = (  -0.1824940   0.9254017  -0.5041711), wk =   0.0025641
        k(   71) = (  -0.1216627   0.9254017  -0.3361140), wk =   0.0025641
        k(   72) = (  -0.0608313   0.9254017  -0.1680570), wk =   0.0025641
        k(   73) = (   0.0000000   1.1104820   0.0000000), wk =   0.0025641
        k(   74) = (   0.0608313   1.1104820   0.1680570), wk =   0.0025641
        k(   75) = (   0.1216627   1.1104820   0.3361140), wk =   0.0025641
        k(   76) = (   0.1824940   1.1104820   0.5041711), wk =   0.0025641
        k(   77) = (   0.2433254   1.1104820   0.6722281), wk =   0.0025641
        k(   78) = (   0.3041567   1.1104820   0.8402851), wk =   0.0025641
        k(   79) = (   0.3649881   1.1104820   1.0083421), wk =   0.0025641
        k(   80) = (  -0.3649881   1.1104820  -1.0083421), wk =   0.0025641
        k(   81) = (  -0.3041567   1.1104820  -0.8402851), wk =   0.0025641
        k(   82) = (  -0.2433254   1.1104820  -0.6722281), wk =   0.0025641
        k(   83) = (  -0.1824940   1.1104820  -0.5041711), wk =   0.0025641
        k(   84) = (  -0.1216627   1.1104820  -0.3361140), wk =   0.0025641
        k(   85) = (  -0.0608313   1.1104820  -0.1680570), wk =   0.0025641
        k(   86) = (   0.0000000   1.2955624   0.0000000), wk =   0.0025641
        k(   87) = (   0.0608313   1.2955624   0.1680570), wk =   0.0025641
        k(   88) = (   0.1216627   1.2955624   0.3361140), wk =   0.0025641
        k(   89) = (   0.1824940   1.2955624   0.5041711), wk =   0.0025641
        k(   90) = (   0.2433254   1.2955624   0.6722281), wk =   0.0025641
        k(   91) = (   0.3041567   1.2955624   0.8402851), wk =   0.0025641
        k(   92) = (   0.3649881   1.2955624   1.0083421), wk =   0.0025641
        k(   93) = (  -0.3649881   1.2955624  -1.0083421), wk =   0.0025641
        k(   94) = (  -0.3041567   1.2955624  -0.8402851), wk =   0.0025641
        k(   95) = (  -0.2433254   1.2955624  -0.6722281), wk =   0.0025641
        k(   96) = (  -0.1824940   1.2955624  -0.5041711), wk =   0.0025641
        k(   97) = (  -0.1216627   1.2955624  -0.3361140), wk =   0.0025641
        k(   98) = (  -0.0608313   1.2955624  -0.1680570), wk =   0.0025641
        k(   99) = (   0.0000000   1.4806427   0.0000000), wk =   0.0025641
        k(  100) = (   0.0608313   1.4806427   0.1680570), wk =   0.0025641
        k(  101) = (   0.1216627   1.4806427   0.3361140), wk =   0.0025641
        k(  102) = (   0.1824940   1.4806427   0.5041711), wk =   0.0025641
        k(  103) = (   0.2433254   1.4806427   0.6722281), wk =   0.0025641
        k(  104) = (   0.3041567   1.4806427   0.8402851), wk =   0.0025641
        k(  105) = (   0.3649881   1.4806427   1.0083421), wk =   0.0025641
        k(  106) = (  -0.3649881   1.4806427  -1.0083421), wk =   0.0025641
        k(  107) = (  -0.3041567   1.4806427  -0.8402851), wk =   0.0025641
        k(  108) = (  -0.2433254   1.4806427  -0.6722281), wk =   0.0025641
        k(  109) = (  -0.1824940   1.4806427  -0.5041711), wk =   0.0025641
        k(  110) = (  -0.1216627   1.4806427  -0.3361140), wk =   0.0025641
        k(  111) = (  -0.0608313   1.4806427  -0.1680570), wk =   0.0025641
        k(  112) = (   0.0000000   1.6657231   0.0000000), wk =   0.0025641
        k(  113) = (   0.0608313   1.6657231   0.1680570), wk =   0.0025641
        k(  114) = (   0.1216627   1.6657231   0.3361140), wk =   0.0025641
        k(  115) = (   0.1824940   1.6657231   0.5041711), wk =   0.0025641
        k(  116) = (   0.2433254   1.6657231   0.6722281), wk =   0.0025641
        k(  117) = (   0.3041567   1.6657231   0.8402851), wk =   0.0025641
        k(  118) = (   0.3649881   1.6657231   1.0083421), wk =   0.0025641
        k(  119) = (  -0.3649881   1.6657231  -1.0083421), wk =   0.0025641
        k(  120) = (  -0.3041567   1.6657231  -0.8402851), wk =   0.0025641
        k(  121) = (  -0.2433254   1.6657231  -0.6722281), wk =   0.0025641
        k(  122) = (  -0.1824940   1.6657231  -0.5041711), wk =   0.0025641
        k(  123) = (  -0.1216627   1.6657231  -0.3361140), wk =   0.0025641
        k(  124) = (  -0.0608313   1.6657231  -0.1680570), wk =   0.0025641
        k(  125) = (   0.0000000  -1.8508034   0.0000000), wk =   0.0012821
        k(  126) = (   0.0608313  -1.8508034   0.1680570), wk =   0.0025641
        k(  127) = (   0.1216627  -1.8508034   0.3361140), wk =   0.0025641
        k(  128) = (   0.1824940  -1.8508034   0.5041711), wk =   0.0025641
        k(  129) = (   0.2433254  -1.8508034   0.6722281), wk =   0.0025641
        k(  130) = (   0.3041567  -1.8508034   0.8402851), wk =   0.0025641
        k(  131) = (   0.3649881  -1.8508034   1.0083421), wk =   0.0025641
        k(  132) = (   0.1772491   0.0000000   0.0000000), wk =   0.0025641
        k(  133) = (   0.2380805   0.0000000   0.1680570), wk =   0.0025641
        k(  134) = (   0.2989118   0.0000000   0.3361140), wk =   0.0025641
        k(  135) = (   0.3597432   0.0000000   0.5041711), wk =   0.0025641
        k(  136) = (   0.4205745   0.0000000   0.6722281), wk =   0.0025641
        k(  137) = (   0.4814059   0.0000000   0.8402851), wk =   0.0025641
        k(  138) = (   0.5422372   0.0000000   1.0083421), wk =   0.0025641
        k(  139) = (  -0.1877389   0.0000000  -1.0083421), wk =   0.0025641
        k(  140) = (  -0.1269076   0.0000000  -0.8402851), wk =   0.0025641
        k(  141) = (  -0.0660763   0.0000000  -0.6722281), wk =   0.0025641
        k(  142) = (  -0.0052449   0.0000000  -0.5041711), wk =   0.0025641
        k(  143) = (   0.0555864   0.0000000  -0.3361140), wk =   0.0025641
        k(  144) = (   0.1164178   0.0000000  -0.1680570), wk =   0.0025641
        k(  145) = (   0.1772491   0.1850803   0.0000000), wk =   0.0025641
        k(  146) = (   0.2380805   0.1850803   0.1680570), wk =   0.0025641
        k(  147) = (   0.2989118   0.1850803   0.3361140), wk =   0.0025641
        k(  148) = (   0.3597432   0.1850803   0.5041711), wk =   0.0025641
        k(  149) = (   0.4205745   0.1850803   0.6722281), wk =   0.0025641
        k(  150) = (   0.4814059   0.1850803   0.8402851), wk =   0.0025641
        k(  151) = (   0.5422372   0.1850803   1.0083421), wk =   0.0025641
        k(  152) = (  -0.1877389   0.1850803  -1.0083421), wk =   0.0025641
        k(  153) = (  -0.1269076   0.1850803  -0.8402851), wk =   0.0025641
        k(  154) = (  -0.0660763   0.1850803  -0.6722281), wk =   0.0025641
        k(  155) = (  -0.0052449   0.1850803  -0.5041711), wk =   0.0025641
        k(  156) = (   0.0555864   0.1850803  -0.3361140), wk =   0.0025641
        k(  157) = (   0.1164178   0.1850803  -0.1680570), wk =   0.0025641
        k(  158) = (   0.1772491   0.3701607   0.0000000), wk =   0.0025641
        k(  159) = (   0.2380805   0.3701607   0.1680570), wk =   0.0025641
        k(  160) = (   0.2989118   0.3701607   0.3361140), wk =   0.0025641
        k(  161) = (   0.3597432   0.3701607   0.5041711), wk =   0.0025641
        k(  162) = (   0.4205745   0.3701607   0.6722281), wk =   0.0025641
        k(  163) = (   0.4814059   0.3701607   0.8402851), wk =   0.0025641
        k(  164) = (   0.5422372   0.3701607   1.0083421), wk =   0.0025641
        k(  165) = (  -0.1877389   0.3701607  -1.0083421), wk =   0.0025641
        k(  166) = (  -0.1269076   0.3701607  -0.8402851), wk =   0.0025641
        k(  167) = (  -0.0660763   0.3701607  -0.6722281), wk =   0.0025641
        k(  168) = (  -0.0052449   0.3701607  -0.5041711), wk =   0.0025641
        k(  169) = (   0.0555864   0.3701607  -0.3361140), wk =   0.0025641
        k(  170) = (   0.1164178   0.3701607  -0.1680570), wk =   0.0025641
        k(  171) = (   0.1772491   0.5552410   0.0000000), wk =   0.0025641
        k(  172) = (   0.2380805   0.5552410   0.1680570), wk =   0.0025641
        k(  173) = (   0.2989118   0.5552410   0.3361140), wk =   0.0025641
        k(  174) = (   0.3597432   0.5552410   0.5041711), wk =   0.0025641
        k(  175) = (   0.4205745   0.5552410   0.6722281), wk =   0.0025641
        k(  176) = (   0.4814059   0.5552410   0.8402851), wk =   0.0025641
        k(  177) = (   0.5422372   0.5552410   1.0083421), wk =   0.0025641
        k(  178) = (  -0.1877389   0.5552410  -1.0083421), wk =   0.0025641
        k(  179) = (  -0.1269076   0.5552410  -0.8402851), wk =   0.0025641
        k(  180) = (  -0.0660763   0.5552410  -0.6722281), wk =   0.0025641
        k(  181) = (  -0.0052449   0.5552410  -0.5041711), wk =   0.0025641
        k(  182) = (   0.0555864   0.5552410  -0.3361140), wk =   0.0025641
        k(  183) = (   0.1164178   0.5552410  -0.1680570), wk =   0.0025641
        k(  184) = (   0.1772491   0.7403214   0.0000000), wk =   0.0025641
        k(  185) = (   0.2380805   0.7403214   0.1680570), wk =   0.0025641
        k(  186) = (   0.2989118   0.7403214   0.3361140), wk =   0.0025641
        k(  187) = (   0.3597432   0.7403214   0.5041711), wk =   0.0025641
        k(  188) = (   0.4205745   0.7403214   0.6722281), wk =   0.0025641
        k(  189) = (   0.4814059   0.7403214   0.8402851), wk =   0.0025641
        k(  190) = (   0.5422372   0.7403214   1.0083421), wk =   0.0025641
        k(  191) = (  -0.1877389   0.7403214  -1.0083421), wk =   0.0025641
        k(  192) = (  -0.1269076   0.7403214  -0.8402851), wk =   0.0025641
        k(  193) = (  -0.0660763   0.7403214  -0.6722281), wk =   0.0025641
        k(  194) = (  -0.0052449   0.7403214  -0.5041711), wk =   0.0025641
        k(  195) = (   0.0555864   0.7403214  -0.3361140), wk =   0.0025641
        k(  196) = (   0.1164178   0.7403214  -0.1680570), wk =   0.0025641
        k(  197) = (   0.1772491   0.9254017   0.0000000), wk =   0.0025641
        k(  198) = (   0.2380805   0.9254017   0.1680570), wk =   0.0025641
        k(  199) = (   0.2989118   0.9254017   0.3361140), wk =   0.0025641
        k(  200) = (   0.3597432   0.9254017   0.5041711), wk =   0.0025641
        k(  201) = (   0.4205745   0.9254017   0.6722281), wk =   0.0025641
        k(  202) = (   0.4814059   0.9254017   0.8402851), wk =   0.0025641
        k(  203) = (   0.5422372   0.9254017   1.0083421), wk =   0.0025641
        k(  204) = (  -0.1877389   0.9254017  -1.0083421), wk =   0.0025641
        k(  205) = (  -0.1269076   0.9254017  -0.8402851), wk =   0.0025641
        k(  206) = (  -0.0660763   0.9254017  -0.6722281), wk =   0.0025641
        k(  207) = (  -0.0052449   0.9254017  -0.5041711), wk =   0.0025641
        k(  208) = (   0.0555864   0.9254017  -0.3361140), wk =   0.0025641
        k(  209) = (   0.1164178   0.9254017  -0.1680570), wk =   0.0025641
        k(  210) = (   0.1772491   1.1104820   0.0000000), wk =   0.0025641
        k(  211) = (   0.2380805   1.1104820   0.1680570), wk =   0.0025641
        k(  212) = (   0.2989118   1.1104820   0.3361140), wk =   0.0025641
        k(  213) = (   0.3597432   1.1104820   0.5041711), wk =   0.0025641
        k(  214) = (   0.4205745   1.1104820   0.6722281), wk =   0.0025641
        k(  215) = (   0.4814059   1.1104820   0.8402851), wk =   0.0025641
        k(  216) = (   0.5422372   1.1104820   1.0083421), wk =   0.0025641
        k(  217) = (  -0.1877389   1.1104820  -1.0083421), wk =   0.0025641
        k(  218) = (  -0.1269076   1.1104820  -0.8402851), wk =   0.0025641
        k(  219) = (  -0.0660763   1.1104820  -0.6722281), wk =   0.0025641
        k(  220) = (  -0.0052449   1.1104820  -0.5041711), wk =   0.0025641
        k(  221) = (   0.0555864   1.1104820  -0.3361140), wk =   0.0025641
        k(  222) = (   0.1164178   1.1104820  -0.1680570), wk =   0.0025641
        k(  223) = (   0.1772491   1.2955624   0.0000000), wk =   0.0025641
        k(  224) = (   0.2380805   1.2955624   0.1680570), wk =   0.0025641
        k(  225) = (   0.2989118   1.2955624   0.3361140), wk =   0.0025641
        k(  226) = (   0.3597432   1.2955624   0.5041711), wk =   0.0025641
        k(  227) = (   0.4205745   1.2955624   0.6722281), wk =   0.0025641
        k(  228) = (   0.4814059   1.2955624   0.8402851), wk =   0.0025641
        k(  229) = (   0.5422372   1.2955624   1.0083421), wk =   0.0025641
        k(  230) = (  -0.1877389   1.2955624  -1.0083421), wk =   0.0025641
        k(  231) = (  -0.1269076   1.2955624  -0.8402851), wk =   0.0025641
        k(  232) = (  -0.0660763   1.2955624  -0.6722281), wk =   0.0025641
        k(  233) = (  -0.0052449   1.2955624  -0.5041711), wk =   0.0025641
        k(  234) = (   0.0555864   1.2955624  -0.3361140), wk =   0.0025641
        k(  235) = (   0.1164178   1.2955624  -0.1680570), wk =   0.0025641
        k(  236) = (   0.1772491   1.4806427   0.0000000), wk =   0.0025641
        k(  237) = (   0.2380805   1.4806427   0.1680570), wk =   0.0025641
        k(  238) = (   0.2989118   1.4806427   0.3361140), wk =   0.0025641
        k(  239) = (   0.3597432   1.4806427   0.5041711), wk =   0.0025641
        k(  240) = (   0.4205745   1.4806427   0.6722281), wk =   0.0025641
        k(  241) = (   0.4814059   1.4806427   0.8402851), wk =   0.0025641
        k(  242) = (   0.5422372   1.4806427   1.0083421), wk =   0.0025641
        k(  243) = (  -0.1877389   1.4806427  -1.0083421), wk =   0.0025641
        k(  244) = (  -0.1269076   1.4806427  -0.8402851), wk =   0.0025641
        k(  245) = (  -0.0660763   1.4806427  -0.6722281), wk =   0.0025641
        k(  246) = (  -0.0052449   1.4806427  -0.5041711), wk =   0.0025641
        k(  247) = (   0.0555864   1.4806427  -0.3361140), wk =   0.0025641
        k(  248) = (   0.1164178   1.4806427  -0.1680570), wk =   0.0025641
        k(  249) = (   0.1772491   1.6657231   0.0000000), wk =   0.0025641
        k(  250) = (   0.2380805   1.6657231   0.1680570), wk =   0.0025641
        k(  251) = (   0.2989118   1.6657231   0.3361140), wk =   0.0025641
        k(  252) = (   0.3597432   1.6657231   0.5041711), wk =   0.0025641
        k(  253) = (   0.4205745   1.6657231   0.6722281), wk =   0.0025641
        k(  254) = (   0.4814059   1.6657231   0.8402851), wk =   0.0025641
        k(  255) = (   0.5422372   1.6657231   1.0083421), wk =   0.0025641
        k(  256) = (  -0.1877389   1.6657231  -1.0083421), wk =   0.0025641
        k(  257) = (  -0.1269076   1.6657231  -0.8402851), wk =   0.0025641
        k(  258) = (  -0.0660763   1.6657231  -0.6722281), wk =   0.0025641
        k(  259) = (  -0.0052449   1.6657231  -0.5041711), wk =   0.0025641
        k(  260) = (   0.0555864   1.6657231  -0.3361140), wk =   0.0025641
        k(  261) = (   0.1164178   1.6657231  -0.1680570), wk =   0.0025641
        k(  262) = (   0.1772491  -1.8508034   0.0000000), wk =   0.0025641
        k(  263) = (   0.2380805  -1.8508034   0.1680570), wk =   0.0025641
        k(  264) = (   0.2989118  -1.8508034   0.3361140), wk =   0.0025641
        k(  265) = (   0.3597432  -1.8508034   0.5041711), wk =   0.0025641
        k(  266) = (   0.4205745  -1.8508034   0.6722281), wk =   0.0025641
        k(  267) = (   0.4814059  -1.8508034   0.8402851), wk =   0.0025641
        k(  268) = (   0.5422372  -1.8508034   1.0083421), wk =   0.0025641
        k(  269) = (  -0.1877389  -1.8508034  -1.0083421), wk =   0.0025641
        k(  270) = (  -0.1269076  -1.8508034  -0.8402851), wk =   0.0025641
        k(  271) = (  -0.0660763  -1.8508034  -0.6722281), wk =   0.0025641
        k(  272) = (  -0.0052449  -1.8508034  -0.5041711), wk =   0.0025641
        k(  273) = (   0.0555864  -1.8508034  -0.3361140), wk =   0.0025641
        k(  274) = (   0.1164178  -1.8508034  -0.1680570), wk =   0.0025641
        k(  275) = (   0.1772491  -1.6657231   0.0000000), wk =   0.0025641
        k(  276) = (   0.2380805  -1.6657231   0.1680570), wk =   0.0025641
        k(  277) = (   0.2989118  -1.6657231   0.3361140), wk =   0.0025641
        k(  278) = (   0.3597432  -1.6657231   0.5041711), wk =   0.0025641
        k(  279) = (   0.4205745  -1.6657231   0.6722281), wk =   0.0025641
        k(  280) = (   0.4814059  -1.6657231   0.8402851), wk =   0.0025641
        k(  281) = (   0.5422372  -1.6657231   1.0083421), wk =   0.0025641
        k(  282) = (  -0.1877389  -1.6657231  -1.0083421), wk =   0.0025641
        k(  283) = (  -0.1269076  -1.6657231  -0.8402851), wk =   0.0025641
        k(  284) = (  -0.0660763  -1.6657231  -0.6722281), wk =   0.0025641
        k(  285) = (  -0.0052449  -1.6657231  -0.5041711), wk =   0.0025641
        k(  286) = (   0.0555864  -1.6657231  -0.3361140), wk =   0.0025641
        k(  287) = (   0.1164178  -1.6657231  -0.1680570), wk =   0.0025641
        k(  288) = (   0.1772491  -1.4806427   0.0000000), wk =   0.0025641
        k(  289) = (   0.2380805  -1.4806427   0.1680570), wk =   0.0025641
        k(  290) = (   0.2989118  -1.4806427   0.3361140), wk =   0.0025641
        k(  291) = (   0.3597432  -1.4806427   0.5041711), wk =   0.0025641
        k(  292) = (   0.4205745  -1.4806427   0.6722281), wk =   0.0025641
        k(  293) = (   0.4814059  -1.4806427   0.8402851), wk =   0.0025641
        k(  294) = (   0.5422372  -1.4806427   1.0083421), wk =   0.0025641
        k(  295) = (  -0.1877389  -1.4806427  -1.0083421), wk =   0.0025641
        k(  296) = (  -0.1269076  -1.4806427  -0.8402851), wk =   0.0025641
        k(  297) = (  -0.0660763  -1.4806427  -0.6722281), wk =   0.0025641
        k(  298) = (  -0.0052449  -1.4806427  -0.5041711), wk =   0.0025641
        k(  299) = (   0.0555864  -1.4806427  -0.3361140), wk =   0.0025641
        k(  300) = (   0.1164178  -1.4806427  -0.1680570), wk =   0.0025641
        k(  301) = (   0.1772491  -1.2955624   0.0000000), wk =   0.0025641
        k(  302) = (   0.2380805  -1.2955624   0.1680570), wk =   0.0025641
        k(  303) = (   0.2989118  -1.2955624   0.3361140), wk =   0.0025641
        k(  304) = (   0.3597432  -1.2955624   0.5041711), wk =   0.0025641
        k(  305) = (   0.4205745  -1.2955624   0.6722281), wk =   0.0025641
        k(  306) = (   0.4814059  -1.2955624   0.8402851), wk =   0.0025641
        k(  307) = (   0.5422372  -1.2955624   1.0083421), wk =   0.0025641
        k(  308) = (  -0.1877389  -1.2955624  -1.0083421), wk =   0.0025641
        k(  309) = (  -0.1269076  -1.2955624  -0.8402851), wk =   0.0025641
        k(  310) = (  -0.0660763  -1.2955624  -0.6722281), wk =   0.0025641
        k(  311) = (  -0.0052449  -1.2955624  -0.5041711), wk =   0.0025641
        k(  312) = (   0.0555864  -1.2955624  -0.3361140), wk =   0.0025641
        k(  313) = (   0.1164178  -1.2955624  -0.1680570), wk =   0.0025641
        k(  314) = (   0.1772491  -1.1104820   0.0000000), wk =   0.0025641
        k(  315) = (   0.2380805  -1.1104820   0.1680570), wk =   0.0025641
        k(  316) = (   0.2989118  -1.1104820   0.3361140), wk =   0.0025641
        k(  317) = (   0.3597432  -1.1104820   0.5041711), wk =   0.0025641
        k(  318) = (   0.4205745  -1.1104820   0.6722281), wk =   0.0025641
        k(  319) = (   0.4814059  -1.1104820   0.8402851), wk =   0.0025641
        k(  320) = (   0.5422372  -1.1104820   1.0083421), wk =   0.0025641
        k(  321) = (  -0.1877389  -1.1104820  -1.0083421), wk =   0.0025641
        k(  322) = (  -0.1269076  -1.1104820  -0.8402851), wk =   0.0025641
        k(  323) = (  -0.0660763  -1.1104820  -0.6722281), wk =   0.0025641
        k(  324) = (  -0.0052449  -1.1104820  -0.5041711), wk =   0.0025641
        k(  325) = (   0.0555864  -1.1104820  -0.3361140), wk =   0.0025641
        k(  326) = (   0.1164178  -1.1104820  -0.1680570), wk =   0.0025641
        k(  327) = (   0.1772491  -0.9254017   0.0000000), wk =   0.0025641
        k(  328) = (   0.2380805  -0.9254017   0.1680570), wk =   0.0025641
        k(  329) = (   0.2989118  -0.9254017   0.3361140), wk =   0.0025641
        k(  330) = (   0.3597432  -0.9254017   0.5041711), wk =   0.0025641
        k(  331) = (   0.4205745  -0.9254017   0.6722281), wk =   0.0025641
        k(  332) = (   0.4814059  -0.9254017   0.8402851), wk =   0.0025641
        k(  333) = (   0.5422372  -0.9254017   1.0083421), wk =   0.0025641
        k(  334) = (  -0.1877389  -0.9254017  -1.0083421), wk =   0.0025641
        k(  335) = (  -0.1269076  -0.9254017  -0.8402851), wk =   0.0025641
        k(  336) = (  -0.0660763  -0.9254017  -0.6722281), wk =   0.0025641
        k(  337) = (  -0.0052449  -0.9254017  -0.5041711), wk =   0.0025641
        k(  338) = (   0.0555864  -0.9254017  -0.3361140), wk =   0.0025641
        k(  339) = (   0.1164178  -0.9254017  -0.1680570), wk =   0.0025641
        k(  340) = (   0.1772491  -0.7403214   0.0000000), wk =   0.0025641
        k(  341) = (   0.2380805  -0.7403214   0.1680570), wk =   0.0025641
        k(  342) = (   0.2989118  -0.7403214   0.3361140), wk =   0.0025641
        k(  343) = (   0.3597432  -0.7403214   0.5041711), wk =   0.0025641
        k(  344) = (   0.4205745  -0.7403214   0.6722281), wk =   0.0025641
        k(  345) = (   0.4814059  -0.7403214   0.8402851), wk =   0.0025641
        k(  346) = (   0.5422372  -0.7403214   1.0083421), wk =   0.0025641
        k(  347) = (  -0.1877389  -0.7403214  -1.0083421), wk =   0.0025641
        k(  348) = (  -0.1269076  -0.7403214  -0.8402851), wk =   0.0025641
        k(  349) = (  -0.0660763  -0.7403214  -0.6722281), wk =   0.0025641
        k(  350) = (  -0.0052449  -0.7403214  -0.5041711), wk =   0.0025641
        k(  351) = (   0.0555864  -0.7403214  -0.3361140), wk =   0.0025641
        k(  352) = (   0.1164178  -0.7403214  -0.1680570), wk =   0.0025641
        k(  353) = (   0.1772491  -0.5552410   0.0000000), wk =   0.0025641
        k(  354) = (   0.2380805  -0.5552410   0.1680570), wk =   0.0025641
        k(  355) = (   0.2989118  -0.5552410   0.3361140), wk =   0.0025641
        k(  356) = (   0.3597432  -0.5552410   0.5041711), wk =   0.0025641
        k(  357) = (   0.4205745  -0.5552410   0.6722281), wk =   0.0025641
        k(  358) = (   0.4814059  -0.5552410   0.8402851), wk =   0.0025641
        k(  359) = (   0.5422372  -0.5552410   1.0083421), wk =   0.0025641
        k(  360) = (  -0.1877389  -0.5552410  -1.0083421), wk =   0.0025641
        k(  361) = (  -0.1269076  -0.5552410  -0.8402851), wk =   0.0025641
        k(  362) = (  -0.0660763  -0.5552410  -0.6722281), wk =   0.0025641
        k(  363) = (  -0.0052449  -0.5552410  -0.5041711), wk =   0.0025641
        k(  364) = (   0.0555864  -0.5552410  -0.3361140), wk =   0.0025641
        k(  365) = (   0.1164178  -0.5552410  -0.1680570), wk =   0.0025641
        k(  366) = (   0.1772491  -0.3701607   0.0000000), wk =   0.0025641
        k(  367) = (   0.2380805  -0.3701607   0.1680570), wk =   0.0025641
        k(  368) = (   0.2989118  -0.3701607   0.3361140), wk =   0.0025641
        k(  369) = (   0.3597432  -0.3701607   0.5041711), wk =   0.0025641
        k(  370) = (   0.4205745  -0.3701607   0.6722281), wk =   0.0025641
        k(  371) = (   0.4814059  -0.3701607   0.8402851), wk =   0.0025641
        k(  372) = (   0.5422372  -0.3701607   1.0083421), wk =   0.0025641
        k(  373) = (  -0.1877389  -0.3701607  -1.0083421), wk =   0.0025641
        k(  374) = (  -0.1269076  -0.3701607  -0.8402851), wk =   0.0025641
        k(  375) = (  -0.0660763  -0.3701607  -0.6722281), wk =   0.0025641
        k(  376) = (  -0.0052449  -0.3701607  -0.5041711), wk =   0.0025641
        k(  377) = (   0.0555864  -0.3701607  -0.3361140), wk =   0.0025641
        k(  378) = (   0.1164178  -0.3701607  -0.1680570), wk =   0.0025641
        k(  379) = (   0.1772491  -0.1850803   0.0000000), wk =   0.0025641
        k(  380) = (   0.2380805  -0.1850803   0.1680570), wk =   0.0025641
        k(  381) = (   0.2989118  -0.1850803   0.3361140), wk =   0.0025641
        k(  382) = (   0.3597432  -0.1850803   0.5041711), wk =   0.0025641
        k(  383) = (   0.4205745  -0.1850803   0.6722281), wk =   0.0025641
        k(  384) = (   0.4814059  -0.1850803   0.8402851), wk =   0.0025641
        k(  385) = (   0.5422372  -0.1850803   1.0083421), wk =   0.0025641
        k(  386) = (  -0.1877389  -0.1850803  -1.0083421), wk =   0.0025641
        k(  387) = (  -0.1269076  -0.1850803  -0.8402851), wk =   0.0025641
        k(  388) = (  -0.0660763  -0.1850803  -0.6722281), wk =   0.0025641
        k(  389) = (  -0.0052449  -0.1850803  -0.5041711), wk =   0.0025641
        k(  390) = (   0.0555864  -0.1850803  -0.3361140), wk =   0.0025641
        k(  391) = (   0.1164178  -0.1850803  -0.1680570), wk =   0.0025641
        k(  392) = (   0.3544983   0.0000000   0.0000000), wk =   0.0025641
        k(  393) = (   0.4153296   0.0000000   0.1680570), wk =   0.0025641
        k(  394) = (   0.4761610   0.0000000   0.3361140), wk =   0.0025641
        k(  395) = (   0.5369923   0.0000000   0.5041711), wk =   0.0025641
        k(  396) = (   0.5978237   0.0000000   0.6722281), wk =   0.0025641
        k(  397) = (   0.6586550   0.0000000   0.8402851), wk =   0.0025641
        k(  398) = (   0.7194863   0.0000000   1.0083421), wk =   0.0025641
        k(  399) = (  -0.0104898   0.0000000  -1.0083421), wk =   0.0025641
        k(  400) = (   0.0503415   0.0000000  -0.8402851), wk =   0.0025641
        k(  401) = (   0.1111729   0.0000000  -0.6722281), wk =   0.0025641
        k(  402) = (   0.1720042   0.0000000  -0.5041711), wk =   0.0025641
        k(  403) = (   0.2328356   0.0000000  -0.3361140), wk =   0.0025641
        k(  404) = (   0.2936669   0.0000000  -0.1680570), wk =   0.0025641
        k(  405) = (   0.3544983   0.1850803   0.0000000), wk =   0.0025641
        k(  406) = (   0.4153296   0.1850803   0.1680570), wk =   0.0025641
        k(  407) = (   0.4761610   0.1850803   0.3361140), wk =   0.0025641
        k(  408) = (   0.5369923   0.1850803   0.5041711), wk =   0.0025641
        k(  409) = (   0.5978237   0.1850803   0.6722281), wk =   0.0025641
        k(  410) = (   0.6586550   0.1850803   0.8402851), wk =   0.0025641
        k(  411) = (   0.7194863   0.1850803   1.0083421), wk =   0.0025641
        k(  412) = (  -0.0104898   0.1850803  -1.0083421), wk =   0.0025641
        k(  413) = (   0.0503415   0.1850803  -0.8402851), wk =   0.0025641
        k(  414) = (   0.1111729   0.1850803  -0.6722281), wk =   0.0025641
        k(  415) = (   0.1720042   0.1850803  -0.5041711), wk =   0.0025641
        k(  416) = (   0.2328356   0.1850803  -0.3361140), wk =   0.0025641
        k(  417) = (   0.2936669   0.1850803  -0.1680570), wk =   0.0025641
        k(  418) = (   0.3544983   0.3701607   0.0000000), wk =   0.0025641
        k(  419) = (   0.4153296   0.3701607   0.1680570), wk =   0.0025641
        k(  420) = (   0.4761610   0.3701607   0.3361140), wk =   0.0025641
        k(  421) = (   0.5369923   0.3701607   0.5041711), wk =   0.0025641
        k(  422) = (   0.5978237   0.3701607   0.6722281), wk =   0.0025641
        k(  423) = (   0.6586550   0.3701607   0.8402851), wk =   0.0025641
        k(  424) = (   0.7194863   0.3701607   1.0083421), wk =   0.0025641
        k(  425) = (  -0.0104898   0.3701607  -1.0083421), wk =   0.0025641
        k(  426) = (   0.0503415   0.3701607  -0.8402851), wk =   0.0025641
        k(  427) = (   0.1111729   0.3701607  -0.6722281), wk =   0.0025641
        k(  428) = (   0.1720042   0.3701607  -0.5041711), wk =   0.0025641
        k(  429) = (   0.2328356   0.3701607  -0.3361140), wk =   0.0025641
        k(  430) = (   0.2936669   0.3701607  -0.1680570), wk =   0.0025641
        k(  431) = (   0.3544983   0.5552410   0.0000000), wk =   0.0025641
        k(  432) = (   0.4153296   0.5552410   0.1680570), wk =   0.0025641
        k(  433) = (   0.4761610   0.5552410   0.3361140), wk =   0.0025641
        k(  434) = (   0.5369923   0.5552410   0.5041711), wk =   0.0025641
        k(  435) = (   0.5978237   0.5552410   0.6722281), wk =   0.0025641
        k(  436) = (   0.6586550   0.5552410   0.8402851), wk =   0.0025641
        k(  437) = (   0.7194863   0.5552410   1.0083421), wk =   0.0025641
        k(  438) = (  -0.0104898   0.5552410  -1.0083421), wk =   0.0025641
        k(  439) = (   0.0503415   0.5552410  -0.8402851), wk =   0.0025641
        k(  440) = (   0.1111729   0.5552410  -0.6722281), wk =   0.0025641
        k(  441) = (   0.1720042   0.5552410  -0.5041711), wk =   0.0025641
        k(  442) = (   0.2328356   0.5552410  -0.3361140), wk =   0.0025641
        k(  443) = (   0.2936669   0.5552410  -0.1680570), wk =   0.0025641
        k(  444) = (   0.3544983   0.7403214   0.0000000), wk =   0.0025641
        k(  445) = (   0.4153296   0.7403214   0.1680570), wk =   0.0025641
        k(  446) = (   0.4761610   0.7403214   0.3361140), wk =   0.0025641
        k(  447) = (   0.5369923   0.7403214   0.5041711), wk =   0.0025641
        k(  448) = (   0.5978237   0.7403214   0.6722281), wk =   0.0025641
        k(  449) = (   0.6586550   0.7403214   0.8402851), wk =   0.0025641
        k(  450) = (   0.7194863   0.7403214   1.0083421), wk =   0.0025641
        k(  451) = (  -0.0104898   0.7403214  -1.0083421), wk =   0.0025641
        k(  452) = (   0.0503415   0.7403214  -0.8402851), wk =   0.0025641
        k(  453) = (   0.1111729   0.7403214  -0.6722281), wk =   0.0025641
        k(  454) = (   0.1720042   0.7403214  -0.5041711), wk =   0.0025641
        k(  455) = (   0.2328356   0.7403214  -0.3361140), wk =   0.0025641
        k(  456) = (   0.2936669   0.7403214  -0.1680570), wk =   0.0025641
        k(  457) = (   0.3544983   0.9254017   0.0000000), wk =   0.0025641
        k(  458) = (   0.4153296   0.9254017   0.1680570), wk =   0.0025641
        k(  459) = (   0.4761610   0.9254017   0.3361140), wk =   0.0025641
        k(  460) = (   0.5369923   0.9254017   0.5041711), wk =   0.0025641
        k(  461) = (   0.5978237   0.9254017   0.6722281), wk =   0.0025641
        k(  462) = (   0.6586550   0.9254017   0.8402851), wk =   0.0025641
        k(  463) = (   0.7194863   0.9254017   1.0083421), wk =   0.0025641
        k(  464) = (  -0.0104898   0.9254017  -1.0083421), wk =   0.0025641
        k(  465) = (   0.0503415   0.9254017  -0.8402851), wk =   0.0025641
        k(  466) = (   0.1111729   0.9254017  -0.6722281), wk =   0.0025641
        k(  467) = (   0.1720042   0.9254017  -0.5041711), wk =   0.0025641
        k(  468) = (   0.2328356   0.9254017  -0.3361140), wk =   0.0025641
        k(  469) = (   0.2936669   0.9254017  -0.1680570), wk =   0.0025641
        k(  470) = (   0.3544983   1.1104820   0.0000000), wk =   0.0025641
        k(  471) = (   0.4153296   1.1104820   0.1680570), wk =   0.0025641
        k(  472) = (   0.4761610   1.1104820   0.3361140), wk =   0.0025641
        k(  473) = (   0.5369923   1.1104820   0.5041711), wk =   0.0025641
        k(  474) = (   0.5978237   1.1104820   0.6722281), wk =   0.0025641
        k(  475) = (   0.6586550   1.1104820   0.8402851), wk =   0.0025641
        k(  476) = (   0.7194863   1.1104820   1.0083421), wk =   0.0025641
        k(  477) = (  -0.0104898   1.1104820  -1.0083421), wk =   0.0025641
        k(  478) = (   0.0503415   1.1104820  -0.8402851), wk =   0.0025641
        k(  479) = (   0.1111729   1.1104820  -0.6722281), wk =   0.0025641
        k(  480) = (   0.1720042   1.1104820  -0.5041711), wk =   0.0025641
        k(  481) = (   0.2328356   1.1104820  -0.3361140), wk =   0.0025641
        k(  482) = (   0.2936669   1.1104820  -0.1680570), wk =   0.0025641
        k(  483) = (   0.3544983   1.2955624   0.0000000), wk =   0.0025641
        k(  484) = (   0.4153296   1.2955624   0.1680570), wk =   0.0025641
        k(  485) = (   0.4761610   1.2955624   0.3361140), wk =   0.0025641
        k(  486) = (   0.5369923   1.2955624   0.5041711), wk =   0.0025641
        k(  487) = (   0.5978237   1.2955624   0.6722281), wk =   0.0025641
        k(  488) = (   0.6586550   1.2955624   0.8402851), wk =   0.0025641
        k(  489) = (   0.7194863   1.2955624   1.0083421), wk =   0.0025641
        k(  490) = (  -0.0104898   1.2955624  -1.0083421), wk =   0.0025641
        k(  491) = (   0.0503415   1.2955624  -0.8402851), wk =   0.0025641
        k(  492) = (   0.1111729   1.2955624  -0.6722281), wk =   0.0025641
        k(  493) = (   0.1720042   1.2955624  -0.5041711), wk =   0.0025641
        k(  494) = (   0.2328356   1.2955624  -0.3361140), wk =   0.0025641
        k(  495) = (   0.2936669   1.2955624  -0.1680570), wk =   0.0025641
        k(  496) = (   0.3544983   1.4806427   0.0000000), wk =   0.0025641
        k(  497) = (   0.4153296   1.4806427   0.1680570), wk =   0.0025641
        k(  498) = (   0.4761610   1.4806427   0.3361140), wk =   0.0025641
        k(  499) = (   0.5369923   1.4806427   0.5041711), wk =   0.0025641
        k(  500) = (   0.5978237   1.4806427   0.6722281), wk =   0.0025641
        k(  501) = (   0.6586550   1.4806427   0.8402851), wk =   0.0025641
        k(  502) = (   0.7194863   1.4806427   1.0083421), wk =   0.0025641
        k(  503) = (  -0.0104898   1.4806427  -1.0083421), wk =   0.0025641
        k(  504) = (   0.0503415   1.4806427  -0.8402851), wk =   0.0025641
        k(  505) = (   0.1111729   1.4806427  -0.6722281), wk =   0.0025641
        k(  506) = (   0.1720042   1.4806427  -0.5041711), wk =   0.0025641
        k(  507) = (   0.2328356   1.4806427  -0.3361140), wk =   0.0025641
        k(  508) = (   0.2936669   1.4806427  -0.1680570), wk =   0.0025641
        k(  509) = (   0.3544983   1.6657231   0.0000000), wk =   0.0025641
        k(  510) = (   0.4153296   1.6657231   0.1680570), wk =   0.0025641
        k(  511) = (   0.4761610   1.6657231   0.3361140), wk =   0.0025641
        k(  512) = (   0.5369923   1.6657231   0.5041711), wk =   0.0025641
        k(  513) = (   0.5978237   1.6657231   0.6722281), wk =   0.0025641
        k(  514) = (   0.6586550   1.6657231   0.8402851), wk =   0.0025641
        k(  515) = (   0.7194863   1.6657231   1.0083421), wk =   0.0025641
        k(  516) = (  -0.0104898   1.6657231  -1.0083421), wk =   0.0025641
        k(  517) = (   0.0503415   1.6657231  -0.8402851), wk =   0.0025641
        k(  518) = (   0.1111729   1.6657231  -0.6722281), wk =   0.0025641
        k(  519) = (   0.1720042   1.6657231  -0.5041711), wk =   0.0025641
        k(  520) = (   0.2328356   1.6657231  -0.3361140), wk =   0.0025641
        k(  521) = (   0.2936669   1.6657231  -0.1680570), wk =   0.0025641
        k(  522) = (   0.3544983  -1.8508034   0.0000000), wk =   0.0025641
        k(  523) = (   0.4153296  -1.8508034   0.1680570), wk =   0.0025641
        k(  524) = (   0.4761610  -1.8508034   0.3361140), wk =   0.0025641
        k(  525) = (   0.5369923  -1.8508034   0.5041711), wk =   0.0025641
        k(  526) = (   0.5978237  -1.8508034   0.6722281), wk =   0.0025641
        k(  527) = (   0.6586550  -1.8508034   0.8402851), wk =   0.0025641
        k(  528) = (   0.7194863  -1.8508034   1.0083421), wk =   0.0025641
        k(  529) = (  -0.0104898  -1.8508034  -1.0083421), wk =   0.0025641
        k(  530) = (   0.0503415  -1.8508034  -0.8402851), wk =   0.0025641
        k(  531) = (   0.1111729  -1.8508034  -0.6722281), wk =   0.0025641
        k(  532) = (   0.1720042  -1.8508034  -0.5041711), wk =   0.0025641
        k(  533) = (   0.2328356  -1.8508034  -0.3361140), wk =   0.0025641
        k(  534) = (   0.2936669  -1.8508034  -0.1680570), wk =   0.0025641
        k(  535) = (   0.3544983  -1.6657231   0.0000000), wk =   0.0025641
        k(  536) = (   0.4153296  -1.6657231   0.1680570), wk =   0.0025641
        k(  537) = (   0.4761610  -1.6657231   0.3361140), wk =   0.0025641
        k(  538) = (   0.5369923  -1.6657231   0.5041711), wk =   0.0025641
        k(  539) = (   0.5978237  -1.6657231   0.6722281), wk =   0.0025641
        k(  540) = (   0.6586550  -1.6657231   0.8402851), wk =   0.0025641
        k(  541) = (   0.7194863  -1.6657231   1.0083421), wk =   0.0025641
        k(  542) = (  -0.0104898  -1.6657231  -1.0083421), wk =   0.0025641
        k(  543) = (   0.0503415  -1.6657231  -0.8402851), wk =   0.0025641
        k(  544) = (   0.1111729  -1.6657231  -0.6722281), wk =   0.0025641
        k(  545) = (   0.1720042  -1.6657231  -0.5041711), wk =   0.0025641
        k(  546) = (   0.2328356  -1.6657231  -0.3361140), wk =   0.0025641
        k(  547) = (   0.2936669  -1.6657231  -0.1680570), wk =   0.0025641
        k(  548) = (   0.3544983  -1.4806427   0.0000000), wk =   0.0025641
        k(  549) = (   0.4153296  -1.4806427   0.1680570), wk =   0.0025641
        k(  550) = (   0.4761610  -1.4806427   0.3361140), wk =   0.0025641
        k(  551) = (   0.5369923  -1.4806427   0.5041711), wk =   0.0025641
        k(  552) = (   0.5978237  -1.4806427   0.6722281), wk =   0.0025641
        k(  553) = (   0.6586550  -1.4806427   0.8402851), wk =   0.0025641
        k(  554) = (   0.7194863  -1.4806427   1.0083421), wk =   0.0025641
        k(  555) = (  -0.0104898  -1.4806427  -1.0083421), wk =   0.0025641
        k(  556) = (   0.0503415  -1.4806427  -0.8402851), wk =   0.0025641
        k(  557) = (   0.1111729  -1.4806427  -0.6722281), wk =   0.0025641
        k(  558) = (   0.1720042  -1.4806427  -0.5041711), wk =   0.0025641
        k(  559) = (   0.2328356  -1.4806427  -0.3361140), wk =   0.0025641
        k(  560) = (   0.2936669  -1.4806427  -0.1680570), wk =   0.0025641
        k(  561) = (   0.3544983  -1.2955624   0.0000000), wk =   0.0025641
        k(  562) = (   0.4153296  -1.2955624   0.1680570), wk =   0.0025641
        k(  563) = (   0.4761610  -1.2955624   0.3361140), wk =   0.0025641
        k(  564) = (   0.5369923  -1.2955624   0.5041711), wk =   0.0025641
        k(  565) = (   0.5978237  -1.2955624   0.6722281), wk =   0.0025641
        k(  566) = (   0.6586550  -1.2955624   0.8402851), wk =   0.0025641
        k(  567) = (   0.7194863  -1.2955624   1.0083421), wk =   0.0025641
        k(  568) = (  -0.0104898  -1.2955624  -1.0083421), wk =   0.0025641
        k(  569) = (   0.0503415  -1.2955624  -0.8402851), wk =   0.0025641
        k(  570) = (   0.1111729  -1.2955624  -0.6722281), wk =   0.0025641
        k(  571) = (   0.1720042  -1.2955624  -0.5041711), wk =   0.0025641
        k(  572) = (   0.2328356  -1.2955624  -0.3361140), wk =   0.0025641
        k(  573) = (   0.2936669  -1.2955624  -0.1680570), wk =   0.0025641
        k(  574) = (   0.3544983  -1.1104820   0.0000000), wk =   0.0025641
        k(  575) = (   0.4153296  -1.1104820   0.1680570), wk =   0.0025641
        k(  576) = (   0.4761610  -1.1104820   0.3361140), wk =   0.0025641
        k(  577) = (   0.5369923  -1.1104820   0.5041711), wk =   0.0025641
        k(  578) = (   0.5978237  -1.1104820   0.6722281), wk =   0.0025641
        k(  579) = (   0.6586550  -1.1104820   0.8402851), wk =   0.0025641
        k(  580) = (   0.7194863  -1.1104820   1.0083421), wk =   0.0025641
        k(  581) = (  -0.0104898  -1.1104820  -1.0083421), wk =   0.0025641
        k(  582) = (   0.0503415  -1.1104820  -0.8402851), wk =   0.0025641
        k(  583) = (   0.1111729  -1.1104820  -0.6722281), wk =   0.0025641
        k(  584) = (   0.1720042  -1.1104820  -0.5041711), wk =   0.0025641
        k(  585) = (   0.2328356  -1.1104820  -0.3361140), wk =   0.0025641
        k(  586) = (   0.2936669  -1.1104820  -0.1680570), wk =   0.0025641
        k(  587) = (   0.3544983  -0.9254017   0.0000000), wk =   0.0025641
        k(  588) = (   0.4153296  -0.9254017   0.1680570), wk =   0.0025641
        k(  589) = (   0.4761610  -0.9254017   0.3361140), wk =   0.0025641
        k(  590) = (   0.5369923  -0.9254017   0.5041711), wk =   0.0025641
        k(  591) = (   0.5978237  -0.9254017   0.6722281), wk =   0.0025641
        k(  592) = (   0.6586550  -0.9254017   0.8402851), wk =   0.0025641
        k(  593) = (   0.7194863  -0.9254017   1.0083421), wk =   0.0025641
        k(  594) = (  -0.0104898  -0.9254017  -1.0083421), wk =   0.0025641
        k(  595) = (   0.0503415  -0.9254017  -0.8402851), wk =   0.0025641
        k(  596) = (   0.1111729  -0.9254017  -0.6722281), wk =   0.0025641
        k(  597) = (   0.1720042  -0.9254017  -0.5041711), wk =   0.0025641
        k(  598) = (   0.2328356  -0.9254017  -0.3361140), wk =   0.0025641
        k(  599) = (   0.2936669  -0.9254017  -0.1680570), wk =   0.0025641
        k(  600) = (   0.3544983  -0.7403214   0.0000000), wk =   0.0025641
        k(  601) = (   0.4153296  -0.7403214   0.1680570), wk =   0.0025641
        k(  602) = (   0.4761610  -0.7403214   0.3361140), wk =   0.0025641
        k(  603) = (   0.5369923  -0.7403214   0.5041711), wk =   0.0025641
        k(  604) = (   0.5978237  -0.7403214   0.6722281), wk =   0.0025641
        k(  605) = (   0.6586550  -0.7403214   0.8402851), wk =   0.0025641
        k(  606) = (   0.7194863  -0.7403214   1.0083421), wk =   0.0025641
        k(  607) = (  -0.0104898  -0.7403214  -1.0083421), wk =   0.0025641
        k(  608) = (   0.0503415  -0.7403214  -0.8402851), wk =   0.0025641
        k(  609) = (   0.1111729  -0.7403214  -0.6722281), wk =   0.0025641
        k(  610) = (   0.1720042  -0.7403214  -0.5041711), wk =   0.0025641
        k(  611) = (   0.2328356  -0.7403214  -0.3361140), wk =   0.0025641
        k(  612) = (   0.2936669  -0.7403214  -0.1680570), wk =   0.0025641
        k(  613) = (   0.3544983  -0.5552410   0.0000000), wk =   0.0025641
        k(  614) = (   0.4153296  -0.5552410   0.1680570), wk =   0.0025641
        k(  615) = (   0.4761610  -0.5552410   0.3361140), wk =   0.0025641
        k(  616) = (   0.5369923  -0.5552410   0.5041711), wk =   0.0025641
        k(  617) = (   0.5978237  -0.5552410   0.6722281), wk =   0.0025641
        k(  618) = (   0.6586550  -0.5552410   0.8402851), wk =   0.0025641
        k(  619) = (   0.7194863  -0.5552410   1.0083421), wk =   0.0025641
        k(  620) = (  -0.0104898  -0.5552410  -1.0083421), wk =   0.0025641
        k(  621) = (   0.0503415  -0.5552410  -0.8402851), wk =   0.0025641
        k(  622) = (   0.1111729  -0.5552410  -0.6722281), wk =   0.0025641
        k(  623) = (   0.1720042  -0.5552410  -0.5041711), wk =   0.0025641
        k(  624) = (   0.2328356  -0.5552410  -0.3361140), wk =   0.0025641
        k(  625) = (   0.2936669  -0.5552410  -0.1680570), wk =   0.0025641
        k(  626) = (   0.3544983  -0.3701607   0.0000000), wk =   0.0025641
        k(  627) = (   0.4153296  -0.3701607   0.1680570), wk =   0.0025641
        k(  628) = (   0.4761610  -0.3701607   0.3361140), wk =   0.0025641
        k(  629) = (   0.5369923  -0.3701607   0.5041711), wk =   0.0025641
        k(  630) = (   0.5978237  -0.3701607   0.6722281), wk =   0.0025641
        k(  631) = (   0.6586550  -0.3701607   0.8402851), wk =   0.0025641
        k(  632) = (   0.7194863  -0.3701607   1.0083421), wk =   0.0025641
        k(  633) = (  -0.0104898  -0.3701607  -1.0083421), wk =   0.0025641
        k(  634) = (   0.0503415  -0.3701607  -0.8402851), wk =   0.0025641
        k(  635) = (   0.1111729  -0.3701607  -0.6722281), wk =   0.0025641
        k(  636) = (   0.1720042  -0.3701607  -0.5041711), wk =   0.0025641
        k(  637) = (   0.2328356  -0.3701607  -0.3361140), wk =   0.0025641
        k(  638) = (   0.2936669  -0.3701607  -0.1680570), wk =   0.0025641
        k(  639) = (   0.3544983  -0.1850803   0.0000000), wk =   0.0025641
        k(  640) = (   0.4153296  -0.1850803   0.1680570), wk =   0.0025641
        k(  641) = (   0.4761610  -0.1850803   0.3361140), wk =   0.0025641
        k(  642) = (   0.5369923  -0.1850803   0.5041711), wk =   0.0025641
        k(  643) = (   0.5978237  -0.1850803   0.6722281), wk =   0.0025641
        k(  644) = (   0.6586550  -0.1850803   0.8402851), wk =   0.0025641
        k(  645) = (   0.7194863  -0.1850803   1.0083421), wk =   0.0025641
        k(  646) = (  -0.0104898  -0.1850803  -1.0083421), wk =   0.0025641
        k(  647) = (   0.0503415  -0.1850803  -0.8402851), wk =   0.0025641
        k(  648) = (   0.1111729  -0.1850803  -0.6722281), wk =   0.0025641
        k(  649) = (   0.1720042  -0.1850803  -0.5041711), wk =   0.0025641
        k(  650) = (   0.2328356  -0.1850803  -0.3361140), wk =   0.0025641
        k(  651) = (   0.2936669  -0.1850803  -0.1680570), wk =   0.0025641
        k(  652) = (  -0.5317474   0.0000000   0.0000000), wk =   0.0012821
        k(  653) = (  -0.4709161   0.0000000   0.1680570), wk =   0.0025641
        k(  654) = (  -0.4100847   0.0000000   0.3361140), wk =   0.0025641
        k(  655) = (  -0.3492534   0.0000000   0.5041711), wk =   0.0025641
        k(  656) = (  -0.2884220   0.0000000   0.6722281), wk =   0.0025641
        k(  657) = (  -0.2275907   0.0000000   0.8402851), wk =   0.0025641
        k(  658) = (  -0.1667593   0.0000000   1.0083421), wk =   0.0025641
        k(  659) = (  -0.5317474   0.1850803   0.0000000), wk =   0.0025641
        k(  660) = (  -0.4709161   0.1850803   0.1680570), wk =   0.0025641
        k(  661) = (  -0.4100847   0.1850803   0.3361140), wk =   0.0025641
        k(  662) = (  -0.3492534   0.1850803   0.5041711), wk =   0.0025641
        k(  663) = (  -0.2884220   0.1850803   0.6722281), wk =   0.0025641
        k(  664) = (  -0.2275907   0.1850803   0.8402851), wk =   0.0025641
        k(  665) = (  -0.1667593   0.1850803   1.0083421), wk =   0.0025641
        k(  666) = (  -0.8967355   0.1850803  -1.0083421), wk =   0.0025641
        k(  667) = (  -0.8359041   0.1850803  -0.8402851), wk =   0.0025641
        k(  668) = (  -0.7750728   0.1850803  -0.6722281), wk =   0.0025641
        k(  669) = (  -0.7142414   0.1850803  -0.5041711), wk =   0.0025641
        k(  670) = (  -0.6534101   0.1850803  -0.3361140), wk =   0.0025641
        k(  671) = (  -0.5925787   0.1850803  -0.1680570), wk =   0.0025641
        k(  672) = (  -0.5317474   0.3701607   0.0000000), wk =   0.0025641
        k(  673) = (  -0.4709161   0.3701607   0.1680570), wk =   0.0025641
        k(  674) = (  -0.4100847   0.3701607   0.3361140), wk =   0.0025641
        k(  675) = (  -0.3492534   0.3701607   0.5041711), wk =   0.0025641
        k(  676) = (  -0.2884220   0.3701607   0.6722281), wk =   0.0025641
        k(  677) = (  -0.2275907   0.3701607   0.8402851), wk =   0.0025641
        k(  678) = (  -0.1667593   0.3701607   1.0083421), wk =   0.0025641
        k(  679) = (  -0.8967355   0.3701607  -1.0083421), wk =   0.0025641
        k(  680) = (  -0.8359041   0.3701607  -0.8402851), wk =   0.0025641
        k(  681) = (  -0.7750728   0.3701607  -0.6722281), wk =   0.0025641
        k(  682) = (  -0.7142414   0.3701607  -0.5041711), wk =   0.0025641
        k(  683) = (  -0.6534101   0.3701607  -0.3361140), wk =   0.0025641
        k(  684) = (  -0.5925787   0.3701607  -0.1680570), wk =   0.0025641
        k(  685) = (  -0.5317474   0.5552410   0.0000000), wk =   0.0025641
        k(  686) = (  -0.4709161   0.5552410   0.1680570), wk =   0.0025641
        k(  687) = (  -0.4100847   0.5552410   0.3361140), wk =   0.0025641
        k(  688) = (  -0.3492534   0.5552410   0.5041711), wk =   0.0025641
        k(  689) = (  -0.2884220   0.5552410   0.6722281), wk =   0.0025641
        k(  690) = (  -0.2275907   0.5552410   0.8402851), wk =   0.0025641
        k(  691) = (  -0.1667593   0.5552410   1.0083421), wk =   0.0025641
        k(  692) = (  -0.8967355   0.5552410  -1.0083421), wk =   0.0025641
        k(  693) = (  -0.8359041   0.5552410  -0.8402851), wk =   0.0025641
        k(  694) = (  -0.7750728   0.5552410  -0.6722281), wk =   0.0025641
        k(  695) = (  -0.7142414   0.5552410  -0.5041711), wk =   0.0025641
        k(  696) = (  -0.6534101   0.5552410  -0.3361140), wk =   0.0025641
        k(  697) = (  -0.5925787   0.5552410  -0.1680570), wk =   0.0025641
        k(  698) = (  -0.5317474   0.7403214   0.0000000), wk =   0.0025641
        k(  699) = (  -0.4709161   0.7403214   0.1680570), wk =   0.0025641
        k(  700) = (  -0.4100847   0.7403214   0.3361140), wk =   0.0025641
        k(  701) = (  -0.3492534   0.7403214   0.5041711), wk =   0.0025641
        k(  702) = (  -0.2884220   0.7403214   0.6722281), wk =   0.0025641
        k(  703) = (  -0.2275907   0.7403214   0.8402851), wk =   0.0025641
        k(  704) = (  -0.1667593   0.7403214   1.0083421), wk =   0.0025641
        k(  705) = (  -0.8967355   0.7403214  -1.0083421), wk =   0.0025641
        k(  706) = (  -0.8359041   0.7403214  -0.8402851), wk =   0.0025641
        k(  707) = (  -0.7750728   0.7403214  -0.6722281), wk =   0.0025641
        k(  708) = (  -0.7142414   0.7403214  -0.5041711), wk =   0.0025641
        k(  709) = (  -0.6534101   0.7403214  -0.3361140), wk =   0.0025641
        k(  710) = (  -0.5925787   0.7403214  -0.1680570), wk =   0.0025641
        k(  711) = (  -0.5317474   0.9254017   0.0000000), wk =   0.0025641
        k(  712) = (  -0.4709161   0.9254017   0.1680570), wk =   0.0025641
        k(  713) = (  -0.4100847   0.9254017   0.3361140), wk =   0.0025641
        k(  714) = (  -0.3492534   0.9254017   0.5041711), wk =   0.0025641
        k(  715) = (  -0.2884220   0.9254017   0.6722281), wk =   0.0025641
        k(  716) = (  -0.2275907   0.9254017   0.8402851), wk =   0.0025641
        k(  717) = (  -0.1667593   0.9254017   1.0083421), wk =   0.0025641
        k(  718) = (  -0.8967355   0.9254017  -1.0083421), wk =   0.0025641
        k(  719) = (  -0.8359041   0.9254017  -0.8402851), wk =   0.0025641
        k(  720) = (  -0.7750728   0.9254017  -0.6722281), wk =   0.0025641
        k(  721) = (  -0.7142414   0.9254017  -0.5041711), wk =   0.0025641
        k(  722) = (  -0.6534101   0.9254017  -0.3361140), wk =   0.0025641
        k(  723) = (  -0.5925787   0.9254017  -0.1680570), wk =   0.0025641
        k(  724) = (  -0.5317474   1.1104820   0.0000000), wk =   0.0025641
        k(  725) = (  -0.4709161   1.1104820   0.1680570), wk =   0.0025641
        k(  726) = (  -0.4100847   1.1104820   0.3361140), wk =   0.0025641
        k(  727) = (  -0.3492534   1.1104820   0.5041711), wk =   0.0025641
        k(  728) = (  -0.2884220   1.1104820   0.6722281), wk =   0.0025641
        k(  729) = (  -0.2275907   1.1104820   0.8402851), wk =   0.0025641
        k(  730) = (  -0.1667593   1.1104820   1.0083421), wk =   0.0025641
        k(  731) = (  -0.8967355   1.1104820  -1.0083421), wk =   0.0025641
        k(  732) = (  -0.8359041   1.1104820  -0.8402851), wk =   0.0025641
        k(  733) = (  -0.7750728   1.1104820  -0.6722281), wk =   0.0025641
        k(  734) = (  -0.7142414   1.1104820  -0.5041711), wk =   0.0025641
        k(  735) = (  -0.6534101   1.1104820  -0.3361140), wk =   0.0025641
        k(  736) = (  -0.5925787   1.1104820  -0.1680570), wk =   0.0025641
        k(  737) = (  -0.5317474   1.2955624   0.0000000), wk =   0.0025641
        k(  738) = (  -0.4709161   1.2955624   0.1680570), wk =   0.0025641
        k(  739) = (  -0.4100847   1.2955624   0.3361140), wk =   0.0025641
        k(  740) = (  -0.3492534   1.2955624   0.5041711), wk =   0.0025641
        k(  741) = (  -0.2884220   1.2955624   0.6722281), wk =   0.0025641
        k(  742) = (  -0.2275907   1.2955624   0.8402851), wk =   0.0025641
        k(  743) = (  -0.1667593   1.2955624   1.0083421), wk =   0.0025641
        k(  744) = (  -0.8967355   1.2955624  -1.0083421), wk =   0.0025641
        k(  745) = (  -0.8359041   1.2955624  -0.8402851), wk =   0.0025641
        k(  746) = (  -0.7750728   1.2955624  -0.6722281), wk =   0.0025641
        k(  747) = (  -0.7142414   1.2955624  -0.5041711), wk =   0.0025641
        k(  748) = (  -0.6534101   1.2955624  -0.3361140), wk =   0.0025641
        k(  749) = (  -0.5925787   1.2955624  -0.1680570), wk =   0.0025641
        k(  750) = (  -0.5317474   1.4806427   0.0000000), wk =   0.0025641
        k(  751) = (  -0.4709161   1.4806427   0.1680570), wk =   0.0025641
        k(  752) = (  -0.4100847   1.4806427   0.3361140), wk =   0.0025641
        k(  753) = (  -0.3492534   1.4806427   0.5041711), wk =   0.0025641
        k(  754) = (  -0.2884220   1.4806427   0.6722281), wk =   0.0025641
        k(  755) = (  -0.2275907   1.4806427   0.8402851), wk =   0.0025641
        k(  756) = (  -0.1667593   1.4806427   1.0083421), wk =   0.0025641
        k(  757) = (  -0.8967355   1.4806427  -1.0083421), wk =   0.0025641
        k(  758) = (  -0.8359041   1.4806427  -0.8402851), wk =   0.0025641
        k(  759) = (  -0.7750728   1.4806427  -0.6722281), wk =   0.0025641
        k(  760) = (  -0.7142414   1.4806427  -0.5041711), wk =   0.0025641
        k(  761) = (  -0.6534101   1.4806427  -0.3361140), wk =   0.0025641
        k(  762) = (  -0.5925787   1.4806427  -0.1680570), wk =   0.0025641
        k(  763) = (  -0.5317474   1.6657231   0.0000000), wk =   0.0025641
        k(  764) = (  -0.4709161   1.6657231   0.1680570), wk =   0.0025641
        k(  765) = (  -0.4100847   1.6657231   0.3361140), wk =   0.0025641
        k(  766) = (  -0.3492534   1.6657231   0.5041711), wk =   0.0025641
        k(  767) = (  -0.2884220   1.6657231   0.6722281), wk =   0.0025641
        k(  768) = (  -0.2275907   1.6657231   0.8402851), wk =   0.0025641
        k(  769) = (  -0.1667593   1.6657231   1.0083421), wk =   0.0025641
        k(  770) = (  -0.8967355   1.6657231  -1.0083421), wk =   0.0025641
        k(  771) = (  -0.8359041   1.6657231  -0.8402851), wk =   0.0025641
        k(  772) = (  -0.7750728   1.6657231  -0.6722281), wk =   0.0025641
        k(  773) = (  -0.7142414   1.6657231  -0.5041711), wk =   0.0025641
        k(  774) = (  -0.6534101   1.6657231  -0.3361140), wk =   0.0025641
        k(  775) = (  -0.5925787   1.6657231  -0.1680570), wk =   0.0025641
        k(  776) = (  -0.5317474  -1.8508034   0.0000000), wk =   0.0012821
        k(  777) = (  -0.4709161  -1.8508034   0.1680570), wk =   0.0025641
        k(  778) = (  -0.4100847  -1.8508034   0.3361140), wk =   0.0025641
        k(  779) = (  -0.3492534  -1.8508034   0.5041711), wk =   0.0025641
        k(  780) = (  -0.2884220  -1.8508034   0.6722281), wk =   0.0025641
        k(  781) = (  -0.2275907  -1.8508034   0.8402851), wk =   0.0025641
        k(  782) = (  -0.1667593  -1.8508034   1.0083421), wk =   0.0025641

                       cryst. coord.
        k(    1) = (   0.0000000   0.0000000   0.0000000), wk =   0.0012821
        k(    2) = (  -0.0000000   0.0000000   0.0769231), wk =   0.0025641
        k(    3) = (  -0.0000000   0.0000000   0.1538462), wk =   0.0025641
        k(    4) = (  -0.0000000   0.0000000   0.2307692), wk =   0.0025641
        k(    5) = (  -0.0000000   0.0000000   0.3076923), wk =   0.0025641
        k(    6) = (   0.0000000   0.0000000   0.3846154), wk =   0.0025641
        k(    7) = (  -0.0000000   0.0000000   0.4615385), wk =   0.0025641
        k(    8) = (   0.0000000   0.0500000   0.0000000), wk =   0.0025641
        k(    9) = (  -0.0000000   0.0500000   0.0769231), wk =   0.0025641
        k(   10) = (  -0.0000000   0.0500000   0.1538462), wk =   0.0025641
        k(   11) = (  -0.0000000   0.0500000   0.2307692), wk =   0.0025641
        k(   12) = (  -0.0000000   0.0500000   0.3076923), wk =   0.0025641
        k(   13) = (   0.0000000   0.0500000   0.3846154), wk =   0.0025641
        k(   14) = (  -0.0000000   0.0500000   0.4615385), wk =   0.0025641
        k(   15) = (   0.0000000   0.0500000  -0.4615385), wk =   0.0025641
        k(   16) = (  -0.0000000   0.0500000  -0.3846154), wk =   0.0025641
        k(   17) = (   0.0000000   0.0500000  -0.3076923), wk =   0.0025641
        k(   18) = (   0.0000000   0.0500000  -0.2307692), wk =   0.0025641
        k(   19) = (   0.0000000   0.0500000  -0.1538462), wk =   0.0025641
        k(   20) = (  -0.0000000   0.0500000  -0.0769231), wk =   0.0025641
        k(   21) = (   0.0000000   0.1000000   0.0000000), wk =   0.0025641
        k(   22) = (  -0.0000000   0.1000000   0.0769231), wk =   0.0025641
        k(   23) = (  -0.0000000   0.1000000   0.1538462), wk =   0.0025641
        k(   24) = (  -0.0000000   0.1000000   0.2307692), wk =   0.0025641
        k(   25) = (  -0.0000000   0.1000000   0.3076923), wk =   0.0025641
        k(   26) = (   0.0000000   0.1000000   0.3846154), wk =   0.0025641
        k(   27) = (  -0.0000000   0.1000000   0.4615385), wk =   0.0025641
        k(   28) = (   0.0000000   0.1000000  -0.4615385), wk =   0.0025641
        k(   29) = (  -0.0000000   0.1000000  -0.3846154), wk =   0.0025641
        k(   30) = (   0.0000000   0.1000000  -0.3076923), wk =   0.0025641
        k(   31) = (   0.0000000   0.1000000  -0.2307692), wk =   0.0025641
        k(   32) = (   0.0000000   0.1000000  -0.1538462), wk =   0.0025641
        k(   33) = (  -0.0000000   0.1000000  -0.0769231), wk =   0.0025641
        k(   34) = (   0.0000000   0.1500000   0.0000000), wk =   0.0025641
        k(   35) = (  -0.0000000   0.1500000   0.0769231), wk =   0.0025641
        k(   36) = (  -0.0000000   0.1500000   0.1538462), wk =   0.0025641
        k(   37) = (  -0.0000000   0.1500000   0.2307692), wk =   0.0025641
        k(   38) = (  -0.0000000   0.1500000   0.3076923), wk =   0.0025641
        k(   39) = (   0.0000000   0.1500000   0.3846154), wk =   0.0025641
        k(   40) = (  -0.0000000   0.1500000   0.4615385), wk =   0.0025641
        k(   41) = (   0.0000000   0.1500000  -0.4615385), wk =   0.0025641
        k(   42) = (  -0.0000000   0.1500000  -0.3846154), wk =   0.0025641
        k(   43) = (   0.0000000   0.1500000  -0.3076923), wk =   0.0025641
        k(   44) = (   0.0000000   0.1500000  -0.2307692), wk =   0.0025641
        k(   45) = (   0.0000000   0.1500000  -0.1538462), wk =   0.0025641
        k(   46) = (  -0.0000000   0.1500000  -0.0769231), wk =   0.0025641
        k(   47) = (   0.0000000   0.2000000   0.0000000), wk =   0.0025641
        k(   48) = (  -0.0000000   0.2000000   0.0769231), wk =   0.0025641
        k(   49) = (  -0.0000000   0.2000000   0.1538462), wk =   0.0025641
        k(   50) = (  -0.0000000   0.2000000   0.2307692), wk =   0.0025641
        k(   51) = (  -0.0000000   0.2000000   0.3076923), wk =   0.0025641
        k(   52) = (   0.0000000   0.2000000   0.3846154), wk =   0.0025641
        k(   53) = (  -0.0000000   0.2000000   0.4615385), wk =   0.0025641
        k(   54) = (   0.0000000   0.2000000  -0.4615385), wk =   0.0025641
        k(   55) = (  -0.0000000   0.2000000  -0.3846154), wk =   0.0025641
        k(   56) = (   0.0000000   0.2000000  -0.3076923), wk =   0.0025641
        k(   57) = (   0.0000000   0.2000000  -0.2307692), wk =   0.0025641
        k(   58) = (   0.0000000   0.2000000  -0.1538462), wk =   0.0025641
        k(   59) = (  -0.0000000   0.2000000  -0.0769231), wk =   0.0025641
        k(   60) = (   0.0000000   0.2500000   0.0000000), wk =   0.0025641
        k(   61) = (  -0.0000000   0.2500000   0.0769231), wk =   0.0025641
        k(   62) = (  -0.0000000   0.2500000   0.1538462), wk =   0.0025641
        k(   63) = (  -0.0000000   0.2500000   0.2307692), wk =   0.0025641
        k(   64) = (  -0.0000000   0.2500000   0.3076923), wk =   0.0025641
        k(   65) = (   0.0000000   0.2500000   0.3846154), wk =   0.0025641
        k(   66) = (  -0.0000000   0.2500000   0.4615385), wk =   0.0025641
        k(   67) = (   0.0000000   0.2500000  -0.4615385), wk =   0.0025641
        k(   68) = (  -0.0000000   0.2500000  -0.3846154), wk =   0.0025641
        k(   69) = (   0.0000000   0.2500000  -0.3076923), wk =   0.0025641
        k(   70) = (   0.0000000   0.2500000  -0.2307692), wk =   0.0025641
        k(   71) = (   0.0000000   0.2500000  -0.1538462), wk =   0.0025641
        k(   72) = (  -0.0000000   0.2500000  -0.0769231), wk =   0.0025641
        k(   73) = (   0.0000000   0.3000000   0.0000000), wk =   0.0025641
        k(   74) = (  -0.0000000   0.3000000   0.0769231), wk =   0.0025641
        k(   75) = (  -0.0000000   0.3000000   0.1538462), wk =   0.0025641
        k(   76) = (  -0.0000000   0.3000000   0.2307692), wk =   0.0025641
        k(   77) = (  -0.0000000   0.3000000   0.3076923), wk =   0.0025641
        k(   78) = (   0.0000000   0.3000000   0.3846154), wk =   0.0025641
        k(   79) = (  -0.0000000   0.3000000   0.4615385), wk =   0.0025641
        k(   80) = (   0.0000000   0.3000000  -0.4615385), wk =   0.0025641
        k(   81) = (  -0.0000000   0.3000000  -0.3846154), wk =   0.0025641
        k(   82) = (   0.0000000   0.3000000  -0.3076923), wk =   0.0025641
        k(   83) = (   0.0000000   0.3000000  -0.2307692), wk =   0.0025641
        k(   84) = (   0.0000000   0.3000000  -0.1538462), wk =   0.0025641
        k(   85) = (  -0.0000000   0.3000000  -0.0769231), wk =   0.0025641
        k(   86) = (   0.0000000   0.3500000   0.0000000), wk =   0.0025641
        k(   87) = (  -0.0000000   0.3500000   0.0769231), wk =   0.0025641
        k(   88) = (  -0.0000000   0.3500000   0.1538462), wk =   0.0025641
        k(   89) = (  -0.0000000   0.3500000   0.2307692), wk =   0.0025641
        k(   90) = (  -0.0000000   0.3500000   0.3076923), wk =   0.0025641
        k(   91) = (   0.0000000   0.3500000   0.3846154), wk =   0.0025641
        k(   92) = (  -0.0000000   0.3500000   0.4615385), wk =   0.0025641
        k(   93) = (   0.0000000   0.3500000  -0.4615385), wk =   0.0025641
        k(   94) = (  -0.0000000   0.3500000  -0.3846154), wk =   0.0025641
        k(   95) = (   0.0000000   0.3500000  -0.3076923), wk =   0.0025641
        k(   96) = (   0.0000000   0.3500000  -0.2307692), wk =   0.0025641
        k(   97) = (   0.0000000   0.3500000  -0.1538462), wk =   0.0025641
        k(   98) = (  -0.0000000   0.3500000  -0.0769231), wk =   0.0025641
        k(   99) = (   0.0000000   0.4000000   0.0000000), wk =   0.0025641
        k(  100) = (  -0.0000000   0.4000000   0.0769231), wk =   0.0025641
        k(  101) = (  -0.0000000   0.4000000   0.1538462), wk =   0.0025641
        k(  102) = (  -0.0000000   0.4000000   0.2307692), wk =   0.0025641
        k(  103) = (  -0.0000000   0.4000000   0.3076923), wk =   0.0025641
        k(  104) = (   0.0000000   0.4000000   0.3846154), wk =   0.0025641
        k(  105) = (  -0.0000000   0.4000000   0.4615385), wk =   0.0025641
        k(  106) = (   0.0000000   0.4000000  -0.4615385), wk =   0.0025641
        k(  107) = (  -0.0000000   0.4000000  -0.3846154), wk =   0.0025641
        k(  108) = (   0.0000000   0.4000000  -0.3076923), wk =   0.0025641
        k(  109) = (   0.0000000   0.4000000  -0.2307692), wk =   0.0025641
        k(  110) = (   0.0000000   0.4000000  -0.1538462), wk =   0.0025641
        k(  111) = (  -0.0000000   0.4000000  -0.0769231), wk =   0.0025641
        k(  112) = (   0.0000000   0.4500000   0.0000000), wk =   0.0025641
        k(  113) = (  -0.0000000   0.4500000   0.0769231), wk =   0.0025641
        k(  114) = (  -0.0000000   0.4500000   0.1538462), wk =   0.0025641
        k(  115) = (  -0.0000000   0.4500000   0.2307692), wk =   0.0025641
        k(  116) = (  -0.0000000   0.4500000   0.3076923), wk =   0.0025641
        k(  117) = (   0.0000000   0.4500000   0.3846154), wk =   0.0025641
        k(  118) = (  -0.0000000   0.4500000   0.4615385), wk =   0.0025641
        k(  119) = (   0.0000000   0.4500000  -0.4615385), wk =   0.0025641
        k(  120) = (  -0.0000000   0.4500000  -0.3846154), wk =   0.0025641
        k(  121) = (   0.0000000   0.4500000  -0.3076923), wk =   0.0025641
        k(  122) = (   0.0000000   0.4500000  -0.2307692), wk =   0.0025641
        k(  123) = (   0.0000000   0.4500000  -0.1538462), wk =   0.0025641
        k(  124) = (  -0.0000000   0.4500000  -0.0769231), wk =   0.0025641
        k(  125) = (   0.0000000  -0.5000000   0.0000000), wk =   0.0012821
        k(  126) = (  -0.0000000  -0.5000000   0.0769231), wk =   0.0025641
        k(  127) = (  -0.0000000  -0.5000000   0.1538462), wk =   0.0025641
        k(  128) = (  -0.0000000  -0.5000000   0.2307692), wk =   0.0025641
        k(  129) = (  -0.0000000  -0.5000000   0.3076923), wk =   0.0025641
        k(  130) = (   0.0000000  -0.5000000   0.3846154), wk =   0.0025641
        k(  131) = (  -0.0000000  -0.5000000   0.4615385), wk =   0.0025641
        k(  132) = (   0.1666667   0.0000000   0.0000000), wk =   0.0025641
        k(  133) = (   0.1666667   0.0000000   0.0769231), wk =   0.0025641
        k(  134) = (   0.1666667   0.0000000   0.1538462), wk =   0.0025641
        k(  135) = (   0.1666667   0.0000000   0.2307692), wk =   0.0025641
        k(  136) = (   0.1666667   0.0000000   0.3076923), wk =   0.0025641
        k(  137) = (   0.1666667   0.0000000   0.3846154), wk =   0.0025641
        k(  138) = (   0.1666667   0.0000000   0.4615385), wk =   0.0025641
        k(  139) = (   0.1666667   0.0000000  -0.4615385), wk =   0.0025641
        k(  140) = (   0.1666667   0.0000000  -0.3846154), wk =   0.0025641
        k(  141) = (   0.1666667   0.0000000  -0.3076923), wk =   0.0025641
        k(  142) = (   0.1666667   0.0000000  -0.2307692), wk =   0.0025641
        k(  143) = (   0.1666667   0.0000000  -0.1538462), wk =   0.0025641
        k(  144) = (   0.1666667   0.0000000  -0.0769231), wk =   0.0025641
        k(  145) = (   0.1666667   0.0500000   0.0000000), wk =   0.0025641
        k(  146) = (   0.1666667   0.0500000   0.0769231), wk =   0.0025641
        k(  147) = (   0.1666667   0.0500000   0.1538462), wk =   0.0025641
        k(  148) = (   0.1666667   0.0500000   0.2307692), wk =   0.0025641
        k(  149) = (   0.1666667   0.0500000   0.3076923), wk =   0.0025641
        k(  150) = (   0.1666667   0.0500000   0.3846154), wk =   0.0025641
        k(  151) = (   0.1666667   0.0500000   0.4615385), wk =   0.0025641
        k(  152) = (   0.1666667   0.0500000  -0.4615385), wk =   0.0025641
        k(  153) = (   0.1666667   0.0500000  -0.3846154), wk =   0.0025641
        k(  154) = (   0.1666667   0.0500000  -0.3076923), wk =   0.0025641
[...]
    -0.0105

          k =-0.1668-1.8508 1.0083 ( 11618 PWs)   bands (ev):

    -3.6654  -3.6654  -3.1128  -3.1127  -2.2238  -2.2238  -1.7168  -1.7168
    -0.7935  -0.7935   0.5471   0.5471   0.8424   0.8424   1.8618   1.8618
     2.2529   2.2529   2.3461   2.3461   3.4873   3.4874   3.7916   3.7918
     3.9336   3.9337   4.4495   4.4495   4.6343   4.6344   5.6351   5.6351
     5.7157   5.7158   6.0565   6.0565   6.8029   6.8029   7.4935   7.4936
     7.7467

     occupation numbers 
     1.0000   1.0000   1.0000   1.0000   1.0000   1.0000   1.0000   1.0000
     1.0000   1.0000   1.0000   1.0000   1.0000   1.0000   1.0000   1.0000
     1.0000   1.0000   1.0000   1.0000   1.0000   1.0000   1.0000   1.0000
     1.0000   1.0000   1.0000   1.0000   1.0000   1.0000   1.0167   1.0167
     1.0227   1.0227   1.0288   1.0288   0.3313   0.3313  -0.0333  -0.0333
    -0.0153

     the Fermi energy is     6.6805 ev

!    total energy              =    -473.15908595 Ry
     Harris-Foulkes estimate   =    -473.15908595 Ry
     estimated scf accuracy    <          9.0E-13 Ry

     The total energy is the sum of the following terms:

     one-electron contribution =      36.33816542 Ry
     hartree contribution      =      13.21740596 Ry
     xc contribution           =     -90.15221213 Ry
     ewald contribution        =    -119.69213325 Ry
     one-center paw contrib.   =    -312.86897030 Ry
      -> PAW hartree energy AE =       0.81482758 Ry
      -> PAW hartree energy PS =      -0.81297471 Ry
      -> PAW xc energy AE      =     -32.62005538 Ry
      -> PAW xc energy PS      =       1.32403105 Ry
      -> total E_H with PAW    =      13.21925883 Ry
      -> total E_XC with PAW   =    -121.44823647 Ry
     smearing contrib. (-TS)   =      -0.00134164 Ry

     convergence has been achieved in  20 iterations

     Forces acting on atoms (cartesian axes, Ry/au):

     atom    1 type  1   force =    -0.00000260   -0.00000469    0.00000021
     atom    2 type  1   force =    -0.00044091   -0.00000440    0.00001718
     atom    3 type  1   force =    -0.00063952   -0.00000261   -0.00011548
     atom    4 type  1   force =     0.00063990    0.00000305    0.00011539
     atom    5 type  1   force =     0.00044113    0.00000483   -0.00001806
     atom    6 type  2   force =     0.00007325    0.00000861    0.00043257
     atom    7 type  2   force =    -0.00009494   -0.00000744    0.00103408
     atom    8 type  2   force =    -0.00058828   -0.00001104   -0.00060997
     atom    9 type  2   force =     0.00058997    0.00001063    0.00060932
     atom   10 type  2   force =     0.00009482    0.00000698   -0.00103300
     atom   11 type  2   force =    -0.00007279   -0.00000871   -0.00043269
     atom   12 type  1   force =    -0.00000149    0.00000495   -0.00000003
     atom   13 type  1   force =    -0.00044025    0.00000513    0.00001742
     atom   14 type  1   force =    -0.00063963    0.00000349   -0.00011538
     atom   15 type  1   force =     0.00063921   -0.00000307    0.00011503
     atom   16 type  1   force =     0.00044034   -0.00000474   -0.00001753
     atom   17 type  2   force =     0.00007266   -0.00000882    0.00043285
     atom   18 type  2   force =    -0.00009478    0.00000552    0.00103331
     atom   19 type  2   force =    -0.00058921    0.00000921   -0.00060913
     atom   20 type  2   force =     0.00058886   -0.00000961    0.00061065
     atom   21 type  2   force =     0.00009610   -0.00000595   -0.00103374
     atom   22 type  2   force =    -0.00007184    0.00000866   -0.00043300
     The non-local contrib.  to forces
     atom    1 type  1   force =    -0.00001376   -0.00001497   -0.00000024
     atom    2 type  1   force =     0.00726127   -0.00000965    0.01106266
     atom    3 type  1   force =     0.01709172   -0.00000893    0.00338530
     atom    4 type  1   force =    -0.01710643    0.00000708   -0.00338676
     atom    5 type  1   force =    -0.00727442    0.00000789   -0.01106784
     atom    6 type  2   force =    -0.00016347    0.00001488   -0.06309412
     atom    7 type  2   force =     0.04417451   -0.00000241    0.01455780
     atom    8 type  2   force =    -0.01380547   -0.00000729    0.02661726
     atom    9 type  2   force =     0.01380546    0.00000853   -0.02661483
     atom   10 type  2   force =    -0.04417726    0.00000391   -0.01455562
     atom   11 type  2   force =     0.00016356   -0.00001339    0.06309462
     atom   12 type  1   force =    -0.00001123    0.00001333   -0.00000076
     atom   13 type  1   force =     0.00726565    0.00000657    0.01106149
     atom   14 type  1   force =     0.01709183    0.00000570    0.00338670
     atom   15 type  1   force =    -0.01710817   -0.00000779   -0.00338651
     atom   16 type  1   force =    -0.00727347   -0.00000814   -0.01106835
     atom   17 type  2   force =    -0.00016206   -0.00001273   -0.06309378
     atom   18 type  2   force =     0.04417597    0.00000596    0.01455648
     atom   19 type  2   force =    -0.01380625    0.00001030    0.02661765
     atom   20 type  2   force =     0.01380435   -0.00000915   -0.02661413
     atom   21 type  2   force =    -0.04417420   -0.00000419   -0.01455700
     atom   22 type  2   force =     0.00016718    0.00001416    0.06309422
     The ionic contribution  to forces
     atom    1 type  1   force =    -0.00003827    0.00002535   -0.00000645
     atom    2 type  1   force =    -0.41795584   -0.00003379   -0.38832752
     atom    3 type  1   force =    -0.25471224   -0.00001405    0.19890858
     atom    4 type  1   force =     0.25470997    0.00000969   -0.19889692
     atom    5 type  1   force =     0.41792726    0.00002823    0.38833281
     atom    6 type  2   force =    -0.24420660    0.00000903    1.17973077
     atom    7 type  2   force =    -1.15792591   -0.00009311   -1.24700662
     atom    8 type  2   force =    -0.09766346   -0.00007290    0.73748264
     atom    9 type  2   force =     0.09767494    0.00007431   -0.73747919
     atom   10 type  2   force =     1.15796426    0.00009459    1.24699423
     atom   11 type  2   force =     0.24422015   -0.00000373   -1.17973204
     atom   12 type  1   force =    -0.00002669   -0.00002188   -0.00000683
     atom   13 type  1   force =    -0.41794704    0.00002835   -0.38832933
     atom   14 type  1   force =    -0.25470970    0.00000973    0.19891022
     atom   15 type  1   force =     0.25470740   -0.00001438   -0.19889899
     atom   16 type  1   force =     0.41791824   -0.00003382    0.38833492
     atom   17 type  2   force =    -0.24420176   -0.00000405    1.17973290
     atom   18 type  2   force =    -1.15792529    0.00009434   -1.24700685
     atom   19 type  2   force =    -0.09765964    0.00007373    0.73748113
     atom   20 type  2   force =     0.09767095   -0.00007279   -0.73747717
     atom   21 type  2   force =     1.15796354   -0.00009218    1.24699424
     atom   22 type  2   force =     0.24421574    0.00000935   -1.17973452
     The local contribution  to forces
     atom    1 type  1   force =     0.00004594   -0.00001697    0.00000661
     atom    2 type  1   force =     0.41123231    0.00003729    0.37780686
     atom    3 type  1   force =     0.23889281    0.00001881   -0.20182470
     atom    4 type  1   force =    -0.23888091   -0.00001336    0.20181377
     atom    5 type  1   force =    -0.41119569   -0.00003075   -0.37780900
     atom    6 type  2   force =     0.24427497   -0.00001268   -1.12231632
     atom    7 type  2   force =     1.11792908    0.00008876    1.23457983
     atom    8 type  2   force =     0.10946510    0.00006919   -0.76175923
     atom    9 type  2   force =    -0.10947477   -0.00007007    0.76175414
     atom   10 type  2   force =    -1.11796504   -0.00008982   -1.23456815
     atom   11 type  2   force =    -0.24428641    0.00000801    1.12231756
     atom   12 type  1   force =     0.00003323    0.00001426    0.00000720
     atom   13 type  1   force =     0.41122027   -0.00002937    0.37780996
     atom   14 type  1   force =     0.23889008   -0.00001174   -0.20182749
     atom   15 type  1   force =    -0.23887747    0.00001766    0.20181525
     atom   16 type  1   force =    -0.41118836    0.00003562   -0.37781012
     atom   17 type  2   force =     0.24426829    0.00000764   -1.12231846
     atom   18 type  2   force =     1.11792735   -0.00009278    1.23458046
     atom   19 type  2   force =     0.10946106   -0.00007254   -0.76175722
     atom   20 type  2   force =    -0.10947088    0.00007221    0.76175282
     atom   21 type  2   force =    -1.11796574    0.00009085   -1.23456766
     atom   22 type  2   force =    -0.24428428   -0.00001231    1.12232008
     The core correction contribution to forces
     atom    1 type  1   force =     0.00000158    0.00000140    0.00000001
     atom    2 type  1   force =    -0.00098042    0.00000126   -0.00052505
     atom    3 type  1   force =    -0.00191364    0.00000107   -0.00058497
     atom    4 type  1   force =     0.00191528   -0.00000085    0.00058504
     atom    5 type  1   force =     0.00098193   -0.00000104    0.00052563
     atom    6 type  2   force =     0.00016658   -0.00000311    0.00611171
     atom    7 type  2   force =    -0.00427425   -0.00000118   -0.00109684
     atom    8 type  2   force =     0.00141371   -0.00000053   -0.00295120
     atom    9 type  2   force =    -0.00141767   -0.00000263    0.00294920
     atom   10 type  2   force =     0.00427064   -0.00000219    0.00109589
     atom   11 type  2   force =    -0.00017213   -0.00000009   -0.00611287
     atom   12 type  1   force =     0.00000129   -0.00000125    0.00000007
     atom   13 type  1   force =    -0.00098088   -0.00000091   -0.00052492
     atom   14 type  1   force =    -0.00191366   -0.00000070   -0.00058512
     atom   15 type  1   force =     0.00191546    0.00000095    0.00058503
     atom   16 type  1   force =     0.00098187    0.00000111    0.00052568
     atom   17 type  2   force =     0.00016644   -0.00000017    0.00611167
     atom   18 type  2   force =    -0.00427441   -0.00000248   -0.00109670
     atom   19 type  2   force =     0.00141380   -0.00000278   -0.00295124
     atom   20 type  2   force =    -0.00141754   -0.00000037    0.00294912
     atom   21 type  2   force =     0.00427031   -0.00000092    0.00109604
     atom   22 type  2   force =    -0.00017253   -0.00000303   -0.00611282
     The Hubbard contrib.    to forces
     atom    1 type  1   force =     0.00000000    0.00000000    0.00000000
     atom    2 type  1   force =     0.00000000    0.00000000    0.00000000
     atom    3 type  1   force =     0.00000000    0.00000000    0.00000000
     atom    4 type  1   force =     0.00000000    0.00000000    0.00000000
     atom    5 type  1   force =     0.00000000    0.00000000    0.00000000
     atom    6 type  2   force =     0.00000000    0.00000000    0.00000000
     atom    7 type  2   force =     0.00000000    0.00000000    0.00000000
     atom    8 type  2   force =     0.00000000    0.00000000    0.00000000
     atom    9 type  2   force =     0.00000000    0.00000000    0.00000000
     atom   10 type  2   force =     0.00000000    0.00000000    0.00000000
     atom   11 type  2   force =     0.00000000    0.00000000    0.00000000
     atom   12 type  1   force =     0.00000000    0.00000000    0.00000000
     atom   13 type  1   force =     0.00000000    0.00000000    0.00000000
     atom   14 type  1   force =     0.00000000    0.00000000    0.00000000
     atom   15 type  1   force =     0.00000000    0.00000000    0.00000000
     atom   16 type  1   force =     0.00000000    0.00000000    0.00000000
     atom   17 type  2   force =     0.00000000    0.00000000    0.00000000
     atom   18 type  2   force =     0.00000000    0.00000000    0.00000000
     atom   19 type  2   force =     0.00000000    0.00000000    0.00000000
     atom   20 type  2   force =     0.00000000    0.00000000    0.00000000
     atom   21 type  2   force =     0.00000000    0.00000000    0.00000000
     atom   22 type  2   force =     0.00000000    0.00000000    0.00000000
     The SCF correction term to forces
     atom    1 type  1   force =     0.00000000   -0.00000000   -0.00000000
     atom    2 type  1   force =    -0.00000015    0.00000000   -0.00000005
     atom    3 type  1   force =    -0.00000008    0.00000000    0.00000003
     atom    4 type  1   force =     0.00000008   -0.00000000   -0.00000003
     atom    5 type  1   force =     0.00000015   -0.00000000    0.00000005
     atom    6 type  2   force =    -0.00000013   -0.00000000    0.00000025
     atom    7 type  2   force =    -0.00000029    0.00000000   -0.00000037
     atom    8 type  2   force =    -0.00000007   -0.00000000    0.00000028
     atom    9 type  2   force =     0.00000008   -0.00000000   -0.00000028
     atom   10 type  2   force =     0.00000031   -0.00000000    0.00000037
     atom   11 type  2   force =     0.00000014    0.00000000   -0.00000025
     atom   12 type  1   force =    -0.00000000   -0.00000000   -0.00000000
     atom   13 type  1   force =    -0.00000015    0.00000000   -0.00000005
     atom   14 type  1   force =    -0.00000008    0.00000000    0.00000003
     atom   15 type  1   force =     0.00000008   -0.00000000   -0.00000003
     atom   16 type  1   force =     0.00000015    0.00000000    0.00000005
     atom   17 type  2   force =    -0.00000014    0.00000000    0.00000025
     atom   18 type  2   force =    -0.00000031   -0.00000000   -0.00000036
     atom   19 type  2   force =    -0.00000008   -0.00000000    0.00000027
     atom   20 type  2   force =     0.00000007    0.00000000   -0.00000027
     atom   21 type  2   force =     0.00000029   -0.00000000    0.00000037
     atom   22 type  2   force =     0.00000014   -0.00000000   -0.00000025

     Total force =     0.003228     Total SCF correction =     0.000001


     Computing stress (Cartesian axis) and pressure

          total   stress  (Ry/bohr**3)                   (kbar)     P=   -4.69
  -0.00003179  -0.00000001  -0.00000891         -4.68     -0.00     -1.31
  -0.00000001  -0.00003463   0.00000001         -0.00     -5.09      0.00
  -0.00000891   0.00000001  -0.00002915         -1.31      0.00     -4.29

     kinetic stress (kbar)   1565.35     -0.00      0.12
                               -0.00   1587.31      0.00
                                0.12      0.00   1585.44

     local   stress (kbar)   -145.84     -0.00    279.11
                               -0.00   -380.24      0.00
                              279.11      0.00    179.05

     nonloc. stress (kbar)   1237.84      0.00      2.55
                                0.00   1222.29     -0.00
                                2.55     -0.00   1223.10

     hartree stress (kbar)    215.53     -0.00   -125.27
                               -0.00    385.19      0.00
                             -125.27      0.00    114.02

     exc-cor stress (kbar)   1968.23      0.00      0.09
                                0.00   1967.57     -0.00
                                0.09     -0.00   1967.61

     corecor stress (kbar)  -2745.91     -0.00     -0.39
                               -0.00  -2744.03      0.00
                               -0.39      0.00  -2744.16

     ewald   stress (kbar)  -2099.88      0.00   -157.52
                                0.00  -2043.19      0.00
                             -157.52      0.00  -2329.35

     hubbard stress (kbar)      0.00      0.00      0.00
                                0.00      0.00      0.00
                                0.00      0.00      0.00

     london  stress (kbar)      0.00      0.00      0.00
                                0.00      0.00      0.00
                                0.00      0.00      0.00

     DFT-D3  stress (kbar)      0.00      0.00      0.00
                                0.00      0.00      0.00
                                0.00      0.00      0.00

     XDM     stress (kbar)      0.00      0.00      0.00
                                0.00      0.00      0.00
                                0.00      0.00      0.00

     dft-nl  stress (kbar)      0.00      0.00      0.00
                                0.00      0.00      0.00
                                0.00      0.00      0.00

     TS-vdW  stress (kbar)      0.00      0.00      0.00
                                0.00      0.00      0.00
                                0.00      0.00      0.00



     Writing output data file aiida.save/
 
     init_run     :     22.73s CPU     23.18s WALL (       1 calls)
     electrons    :    922.67s CPU    935.33s WALL (       1 calls)
     forces       :      8.92s CPU      9.01s WALL (       1 calls)
     stress       :     68.89s CPU     69.00s WALL (       1 calls)

     Called by init_run:
     wfcinit      :     20.99s CPU     21.38s WALL (       1 calls)
     wfcinit:atom :      0.17s CPU      0.18s WALL (     196 calls)
     wfcinit:wfcr :     19.50s CPU     19.80s WALL (     196 calls)
     potinit      :      0.59s CPU      0.61s WALL (       1 calls)
     hinit0       :      0.99s CPU      1.01s WALL (       1 calls)

     Called by electrons:
     c_bands      :    822.44s CPU    832.34s WALL (      21 calls)
     sum_band     :     95.77s CPU     97.69s WALL (      21 calls)
     v_of_rho     :      1.89s CPU      2.04s WALL (      21 calls)
     v_h          :      0.12s CPU      0.14s WALL (      21 calls)
     v_xc         :      1.92s CPU      2.05s WALL (      23 calls)
     newd         :      1.07s CPU      1.65s WALL (      21 calls)
     PAW_pot      :      0.69s CPU      0.69s WALL (      21 calls)
     mix_rho      :      0.64s CPU      0.74s WALL (      21 calls)

     Called by c_bands:
     init_us_2    :     28.04s CPU     28.51s WALL (    8820 calls)
     cegterg      :    641.78s CPU    650.06s WALL (    4116 calls)

     Called by sum_band:
     sum_band:bec :      0.56s CPU      0.57s WALL (    4116 calls)
     addusdens    :      1.05s CPU      1.61s WALL (      21 calls)

     Called by *egterg:
     h_psi        :    441.92s CPU    448.84s WALL (   17882 calls)
     s_psi        :     65.29s CPU     65.46s WALL (   17882 calls)
     g_psi        :      3.00s CPU      3.02s WALL (   13570 calls)
     cdiaghg      :     68.21s CPU     69.30s WALL (   17490 calls)
     cegterg:over :     30.19s CPU     30.33s WALL (   13570 calls)
     cegterg:upda :     26.94s CPU     27.14s WALL (   13570 calls)
     cegterg:last :     11.08s CPU     11.15s WALL (    4531 calls)
     cdiaghg:chol :      4.36s CPU      4.40s WALL (   17490 calls)
     cdiaghg:inve :      0.91s CPU      0.92s WALL (   17490 calls)
     cdiaghg:para :      8.85s CPU      8.91s WALL (   34980 calls)

     Called by h_psi:
     h_psi:pot    :    439.59s CPU    446.49s WALL (   17882 calls)
     h_psi:calbec :     62.68s CPU     63.37s WALL (   17882 calls)
     vloc_psi     :    310.73s CPU    316.78s WALL (   17882 calls)
     add_vuspsi   :     66.01s CPU     66.21s WALL (   17882 calls)

     General routines
     calbec       :     89.50s CPU     90.49s WALL (   22978 calls)
     fft          :      1.59s CPU      1.73s WALL (     298 calls)
     ffts         :      0.22s CPU      0.24s WALL (     327 calls)
     fftw         :    333.05s CPU    339.36s WALL ( 1098972 calls)
     interpolate  :      0.17s CPU      0.17s WALL (      21 calls)
 
     Parallel routines
     fft_scatt_xy :     42.50s CPU     43.36s WALL ( 1099597 calls)
     fft_scatt_yz :    127.44s CPU    130.09s WALL ( 1099597 calls)

     PAW routines
     PAW_pot      :      0.69s CPU      0.69s WALL (      21 calls)
 
     PWSCF        :  17m27.61s CPU  18m 2.06s WALL

 
   This run was terminated on:  11:45:24  22Feb2020            

=------------------------------------------------------------------------------=
   JOB DONE.
=------------------------------------------------------------------------------=
