
     Program PWSCF v.6.3 starts on 22Feb2020 at 11: 8:39 

     This program is part of the open-source Quantum ESPRESSO suite
     for quantum simulation of materials; please cite
         "P. Giannozzi et al., J. Phys.:Condens. Matter 21 395502 (2009);
         "P. Giannozzi et al., J. Phys.:Condens. Matter 29 465901 (2017);
          URL http://www.quantum-espresso.org", 
     in publications or presentations arising from this work. More details at
     http://www.quantum-espresso.org/quote

 *** WARNING: using old-style file format, will disappear from next version ***

     Parallel version (MPI & OpenMP), running on      36 processor cores
     Number of MPI processes:                36
     Threads/MPI process:                     1

     MPI processes distributed on     1 nodes
     K-points division:     npool     =       4
     R & G space division:  proc/nbgrp/npool/nimage =       9
     Reading input from aiida.in
Warning: card &IONS ignored
Warning: card   !PRESS_CONV_THR = 0.05                 ! JUST FOR VOLUME RELAXATIONS ignored
Warning: card / ignored

     Current dimensions of program PWSCF are:
     Max number of different atomic species (ntypx) = 10
     Max number of k-points (npk) =  40000
     Max angular momentum in pseudopotentials (lmaxx) =  3
               file Mg.pbe-n-kjpaw_psl.0.3.0.UPF: wavefunction(s)  3S renormalized

     Subspace diagonalization in iterative solution of the eigenvalue problem:
     one sub-group per band group will be used
     scalapack distributed-memory algorithm (size of sub-group:  2*  2 procs)

 
     Parallelization info
     --------------------
     sticks:   dense  smooth     PW     G-vecs:    dense   smooth      PW
     Min         781     312     90                40775    10327    1612
     Max         782     313     91                40776    10329    1613
     Sum        7031    2813    815               366981    92945   14513
 


     bravais-lattice index     =            0
     lattice parameter (alat)  =      28.5990  a.u.
     unit-cell volume          =    2714.9304 (a.u.)^3
     number of atoms/cell      =           22
     number of atomic types    =            2
     number of electrons       =        68.00
     number of Kohn-Sham states=           41
     kinetic-energy cutoff     =      40.0000  Ry
     charge density cutoff     =     400.0000  Ry
     convergence threshold     =      1.0E-12
     mixing beta               =       0.4000
     number of iterations used =            8  local-TF  mixing
     Exchange-correlation      = PBE ( 1  4  3  4 0 0)

     celldm(1)=  28.598960  celldm(2)=   0.000000  celldm(3)=   0.000000
     celldm(4)=   0.000000  celldm(5)=   0.000000  celldm(6)=   0.000000

     crystal axes: (cart. coord. in units of alat)
               a(1) = (   0.940369   0.000000  -0.340155 )  
               a(2) = (   0.000000   0.269635   0.000000 )  
               a(3) = (   0.000470   0.000000   0.457586 )  

     reciprocal axes: (cart. coord. in units 2 pi/alat)
               b(1) = (  1.063017  0.000000 -0.001092 )  
               b(2) = (  0.000000  3.708721  0.000000 )  
               b(3) = (  0.790214  0.000000  2.184572 )  


     PseudoPot. # 1 for Mg read from file:
     /users/aglensk/Dropbox/Albert/scripts/dotfiles/scripts/potentials/quantum_espresso/pseudo_SSSPefV1.1_alalloy/Mg.pbe-n-kjpaw_psl.0.3.0.UPF
     MD5 check sum: 24ecedc7f3e3cbe212e682f4413594e4
     Pseudo is Projector augmented-wave + core cor, Zval =  2.0
     Generated using "atomic" code by A. Dal Corso v.5.0.99 svn rev. 10869
     Shape of augmentation charge: PSQ
     Using radial grid of 1129 points,  4 beta functions with: 
                l(1) =   0
                l(2) =   0
                l(3) =   1
                l(4) =   1
     Q(r) pseudized with 0 coefficients 


     PseudoPot. # 2 for Si read from file:
     /users/aglensk/Dropbox/Albert/scripts/dotfiles/scripts/potentials/quantum_espresso/pseudo_SSSPefV1.1_alalloy/Si.pbe-n-rrkjus_psl.1.0.0.UPF
     MD5 check sum: 0b0bb1205258b0d07b9f9672cf965d36
     Pseudo is Ultrasoft + core correction, Zval =  4.0
     Generated using "atomic" code by A. Dal Corso v.5.1
     Using radial grid of 1141 points,  6 beta functions with: 
                l(1) =   0
                l(2) =   0
                l(3) =   1
                l(4) =   1
                l(5) =   2
                l(6) =   2
     Q(r) pseudized with 0 coefficients 


     atomic species   valence    mass     pseudopotential
        Mg             2.00    24.30500     Mg( 1.00)
        Si             4.00    28.08500     Si( 1.00)

     No symmetry found


                                    s                        frac. trans.

      isym =  1     identity                                     

 cryst.   s( 1) = (     1          0          0      )
                  (     0          1          0      )
                  (     0          0          1      )

 cart.    s( 1) = (  1.0000000  0.0000000  0.0000000 )
                  (  0.0000000  1.0000000  0.0000000 )
                  ( -0.0000000  0.0000000  1.0000000 )


   Cartesian axes

     site n.     atom                  positions (alat units)
         1           Mg  tau(   1) = (   0.0018012   0.0000000   0.4518326  )
         2           Mg  tau(   2) = (   0.0748692   0.1348174   0.1384158  )
         3           Mg  tau(   3) = (   0.1489361   0.1348174   0.3680710  )
         4           Mg  tau(   4) = (   0.3243757   0.0000000  -0.0921188  )
         5           Mg  tau(   5) = (   0.3984395   0.0000000   0.1375409  )
         6           Si  tau(   6) = (   0.0558816   0.0000000   0.2808771  )
         7           Si  tau(   7) = (   0.1825012   0.0000000   0.0467201  )
         8           Si  tau(   8) = (   0.1983509   0.0000000   0.2122689  )
         9           Si  tau(   9) = (   0.2749542   0.1348174   0.0636858  )
        10           Si  tau(  10) = (   0.2908048   0.1348174   0.2292340  )
        11           Si  tau(  11) = (   0.4174225   0.1348174  -0.0049231  )
        12           Mg  tau(  12) = (   0.4719812   0.1348174   0.2817081  )
        13           Mg  tau(  13) = (   0.5450456   0.0000000  -0.0317096  )
        14           Mg  tau(  14) = (   0.6191165   0.0000000   0.1979541  )
        15           Mg  tau(  15) = (   0.7945646   0.1348174  -0.2621571  )
        16           Mg  tau(  16) = (   0.8686323   0.1348174  -0.0324891  )
        17           Si  tau(  17) = (   0.5260623   0.1348174   0.1107549  )
        18           Si  tau(  18) = (   0.6526870   0.1348174  -0.1233811  )
        19           Si  tau(  19) = (   0.6685397   0.1348174   0.0421652  )
        20           Si  tau(  20) = (   0.7451348   0.0000000  -0.1063658  )
        21           Si  tau(  21) = (   0.7609883   0.0000000   0.0591800  )
        22           Si  tau(  22) = (   0.8876111   0.0000000  -0.1749562  )

   Crystallographic axes

     site n.     atom                  positions (cryst. coord.)
         1           Mg  tau(   1) = (  0.0014212  0.0000000  0.9884839  )
         2           Mg  tau(   2) = (  0.0794360  0.4999999  0.3615419  )
         3           Mg  tau(   3) = (  0.1579195  0.4999999  0.9217689  )
         4           Mg  tau(   4) = (  0.3449174  0.0000000  0.0550862  )
         5           Mg  tau(   5) = (  0.4233976  0.0000000  0.6153205  )
         6           Si  tau(   6) = (  0.0590963  0.0000000  0.6577547  )
         7           Si  tau(   7) = (  0.1939508  0.0000000  0.2462785  )
         8           Si  tau(   8) = (  0.2106185  0.0000000  0.6204564  )
         9           Si  tau(   9) = (  0.2922114  0.4999999  0.3563991  )
        10           Si  tau(  10) = (  0.3088801  0.4999999  0.7305764  )
        11           Si  tau(  11) = (  0.4437326  0.4999999  0.3190984  )
        12           Mg  tau(  12) = (  0.5014163  0.4999999  0.9883779  )
        13           Mg  tau(  13) = (  0.5794273  0.0000000  0.3614311  )
        14           Mg  tau(  14) = (  0.6579151  0.0000000  0.9216796  )
        15           Mg  tau(  15) = (  0.8449219  0.4999999  0.0551755  )
        16           Mg  tau(  16) = (  0.9234063  0.4999999  0.6154311  )
        17           Si  tau(  17) = (  0.5590921  0.4999999  0.6576541  )
        18           Si  tau(  18) = (  0.6939521  0.4999999  0.2462278  )
        19           Si  tau(  19) = (  0.7106229  0.4999999  0.6204027  )
        20           Si  tau(  20) = (  0.7922070  0.0000000  0.3564526  )
        21           Si  tau(  21) = (  0.8088788  0.0000000  0.7306269  )
        22           Si  tau(  22) = (  0.9437367  0.0000000  0.3191988  )

     number of k points=   782  Methfessel-Paxton smearing, width (Ry)=  0.0441
                       cart. coord. in units 2pi/alat
        k(    1) = (   0.0000000   0.0000000   0.0000000), wk =   0.0012821
        k(    2) = (   0.0607857   0.0000000   0.1680440), wk =   0.0025641
        k(    3) = (   0.1215715   0.0000000   0.3360879), wk =   0.0025641
        k(    4) = (   0.1823572   0.0000000   0.5041319), wk =   0.0025641
        k(    5) = (   0.2431429   0.0000000   0.6721759), wk =   0.0025641
        k(    6) = (   0.3039286   0.0000000   0.8402199), wk =   0.0025641
        k(    7) = (   0.3647144   0.0000000   1.0082638), wk =   0.0025641
        k(    8) = (   0.0000000   0.1854360   0.0000000), wk =   0.0025641
        k(    9) = (   0.0607857   0.1854360   0.1680440), wk =   0.0025641
        k(   10) = (   0.1215715   0.1854360   0.3360879), wk =   0.0025641
        k(   11) = (   0.1823572   0.1854360   0.5041319), wk =   0.0025641
        k(   12) = (   0.2431429   0.1854360   0.6721759), wk =   0.0025641
        k(   13) = (   0.3039286   0.1854360   0.8402199), wk =   0.0025641
        k(   14) = (   0.3647144   0.1854360   1.0082638), wk =   0.0025641
        k(   15) = (  -0.3647144   0.1854360  -1.0082638), wk =   0.0025641
        k(   16) = (  -0.3039286   0.1854360  -0.8402199), wk =   0.0025641
        k(   17) = (  -0.2431429   0.1854360  -0.6721759), wk =   0.0025641
        k(   18) = (  -0.1823572   0.1854360  -0.5041319), wk =   0.0025641
        k(   19) = (  -0.1215715   0.1854360  -0.3360879), wk =   0.0025641
        k(   20) = (  -0.0607857   0.1854360  -0.1680440), wk =   0.0025641
        k(   21) = (   0.0000000   0.3708721   0.0000000), wk =   0.0025641
        k(   22) = (   0.0607857   0.3708721   0.1680440), wk =   0.0025641
        k(   23) = (   0.1215715   0.3708721   0.3360879), wk =   0.0025641
        k(   24) = (   0.1823572   0.3708721   0.5041319), wk =   0.0025641
        k(   25) = (   0.2431429   0.3708721   0.6721759), wk =   0.0025641
        k(   26) = (   0.3039286   0.3708721   0.8402199), wk =   0.0025641
        k(   27) = (   0.3647144   0.3708721   1.0082638), wk =   0.0025641
        k(   28) = (  -0.3647144   0.3708721  -1.0082638), wk =   0.0025641
        k(   29) = (  -0.3039286   0.3708721  -0.8402199), wk =   0.0025641
        k(   30) = (  -0.2431429   0.3708721  -0.6721759), wk =   0.0025641
        k(   31) = (  -0.1823572   0.3708721  -0.5041319), wk =   0.0025641
        k(   32) = (  -0.1215715   0.3708721  -0.3360879), wk =   0.0025641
        k(   33) = (  -0.0607857   0.3708721  -0.1680440), wk =   0.0025641
        k(   34) = (   0.0000000   0.5563081   0.0000000), wk =   0.0025641
        k(   35) = (   0.0607857   0.5563081   0.1680440), wk =   0.0025641
        k(   36) = (   0.1215715   0.5563081   0.3360879), wk =   0.0025641
        k(   37) = (   0.1823572   0.5563081   0.5041319), wk =   0.0025641
        k(   38) = (   0.2431429   0.5563081   0.6721759), wk =   0.0025641
        k(   39) = (   0.3039286   0.5563081   0.8402199), wk =   0.0025641
        k(   40) = (   0.3647144   0.5563081   1.0082638), wk =   0.0025641
        k(   41) = (  -0.3647144   0.5563081  -1.0082638), wk =   0.0025641
        k(   42) = (  -0.3039286   0.5563081  -0.8402199), wk =   0.0025641
        k(   43) = (  -0.2431429   0.5563081  -0.6721759), wk =   0.0025641
        k(   44) = (  -0.1823572   0.5563081  -0.5041319), wk =   0.0025641
        k(   45) = (  -0.1215715   0.5563081  -0.3360879), wk =   0.0025641
        k(   46) = (  -0.0607857   0.5563081  -0.1680440), wk =   0.0025641
        k(   47) = (   0.0000000   0.7417442   0.0000000), wk =   0.0025641
        k(   48) = (   0.0607857   0.7417442   0.1680440), wk =   0.0025641
        k(   49) = (   0.1215715   0.7417442   0.3360879), wk =   0.0025641
        k(   50) = (   0.1823572   0.7417442   0.5041319), wk =   0.0025641
        k(   51) = (   0.2431429   0.7417442   0.6721759), wk =   0.0025641
        k(   52) = (   0.3039286   0.7417442   0.8402199), wk =   0.0025641
        k(   53) = (   0.3647144   0.7417442   1.0082638), wk =   0.0025641
        k(   54) = (  -0.3647144   0.7417442  -1.0082638), wk =   0.0025641
        k(   55) = (  -0.3039286   0.7417442  -0.8402199), wk =   0.0025641
        k(   56) = (  -0.2431429   0.7417442  -0.6721759), wk =   0.0025641
        k(   57) = (  -0.1823572   0.7417442  -0.5041319), wk =   0.0025641
        k(   58) = (  -0.1215715   0.7417442  -0.3360879), wk =   0.0025641
        k(   59) = (  -0.0607857   0.7417442  -0.1680440), wk =   0.0025641
        k(   60) = (   0.0000000   0.9271802   0.0000000), wk =   0.0025641
        k(   61) = (   0.0607857   0.9271802   0.1680440), wk =   0.0025641
        k(   62) = (   0.1215715   0.9271802   0.3360879), wk =   0.0025641
        k(   63) = (   0.1823572   0.9271802   0.5041319), wk =   0.0025641
        k(   64) = (   0.2431429   0.9271802   0.6721759), wk =   0.0025641
        k(   65) = (   0.3039286   0.9271802   0.8402199), wk =   0.0025641
        k(   66) = (   0.3647144   0.9271802   1.0082638), wk =   0.0025641
        k(   67) = (  -0.3647144   0.9271802  -1.0082638), wk =   0.0025641
        k(   68) = (  -0.3039286   0.9271802  -0.8402199), wk =   0.0025641
        k(   69) = (  -0.2431429   0.9271802  -0.6721759), wk =   0.0025641
        k(   70) = (  -0.1823572   0.9271802  -0.5041319), wk =   0.0025641
        k(   71) = (  -0.1215715   0.9271802  -0.3360879), wk =   0.0025641
        k(   72) = (  -0.0607857   0.9271802  -0.1680440), wk =   0.0025641
        k(   73) = (   0.0000000   1.1126163   0.0000000), wk =   0.0025641
        k(   74) = (   0.0607857   1.1126163   0.1680440), wk =   0.0025641
        k(   75) = (   0.1215715   1.1126163   0.3360879), wk =   0.0025641
        k(   76) = (   0.1823572   1.1126163   0.5041319), wk =   0.0025641
        k(   77) = (   0.2431429   1.1126163   0.6721759), wk =   0.0025641
        k(   78) = (   0.3039286   1.1126163   0.8402199), wk =   0.0025641
        k(   79) = (   0.3647144   1.1126163   1.0082638), wk =   0.0025641
        k(   80) = (  -0.3647144   1.1126163  -1.0082638), wk =   0.0025641
        k(   81) = (  -0.3039286   1.1126163  -0.8402199), wk =   0.0025641
        k(   82) = (  -0.2431429   1.1126163  -0.6721759), wk =   0.0025641
        k(   83) = (  -0.1823572   1.1126163  -0.5041319), wk =   0.0025641
        k(   84) = (  -0.1215715   1.1126163  -0.3360879), wk =   0.0025641
        k(   85) = (  -0.0607857   1.1126163  -0.1680440), wk =   0.0025641
        k(   86) = (   0.0000000   1.2980523   0.0000000), wk =   0.0025641
        k(   87) = (   0.0607857   1.2980523   0.1680440), wk =   0.0025641
        k(   88) = (   0.1215715   1.2980523   0.3360879), wk =   0.0025641
        k(   89) = (   0.1823572   1.2980523   0.5041319), wk =   0.0025641
        k(   90) = (   0.2431429   1.2980523   0.6721759), wk =   0.0025641
        k(   91) = (   0.3039286   1.2980523   0.8402199), wk =   0.0025641
        k(   92) = (   0.3647144   1.2980523   1.0082638), wk =   0.0025641
        k(   93) = (  -0.3647144   1.2980523  -1.0082638), wk =   0.0025641
        k(   94) = (  -0.3039286   1.2980523  -0.8402199), wk =   0.0025641
        k(   95) = (  -0.2431429   1.2980523  -0.6721759), wk =   0.0025641
        k(   96) = (  -0.1823572   1.2980523  -0.5041319), wk =   0.0025641
        k(   97) = (  -0.1215715   1.2980523  -0.3360879), wk =   0.0025641
        k(   98) = (  -0.0607857   1.2980523  -0.1680440), wk =   0.0025641
        k(   99) = (   0.0000000   1.4834884   0.0000000), wk =   0.0025641
        k(  100) = (   0.0607857   1.4834884   0.1680440), wk =   0.0025641
        k(  101) = (   0.1215715   1.4834884   0.3360879), wk =   0.0025641
        k(  102) = (   0.1823572   1.4834884   0.5041319), wk =   0.0025641
        k(  103) = (   0.2431429   1.4834884   0.6721759), wk =   0.0025641
        k(  104) = (   0.3039286   1.4834884   0.8402199), wk =   0.0025641
        k(  105) = (   0.3647144   1.4834884   1.0082638), wk =   0.0025641
        k(  106) = (  -0.3647144   1.4834884  -1.0082638), wk =   0.0025641
        k(  107) = (  -0.3039286   1.4834884  -0.8402199), wk =   0.0025641
        k(  108) = (  -0.2431429   1.4834884  -0.6721759), wk =   0.0025641
        k(  109) = (  -0.1823572   1.4834884  -0.5041319), wk =   0.0025641
        k(  110) = (  -0.1215715   1.4834884  -0.3360879), wk =   0.0025641
        k(  111) = (  -0.0607857   1.4834884  -0.1680440), wk =   0.0025641
        k(  112) = (   0.0000000   1.6689244   0.0000000), wk =   0.0025641
        k(  113) = (   0.0607857   1.6689244   0.1680440), wk =   0.0025641
        k(  114) = (   0.1215715   1.6689244   0.3360879), wk =   0.0025641
        k(  115) = (   0.1823572   1.6689244   0.5041319), wk =   0.0025641
        k(  116) = (   0.2431429   1.6689244   0.6721759), wk =   0.0025641
        k(  117) = (   0.3039286   1.6689244   0.8402199), wk =   0.0025641
        k(  118) = (   0.3647144   1.6689244   1.0082638), wk =   0.0025641
        k(  119) = (  -0.3647144   1.6689244  -1.0082638), wk =   0.0025641
        k(  120) = (  -0.3039286   1.6689244  -0.8402199), wk =   0.0025641
        k(  121) = (  -0.2431429   1.6689244  -0.6721759), wk =   0.0025641
        k(  122) = (  -0.1823572   1.6689244  -0.5041319), wk =   0.0025641
        k(  123) = (  -0.1215715   1.6689244  -0.3360879), wk =   0.0025641
        k(  124) = (  -0.0607857   1.6689244  -0.1680440), wk =   0.0025641
        k(  125) = (   0.0000000  -1.8543605   0.0000000), wk =   0.0012821
        k(  126) = (   0.0607857  -1.8543605   0.1680440), wk =   0.0025641
        k(  127) = (   0.1215715  -1.8543605   0.3360879), wk =   0.0025641
        k(  128) = (   0.1823572  -1.8543605   0.5041319), wk =   0.0025641
        k(  129) = (   0.2431429  -1.8543605   0.6721759), wk =   0.0025641
        k(  130) = (   0.3039286  -1.8543605   0.8402199), wk =   0.0025641
        k(  131) = (   0.3647144  -1.8543605   1.0082638), wk =   0.0025641
        k(  132) = (   0.1771695   0.0000000  -0.0001821), wk =   0.0025641
        k(  133) = (   0.2379552   0.0000000   0.1678619), wk =   0.0025641
        k(  134) = (   0.2987409   0.0000000   0.3359059), wk =   0.0025641
        k(  135) = (   0.3595267   0.0000000   0.5039499), wk =   0.0025641
        k(  136) = (   0.4203124   0.0000000   0.6719938), wk =   0.0025641
        k(  137) = (   0.4810981   0.0000000   0.8400378), wk =   0.0025641
        k(  138) = (   0.5418838   0.0000000   1.0080818), wk =   0.0025641
        k(  139) = (  -0.1875449   0.0000000  -1.0084459), wk =   0.0025641
        k(  140) = (  -0.1267592   0.0000000  -0.8404019), wk =   0.0025641
        k(  141) = (  -0.0659734   0.0000000  -0.6723579), wk =   0.0025641
        k(  142) = (  -0.0051877   0.0000000  -0.5043140), wk =   0.0025641
        k(  143) = (   0.0555980   0.0000000  -0.3362700), wk =   0.0025641
        k(  144) = (   0.1163838   0.0000000  -0.1682260), wk =   0.0025641
        k(  145) = (   0.1771695   0.1854360  -0.0001821), wk =   0.0025641
        k(  146) = (   0.2379552   0.1854360   0.1678619), wk =   0.0025641
        k(  147) = (   0.2987409   0.1854360   0.3359059), wk =   0.0025641
        k(  148) = (   0.3595267   0.1854360   0.5039499), wk =   0.0025641
        k(  149) = (   0.4203124   0.1854360   0.6719938), wk =   0.0025641
        k(  150) = (   0.4810981   0.1854360   0.8400378), wk =   0.0025641
        k(  151) = (   0.5418838   0.1854360   1.0080818), wk =   0.0025641
        k(  152) = (  -0.1875449   0.1854360  -1.0084459), wk =   0.0025641
        k(  153) = (  -0.1267592   0.1854360  -0.8404019), wk =   0.0025641
        k(  154) = (  -0.0659734   0.1854360  -0.6723579), wk =   0.0025641
        k(  155) = (  -0.0051877   0.1854360  -0.5043140), wk =   0.0025641
        k(  156) = (   0.0555980   0.1854360  -0.3362700), wk =   0.0025641
        k(  157) = (   0.1163838   0.1854360  -0.1682260), wk =   0.0025641
        k(  158) = (   0.1771695   0.3708721  -0.0001821), wk =   0.0025641
        k(  159) = (   0.2379552   0.3708721   0.1678619), wk =   0.0025641
        k(  160) = (   0.2987409   0.3708721   0.3359059), wk =   0.0025641
        k(  161) = (   0.3595267   0.3708721   0.5039499), wk =   0.0025641
        k(  162) = (   0.4203124   0.3708721   0.6719938), wk =   0.0025641
        k(  163) = (   0.4810981   0.3708721   0.8400378), wk =   0.0025641
        k(  164) = (   0.5418838   0.3708721   1.0080818), wk =   0.0025641
        k(  165) = (  -0.1875449   0.3708721  -1.0084459), wk =   0.0025641
        k(  166) = (  -0.1267592   0.3708721  -0.8404019), wk =   0.0025641
        k(  167) = (  -0.0659734   0.3708721  -0.6723579), wk =   0.0025641
        k(  168) = (  -0.0051877   0.3708721  -0.5043140), wk =   0.0025641
        k(  169) = (   0.0555980   0.3708721  -0.3362700), wk =   0.0025641
        k(  170) = (   0.1163838   0.3708721  -0.1682260), wk =   0.0025641
        k(  171) = (   0.1771695   0.5563081  -0.0001821), wk =   0.0025641
        k(  172) = (   0.2379552   0.5563081   0.1678619), wk =   0.0025641
        k(  173) = (   0.2987409   0.5563081   0.3359059), wk =   0.0025641
        k(  174) = (   0.3595267   0.5563081   0.5039499), wk =   0.0025641
        k(  175) = (   0.4203124   0.5563081   0.6719938), wk =   0.0025641
        k(  176) = (   0.4810981   0.5563081   0.8400378), wk =   0.0025641
        k(  177) = (   0.5418838   0.5563081   1.0080818), wk =   0.0025641
        k(  178) = (  -0.1875449   0.5563081  -1.0084459), wk =   0.0025641
        k(  179) = (  -0.1267592   0.5563081  -0.8404019), wk =   0.0025641
        k(  180) = (  -0.0659734   0.5563081  -0.6723579), wk =   0.0025641
        k(  181) = (  -0.0051877   0.5563081  -0.5043140), wk =   0.0025641
        k(  182) = (   0.0555980   0.5563081  -0.3362700), wk =   0.0025641
        k(  183) = (   0.1163838   0.5563081  -0.1682260), wk =   0.0025641
        k(  184) = (   0.1771695   0.7417442  -0.0001821), wk =   0.0025641
        k(  185) = (   0.2379552   0.7417442   0.1678619), wk =   0.0025641
        k(  186) = (   0.2987409   0.7417442   0.3359059), wk =   0.0025641
        k(  187) = (   0.3595267   0.7417442   0.5039499), wk =   0.0025641
        k(  188) = (   0.4203124   0.7417442   0.6719938), wk =   0.0025641
        k(  189) = (   0.4810981   0.7417442   0.8400378), wk =   0.0025641
        k(  190) = (   0.5418838   0.7417442   1.0080818), wk =   0.0025641
        k(  191) = (  -0.1875449   0.7417442  -1.0084459), wk =   0.0025641
        k(  192) = (  -0.1267592   0.7417442  -0.8404019), wk =   0.0025641
        k(  193) = (  -0.0659734   0.7417442  -0.6723579), wk =   0.0025641
        k(  194) = (  -0.0051877   0.7417442  -0.5043140), wk =   0.0025641
        k(  195) = (   0.0555980   0.7417442  -0.3362700), wk =   0.0025641
        k(  196) = (   0.1163838   0.7417442  -0.1682260), wk =   0.0025641
        k(  197) = (   0.1771695   0.9271802  -0.0001821), wk =   0.0025641
        k(  198) = (   0.2379552   0.9271802   0.1678619), wk =   0.0025641
        k(  199) = (   0.2987409   0.9271802   0.3359059), wk =   0.0025641
        k(  200) = (   0.3595267   0.9271802   0.5039499), wk =   0.0025641
        k(  201) = (   0.4203124   0.9271802   0.6719938), wk =   0.0025641
        k(  202) = (   0.4810981   0.9271802   0.8400378), wk =   0.0025641
        k(  203) = (   0.5418838   0.9271802   1.0080818), wk =   0.0025641
        k(  204) = (  -0.1875449   0.9271802  -1.0084459), wk =   0.0025641
        k(  205) = (  -0.1267592   0.9271802  -0.8404019), wk =   0.0025641
        k(  206) = (  -0.0659734   0.9271802  -0.6723579), wk =   0.0025641
        k(  207) = (  -0.0051877   0.9271802  -0.5043140), wk =   0.0025641
        k(  208) = (   0.0555980   0.9271802  -0.3362700), wk =   0.0025641
        k(  209) = (   0.1163838   0.9271802  -0.1682260), wk =   0.0025641
        k(  210) = (   0.1771695   1.1126163  -0.0001821), wk =   0.0025641
        k(  211) = (   0.2379552   1.1126163   0.1678619), wk =   0.0025641
        k(  212) = (   0.2987409   1.1126163   0.3359059), wk =   0.0025641
        k(  213) = (   0.3595267   1.1126163   0.5039499), wk =   0.0025641
        k(  214) = (   0.4203124   1.1126163   0.6719938), wk =   0.0025641
        k(  215) = (   0.4810981   1.1126163   0.8400378), wk =   0.0025641
        k(  216) = (   0.5418838   1.1126163   1.0080818), wk =   0.0025641
        k(  217) = (  -0.1875449   1.1126163  -1.0084459), wk =   0.0025641
        k(  218) = (  -0.1267592   1.1126163  -0.8404019), wk =   0.0025641
        k(  219) = (  -0.0659734   1.1126163  -0.6723579), wk =   0.0025641
        k(  220) = (  -0.0051877   1.1126163  -0.5043140), wk =   0.0025641
        k(  221) = (   0.0555980   1.1126163  -0.3362700), wk =   0.0025641
        k(  222) = (   0.1163838   1.1126163  -0.1682260), wk =   0.0025641
        k(  223) = (   0.1771695   1.2980523  -0.0001821), wk =   0.0025641
        k(  224) = (   0.2379552   1.2980523   0.1678619), wk =   0.0025641
        k(  225) = (   0.2987409   1.2980523   0.3359059), wk =   0.0025641
        k(  226) = (   0.3595267   1.2980523   0.5039499), wk =   0.0025641
        k(  227) = (   0.4203124   1.2980523   0.6719938), wk =   0.0025641
        k(  228) = (   0.4810981   1.2980523   0.8400378), wk =   0.0025641
        k(  229) = (   0.5418838   1.2980523   1.0080818), wk =   0.0025641
        k(  230) = (  -0.1875449   1.2980523  -1.0084459), wk =   0.0025641
        k(  231) = (  -0.1267592   1.2980523  -0.8404019), wk =   0.0025641
        k(  232) = (  -0.0659734   1.2980523  -0.6723579), wk =   0.0025641
        k(  233) = (  -0.0051877   1.2980523  -0.5043140), wk =   0.0025641
        k(  234) = (   0.0555980   1.2980523  -0.3362700), wk =   0.0025641
        k(  235) = (   0.1163838   1.2980523  -0.1682260), wk =   0.0025641
        k(  236) = (   0.1771695   1.4834884  -0.0001821), wk =   0.0025641
        k(  237) = (   0.2379552   1.4834884   0.1678619), wk =   0.0025641
        k(  238) = (   0.2987409   1.4834884   0.3359059), wk =   0.0025641
        k(  239) = (   0.3595267   1.4834884   0.5039499), wk =   0.0025641
        k(  240) = (   0.4203124   1.4834884   0.6719938), wk =   0.0025641
        k(  241) = (   0.4810981   1.4834884   0.8400378), wk =   0.0025641
        k(  242) = (   0.5418838   1.4834884   1.0080818), wk =   0.0025641
        k(  243) = (  -0.1875449   1.4834884  -1.0084459), wk =   0.0025641
        k(  244) = (  -0.1267592   1.4834884  -0.8404019), wk =   0.0025641
        k(  245) = (  -0.0659734   1.4834884  -0.6723579), wk =   0.0025641
        k(  246) = (  -0.0051877   1.4834884  -0.5043140), wk =   0.0025641
        k(  247) = (   0.0555980   1.4834884  -0.3362700), wk =   0.0025641
        k(  248) = (   0.1163838   1.4834884  -0.1682260), wk =   0.0025641
        k(  249) = (   0.1771695   1.6689244  -0.0001821), wk =   0.0025641
        k(  250) = (   0.2379552   1.6689244   0.1678619), wk =   0.0025641
        k(  251) = (   0.2987409   1.6689244   0.3359059), wk =   0.0025641
        k(  252) = (   0.3595267   1.6689244   0.5039499), wk =   0.0025641
        k(  253) = (   0.4203124   1.6689244   0.6719938), wk =   0.0025641
        k(  254) = (   0.4810981   1.6689244   0.8400378), wk =   0.0025641
        k(  255) = (   0.5418838   1.6689244   1.0080818), wk =   0.0025641
        k(  256) = (  -0.1875449   1.6689244  -1.0084459), wk =   0.0025641
        k(  257) = (  -0.1267592   1.6689244  -0.8404019), wk =   0.0025641
        k(  258) = (  -0.0659734   1.6689244  -0.6723579), wk =   0.0025641
        k(  259) = (  -0.0051877   1.6689244  -0.5043140), wk =   0.0025641
        k(  260) = (   0.0555980   1.6689244  -0.3362700), wk =   0.0025641
        k(  261) = (   0.1163838   1.6689244  -0.1682260), wk =   0.0025641
        k(  262) = (   0.1771695  -1.8543605  -0.0001821), wk =   0.0025641
        k(  263) = (   0.2379552  -1.8543605   0.1678619), wk =   0.0025641
        k(  264) = (   0.2987409  -1.8543605   0.3359059), wk =   0.0025641
        k(  265) = (   0.3595267  -1.8543605   0.5039499), wk =   0.0025641
        k(  266) = (   0.4203124  -1.8543605   0.6719938), wk =   0.0025641
        k(  267) = (   0.4810981  -1.8543605   0.8400378), wk =   0.0025641
        k(  268) = (   0.5418838  -1.8543605   1.0080818), wk =   0.0025641
        k(  269) = (  -0.1875449  -1.8543605  -1.0084459), wk =   0.0025641
        k(  270) = (  -0.1267592  -1.8543605  -0.8404019), wk =   0.0025641
        k(  271) = (  -0.0659734  -1.8543605  -0.6723579), wk =   0.0025641
        k(  272) = (  -0.0051877  -1.8543605  -0.5043140), wk =   0.0025641
        k(  273) = (   0.0555980  -1.8543605  -0.3362700), wk =   0.0025641
        k(  274) = (   0.1163838  -1.8543605  -0.1682260), wk =   0.0025641
        k(  275) = (   0.1771695  -1.6689244  -0.0001821), wk =   0.0025641
        k(  276) = (   0.2379552  -1.6689244   0.1678619), wk =   0.0025641
        k(  277) = (   0.2987409  -1.6689244   0.3359059), wk =   0.0025641
        k(  278) = (   0.3595267  -1.6689244   0.5039499), wk =   0.0025641
        k(  279) = (   0.4203124  -1.6689244   0.6719938), wk =   0.0025641
        k(  280) = (   0.4810981  -1.6689244   0.8400378), wk =   0.0025641
        k(  281) = (   0.5418838  -1.6689244   1.0080818), wk =   0.0025641
        k(  282) = (  -0.1875449  -1.6689244  -1.0084459), wk =   0.0025641
        k(  283) = (  -0.1267592  -1.6689244  -0.8404019), wk =   0.0025641
        k(  284) = (  -0.0659734  -1.6689244  -0.6723579), wk =   0.0025641
        k(  285) = (  -0.0051877  -1.6689244  -0.5043140), wk =   0.0025641
        k(  286) = (   0.0555980  -1.6689244  -0.3362700), wk =   0.0025641
        k(  287) = (   0.1163838  -1.6689244  -0.1682260), wk =   0.0025641
        k(  288) = (   0.1771695  -1.4834884  -0.0001821), wk =   0.0025641
        k(  289) = (   0.2379552  -1.4834884   0.1678619), wk =   0.0025641
        k(  290) = (   0.2987409  -1.4834884   0.3359059), wk =   0.0025641
        k(  291) = (   0.3595267  -1.4834884   0.5039499), wk =   0.0025641
        k(  292) = (   0.4203124  -1.4834884   0.6719938), wk =   0.0025641
        k(  293) = (   0.4810981  -1.4834884   0.8400378), wk =   0.0025641
        k(  294) = (   0.5418838  -1.4834884   1.0080818), wk =   0.0025641
        k(  295) = (  -0.1875449  -1.4834884  -1.0084459), wk =   0.0025641
        k(  296) = (  -0.1267592  -1.4834884  -0.8404019), wk =   0.0025641
        k(  297) = (  -0.0659734  -1.4834884  -0.6723579), wk =   0.0025641
        k(  298) = (  -0.0051877  -1.4834884  -0.5043140), wk =   0.0025641
        k(  299) = (   0.0555980  -1.4834884  -0.3362700), wk =   0.0025641
        k(  300) = (   0.1163838  -1.4834884  -0.1682260), wk =   0.0025641
        k(  301) = (   0.1771695  -1.2980523  -0.0001821), wk =   0.0025641
        k(  302) = (   0.2379552  -1.2980523   0.1678619), wk =   0.0025641
        k(  303) = (   0.2987409  -1.2980523   0.3359059), wk =   0.0025641
        k(  304) = (   0.3595267  -1.2980523   0.5039499), wk =   0.0025641
        k(  305) = (   0.4203124  -1.2980523   0.6719938), wk =   0.0025641
        k(  306) = (   0.4810981  -1.2980523   0.8400378), wk =   0.0025641
        k(  307) = (   0.5418838  -1.2980523   1.0080818), wk =   0.0025641
        k(  308) = (  -0.1875449  -1.2980523  -1.0084459), wk =   0.0025641
        k(  309) = (  -0.1267592  -1.2980523  -0.8404019), wk =   0.0025641
        k(  310) = (  -0.0659734  -1.2980523  -0.6723579), wk =   0.0025641
        k(  311) = (  -0.0051877  -1.2980523  -0.5043140), wk =   0.0025641
        k(  312) = (   0.0555980  -1.2980523  -0.3362700), wk =   0.0025641
        k(  313) = (   0.1163838  -1.2980523  -0.1682260), wk =   0.0025641
        k(  314) = (   0.1771695  -1.1126163  -0.0001821), wk =   0.0025641
        k(  315) = (   0.2379552  -1.1126163   0.1678619), wk =   0.0025641
        k(  316) = (   0.2987409  -1.1126163   0.3359059), wk =   0.0025641
        k(  317) = (   0.3595267  -1.1126163   0.5039499), wk =   0.0025641
        k(  318) = (   0.4203124  -1.1126163   0.6719938), wk =   0.0025641
        k(  319) = (   0.4810981  -1.1126163   0.8400378), wk =   0.0025641
        k(  320) = (   0.5418838  -1.1126163   1.0080818), wk =   0.0025641
        k(  321) = (  -0.1875449  -1.1126163  -1.0084459), wk =   0.0025641
        k(  322) = (  -0.1267592  -1.1126163  -0.8404019), wk =   0.0025641
        k(  323) = (  -0.0659734  -1.1126163  -0.6723579), wk =   0.0025641
        k(  324) = (  -0.0051877  -1.1126163  -0.5043140), wk =   0.0025641
        k(  325) = (   0.0555980  -1.1126163  -0.3362700), wk =   0.0025641
        k(  326) = (   0.1163838  -1.1126163  -0.1682260), wk =   0.0025641
        k(  327) = (   0.1771695  -0.9271802  -0.0001821), wk =   0.0025641
        k(  328) = (   0.2379552  -0.9271802   0.1678619), wk =   0.0025641
        k(  329) = (   0.2987409  -0.9271802   0.3359059), wk =   0.0025641
        k(  330) = (   0.3595267  -0.9271802   0.5039499), wk =   0.0025641
        k(  331) = (   0.4203124  -0.9271802   0.6719938), wk =   0.0025641
        k(  332) = (   0.4810981  -0.9271802   0.8400378), wk =   0.0025641
        k(  333) = (   0.5418838  -0.9271802   1.0080818), wk =   0.0025641
        k(  334) = (  -0.1875449  -0.9271802  -1.0084459), wk =   0.0025641
        k(  335) = (  -0.1267592  -0.9271802  -0.8404019), wk =   0.0025641
        k(  336) = (  -0.0659734  -0.9271802  -0.6723579), wk =   0.0025641
        k(  337) = (  -0.0051877  -0.9271802  -0.5043140), wk =   0.0025641
        k(  338) = (   0.0555980  -0.9271802  -0.3362700), wk =   0.0025641
        k(  339) = (   0.1163838  -0.9271802  -0.1682260), wk =   0.0025641
        k(  340) = (   0.1771695  -0.7417442  -0.0001821), wk =   0.0025641
        k(  341) = (   0.2379552  -0.7417442   0.1678619), wk =   0.0025641
        k(  342) = (   0.2987409  -0.7417442   0.3359059), wk =   0.0025641
        k(  343) = (   0.3595267  -0.7417442   0.5039499), wk =   0.0025641
        k(  344) = (   0.4203124  -0.7417442   0.6719938), wk =   0.0025641
        k(  345) = (   0.4810981  -0.7417442   0.8400378), wk =   0.0025641
        k(  346) = (   0.5418838  -0.7417442   1.0080818), wk =   0.0025641
        k(  347) = (  -0.1875449  -0.7417442  -1.0084459), wk =   0.0025641
        k(  348) = (  -0.1267592  -0.7417442  -0.8404019), wk =   0.0025641
        k(  349) = (  -0.0659734  -0.7417442  -0.6723579), wk =   0.0025641
        k(  350) = (  -0.0051877  -0.7417442  -0.5043140), wk =   0.0025641
        k(  351) = (   0.0555980  -0.7417442  -0.3362700), wk =   0.0025641
        k(  352) = (   0.1163838  -0.7417442  -0.1682260), wk =   0.0025641
        k(  353) = (   0.1771695  -0.5563081  -0.0001821), wk =   0.0025641
        k(  354) = (   0.2379552  -0.5563081   0.1678619), wk =   0.0025641
        k(  355) = (   0.2987409  -0.5563081   0.3359059), wk =   0.0025641
        k(  356) = (   0.3595267  -0.5563081   0.5039499), wk =   0.0025641
        k(  357) = (   0.4203124  -0.5563081   0.6719938), wk =   0.0025641
        k(  358) = (   0.4810981  -0.5563081   0.8400378), wk =   0.0025641
        k(  359) = (   0.5418838  -0.5563081   1.0080818), wk =   0.0025641
        k(  360) = (  -0.1875449  -0.5563081  -1.0084459), wk =   0.0025641
        k(  361) = (  -0.1267592  -0.5563081  -0.8404019), wk =   0.0025641
        k(  362) = (  -0.0659734  -0.5563081  -0.6723579), wk =   0.0025641
        k(  363) = (  -0.0051877  -0.5563081  -0.5043140), wk =   0.0025641
        k(  364) = (   0.0555980  -0.5563081  -0.3362700), wk =   0.0025641
        k(  365) = (   0.1163838  -0.5563081  -0.1682260), wk =   0.0025641
        k(  366) = (   0.1771695  -0.3708721  -0.0001821), wk =   0.0025641
        k(  367) = (   0.2379552  -0.3708721   0.1678619), wk =   0.0025641
        k(  368) = (   0.2987409  -0.3708721   0.3359059), wk =   0.0025641
        k(  369) = (   0.3595267  -0.3708721   0.5039499), wk =   0.0025641
        k(  370) = (   0.4203124  -0.3708721   0.6719938), wk =   0.0025641
        k(  371) = (   0.4810981  -0.3708721   0.8400378), wk =   0.0025641
        k(  372) = (   0.5418838  -0.3708721   1.0080818), wk =   0.0025641
        k(  373) = (  -0.1875449  -0.3708721  -1.0084459), wk =   0.0025641
        k(  374) = (  -0.1267592  -0.3708721  -0.8404019), wk =   0.0025641
        k(  375) = (  -0.0659734  -0.3708721  -0.6723579), wk =   0.0025641
        k(  376) = (  -0.0051877  -0.3708721  -0.5043140), wk =   0.0025641
        k(  377) = (   0.0555980  -0.3708721  -0.3362700), wk =   0.0025641
        k(  378) = (   0.1163838  -0.3708721  -0.1682260), wk =   0.0025641
        k(  379) = (   0.1771695  -0.1854360  -0.0001821), wk =   0.0025641
        k(  380) = (   0.2379552  -0.1854360   0.1678619), wk =   0.0025641
        k(  381) = (   0.2987409  -0.1854360   0.3359059), wk =   0.0025641
        k(  382) = (   0.3595267  -0.1854360   0.5039499), wk =   0.0025641
        k(  383) = (   0.4203124  -0.1854360   0.6719938), wk =   0.0025641
        k(  384) = (   0.4810981  -0.1854360   0.8400378), wk =   0.0025641
        k(  385) = (   0.5418838  -0.1854360   1.0080818), wk =   0.0025641
        k(  386) = (  -0.1875449  -0.1854360  -1.0084459), wk =   0.0025641
        k(  387) = (  -0.1267592  -0.1854360  -0.8404019), wk =   0.0025641
        k(  388) = (  -0.0659734  -0.1854360  -0.6723579), wk =   0.0025641
        k(  389) = (  -0.0051877  -0.1854360  -0.5043140), wk =   0.0025641
        k(  390) = (   0.0555980  -0.1854360  -0.3362700), wk =   0.0025641
        k(  391) = (   0.1163838  -0.1854360  -0.1682260), wk =   0.0025641
        k(  392) = (   0.3543390   0.0000000  -0.0003641), wk =   0.0025641
        k(  393) = (   0.4151247   0.0000000   0.1676799), wk =   0.0025641
        k(  394) = (   0.4759104   0.0000000   0.3357238), wk =   0.0025641
        k(  395) = (   0.5366961   0.0000000   0.5037678), wk =   0.0025641
        k(  396) = (   0.5974819   0.0000000   0.6718118), wk =   0.0025641
        k(  397) = (   0.6582676   0.0000000   0.8398558), wk =   0.0025641
        k(  398) = (   0.7190533   0.0000000   1.0078997), wk =   0.0025641
        k(  399) = (  -0.0103754   0.0000000  -1.0086279), wk =   0.0025641
        k(  400) = (   0.0504103   0.0000000  -0.8405840), wk =   0.0025641
        k(  401) = (   0.1111961   0.0000000  -0.6725400), wk =   0.0025641
        k(  402) = (   0.1719818   0.0000000  -0.5044960), wk =   0.0025641
        k(  403) = (   0.2327675   0.0000000  -0.3364520), wk =   0.0025641
        k(  404) = (   0.2935532   0.0000000  -0.1684081), wk =   0.0025641
        k(  405) = (   0.3543390   0.1854360  -0.0003641), wk =   0.0025641
        k(  406) = (   0.4151247   0.1854360   0.1676799), wk =   0.0025641
        k(  407) = (   0.4759104   0.1854360   0.3357238), wk =   0.0025641
        k(  408) = (   0.5366961   0.1854360   0.5037678), wk =   0.0025641
        k(  409) = (   0.5974819   0.1854360   0.6718118), wk =   0.0025641
        k(  410) = (   0.6582676   0.1854360   0.8398558), wk =   0.0025641
        k(  411) = (   0.7190533   0.1854360   1.0078997), wk =   0.0025641
        k(  412) = (  -0.0103754   0.1854360  -1.0086279), wk =   0.0025641
        k(  413) = (   0.0504103   0.1854360  -0.8405840), wk =   0.0025641
        k(  414) = (   0.1111961   0.1854360  -0.6725400), wk =   0.0025641
        k(  415) = (   0.1719818   0.1854360  -0.5044960), wk =   0.0025641
        k(  416) = (   0.2327675   0.1854360  -0.3364520), wk =   0.0025641
        k(  417) = (   0.2935532   0.1854360  -0.1684081), wk =   0.0025641
        k(  418) = (   0.3543390   0.3708721  -0.0003641), wk =   0.0025641
        k(  419) = (   0.4151247   0.3708721   0.1676799), wk =   0.0025641
        k(  420) = (   0.4759104   0.3708721   0.3357238), wk =   0.0025641
        k(  421) = (   0.5366961   0.3708721   0.5037678), wk =   0.0025641
        k(  422) = (   0.5974819   0.3708721   0.6718118), wk =   0.0025641
        k(  423) = (   0.6582676   0.3708721   0.8398558), wk =   0.0025641
        k(  424) = (   0.7190533   0.3708721   1.0078997), wk =   0.0025641
        k(  425) = (  -0.0103754   0.3708721  -1.0086279), wk =   0.0025641
        k(  426) = (   0.0504103   0.3708721  -0.8405840), wk =   0.0025641
        k(  427) = (   0.1111961   0.3708721  -0.6725400), wk =   0.0025641
        k(  428) = (   0.1719818   0.3708721  -0.5044960), wk =   0.0025641
        k(  429) = (   0.2327675   0.3708721  -0.3364520), wk =   0.0025641
        k(  430) = (   0.2935532   0.3708721  -0.1684081), wk =   0.0025641
        k(  431) = (   0.3543390   0.5563081  -0.0003641), wk =   0.0025641
        k(  432) = (   0.4151247   0.5563081   0.1676799), wk =   0.0025641
        k(  433) = (   0.4759104   0.5563081   0.3357238), wk =   0.0025641
        k(  434) = (   0.5366961   0.5563081   0.5037678), wk =   0.0025641
        k(  435) = (   0.5974819   0.5563081   0.6718118), wk =   0.0025641
        k(  436) = (   0.6582676   0.5563081   0.8398558), wk =   0.0025641
        k(  437) = (   0.7190533   0.5563081   1.0078997), wk =   0.0025641
        k(  438) = (  -0.0103754   0.5563081  -1.0086279), wk =   0.0025641
        k(  439) = (   0.0504103   0.5563081  -0.8405840), wk =   0.0025641
        k(  440) = (   0.1111961   0.5563081  -0.6725400), wk =   0.0025641
        k(  441) = (   0.1719818   0.5563081  -0.5044960), wk =   0.0025641
        k(  442) = (   0.2327675   0.5563081  -0.3364520), wk =   0.0025641
        k(  443) = (   0.2935532   0.5563081  -0.1684081), wk =   0.0025641
        k(  444) = (   0.3543390   0.7417442  -0.0003641), wk =   0.0025641
        k(  445) = (   0.4151247   0.7417442   0.1676799), wk =   0.0025641
        k(  446) = (   0.4759104   0.7417442   0.3357238), wk =   0.0025641
        k(  447) = (   0.5366961   0.7417442   0.5037678), wk =   0.0025641
        k(  448) = (   0.5974819   0.7417442   0.6718118), wk =   0.0025641
        k(  449) = (   0.6582676   0.7417442   0.8398558), wk =   0.0025641
        k(  450) = (   0.7190533   0.7417442   1.0078997), wk =   0.0025641
        k(  451) = (  -0.0103754   0.7417442  -1.0086279), wk =   0.0025641
        k(  452) = (   0.0504103   0.7417442  -0.8405840), wk =   0.0025641
        k(  453) = (   0.1111961   0.7417442  -0.6725400), wk =   0.0025641
        k(  454) = (   0.1719818   0.7417442  -0.5044960), wk =   0.0025641
        k(  455) = (   0.2327675   0.7417442  -0.3364520), wk =   0.0025641
        k(  456) = (   0.2935532   0.7417442  -0.1684081), wk =   0.0025641
        k(  457) = (   0.3543390   0.9271802  -0.0003641), wk =   0.0025641
        k(  458) = (   0.4151247   0.9271802   0.1676799), wk =   0.0025641
        k(  459) = (   0.4759104   0.9271802   0.3357238), wk =   0.0025641
        k(  460) = (   0.5366961   0.9271802   0.5037678), wk =   0.0025641
        k(  461) = (   0.5974819   0.9271802   0.6718118), wk =   0.0025641
        k(  462) = (   0.6582676   0.9271802   0.8398558), wk =   0.0025641
        k(  463) = (   0.7190533   0.9271802   1.0078997), wk =   0.0025641
        k(  464) = (  -0.0103754   0.9271802  -1.0086279), wk =   0.0025641
        k(  465) = (   0.0504103   0.9271802  -0.8405840), wk =   0.0025641
        k(  466) = (   0.1111961   0.9271802  -0.6725400), wk =   0.0025641
        k(  467) = (   0.1719818   0.9271802  -0.5044960), wk =   0.0025641
        k(  468) = (   0.2327675   0.9271802  -0.3364520), wk =   0.0025641
        k(  469) = (   0.2935532   0.9271802  -0.1684081), wk =   0.0025641
        k(  470) = (   0.3543390   1.1126163  -0.0003641), wk =   0.0025641
        k(  471) = (   0.4151247   1.1126163   0.1676799), wk =   0.0025641
        k(  472) = (   0.4759104   1.1126163   0.3357238), wk =   0.0025641
        k(  473) = (   0.5366961   1.1126163   0.5037678), wk =   0.0025641
        k(  474) = (   0.5974819   1.1126163   0.6718118), wk =   0.0025641
        k(  475) = (   0.6582676   1.1126163   0.8398558), wk =   0.0025641
        k(  476) = (   0.7190533   1.1126163   1.0078997), wk =   0.0025641
        k(  477) = (  -0.0103754   1.1126163  -1.0086279), wk =   0.0025641
        k(  478) = (   0.0504103   1.1126163  -0.8405840), wk =   0.0025641
        k(  479) = (   0.1111961   1.1126163  -0.6725400), wk =   0.0025641
        k(  480) = (   0.1719818   1.1126163  -0.5044960), wk =   0.0025641
        k(  481) = (   0.2327675   1.1126163  -0.3364520), wk =   0.0025641
        k(  482) = (   0.2935532   1.1126163  -0.1684081), wk =   0.0025641
        k(  483) = (   0.3543390   1.2980523  -0.0003641), wk =   0.0025641
        k(  484) = (   0.4151247   1.2980523   0.1676799), wk =   0.0025641
        k(  485) = (   0.4759104   1.2980523   0.3357238), wk =   0.0025641
        k(  486) = (   0.5366961   1.2980523   0.5037678), wk =   0.0025641
        k(  487) = (   0.5974819   1.2980523   0.6718118), wk =   0.0025641
        k(  488) = (   0.6582676   1.2980523   0.8398558), wk =   0.0025641
        k(  489) = (   0.7190533   1.2980523   1.0078997), wk =   0.0025641
        k(  490) = (  -0.0103754   1.2980523  -1.0086279), wk =   0.0025641
        k(  491) = (   0.0504103   1.2980523  -0.8405840), wk =   0.0025641
        k(  492) = (   0.1111961   1.2980523  -0.6725400), wk =   0.0025641
        k(  493) = (   0.1719818   1.2980523  -0.5044960), wk =   0.0025641
        k(  494) = (   0.2327675   1.2980523  -0.3364520), wk =   0.0025641
        k(  495) = (   0.2935532   1.2980523  -0.1684081), wk =   0.0025641
        k(  496) = (   0.3543390   1.4834884  -0.0003641), wk =   0.0025641
        k(  497) = (   0.4151247   1.4834884   0.1676799), wk =   0.0025641
        k(  498) = (   0.4759104   1.4834884   0.3357238), wk =   0.0025641
        k(  499) = (   0.5366961   1.4834884   0.5037678), wk =   0.0025641
        k(  500) = (   0.5974819   1.4834884   0.6718118), wk =   0.0025641
        k(  501) = (   0.6582676   1.4834884   0.8398558), wk =   0.0025641
        k(  502) = (   0.7190533   1.4834884   1.0078997), wk =   0.0025641
        k(  503) = (  -0.0103754   1.4834884  -1.0086279), wk =   0.0025641
        k(  504) = (   0.0504103   1.4834884  -0.8405840), wk =   0.0025641
        k(  505) = (   0.1111961   1.4834884  -0.6725400), wk =   0.0025641
        k(  506) = (   0.1719818   1.4834884  -0.5044960), wk =   0.0025641
        k(  507) = (   0.2327675   1.4834884  -0.3364520), wk =   0.0025641
        k(  508) = (   0.2935532   1.4834884  -0.1684081), wk =   0.0025641
        k(  509) = (   0.3543390   1.6689244  -0.0003641), wk =   0.0025641
        k(  510) = (   0.4151247   1.6689244   0.1676799), wk =   0.0025641
        k(  511) = (   0.4759104   1.6689244   0.3357238), wk =   0.0025641
        k(  512) = (   0.5366961   1.6689244   0.5037678), wk =   0.0025641
        k(  513) = (   0.5974819   1.6689244   0.6718118), wk =   0.0025641
        k(  514) = (   0.6582676   1.6689244   0.8398558), wk =   0.0025641
        k(  515) = (   0.7190533   1.6689244   1.0078997), wk =   0.0025641
        k(  516) = (  -0.0103754   1.6689244  -1.0086279), wk =   0.0025641
        k(  517) = (   0.0504103   1.6689244  -0.8405840), wk =   0.0025641
        k(  518) = (   0.1111961   1.6689244  -0.6725400), wk =   0.0025641
        k(  519) = (   0.1719818   1.6689244  -0.5044960), wk =   0.0025641
        k(  520) = (   0.2327675   1.6689244  -0.3364520), wk =   0.0025641
        k(  521) = (   0.2935532   1.6689244  -0.1684081), wk =   0.0025641
        k(  522) = (   0.3543390  -1.8543605  -0.0003641), wk =   0.0025641
        k(  523) = (   0.4151247  -1.8543605   0.1676799), wk =   0.0025641
        k(  524) = (   0.4759104  -1.8543605   0.3357238), wk =   0.0025641
        k(  525) = (   0.5366961  -1.8543605   0.5037678), wk =   0.0025641
        k(  526) = (   0.5974819  -1.8543605   0.6718118), wk =   0.0025641
        k(  527) = (   0.6582676  -1.8543605   0.8398558), wk =   0.0025641
        k(  528) = (   0.7190533  -1.8543605   1.0078997), wk =   0.0025641
        k(  529) = (  -0.0103754  -1.8543605  -1.0086279), wk =   0.0025641
        k(  530) = (   0.0504103  -1.8543605  -0.8405840), wk =   0.0025641
        k(  531) = (   0.1111961  -1.8543605  -0.6725400), wk =   0.0025641
        k(  532) = (   0.1719818  -1.8543605  -0.5044960), wk =   0.0025641
        k(  533) = (   0.2327675  -1.8543605  -0.3364520), wk =   0.0025641
        k(  534) = (   0.2935532  -1.8543605  -0.1684081), wk =   0.0025641
        k(  535) = (   0.3543390  -1.6689244  -0.0003641), wk =   0.0025641
        k(  536) = (   0.4151247  -1.6689244   0.1676799), wk =   0.0025641
        k(  537) = (   0.4759104  -1.6689244   0.3357238), wk =   0.0025641
        k(  538) = (   0.5366961  -1.6689244   0.5037678), wk =   0.0025641
        k(  539) = (   0.5974819  -1.6689244   0.6718118), wk =   0.0025641
        k(  540) = (   0.6582676  -1.6689244   0.8398558), wk =   0.0025641
        k(  541) = (   0.7190533  -1.6689244   1.0078997), wk =   0.0025641
        k(  542) = (  -0.0103754  -1.6689244  -1.0086279), wk =   0.0025641
        k(  543) = (   0.0504103  -1.6689244  -0.8405840), wk =   0.0025641
        k(  544) = (   0.1111961  -1.6689244  -0.6725400), wk =   0.0025641
        k(  545) = (   0.1719818  -1.6689244  -0.5044960), wk =   0.0025641
        k(  546) = (   0.2327675  -1.6689244  -0.3364520), wk =   0.0025641
        k(  547) = (   0.2935532  -1.6689244  -0.1684081), wk =   0.0025641
        k(  548) = (   0.3543390  -1.4834884  -0.0003641), wk =   0.0025641
        k(  549) = (   0.4151247  -1.4834884   0.1676799), wk =   0.0025641
        k(  550) = (   0.4759104  -1.4834884   0.3357238), wk =   0.0025641
        k(  551) = (   0.5366961  -1.4834884   0.5037678), wk =   0.0025641
        k(  552) = (   0.5974819  -1.4834884   0.6718118), wk =   0.0025641
        k(  553) = (   0.6582676  -1.4834884   0.8398558), wk =   0.0025641
        k(  554) = (   0.7190533  -1.4834884   1.0078997), wk =   0.0025641
        k(  555) = (  -0.0103754  -1.4834884  -1.0086279), wk =   0.0025641
        k(  556) = (   0.0504103  -1.4834884  -0.8405840), wk =   0.0025641
        k(  557) = (   0.1111961  -1.4834884  -0.6725400), wk =   0.0025641
        k(  558) = (   0.1719818  -1.4834884  -0.5044960), wk =   0.0025641
        k(  559) = (   0.2327675  -1.4834884  -0.3364520), wk =   0.0025641
        k(  560) = (   0.2935532  -1.4834884  -0.1684081), wk =   0.0025641
        k(  561) = (   0.3543390  -1.2980523  -0.0003641), wk =   0.0025641
        k(  562) = (   0.4151247  -1.2980523   0.1676799), wk =   0.0025641
        k(  563) = (   0.4759104  -1.2980523   0.3357238), wk =   0.0025641
        k(  564) = (   0.5366961  -1.2980523   0.5037678), wk =   0.0025641
        k(  565) = (   0.5974819  -1.2980523   0.6718118), wk =   0.0025641
        k(  566) = (   0.6582676  -1.2980523   0.8398558), wk =   0.0025641
        k(  567) = (   0.7190533  -1.2980523   1.0078997), wk =   0.0025641
        k(  568) = (  -0.0103754  -1.2980523  -1.0086279), wk =   0.0025641
        k(  569) = (   0.0504103  -1.2980523  -0.8405840), wk =   0.0025641
        k(  570) = (   0.1111961  -1.2980523  -0.6725400), wk =   0.0025641
        k(  571) = (   0.1719818  -1.2980523  -0.5044960), wk =   0.0025641
        k(  572) = (   0.2327675  -1.2980523  -0.3364520), wk =   0.0025641
        k(  573) = (   0.2935532  -1.2980523  -0.1684081), wk =   0.0025641
        k(  574) = (   0.3543390  -1.1126163  -0.0003641), wk =   0.0025641
        k(  575) = (   0.4151247  -1.1126163   0.1676799), wk =   0.0025641
        k(  576) = (   0.4759104  -1.1126163   0.3357238), wk =   0.0025641
        k(  577) = (   0.5366961  -1.1126163   0.5037678), wk =   0.0025641
        k(  578) = (   0.5974819  -1.1126163   0.6718118), wk =   0.0025641
        k(  579) = (   0.6582676  -1.1126163   0.8398558), wk =   0.0025641
        k(  580) = (   0.7190533  -1.1126163   1.0078997), wk =   0.0025641
        k(  581) = (  -0.0103754  -1.1126163  -1.0086279), wk =   0.0025641
        k(  582) = (   0.0504103  -1.1126163  -0.8405840), wk =   0.0025641
        k(  583) = (   0.1111961  -1.1126163  -0.6725400), wk =   0.0025641
        k(  584) = (   0.1719818  -1.1126163  -0.5044960), wk =   0.0025641
        k(  585) = (   0.2327675  -1.1126163  -0.3364520), wk =   0.0025641
        k(  586) = (   0.2935532  -1.1126163  -0.1684081), wk =   0.0025641
        k(  587) = (   0.3543390  -0.9271802  -0.0003641), wk =   0.0025641
        k(  588) = (   0.4151247  -0.9271802   0.1676799), wk =   0.0025641
        k(  589) = (   0.4759104  -0.9271802   0.3357238), wk =   0.0025641
        k(  590) = (   0.5366961  -0.9271802   0.5037678), wk =   0.0025641
        k(  591) = (   0.5974819  -0.9271802   0.6718118), wk =   0.0025641
        k(  592) = (   0.6582676  -0.9271802   0.8398558), wk =   0.0025641
        k(  593) = (   0.7190533  -0.9271802   1.0078997), wk =   0.0025641
        k(  594) = (  -0.0103754  -0.9271802  -1.0086279), wk =   0.0025641
        k(  595) = (   0.0504103  -0.9271802  -0.8405840), wk =   0.0025641
        k(  596) = (   0.1111961  -0.9271802  -0.6725400), wk =   0.0025641
        k(  597) = (   0.1719818  -0.9271802  -0.5044960), wk =   0.0025641
        k(  598) = (   0.2327675  -0.9271802  -0.3364520), wk =   0.0025641
        k(  599) = (   0.2935532  -0.9271802  -0.1684081), wk =   0.0025641
        k(  600) = (   0.3543390  -0.7417442  -0.0003641), wk =   0.0025641
        k(  601) = (   0.4151247  -0.7417442   0.1676799), wk =   0.0025641
        k(  602) = (   0.4759104  -0.7417442   0.3357238), wk =   0.0025641
        k(  603) = (   0.5366961  -0.7417442   0.5037678), wk =   0.0025641
        k(  604) = (   0.5974819  -0.7417442   0.6718118), wk =   0.0025641
        k(  605) = (   0.6582676  -0.7417442   0.8398558), wk =   0.0025641
        k(  606) = (   0.7190533  -0.7417442   1.0078997), wk =   0.0025641
        k(  607) = (  -0.0103754  -0.7417442  -1.0086279), wk =   0.0025641
        k(  608) = (   0.0504103  -0.7417442  -0.8405840), wk =   0.0025641
        k(  609) = (   0.1111961  -0.7417442  -0.6725400), wk =   0.0025641
        k(  610) = (   0.1719818  -0.7417442  -0.5044960), wk =   0.0025641
        k(  611) = (   0.2327675  -0.7417442  -0.3364520), wk =   0.0025641
        k(  612) = (   0.2935532  -0.7417442  -0.1684081), wk =   0.0025641
        k(  613) = (   0.3543390  -0.5563081  -0.0003641), wk =   0.0025641
        k(  614) = (   0.4151247  -0.5563081   0.1676799), wk =   0.0025641
        k(  615) = (   0.4759104  -0.5563081   0.3357238), wk =   0.0025641
        k(  616) = (   0.5366961  -0.5563081   0.5037678), wk =   0.0025641
        k(  617) = (   0.5974819  -0.5563081   0.6718118), wk =   0.0025641
        k(  618) = (   0.6582676  -0.5563081   0.8398558), wk =   0.0025641
        k(  619) = (   0.7190533  -0.5563081   1.0078997), wk =   0.0025641
        k(  620) = (  -0.0103754  -0.5563081  -1.0086279), wk =   0.0025641
        k(  621) = (   0.0504103  -0.5563081  -0.8405840), wk =   0.0025641
        k(  622) = (   0.1111961  -0.5563081  -0.6725400), wk =   0.0025641
        k(  623) = (   0.1719818  -0.5563081  -0.5044960), wk =   0.0025641
        k(  624) = (   0.2327675  -0.5563081  -0.3364520), wk =   0.0025641
        k(  625) = (   0.2935532  -0.5563081  -0.1684081), wk =   0.0025641
        k(  626) = (   0.3543390  -0.3708721  -0.0003641), wk =   0.0025641
        k(  627) = (   0.4151247  -0.3708721   0.1676799), wk =   0.0025641
        k(  628) = (   0.4759104  -0.3708721   0.3357238), wk =   0.0025641
        k(  629) = (   0.5366961  -0.3708721   0.5037678), wk =   0.0025641
        k(  630) = (   0.5974819  -0.3708721   0.6718118), wk =   0.0025641
        k(  631) = (   0.6582676  -0.3708721   0.8398558), wk =   0.0025641
        k(  632) = (   0.7190533  -0.3708721   1.0078997), wk =   0.0025641
        k(  633) = (  -0.0103754  -0.3708721  -1.0086279), wk =   0.0025641
        k(  634) = (   0.0504103  -0.3708721  -0.8405840), wk =   0.0025641
        k(  635) = (   0.1111961  -0.3708721  -0.6725400), wk =   0.0025641
        k(  636) = (   0.1719818  -0.3708721  -0.5044960), wk =   0.0025641
        k(  637) = (   0.2327675  -0.3708721  -0.3364520), wk =   0.0025641
        k(  638) = (   0.2935532  -0.3708721  -0.1684081), wk =   0.0025641
        k(  639) = (   0.3543390  -0.1854360  -0.0003641), wk =   0.0025641
        k(  640) = (   0.4151247  -0.1854360   0.1676799), wk =   0.0025641
        k(  641) = (   0.4759104  -0.1854360   0.3357238), wk =   0.0025641
        k(  642) = (   0.5366961  -0.1854360   0.5037678), wk =   0.0025641
        k(  643) = (   0.5974819  -0.1854360   0.6718118), wk =   0.0025641
        k(  644) = (   0.6582676  -0.1854360   0.8398558), wk =   0.0025641
        k(  645) = (   0.7190533  -0.1854360   1.0078997), wk =   0.0025641
        k(  646) = (  -0.0103754  -0.1854360  -1.0086279), wk =   0.0025641
        k(  647) = (   0.0504103  -0.1854360  -0.8405840), wk =   0.0025641
        k(  648) = (   0.1111961  -0.1854360  -0.6725400), wk =   0.0025641
        k(  649) = (   0.1719818  -0.1854360  -0.5044960), wk =   0.0025641
        k(  650) = (   0.2327675  -0.1854360  -0.3364520), wk =   0.0025641
        k(  651) = (   0.2935532  -0.1854360  -0.1684081), wk =   0.0025641
        k(  652) = (  -0.5315084   0.0000000   0.0005462), wk =   0.0012821
        k(  653) = (  -0.4707227   0.0000000   0.1685901), wk =   0.0025641
        k(  654) = (  -0.4099370   0.0000000   0.3366341), wk =   0.0025641
        k(  655) = (  -0.3491513   0.0000000   0.5046781), wk =   0.0025641
        k(  656) = (  -0.2883655   0.0000000   0.6727220), wk =   0.0025641
        k(  657) = (  -0.2275798   0.0000000   0.8407660), wk =   0.0025641
        k(  658) = (  -0.1667941   0.0000000   1.0088100), wk =   0.0025641
        k(  659) = (  -0.5315084   0.1854360   0.0005462), wk =   0.0025641
        k(  660) = (  -0.4707227   0.1854360   0.1685901), wk =   0.0025641
        k(  661) = (  -0.4099370   0.1854360   0.3366341), wk =   0.0025641
        k(  662) = (  -0.3491513   0.1854360   0.5046781), wk =   0.0025641
        k(  663) = (  -0.2883655   0.1854360   0.6727220), wk =   0.0025641
        k(  664) = (  -0.2275798   0.1854360   0.8407660), wk =   0.0025641
        k(  665) = (  -0.1667941   0.1854360   1.0088100), wk =   0.0025641
        k(  666) = (  -0.8962228   0.1854360  -1.0077177), wk =   0.0025641
        k(  667) = (  -0.8354371   0.1854360  -0.8396737), wk =   0.0025641
        k(  668) = (  -0.7746513   0.1854360  -0.6716297), wk =   0.0025641
        k(  669) = (  -0.7138656   0.1854360  -0.5035858), wk =   0.0025641
        k(  670) = (  -0.6530799   0.1854360  -0.3355418), wk =   0.0025641
        k(  671) = (  -0.5922942   0.1854360  -0.1674978), wk =   0.0025641
        k(  672) = (  -0.5315084   0.3708721   0.0005462), wk =   0.0025641
        k(  673) = (  -0.4707227   0.3708721   0.1685901), wk =   0.0025641
        k(  674) = (  -0.4099370   0.3708721   0.3366341), wk =   0.0025641
        k(  675) = (  -0.3491513   0.3708721   0.5046781), wk =   0.0025641
        k(  676) = (  -0.2883655   0.3708721   0.6727220), wk =   0.0025641
        k(  677) = (  -0.2275798   0.3708721   0.8407660), wk =   0.0025641
        k(  678) = (  -0.1667941   0.3708721   1.0088100), wk =   0.0025641
        k(  679) = (  -0.8962228   0.3708721  -1.0077177), wk =   0.0025641
        k(  680) = (  -0.8354371   0.3708721  -0.8396737), wk =   0.0025641
        k(  681) = (  -0.7746513   0.3708721  -0.6716297), wk =   0.0025641
        k(  682) = (  -0.7138656   0.3708721  -0.5035858), wk =   0.0025641
        k(  683) = (  -0.6530799   0.3708721  -0.3355418), wk =   0.0025641
        k(  684) = (  -0.5922942   0.3708721  -0.1674978), wk =   0.0025641
        k(  685) = (  -0.5315084   0.5563081   0.0005462), wk =   0.0025641
        k(  686) = (  -0.4707227   0.5563081   0.1685901), wk =   0.0025641
        k(  687) = (  -0.4099370   0.5563081   0.3366341), wk =   0.0025641
        k(  688) = (  -0.3491513   0.5563081   0.5046781), wk =   0.0025641
        k(  689) = (  -0.2883655   0.5563081   0.6727220), wk =   0.0025641
        k(  690) = (  -0.2275798   0.5563081   0.8407660), wk =   0.0025641
        k(  691) = (  -0.1667941   0.5563081   1.0088100), wk =   0.0025641
        k(  692) = (  -0.8962228   0.5563081  -1.0077177), wk =   0.0025641
        k(  693) = (  -0.8354371   0.5563081  -0.8396737), wk =   0.0025641
        k(  694) = (  -0.7746513   0.5563081  -0.6716297), wk =   0.0025641
        k(  695) = (  -0.7138656   0.5563081  -0.5035858), wk =   0.0025641
        k(  696) = (  -0.6530799   0.5563081  -0.3355418), wk =   0.0025641
        k(  697) = (  -0.5922942   0.5563081  -0.1674978), wk =   0.0025641
        k(  698) = (  -0.5315084   0.7417442   0.0005462), wk =   0.0025641
        k(  699) = (  -0.4707227   0.7417442   0.1685901), wk =   0.0025641
        k(  700) = (  -0.4099370   0.7417442   0.3366341), wk =   0.0025641
        k(  701) = (  -0.3491513   0.7417442   0.5046781), wk =   0.0025641
        k(  702) = (  -0.2883655   0.7417442   0.6727220), wk =   0.0025641
        k(  703) = (  -0.2275798   0.7417442   0.8407660), wk =   0.0025641
        k(  704) = (  -0.1667941   0.7417442   1.0088100), wk =   0.0025641
        k(  705) = (  -0.8962228   0.7417442  -1.0077177), wk =   0.0025641
        k(  706) = (  -0.8354371   0.7417442  -0.8396737), wk =   0.0025641
        k(  707) = (  -0.7746513   0.7417442  -0.6716297), wk =   0.0025641
        k(  708) = (  -0.7138656   0.7417442  -0.5035858), wk =   0.0025641
        k(  709) = (  -0.6530799   0.7417442  -0.3355418), wk =   0.0025641
        k(  710) = (  -0.5922942   0.7417442  -0.1674978), wk =   0.0025641
        k(  711) = (  -0.5315084   0.9271802   0.0005462), wk =   0.0025641
        k(  712) = (  -0.4707227   0.9271802   0.1685901), wk =   0.0025641
        k(  713) = (  -0.4099370   0.9271802   0.3366341), wk =   0.0025641
        k(  714) = (  -0.3491513   0.9271802   0.5046781), wk =   0.0025641
        k(  715) = (  -0.2883655   0.9271802   0.6727220), wk =   0.0025641
        k(  716) = (  -0.2275798   0.9271802   0.8407660), wk =   0.0025641
        k(  717) = (  -0.1667941   0.9271802   1.0088100), wk =   0.0025641
        k(  718) = (  -0.8962228   0.9271802  -1.0077177), wk =   0.0025641
        k(  719) = (  -0.8354371   0.9271802  -0.8396737), wk =   0.0025641
        k(  720) = (  -0.7746513   0.9271802  -0.6716297), wk =   0.0025641
        k(  721) = (  -0.7138656   0.9271802  -0.5035858), wk =   0.0025641
        k(  722) = (  -0.6530799   0.9271802  -0.3355418), wk =   0.0025641
        k(  723) = (  -0.5922942   0.9271802  -0.1674978), wk =   0.0025641
        k(  724) = (  -0.5315084   1.1126163   0.0005462), wk =   0.0025641
        k(  725) = (  -0.4707227   1.1126163   0.1685901), wk =   0.0025641
        k(  726) = (  -0.4099370   1.1126163   0.3366341), wk =   0.0025641
        k(  727) = (  -0.3491513   1.1126163   0.5046781), wk =   0.0025641
        k(  728) = (  -0.2883655   1.1126163   0.6727220), wk =   0.0025641
        k(  729) = (  -0.2275798   1.1126163   0.8407660), wk =   0.0025641
        k(  730) = (  -0.1667941   1.1126163   1.0088100), wk =   0.0025641
        k(  731) = (  -0.8962228   1.1126163  -1.0077177), wk =   0.0025641
        k(  732) = (  -0.8354371   1.1126163  -0.8396737), wk =   0.0025641
        k(  733) = (  -0.7746513   1.1126163  -0.6716297), wk =   0.0025641
        k(  734) = (  -0.7138656   1.1126163  -0.5035858), wk =   0.0025641
        k(  735) = (  -0.6530799   1.1126163  -0.3355418), wk =   0.0025641
        k(  736) = (  -0.5922942   1.1126163  -0.1674978), wk =   0.0025641
        k(  737) = (  -0.5315084   1.2980523   0.0005462), wk =   0.0025641
        k(  738) = (  -0.4707227   1.2980523   0.1685901), wk =   0.0025641
        k(  739) = (  -0.4099370   1.2980523   0.3366341), wk =   0.0025641
        k(  740) = (  -0.3491513   1.2980523   0.5046781), wk =   0.0025641
        k(  741) = (  -0.2883655   1.2980523   0.6727220), wk =   0.0025641
        k(  742) = (  -0.2275798   1.2980523   0.8407660), wk =   0.0025641
        k(  743) = (  -0.1667941   1.2980523   1.0088100), wk =   0.0025641
        k(  744) = (  -0.8962228   1.2980523  -1.0077177), wk =   0.0025641
        k(  745) = (  -0.8354371   1.2980523  -0.8396737), wk =   0.0025641
        k(  746) = (  -0.7746513   1.2980523  -0.6716297), wk =   0.0025641
        k(  747) = (  -0.7138656   1.2980523  -0.5035858), wk =   0.0025641
        k(  748) = (  -0.6530799   1.2980523  -0.3355418), wk =   0.0025641
        k(  749) = (  -0.5922942   1.2980523  -0.1674978), wk =   0.0025641
        k(  750) = (  -0.5315084   1.4834884   0.0005462), wk =   0.0025641
        k(  751) = (  -0.4707227   1.4834884   0.1685901), wk =   0.0025641
        k(  752) = (  -0.4099370   1.4834884   0.3366341), wk =   0.0025641
        k(  753) = (  -0.3491513   1.4834884   0.5046781), wk =   0.0025641
        k(  754) = (  -0.2883655   1.4834884   0.6727220), wk =   0.0025641
        k(  755) = (  -0.2275798   1.4834884   0.8407660), wk =   0.0025641
        k(  756) = (  -0.1667941   1.4834884   1.0088100), wk =   0.0025641
        k(  757) = (  -0.8962228   1.4834884  -1.0077177), wk =   0.0025641
        k(  758) = (  -0.8354371   1.4834884  -0.8396737), wk =   0.0025641
        k(  759) = (  -0.7746513   1.4834884  -0.6716297), wk =   0.0025641
        k(  760) = (  -0.7138656   1.4834884  -0.5035858), wk =   0.0025641
        k(  761) = (  -0.6530799   1.4834884  -0.3355418), wk =   0.0025641
        k(  762) = (  -0.5922942   1.4834884  -0.1674978), wk =   0.0025641
        k(  763) = (  -0.5315084   1.6689244   0.0005462), wk =   0.0025641
        k(  764) = (  -0.4707227   1.6689244   0.1685901), wk =   0.0025641
        k(  765) = (  -0.4099370   1.6689244   0.3366341), wk =   0.0025641
        k(  766) = (  -0.3491513   1.6689244   0.5046781), wk =   0.0025641
        k(  767) = (  -0.2883655   1.6689244   0.6727220), wk =   0.0025641
        k(  768) = (  -0.2275798   1.6689244   0.8407660), wk =   0.0025641
        k(  769) = (  -0.1667941   1.6689244   1.0088100), wk =   0.0025641
        k(  770) = (  -0.8962228   1.6689244  -1.0077177), wk =   0.0025641
        k(  771) = (  -0.8354371   1.6689244  -0.8396737), wk =   0.0025641
        k(  772) = (  -0.7746513   1.6689244  -0.6716297), wk =   0.0025641
        k(  773) = (  -0.7138656   1.6689244  -0.5035858), wk =   0.0025641
        k(  774) = (  -0.6530799   1.6689244  -0.3355418), wk =   0.0025641
        k(  775) = (  -0.5922942   1.6689244  -0.1674978), wk =   0.0025641
        k(  776) = (  -0.5315084  -1.8543605   0.0005462), wk =   0.0012821
        k(  777) = (  -0.4707227  -1.8543605   0.1685901), wk =   0.0025641
        k(  778) = (  -0.4099370  -1.8543605   0.3366341), wk =   0.0025641
        k(  779) = (  -0.3491513  -1.8543605   0.5046781), wk =   0.0025641
        k(  780) = (  -0.2883655  -1.8543605   0.6727220), wk =   0.0025641
        k(  781) = (  -0.2275798  -1.8543605   0.8407660), wk =   0.0025641
        k(  782) = (  -0.1667941  -1.8543605   1.0088100), wk =   0.0025641

                       cryst. coord.
        k(    1) = (   0.0000000   0.0000000   0.0000000), wk =   0.0012821
        k(    2) = (  -0.0000000   0.0000000   0.0769231), wk =   0.0025641
        k(    3) = (  -0.0000000   0.0000000   0.1538462), wk =   0.0025641
        k(    4) = (  -0.0000000   0.0000000   0.2307692), wk =   0.0025641
        k(    5) = (  -0.0000000   0.0000000   0.3076923), wk =   0.0025641
        k(    6) = (  -0.0000000   0.0000000   0.3846154), wk =   0.0025641
        k(    7) = (  -0.0000000   0.0000000   0.4615385), wk =   0.0025641
        k(    8) = (   0.0000000   0.0500000   0.0000000), wk =   0.0025641
        k(    9) = (  -0.0000000   0.0500000   0.0769231), wk =   0.0025641
        k(   10) = (  -0.0000000   0.0500000   0.1538462), wk =   0.0025641
        k(   11) = (  -0.0000000   0.0500000   0.2307692), wk =   0.0025641
        k(   12) = (  -0.0000000   0.0500000   0.3076923), wk =   0.0025641
        k(   13) = (  -0.0000000   0.0500000   0.3846154), wk =   0.0025641
        k(   14) = (  -0.0000000   0.0500000   0.4615385), wk =   0.0025641
        k(   15) = (   0.0000000   0.0500000  -0.4615385), wk =   0.0025641
        k(   16) = (   0.0000000   0.0500000  -0.3846154), wk =   0.0025641
        k(   17) = (   0.0000000   0.0500000  -0.3076923), wk =   0.0025641
        k(   18) = (   0.0000000   0.0500000  -0.2307692), wk =   0.0025641
        k(   19) = (   0.0000000   0.0500000  -0.1538462), wk =   0.0025641
        k(   20) = (   0.0000000   0.0500000  -0.0769231), wk =   0.0025641
        k(   21) = (   0.0000000   0.1000000   0.0000000), wk =   0.0025641
        k(   22) = (  -0.0000000   0.1000000   0.0769231), wk =   0.0025641
        k(   23) = (  -0.0000000   0.1000000   0.1538462), wk =   0.0025641
        k(   24) = (  -0.0000000   0.1000000   0.2307692), wk =   0.0025641
        k(   25) = (  -0.0000000   0.1000000   0.3076923), wk =   0.0025641
        k(   26) = (  -0.0000000   0.1000000   0.3846154), wk =   0.0025641
        k(   27) = (  -0.0000000   0.1000000   0.4615385), wk =   0.0025641
        k(   28) = (   0.0000000   0.1000000  -0.4615385), wk =   0.0025641
        k(   29) = (   0.0000000   0.1000000  -0.3846154), wk =   0.0025641
        k(   30) = (   0.0000000   0.1000000  -0.3076923), wk =   0.0025641
        k(   31) = (   0.0000000   0.1000000  -0.2307692), wk =   0.0025641
        k(   32) = (   0.0000000   0.1000000  -0.1538462), wk =   0.0025641
        k(   33) = (   0.0000000   0.1000000  -0.0769231), wk =   0.0025641
        k(   34) = (   0.0000000   0.1500000   0.0000000), wk =   0.0025641
        k(   35) = (  -0.0000000   0.1500000   0.0769231), wk =   0.0025641
        k(   36) = (  -0.0000000   0.1500000   0.1538462), wk =   0.0025641
        k(   37) = (  -0.0000000   0.1500000   0.2307692), wk =   0.0025641
        k(   38) = (  -0.0000000   0.1500000   0.3076923), wk =   0.0025641
        k(   39) = (  -0.0000000   0.1500000   0.3846154), wk =   0.0025641
        k(   40) = (  -0.0000000   0.1500000   0.4615385), wk =   0.0025641
        k(   41) = (   0.0000000   0.1500000  -0.4615385), wk =   0.0025641
        k(   42) = (   0.0000000   0.1500000  -0.3846154), wk =   0.0025641
        k(   43) = (   0.0000000   0.1500000  -0.3076923), wk =   0.0025641
        k(   44) = (   0.0000000   0.1500000  -0.2307692), wk =   0.0025641
        k(   45) = (   0.0000000   0.1500000  -0.1538462), wk =   0.0025641
        k(   46) = (   0.0000000   0.1500000  -0.0769231), wk =   0.0025641
        k(   47) = (   0.0000000   0.2000000   0.0000000), wk =   0.0025641
        k(   48) = (  -0.0000000   0.2000000   0.0769231), wk =   0.0025641
        k(   49) = (  -0.0000000   0.2000000   0.1538462), wk =   0.0025641
        k(   50) = (  -0.0000000   0.2000000   0.2307692), wk =   0.0025641
        k(   51) = (  -0.0000000   0.2000000   0.3076923), wk =   0.0025641
        k(   52) = (  -0.0000000   0.2000000   0.3846154), wk =   0.0025641
        k(   53) = (  -0.0000000   0.2000000   0.4615385), wk =   0.0025641
        k(   54) = (   0.0000000   0.2000000  -0.4615385), wk =   0.0025641
        k(   55) = (   0.0000000   0.2000000  -0.3846154), wk =   0.0025641
        k(   56) = (   0.0000000   0.2000000  -0.3076923), wk =   0.0025641
        k(   57) = (   0.0000000   0.2000000  -0.2307692), wk =   0.0025641
        k(   58) = (   0.0000000   0.2000000  -0.1538462), wk =   0.0025641
        k(   59) = (   0.0000000   0.2000000  -0.0769231), wk =   0.0025641
        k(   60) = (   0.0000000   0.2500000   0.0000000), wk =   0.0025641
        k(   61) = (  -0.0000000   0.2500000   0.0769231), wk =   0.0025641
        k(   62) = (  -0.0000000   0.2500000   0.1538462), wk =   0.0025641
        k(   63) = (  -0.0000000   0.2500000   0.2307692), wk =   0.0025641
        k(   64) = (  -0.0000000   0.2500000   0.3076923), wk =   0.0025641
        k(   65) = (  -0.0000000   0.2500000   0.3846154), wk =   0.0025641
        k(   66) = (  -0.0000000   0.2500000   0.4615385), wk =   0.0025641
        k(   67) = (   0.0000000   0.2500000  -0.4615385), wk =   0.0025641
        k(   68) = (   0.0000000   0.2500000  -0.3846154), wk =   0.0025641
        k(   69) = (   0.0000000   0.2500000  -0.3076923), wk =   0.0025641
        k(   70) = (   0.0000000   0.2500000  -0.2307692), wk =   0.0025641
        k(   71) = (   0.0000000   0.2500000  -0.1538462), wk =   0.0025641
        k(   72) = (   0.0000000   0.2500000  -0.0769231), wk =   0.0025641
        k(   73) = (   0.0000000   0.3000000   0.0000000), wk =   0.0025641
        k(   74) = (  -0.0000000   0.3000000   0.0769231), wk =   0.0025641
        k(   75) = (  -0.0000000   0.3000000   0.1538462), wk =   0.0025641
        k(   76) = (  -0.0000000   0.3000000   0.2307692), wk =   0.0025641
        k(   77) = (  -0.0000000   0.3000000   0.3076923), wk =   0.0025641
        k(   78) = (  -0.0000000   0.3000000   0.3846154), wk =   0.0025641
        k(   79) = (  -0.0000000   0.3000000   0.4615385), wk =   0.0025641
        k(   80) = (   0.0000000   0.3000000  -0.4615385), wk =   0.0025641
        k(   81) = (   0.0000000   0.3000000  -0.3846154), wk =   0.0025641
        k(   82) = (   0.0000000   0.3000000  -0.3076923), wk =   0.0025641
        k(   83) = (   0.0000000   0.3000000  -0.2307692), wk =   0.0025641
        k(   84) = (   0.0000000   0.3000000  -0.1538462), wk =   0.0025641
        k(   85) = (   0.0000000   0.3000000  -0.0769231), wk =   0.0025641
        k(   86) = (   0.0000000   0.3500000   0.0000000), wk =   0.0025641
        k(   87) = (  -0.0000000   0.3500000   0.0769231), wk =   0.0025641
        k(   88) = (  -0.0000000   0.3500000   0.1538462), wk =   0.0025641
        k(   89) = (  -0.0000000   0.3500000   0.2307692), wk =   0.0025641
        k(   90) = (  -0.0000000   0.3500000   0.3076923), wk =   0.0025641
        k(   91) = (  -0.0000000   0.3500000   0.3846154), wk =   0.0025641
        k(   92) = (  -0.0000000   0.3500000   0.4615385), wk =   0.0025641
        k(   93) = (   0.0000000   0.3500000  -0.4615385), wk =   0.0025641
        k(   94) = (   0.0000000   0.3500000  -0.3846154), wk =   0.0025641
        k(   95) = (   0.0000000   0.3500000  -0.3076923), wk =   0.0025641
        k(   96) = (   0.0000000   0.3500000  -0.2307692), wk =   0.0025641
        k(   97) = (   0.0000000   0.3500000  -0.1538462), wk =   0.0025641
        k(   98) = (   0.0000000   0.3500000  -0.0769231), wk =   0.0025641
        k(   99) = (   0.0000000   0.4000000   0.0000000), wk =   0.0025641
        k(  100) = (  -0.0000000   0.4000000   0.0769231), wk =   0.0025641
        k(  101) = (  -0.0000000   0.4000000   0.1538462), wk =   0.0025641
        k(  102) = (  -0.0000000   0.4000000   0.2307692), wk =   0.0025641
        k(  103) = (  -0.0000000   0.4000000   0.3076923), wk =   0.0025641
        k(  104) = (  -0.0000000   0.4000000   0.3846154), wk =   0.0025641
        k(  105) = (  -0.0000000   0.4000000   0.4615385), wk =   0.0025641
        k(  106) = (   0.0000000   0.4000000  -0.4615385), wk =   0.0025641
        k(  107) = (   0.0000000   0.4000000  -0.3846154), wk =   0.0025641
        k(  108) = (   0.0000000   0.4000000  -0.3076923), wk =   0.0025641
        k(  109) = (   0.0000000   0.4000000  -0.2307692), wk =   0.0025641
        k(  110) = (   0.0000000   0.4000000  -0.1538462), wk =   0.0025641
        k(  111) = (   0.0000000   0.4000000  -0.0769231), wk =   0.0025641
        k(  112) = (   0.0000000   0.4500000   0.0000000), wk =   0.0025641
        k(  113) = (  -0.0000000   0.4500000   0.0769231), wk =   0.0025641
        k(  114) = (  -0.0000000   0.4500000   0.1538462), wk =   0.0025641
        k(  115) = (  -0.0000000   0.4500000   0.2307692), wk =   0.0025641
        k(  116) = (  -0.0000000   0.4500000   0.3076923), wk =   0.0025641
        k(  117) = (  -0.0000000   0.4500000   0.3846154), wk =   0.0025641
        k(  118) = (  -0.0000000   0.4500000   0.4615385), wk =   0.0025641
        k(  119) = (   0.0000000   0.4500000  -0.4615385), wk =   0.0025641
        k(  120) = (   0.0000000   0.4500000  -0.3846154), wk =   0.0025641
        k(  121) = (   0.0000000   0.4500000  -0.3076923), wk =   0.0025641
        k(  122) = (   0.0000000   0.4500000  -0.2307692), wk =   0.0025641
        k(  123) = (   0.0000000   0.4500000  -0.1538462), wk =   0.0025641
        k(  124) = (   0.0000000   0.4500000  -0.0769231), wk =   0.0025641
        k(  125) = (   0.0000000  -0.5000000   0.0000000), wk =   0.0012821
        k(  126) = (  -0.0000000  -0.5000000   0.0769231), wk =   0.0025641
        k(  127) = (  -0.0000000  -0.5000000   0.1538462), wk =   0.0025641
        k(  128) = (  -0.0000000  -0.5000000   0.2307692), wk =   0.0025641
        k(  129) = (  -0.0000000  -0.5000000   0.3076923), wk =   0.0025641
        k(  130) = (  -0.0000000  -0.5000000   0.3846154), wk =   0.0025641
        k(  131) = (  -0.0000000  -0.5000000   0.4615385), wk =   0.0025641
        k(  132) = (   0.1666667   0.0000000   0.0000000), wk =   0.0025641
        k(  133) = (   0.1666667   0.0000000   0.0769231), wk =   0.0025641
        k(  134) = (   0.1666667   0.0000000   0.1538462), wk =   0.0025641
        k(  135) = (   0.1666667   0.0000000   0.2307692), wk =   0.0025641
        k(  136) = (   0.1666667   0.0000000   0.3076923), wk =   0.0025641
        k(  137) = (   0.1666667   0.0000000   0.3846154), wk =   0.0025641
        k(  138) = (   0.1666667   0.0000000   0.4615385), wk =   0.0025641
        k(  139) = (   0.1666667   0.0000000  -0.4615385), wk =   0.0025641
        k(  140) = (   0.1666667   0.0000000  -0.3846154), wk =   0.0025641
        k(  141) = (   0.1666667   0.0000000  -0.3076923), wk =   0.0025641
        k(  142) = (   0.1666667   0.0000000  -0.2307692), wk =   0.0025641
        k(  143) = (   0.1666667   0.0000000  -0.1538462), wk =   0.0025641
        k(  144) = (   0.1666667   0.0000000  -0.0769231), wk =   0.0025641
        k(  145) = (   0.1666667   0.0500000   0.0000000), wk =   0.0025641
        k(  146) = (   0.1666667   0.0500000   0.0769231), wk =   0.0025641
        k(  147) = (   0.1666667   0.0500000   0.1538462), wk =   0.0025641
        k(  148) = (   0.1666667   0.0500000   0.2307692), wk =   0.0025641
        k(  149) = (   0.1666667   0.0500000   0.3076923), wk =   0.0025641
        k(  150) = (   0.1666667   0.0500000   0.3846154), wk =   0.0025641
        k(  151) = (   0.1666667   0.0500000   0.4615385), wk =   0.0025641
        k(  152) = (   0.1666667   0.0500000  -0.4615385), wk =   0.0025641
        k(  153) = (   0.1666667   0.0500000  -0.3846154), wk =   0.0025641
        k(  154) = (   0.1666667   0.0500000  -0.3076923), wk =   0.0025641
[...]
    -0.0107

          k =-0.1668-1.8544 1.0088 ( 11602 PWs)   bands (ev):

    -3.6513  -3.6513  -3.0981  -3.0981  -2.2084  -2.2084  -1.7032  -1.7032
    -0.7820  -0.7820   0.5598   0.5598   0.8531   0.8531   1.8747   1.8747
     2.2642   2.2642   2.3578   2.3578   3.5010   3.5010   3.8061   3.8061
     3.9482   3.9482   4.4626   4.4626   4.6472   4.6472   5.6501   5.6501
     5.7272   5.7272   6.0673   6.0673   6.8166   6.8166   7.5094   7.5094
     7.7617

     occupation numbers 
     1.0000   1.0000   1.0000   1.0000   1.0000   1.0000   1.0000   1.0000
     1.0000   1.0000   1.0000   1.0000   1.0000   1.0000   1.0000   1.0000
     1.0000   1.0000   1.0000   1.0000   1.0000   1.0000   1.0000   1.0000
     1.0000   1.0000   1.0000   1.0000   1.0000   1.0000   1.0164   1.0164
     1.0220   1.0220   1.0300   1.0300   0.3397   0.3396  -0.0335  -0.0335
    -0.0157

     the Fermi energy is     6.7006 ev

!    total energy              =    -473.15919708 Ry
     Harris-Foulkes estimate   =    -473.15919708 Ry
     estimated scf accuracy    <          6.1E-13 Ry

     The total energy is the sum of the following terms:

     one-electron contribution =      36.47073233 Ry
     hartree contribution      =      13.19776881 Ry
     xc contribution           =     -90.17158355 Ry
     ewald contribution        =    -119.78360904 Ry
     one-center paw contrib.   =    -312.87110890 Ry
      -> PAW hartree energy AE =       0.81672580 Ry
      -> PAW hartree energy PS =      -0.81486932 Ry
      -> PAW xc energy AE      =     -32.62114813 Ry
      -> PAW xc energy PS      =       1.32499190 Ry
      -> total E_H with PAW    =      13.19962530 Ry
      -> total E_XC with PAW   =    -121.46773978 Ry
     smearing contrib. (-TS)   =      -0.00139673 Ry

     convergence has been achieved in  22 iterations

     Forces acting on atoms (cartesian axes, Ry/au):

     atom    1 type  1   force =    -0.00000702    0.00000010   -0.00000403
     atom    2 type  1   force =    -0.00045794   -0.00000021    0.00001983
     atom    3 type  1   force =    -0.00063353   -0.00000021   -0.00011751
     atom    4 type  1   force =     0.00063313    0.00000023    0.00011655
     atom    5 type  1   force =     0.00045855    0.00000020   -0.00001904
     atom    6 type  2   force =     0.00006082   -0.00000017    0.00042720
     atom    7 type  2   force =    -0.00008605    0.00000070    0.00104164
     atom    8 type  2   force =    -0.00060633    0.00000068   -0.00059425
     atom    9 type  2   force =     0.00060524   -0.00000062    0.00059482
     atom   10 type  2   force =     0.00008821   -0.00000078   -0.00104198
     atom   11 type  2   force =    -0.00006062    0.00000019   -0.00042681
     atom   12 type  1   force =     0.00000285   -0.00000010    0.00000439
     atom   13 type  1   force =    -0.00045252    0.00000004    0.00002921
     atom   14 type  1   force =    -0.00063024    0.00000013   -0.00010201
     atom   15 type  1   force =     0.00063001   -0.00000015    0.00010142
     atom   16 type  1   force =     0.00045240   -0.00000004   -0.00002937
     atom   17 type  2   force =     0.00005745   -0.00000016    0.00044252
     atom   18 type  2   force =    -0.00009381    0.00000012    0.00104226
     atom   19 type  2   force =    -0.00060675   -0.00000020   -0.00058212
     atom   20 type  2   force =     0.00060935    0.00000014    0.00058159
     atom   21 type  2   force =     0.00009256   -0.00000003   -0.00104164
     atom   22 type  2   force =    -0.00005574    0.00000014   -0.00044268
     The non-local contrib.  to forces
     atom    1 type  1   force =    -0.00003453   -0.00000100   -0.00002087
     atom    2 type  1   force =     0.00727402   -0.00000003    0.01104033
     atom    3 type  1   force =     0.01700203    0.00000006    0.00309275
     atom    4 type  1   force =    -0.01702025   -0.00000021   -0.00309588
     atom    5 type  1   force =    -0.00728209    0.00000013   -0.01104423
     atom    6 type  2   force =    -0.00011463   -0.00000044   -0.06324129
     atom    7 type  2   force =     0.04418707   -0.00000036    0.01448350
     atom    8 type  2   force =    -0.01378631   -0.00000200    0.02666356
     atom    9 type  2   force =     0.01378519    0.00000201   -0.02666070
     atom   10 type  2   force =    -0.04418451    0.00000019   -0.01448475
     atom   11 type  2   force =     0.00012073    0.00000045    0.06324211
     atom   12 type  1   force =     0.00000863    0.00000101    0.00002038
     atom   13 type  1   force =     0.00728176    0.00000028    0.01106122
     atom   14 type  1   force =     0.01701705   -0.00000025    0.00315159
     atom   15 type  1   force =    -0.01703312    0.00000039   -0.00315344
     atom   16 type  1   force =    -0.00729610   -0.00000038   -0.01106561
     atom   17 type  2   force =    -0.00013140    0.00000030   -0.06320616
     atom   18 type  2   force =     0.04414475    0.00000005    0.01451161
     atom   19 type  2   force =    -0.01378291   -0.00000060    0.02667531
     atom   20 type  2   force =     0.01378257    0.00000058   -0.02667238
     atom   21 type  2   force =    -0.04414910    0.00000012   -0.01450889
     atom   22 type  2   force =     0.00013190   -0.00000032    0.06320598
     The ionic contribution  to forces
     atom    1 type  1   force =    -0.00019612   -0.00000007   -0.00001925
     atom    2 type  1   force =    -0.41814230    0.00000028   -0.38931757
     atom    3 type  1   force =    -0.25496262    0.00000022    0.20017482
     atom    4 type  1   force =     0.25495753   -0.00000022   -0.20017215
     atom    5 type  1   force =     0.41811084   -0.00000028    0.38932605
     atom    6 type  2   force =    -0.24452334   -0.00000024    1.18082366
     atom    7 type  2   force =    -1.16284411   -0.00000053   -1.24643128
     atom    8 type  2   force =    -0.10037004   -0.00000053    0.73734151
     atom    9 type  2   force =     0.10038469    0.00000053   -0.73733289
     atom   10 type  2   force =     1.16288384    0.00000053    1.24641950
     atom   11 type  2   force =     0.24453989    0.00000024   -1.18082501
     atom   12 type  1   force =     0.00012781    0.00000007    0.00000545
     atom   13 type  1   force =    -0.41803675   -0.00000028   -0.38936795
     atom   14 type  1   force =    -0.25487446   -0.00000022    0.20056881
     atom   15 type  1   force =     0.25486915    0.00000022   -0.20056696
     atom   16 type  1   force =     0.41800548    0.00000028    0.38937648
     atom   17 type  2   force =    -0.24442152    0.00000024    1.18085188
     atom   18 type  2   force =    -1.16270459    0.00000053   -1.24704509
     atom   19 type  2   force =    -0.10037364    0.00000053    0.73748572
     atom   20 type  2   force =     0.10038657   -0.00000053   -0.73747706
     atom   21 type  2   force =     1.16274356   -0.00000053    1.24703451
     atom   22 type  2   force =     0.24444014   -0.00000024   -1.18085321
     The local contribution  to forces
     atom    1 type  1   force =     0.00021746    0.00000107    0.00003361
     atom    2 type  1   force =     0.41139109   -0.00000046    0.37881366
     atom    3 type  1   force =     0.23922734   -0.00000048   -0.20282781
     atom    4 type  1   force =    -0.23921055    0.00000063    0.20282631
     atom    5 type  1   force =    -0.41135611    0.00000036   -0.37881862
     atom    6 type  2   force =     0.24453465    0.00000047   -1.12328045
     atom    7 type  2   force =     1.12283822    0.00000154    1.23407710
     atom    8 type  2   force =     0.11213298    0.00000300   -0.76164413
     atom    9 type  2   force =    -0.11214732   -0.00000295    0.76163533
     atom   10 type  2   force =    -1.12287788   -0.00000147   -1.23406416
     atom   11 type  2   force =    -0.24455440   -0.00000046    1.12328167
     atom   12 type  1   force =    -0.00013453   -0.00000107   -0.00001972
     atom   13 type  1   force =     0.41128422    0.00000007    0.37885511
     atom   14 type  1   force =     0.23912889    0.00000057   -0.20325682
     atom   15 type  1   force =    -0.23911368   -0.00000072    0.20325533
     atom   16 type  1   force =    -0.41124452    0.00000002   -0.37886061
     atom   17 type  2   force =     0.24444442   -0.00000067   -1.12332471
     atom   18 type  2   force =     1.12272886   -0.00000044    1.23466619
     atom   19 type  2   force =     0.11213330   -0.00000020   -0.76178663
     atom   20 type  2   force =    -0.11214295    0.00000015    0.76177660
     atom   21 type  2   force =    -1.12276502    0.00000039   -1.23465697
     atom   22 type  2   force =    -0.24445969    0.00000066    1.12332642
     The core correction contribution to forces
     atom    1 type  1   force =     0.00000411    0.00000010    0.00000211
     atom    2 type  1   force =    -0.00098289   -0.00000000   -0.00051703
     atom    3 type  1   force =    -0.00190236   -0.00000001   -0.00055759
     atom    4 type  1   force =     0.00190437    0.00000003    0.00055788
     atom    5 type  1   force =     0.00098394   -0.00000001    0.00051747
     atom    6 type  2   force =     0.00016202    0.00000005    0.00612516
     atom    7 type  2   force =    -0.00426952    0.00000005   -0.00108836
     atom    8 type  2   force =     0.00141502    0.00000022   -0.00295533
     atom    9 type  2   force =    -0.00141942   -0.00000022    0.00295249
     atom   10 type  2   force =     0.00426491   -0.00000003    0.00108739
     atom   11 type  2   force =    -0.00016886   -0.00000005   -0.00612617
     atom   12 type  1   force =    -0.00000113   -0.00000010   -0.00000208
     atom   13 type  1   force =    -0.00098392   -0.00000003   -0.00051962
     atom   14 type  1   force =    -0.00190382    0.00000003   -0.00056591
     atom   15 type  1   force =     0.00190562   -0.00000004    0.00056607
     atom   16 type  1   force =     0.00098556    0.00000003    0.00052009
     atom   17 type  2   force =     0.00016385   -0.00000003    0.00612138
     atom   18 type  2   force =    -0.00426513   -0.00000001   -0.00109112
     atom   19 type  2   force =     0.00141447    0.00000006   -0.00295666
     atom   20 type  2   force =    -0.00141895   -0.00000006    0.00295386
     atom   21 type  2   force =     0.00426126   -0.00000001    0.00108965
     atom   22 type  2   force =    -0.00017011    0.00000004   -0.00612248
     The Hubbard contrib.    to forces
     atom    1 type  1   force =     0.00000000    0.00000000    0.00000000
     atom    2 type  1   force =     0.00000000    0.00000000    0.00000000
     atom    3 type  1   force =     0.00000000    0.00000000    0.00000000
     atom    4 type  1   force =     0.00000000    0.00000000    0.00000000
     atom    5 type  1   force =     0.00000000    0.00000000    0.00000000
     atom    6 type  2   force =     0.00000000    0.00000000    0.00000000
     atom    7 type  2   force =     0.00000000    0.00000000    0.00000000
     atom    8 type  2   force =     0.00000000    0.00000000    0.00000000
     atom    9 type  2   force =     0.00000000    0.00000000    0.00000000
     atom   10 type  2   force =     0.00000000    0.00000000    0.00000000
     atom   11 type  2   force =     0.00000000    0.00000000    0.00000000
     atom   12 type  1   force =     0.00000000    0.00000000    0.00000000
     atom   13 type  1   force =     0.00000000    0.00000000    0.00000000
     atom   14 type  1   force =     0.00000000    0.00000000    0.00000000
     atom   15 type  1   force =     0.00000000    0.00000000    0.00000000
     atom   16 type  1   force =     0.00000000    0.00000000    0.00000000
     atom   17 type  2   force =     0.00000000    0.00000000    0.00000000
     atom   18 type  2   force =     0.00000000    0.00000000    0.00000000
     atom   19 type  2   force =     0.00000000    0.00000000    0.00000000
     atom   20 type  2   force =     0.00000000    0.00000000    0.00000000
     atom   21 type  2   force =     0.00000000    0.00000000    0.00000000
     atom   22 type  2   force =     0.00000000    0.00000000    0.00000000
     The SCF correction term to forces
     atom    1 type  1   force =     0.00000000   -0.00000000    0.00000000
     atom    2 type  1   force =     0.00000008    0.00000000    0.00000008
     atom    3 type  1   force =     0.00000003    0.00000000   -0.00000005
     atom    4 type  1   force =    -0.00000003   -0.00000000    0.00000004
     atom    5 type  1   force =    -0.00000009   -0.00000000   -0.00000007
     atom    6 type  2   force =     0.00000005   -0.00000000   -0.00000025
     atom    7 type  2   force =     0.00000021   -0.00000000    0.00000031
     atom    8 type  2   force =    -0.00000004   -0.00000001   -0.00000022
     atom    9 type  2   force =     0.00000003    0.00000001    0.00000023
     atom   10 type  2   force =    -0.00000022    0.00000000   -0.00000031
     atom   11 type  2   force =    -0.00000005    0.00000000    0.00000024
     atom   12 type  1   force =    -0.00000000    0.00000000   -0.00000000
     atom   13 type  1   force =     0.00000009   -0.00000000    0.00000007
     atom   14 type  1   force =     0.00000003    0.00000000   -0.00000004
     atom   15 type  1   force =    -0.00000003   -0.00000000    0.00000005
     atom   16 type  1   force =    -0.00000008    0.00000000   -0.00000008
     atom   17 type  2   force =     0.00000005   -0.00000000   -0.00000023
     atom   18 type  2   force =     0.00000022   -0.00000000    0.00000031
     atom   19 type  2   force =    -0.00000003   -0.00000000   -0.00000023
     atom   20 type  2   force =     0.00000004    0.00000000    0.00000022
     atom   21 type  2   force =    -0.00000022   -0.00000000   -0.00000031
     atom   22 type  2   force =    -0.00000004    0.00000000    0.00000025

     Total force =     0.003237     Total SCF correction =     0.000001


     Computing stress (Cartesian axis) and pressure

          total   stress  (Ry/bohr**3)                   (kbar)     P=   -3.52
  -0.00002584   0.00000000  -0.00001022         -3.80      0.00     -1.50
   0.00000000  -0.00002327   0.00000001          0.00     -3.42      0.00
  -0.00001022   0.00000001  -0.00002268         -1.50      0.00     -3.34

     kinetic stress (kbar)   1569.30      0.00     -0.02
                                0.00   1592.37      0.00
                               -0.02      0.00   1589.91

     local   stress (kbar)   -146.30     -0.00    279.02
                               -0.00   -380.41      0.00
                              279.02      0.00    184.05

     nonloc. stress (kbar)   1240.77     -0.00      2.42
                               -0.00   1225.45     -0.00
                                2.42     -0.00   1225.97

     hartree stress (kbar)    215.97      0.00   -125.16
                                0.00    386.29     -0.00
                             -125.16     -0.00    112.85

     exc-cor stress (kbar)   1971.92     -0.00      0.08
                               -0.00   1971.25     -0.00
                                0.08     -0.00   1971.29

     corecor stress (kbar)  -2751.50      0.00     -0.37
                                0.00  -2749.66      0.00
                               -0.37      0.00  -2749.75

     ewald   stress (kbar)  -2103.96      0.00   -157.47
                                0.00  -2048.71     -0.00
                             -157.47     -0.00  -2337.65

     hubbard stress (kbar)      0.00      0.00      0.00
                                0.00      0.00      0.00
                                0.00      0.00      0.00

     london  stress (kbar)      0.00      0.00      0.00
                                0.00      0.00      0.00
                                0.00      0.00      0.00

     DFT-D3  stress (kbar)      0.00      0.00      0.00
                                0.00      0.00      0.00
                                0.00      0.00      0.00

     XDM     stress (kbar)      0.00      0.00      0.00
                                0.00      0.00      0.00
                                0.00      0.00      0.00

     dft-nl  stress (kbar)      0.00      0.00      0.00
                                0.00      0.00      0.00
                                0.00      0.00      0.00

     TS-vdW  stress (kbar)      0.00      0.00      0.00
                                0.00      0.00      0.00
                                0.00      0.00      0.00



     Writing output data file aiida.save/
 
     init_run     :     22.65s CPU     23.07s WALL (       1 calls)
     electrons    :    973.00s CPU    987.55s WALL (       1 calls)
     forces       :      8.55s CPU      8.63s WALL (       1 calls)
     stress       :     62.12s CPU     62.25s WALL (       1 calls)

     Called by init_run:
     wfcinit      :     20.91s CPU     21.27s WALL (       1 calls)
     wfcinit:atom :      0.15s CPU      0.18s WALL (     196 calls)
     wfcinit:wfcr :     19.49s CPU     19.76s WALL (     196 calls)
     potinit      :      0.58s CPU      0.59s WALL (       1 calls)
     hinit0       :      1.01s CPU      1.02s WALL (       1 calls)

     Called by electrons:
     c_bands      :    863.65s CPU    875.19s WALL (      23 calls)
     sum_band     :    104.58s CPU    106.75s WALL (      23 calls)
     v_of_rho     :      2.02s CPU      2.13s WALL (      23 calls)
     v_h          :      0.14s CPU      0.15s WALL (      23 calls)
     v_xc         :      2.03s CPU      2.13s WALL (      25 calls)
     newd         :      1.08s CPU      1.75s WALL (      23 calls)
     PAW_pot      :      0.75s CPU      0.76s WALL (      23 calls)
     mix_rho      :      0.72s CPU      0.78s WALL (      23 calls)

     Called by c_bands:
     init_us_2    :     27.64s CPU     28.14s WALL (    9604 calls)
     cegterg      :    669.93s CPU    678.31s WALL (    4508 calls)

     Called by sum_band:
     sum_band:bec :      0.61s CPU      0.61s WALL (    4508 calls)
     addusdens    :      1.06s CPU      1.76s WALL (      23 calls)

     Called by *egterg:
     h_psi        :    463.70s CPU    470.79s WALL (   18844 calls)
     s_psi        :     65.79s CPU     65.95s WALL (   18844 calls)
     g_psi        :      3.12s CPU      3.15s WALL (   14140 calls)
     cdiaghg      :     69.84s CPU     70.82s WALL (   18452 calls)
     cegterg:over :     32.80s CPU     32.93s WALL (   14140 calls)
     cegterg:upda :     25.96s CPU     26.17s WALL (   14140 calls)
     cegterg:last :     11.26s CPU     11.34s WALL (    4908 calls)
     cdiaghg:chol :      4.37s CPU      4.40s WALL (   18452 calls)
     cdiaghg:inve :      0.91s CPU      0.92s WALL (   18452 calls)
     cdiaghg:para :      9.10s CPU      9.16s WALL (   36904 calls)

     Called by h_psi:
     h_psi:pot    :    461.28s CPU    468.35s WALL (   18844 calls)
     h_psi:calbec :     64.81s CPU     65.54s WALL (   18844 calls)
     vloc_psi     :    330.23s CPU    336.43s WALL (   18844 calls)
     add_vuspsi   :     66.06s CPU     66.24s WALL (   18844 calls)

     General routines
     calbec       :     93.42s CPU     94.43s WALL (   24332 calls)
     fft          :      1.68s CPU      1.77s WALL (     324 calls)
     ffts         :      0.25s CPU      0.25s WALL (     351 calls)
     fftw         :    356.05s CPU    362.54s WALL ( 1175214 calls)
     interpolate  :      0.17s CPU      0.18s WALL (      23 calls)
 
     Parallel routines
     fft_scatt_xy :     45.52s CPU     46.38s WALL ( 1175889 calls)
     fft_scatt_yz :    139.07s CPU    141.83s WALL ( 1175889 calls)

     PAW routines
     PAW_pot      :      0.75s CPU      0.76s WALL (      23 calls)
 
     PWSCF        :  18m10.71s CPU  18m50.75s WALL

 
   This run was terminated on:  11:27:29  22Feb2020            

=------------------------------------------------------------------------------=
   JOB DONE.
=------------------------------------------------------------------------------=
