################################################################################
# Symmetry function scaling data.
################################################################################
# Col  Name     Description
################################################################################
# 1    e_index  Element index.
# 2    sf_index Symmetry function index.
# 3    sf_min   Symmetry function minimum.
# 4    sf_max   Symmetry function maximum.
# 5    sf_mean  Symmetry function mean.
# 6    sf_sigma Symmetry function sigma.
#########################################################################################################################
#        1          2                        3                        4                        5                        6
#  e_index   sf_index                   sf_min                   sf_max                  sf_mean                 sf_sigma
#########################################################################################################################
         1          1   0.0000000000000000E+00   2.7130087986651058E-01   4.0474829499126980E-02   3.4133226595794833E-02
         1          2   0.0000000000000000E+00   3.9521006441658557E-01   6.4143457100766160E-02   6.4773918725842358E-02
         1          3   0.0000000000000000E+00   4.0168290533602280E-01   6.0876820951783032E-02   5.3496624280751498E-02
         1          4   0.0000000000000000E+00   2.4046181592039120E-01   3.4700531203649736E-02   3.6251992734269961E-02
         1          5   0.0000000000000000E+00   2.4741540793141939E-01   3.4172350815208662E-02   3.0540296313291197E-02
         1          6   0.0000000000000000E+00   7.5654601524906329E-02   8.5735514413905600E-03   8.2210509430092060E-03
         1          7   0.0000000000000000E+00   7.7250416149065762E-02   8.5749269066026281E-03   9.7403398931055919E-03
         1          8   0.0000000000000000E+00   8.1172777817268421E-02   9.1766806539386094E-03   8.6850884527774706E-03
         1          9   0.0000000000000000E+00   1.9398115570470859E-02   1.1255833825452998E-03   1.3032658781934716E-03
         1         10   0.0000000000000000E+00   2.3133128005496775E+00   6.6930753111871799E-01   3.8405990697235504E-01
         1         11   0.0000000000000000E+00   3.0010780517580606E+00   6.9240765094670820E-01   6.0976317667894475E-01
         1         12   0.0000000000000000E+00   2.4911561244419174E+00   5.2474262827391782E-01   4.2396521753222555E-01
         1         13   0.0000000000000000E+00   2.9826262711294014E+00   9.8755229436424063E-01   5.3109452823821013E-01
         1         14   0.0000000000000000E+00   2.7437748285192898E+00   6.2812824505449405E-01   5.0579507113722211E-01
         1         15   0.0000000000000000E+00   3.5934987016583713E+00   1.2114046319361429E+00   6.4757060805302435E-01
         1         16   0.0000000000000000E+00   4.6057570471934381E+00   1.1120956976675271E+00   9.6293137748197155E-01
         1         17   0.0000000000000000E+00   1.0082881183212051E+00   3.3960050911049278E-01   1.9153776206656961E-01
         1         18   0.0000000000000000E+00   1.2682336977508362E+00   3.2087920750959936E-01   2.8296140074724963E-01
         1         19   0.0000000000000000E+00   9.4491266385583728E-01   2.2336231502183884E-01   1.8616801034766015E-01
         1         20   0.0000000000000000E+00   8.4763975574962789E+00   2.6928687993349620E+00   1.4556089305200945E+00
         1         21   0.0000000000000000E+00   1.0748267047165838E+01   2.5977430806024548E+00   2.2607625570896883E+00
         1         22   0.0000000000000000E+00   8.3310838761832677E+00   1.8341330690594899E+00   1.4651804756012796E+00
         1         23   0.0000000000000000E+00   5.4920720965717127E+00   1.2178205871555245E+00   9.8797004960982138E-01
         1         24   0.0000000000000000E+00   7.0984783855438751E+00   2.3477856562042314E+00   1.2612783900787043E+00
         1         25   0.0000000000000000E+00   8.9648578154867344E+00   2.1933178868445093E+00   1.9275329214279537E+00
         1         26   0.0000000000000000E+00   2.0151086797308353E+00   6.7545437956803001E-01   3.4427673509441870E-01
         1         27   0.0000000000000000E+00   2.4366353981449738E+00   6.1930737508798384E-01   5.4233677111445466E-01
         1         28   0.0000000000000000E+00   1.9107057977638786E+00   4.1101773079676418E-01   3.3454421053443456E-01
         1         29   0.0000000000000000E+00   3.7491201589131475E+00   1.2320547061134770E+00   6.6705820881210176E-01
         1         30   0.0000000000000000E+00   4.6463682690736192E+00   1.1784590436304598E+00   1.0310764822638336E+00
         1         31   0.0000000000000000E+00   3.7008021682226255E+00   7.9537765425837614E-01   6.5703571333254707E-01
         1         32   0.0000000000000000E+00   5.0690551122470175E+00   1.7315145342182556E+00   9.3283094190997462E-01
         1         33   0.0000000000000000E+00   4.7395802338369490E+00   1.0813715423748156E+00   8.5452919498257918E-01
         1         34   0.0000000000000000E+00   6.4205452622922228E-04   2.7105860992313695E-05   4.5711732697234641E-05
         1         35   0.0000000000000000E+00   1.2836623600980316E-03   3.5683045964361478E-05   7.4395445393275438E-05
         1         36   0.0000000000000000E+00   1.3626499514584197E-03   2.4329307634365915E-05   6.1443330842330448E-05
         1         37   0.0000000000000000E+00   2.5700379798456196E-02   1.6596954423220203E-03   2.3363753441369415E-03
         1         38   0.0000000000000000E+00   1.7800106759302152E-02   2.2446442260844182E-03   2.6933374597006292E-03
         1         39   0.0000000000000000E+00   1.8763266983922958E-02   2.7030186193100405E-03   2.8224747318375243E-03
         1         40   0.0000000000000000E+00   4.9431817414394175E-02   3.4556089279236934E-03   5.1950966776721751E-03
         1         41   0.0000000000000000E+00   1.3997369039595161E-02   2.2132084588810147E-03   2.6182885339965656E-03
         1         42   0.0000000000000000E+00   4.3603045267971381E-02   1.9942716336169347E-03   2.9652029750809787E-03
         1         43   0.0000000000000000E+00   7.2741237751881946E-02   4.8090926665404479E-03   6.6793312232002675E-03
         1         44   0.0000000000000000E+00   5.4227860229735601E-02   6.8887223469656115E-03   8.1602482922288801E-03
         1         45   0.0000000000000000E+00   6.4647867439001860E-02   9.6971584658421626E-03   1.0311802915408485E-02
         1         46   0.0000000000000000E+00   1.4149588538187216E-01   1.0170068989608243E-02   1.4936436907237156E-02
         1         47   0.0000000000000000E+00   4.6439167277597768E-02   7.2585006965097927E-03   8.3179310387742657E-03
         1         48   0.0000000000000000E+00   1.0701324985253538E-01   5.0665551876342878E-03   8.1949628068037628E-03
         1         49   0.0000000000000000E+00   2.2086448634403544E-03   8.9504245369448449E-05   1.5075535144173702E-04
         1         50   0.0000000000000000E+00   1.6622821012319373E-03   1.2973565214469577E-04   1.5437490784389938E-04
         1         51   0.0000000000000000E+00   5.2482213297243173E-03   2.0033047899369031E-04   3.0290251795102459E-04
         1         52   0.0000000000000000E+00   3.4932531194641646E-02   2.2189012375518759E-03   3.0922856922867559E-03
         1         53   0.0000000000000000E+00   2.8412820964042153E-02   3.3215386395754995E-03   3.9259089052686783E-03
         1         54   0.0000000000000000E+00   3.5445001154410294E-02   5.0659352813722325E-03   5.4964862152821325E-03
         1         55   0.0000000000000000E+00   7.1547800778128501E-02   4.9283548746644193E-03   7.1953826115614579E-03
         1         56   0.0000000000000000E+00   2.5539277466861264E-02   3.7588140260890759E-03   4.2809286921363958E-03
         1         57   0.0000000000000000E+00   4.9365377804824757E-02   2.4534372570195195E-03   4.1338460966584226E-03
         1         58   0.0000000000000000E+00   5.6732110544889091E-03   6.8532360343018955E-04   7.4435848898955011E-04
         1         59   0.0000000000000000E+00   1.3769703298290963E-02   5.0170696449679242E-04   8.1814602153612429E-04
         1         60   0.0000000000000000E+00   2.0237198064180232E-02   1.0490574455054612E-03   1.6530884043271623E-03
         1         61   0.0000000000000000E+00   1.5690604176693504E-02   1.6672240430490835E-03   2.1247030173951339E-03
         1         62   0.0000000000000000E+00   1.9817822298263354E-02   2.5042611082090847E-03   2.7710424318428033E-03
         1         63   0.0000000000000000E+00   1.5915960783899969E-02   1.9906342774542465E-03   2.3431307982660957E-03
         1         64   0.0000000000000000E+00   1.5509128102958862E-02   6.8933393997306616E-04   1.2498356306686216E-03
         2          1   0.0000000000000000E+00   2.3254633775918884E-01   1.5281380956585771E-02   2.5455246537333092E-02
         2          2   0.0000000000000000E+00   5.4113541752253558E-01   1.8872364977520445E-01   6.8920422660133471E-02
         2          3   0.0000000000000000E+00   4.4941202346886461E-01   2.2965313997363287E-02   3.7597206319613712E-02
         2          4   0.0000000000000000E+00   1.3102663311515664E-01   8.2669700182488627E-03   1.3888612332648938E-02
         2          5   0.0000000000000000E+00   3.0261633641930086E-01   5.0475298445198789E-02   2.1689592058756098E-02
         2          6   0.0000000000000000E+00   4.0340335151976159E-02   2.0428696964184651E-03   3.5468976989155568E-03
         2          7   0.0000000000000000E+00   9.7455033541642935E-02   3.9227110601454751E-03   7.2435712044063268E-03
         2          8   0.0000000000000000E+00   1.4936132649741432E-01   8.7338772862214503E-03   4.8097089689344823E-03
         2          9   0.0000000000000000E+00   1.8609504405255652E+00   1.6495751195245539E-01   2.5217362116064418E-01
         2         10   7.9137008109662673E-03   3.0618245756250935E+00   1.7641433050249669E+00   5.0441198888057914E-01
         2         11   0.0000000000000000E+00   2.6712996533767197E+00   1.9279195593767928E-01   2.5893787899596488E-01
         2         12   7.9991980618967867E-02   3.7536255694142486E+00   2.2845597530947286E+00   6.1815388321714748E-01
         2         13   0.0000000000000000E+00   2.5732384304193410E+00   2.6494296978007287E-01   3.9105511723095449E-01
         2         14   1.7868933984131832E-02   4.6131245351063086E+00   2.7629487600013807E+00   7.4823998563108352E-01
         2         15   0.0000000000000000E+00   3.5793494624290703E+00   2.9770918148017350E-01   3.7281521040467053E-01
         2         16   0.0000000000000000E+00   6.8113357282940745E-01   7.6445480687117706E-02   1.0904694632143291E-01
         2         17   6.0692115469205034E-02   1.2939796937831118E+00   7.7561110626072427E-01   2.1008815105247222E-01
         2         18   0.0000000000000000E+00   1.0318286242686223E+00   8.8951369483167342E-02   1.1154211720697506E-01
         2         19   0.0000000000000000E+00   6.2960189381387686E+00   6.1887998303020586E-01   8.9638569857482553E-01
         2         20   2.0540651193532139E-01   1.0757099914280598E+01   6.4858115098510867E+00   1.7687070829158160E+00
         2         21   0.0000000000000000E+00   8.9166938451192888E+00   7.1694353729492399E-01   8.9574422156892397E-01
         2         22   0.0000000000000000E+00   4.9370903782588185E+00   5.2253071010986252E-01   7.4342630859010528E-01
         2         23   2.4695062874804735E-01   8.9382886832235542E+00   5.4321713608541637E+00   1.4701356586583556E+00
         2         24   0.0000000000000000E+00   7.0602193897475924E+00   6.0956010456603626E-01   7.5555587582820560E-01
         2         25   0.0000000000000000E+00   1.5079223913085436E+00   1.4754228031512961E-01   2.1120941927220938E-01
         2         26   9.3053139778244240E-02   2.5402801005077991E+00   1.5437300548752804E+00   4.1325645193659505E-01
         2         27   0.0000000000000000E+00   2.0211220100521023E+00   1.7114794114814597E-01   2.1270444836090030E-01
         2         28   0.0000000000000000E+00   2.6742601848343339E+00   2.8075321165120071E-01   4.0093699055143561E-01
         2         29   2.4668785236437471E-01   4.8159503680150282E+00   2.8607876410812940E+00   7.8043555046971924E-01
         2         30   0.0000000000000000E+00   3.9679456401861963E+00   3.2380857865895746E-01   4.0258681350886105E-01
         2         31   0.0000000000000000E+00   3.6709999319081001E+00   3.7729236578047926E-01   5.6416779345287349E-01
         2         32   0.0000000000000000E+00   5.0595419535452342E+00   4.1672992763120087E-01   5.2498237312635332E-01
         2         33   0.0000000000000000E+00   2.3781238563577189E-03   7.1099758322466905E-05   7.0677499317253750E-05
         2         34   0.0000000000000000E+00   5.0918094231446791E-04   1.6783012812045236E-05   3.0825577604367151E-05
         2         35   0.0000000000000000E+00   1.8451182511965178E-03   2.1278794452034587E-04   2.0907129439927575E-04
         2         36   0.0000000000000000E+00   9.5703938133710937E-04   3.6171484841391261E-05   5.8632596530583350E-05
         2         37   0.0000000000000000E+00   1.9160303510267977E-03   6.1041247506155887E-06   3.3481121295895623E-05
         2         38   0.0000000000000000E+00   1.9109608016394643E-02   3.0561477407304449E-04   1.0265553356178523E-03
         2         39   0.0000000000000000E+00   1.8330095825304881E-02   1.6967106692153159E-03   2.3104498925458662E-03
         2         40   0.0000000000000000E+00   2.1147498357748477E-02   5.7052206106798396E-04   1.4546903882248004E-03
         2         41   0.0000000000000000E+00   6.7718605908149793E-02   1.5541819266004753E-02   8.8263893942541541E-03
         2         42   0.0000000000000000E+00   2.4729374978233392E-02   2.3507271116421768E-03   3.0982278839414659E-03
         2         43   0.0000000000000000E+00   5.2613759299165876E-02   4.8757471351117479E-04   1.5873290139493327E-03
         2         44   0.0000000000000000E+00   4.8733751343448352E-02   7.8234072698192233E-04   2.6152750360264325E-03
         2         45   0.0000000000000000E+00   5.5620556497415270E-02   4.7955859565322924E-03   6.3082950746612965E-03
         2         46   0.0000000000000000E+00   6.3774078679170912E-02   1.6859948536054462E-03   4.3687913837760209E-03
         2         47   0.0000000000000000E+00   1.5306321261255459E-01   4.4392462729735162E-02   2.4618646015702721E-02
         2         48   0.0000000000000000E+00   9.4495844519533190E-02   6.9079703912756328E-03   8.9219199567083778E-03
         2         49   0.0000000000000000E+00   1.2810640820536201E-01   1.1963161672791077E-03   3.5620082946250528E-03
         2         50   0.0000000000000000E+00   1.5882627401349479E-03   2.2122799637868822E-05   7.9533950017390628E-05
         2         51   0.0000000000000000E+00   2.2206278762711110E-03   3.9648661788539188E-05   9.7768033960299812E-05
         2         52   0.0000000000000000E+00   6.7934064691572895E-03   5.2919824634022105E-05   2.1591908046830191E-04
         2         53   0.0000000000000000E+00   2.1313609889593021E-02   3.4023011236630323E-04   1.1303330367465007E-03
         2         54   0.0000000000000000E+00   2.8412820964042153E-02   2.2550286935392396E-03   2.9260719355963414E-03
         2         55   0.0000000000000000E+00   3.1964886818756380E-02   8.1131146010850132E-04   2.0849356023884815E-03
         2         56   0.0000000000000000E+00   7.6705016896199088E-02   2.1247145717702712E-02   1.2030683687109569E-02
         2         57   0.0000000000000000E+00   5.3217341266035931E-02   3.3831722864978877E-03   4.3720033662293717E-03
         2         58   0.0000000000000000E+00   5.9837980005572666E-02   5.5772977594678878E-04   1.6089592657433961E-03
         2         59   0.0000000000000000E+00   1.7099619212795108E-02   1.3373675657799724E-04   4.6867346246706705E-04
         2         60   0.0000000000000000E+00   1.4035220477920793E-02   1.8996070201366541E-04   6.7085932392199567E-04
         2         61   0.0000000000000000E+00   2.1970614970091239E-02   4.5942689053609449E-04   1.2566185336179356E-03
         2         62   0.0000000000000000E+00   3.0477704628288825E-02   1.9309950933934356E-03   2.5973677244390267E-03
         2         63   0.0000000000000000E+00   1.3295628956873497E-02   9.4902973879116875E-04   1.3083860575969985E-03
         2         64   0.0000000000000000E+00   3.2388703209206129E-02   2.4547093854140027E-04   8.0765351430440058E-04
         3          1   0.0000000000000000E+00   3.0534160472937533E-01   5.9413553326536667E-02   5.5205496240634262E-02
         3          2   0.0000000000000000E+00   4.3901553989464748E-01   9.4079653693434850E-02   7.9995353293546428E-02
         3          3   0.0000000000000000E+00   3.1798281289562502E-01   8.2327905514836291E-02   7.0680464707863808E-02
         3          4   0.0000000000000000E+00   2.3885378059727130E-01   5.1311193665897120E-02   4.6450752618266193E-02
         3          5   0.0000000000000000E+00   7.0133947151048884E-02   8.9561050802113452E-03   9.2188775901246457E-03
         3          6   0.0000000000000000E+00   9.7069598005848398E-02   1.6069769310372101E-02   1.4058973755064392E-02
         3          7   0.0000000000000000E+00   1.3197414625966261E-01   1.7909073119288754E-02   1.8459354200076491E-02
         3          8   0.0000000000000000E+00   8.2064372358295654E-02   7.0741679059407583E-03   8.2388562156680209E-03
         3          9   0.0000000000000000E+00   2.0345748609287795E+00   5.1212963555296120E-01   4.0770694730054480E-01
         3         10   0.0000000000000000E+00   3.0954795788567275E+00   7.8979109328002550E-01   6.7030926591258944E-01
         3         11   0.0000000000000000E+00   1.8888161332277413E+00   5.8466712404572785E-01   3.7605209710290627E-01
         3         12   0.0000000000000000E+00   2.7835818165473447E+00   7.3842819292980999E-01   5.5504326783370472E-01
         3         13   0.0000000000000000E+00   4.6389842936844943E+00   1.2195947635737034E+00   1.0521956160173866E+00
         3         14   0.0000000000000000E+00   3.7701957694063251E+00   1.2370540417578224E+00   7.7073366928987108E-01
         3         15   0.0000000000000000E+00   7.4445323574305877E-01   2.1799345969789966E-01   1.7916848525272797E-01
         3         16   0.0000000000000000E+00   1.2830126717283266E+00   3.6439798025378478E-01   3.1431995787327821E-01
         3         17   0.0000000000000000E+00   1.0398714360338936E+00   3.1385757809570675E-01   2.0548334095708370E-01
         3         18   0.0000000000000000E+00   6.8540120114541372E+00   1.7900468717451834E+00   1.3944736580731523E+00
         3         19   0.0000000000000000E+00   1.0930526222049565E+01   2.9370292831265625E+00   2.5006923095678295E+00
         3         20   0.0000000000000000E+00   8.5560428400554542E+00   2.7543737388107767E+00   1.7036123409294139E+00
         3         21   0.0000000000000000E+00   5.3797510210661255E+00   1.4564467145713740E+00   1.1348608491375929E+00
         3         22   0.0000000000000000E+00   7.1949767148699912E+00   2.3184025214409383E+00   1.4732693659886480E+00
         3         23   0.0000000000000000E+00   1.6282835166354959E+00   4.0113829015787850E-01   3.1969414816100217E-01
         3         24   0.0000000000000000E+00   2.4751725599835939E+00   7.0112427095097740E-01   6.0240880442213263E-01
         3         25   0.0000000000000000E+00   2.0238281177890109E+00   6.8302186271628751E-01   4.1342747964823878E-01
         3         26   0.0000000000000000E+00   2.9639184052866314E+00   7.7625953420670335E-01   6.2903793073547221E-01
         3         27   0.0000000000000000E+00   4.7109257010339460E+00   1.3265134953824418E+00   1.1487264168279745E+00
         3         28   0.0000000000000000E+00   3.9109542596250533E+00   1.2082606900461657E+00   7.8535642268921502E-01
         3         29   0.0000000000000000E+00   3.9531329681972709E+00   1.0553791212187829E+00   7.9383266992000368E-01
         3         30   0.0000000000000000E+00   5.4169077932845138E+00   1.7564401107521181E+00   1.0904673553252644E+00
         3         31   0.0000000000000000E+00   9.1490846784391213E-04   4.2650171722221654E-05   7.4388570904211363E-05
         3         32   0.0000000000000000E+00   1.7681128549340774E-03   7.2059982219523634E-05   1.1341889007690437E-04
         3         33   0.0000000000000000E+00   1.2904327253027601E-03   5.1036341079676971E-05   9.2845451841886046E-05
         3         34   0.0000000000000000E+00   7.8562068941600074E-04   3.4515506806960294E-05   6.3709843930108437E-05
         3         35   0.0000000000000000E+00   2.2201967365135925E-04   3.6935491961688848E-06   7.3575805024687500E-06
         3         36   0.0000000000000000E+00   2.6379508126063114E-04   6.5440025633145902E-06   1.3541077623475996E-05
         3         37   0.0000000000000000E+00   2.4759696433538810E-02   2.0498314219846445E-03   2.8204598323777808E-03
         3         38   0.0000000000000000E+00   2.0740167406732613E-02   2.6912311956807599E-03   3.1670777450624205E-03
         3         39   0.0000000000000000E+00   2.7787481096631657E-02   3.4605685364651091E-03   4.2036788091362404E-03
         3         40   0.0000000000000000E+00   5.6917290746817478E-02   5.1521134977589953E-03   6.3040818648431880E-03
         3         41   0.0000000000000000E+00   3.0141137754892605E-02   3.4359487833239407E-03   4.0561080203248669E-03
         3         42   0.0000000000000000E+00   6.2364291736539464E-02   4.0012284969516152E-03   5.2868794225557521E-03
         3         43   0.0000000000000000E+00   4.4528654327607761E-02   6.5528109241102502E-03   7.5390197832311788E-03
         3         44   0.0000000000000000E+00   7.9215391041690314E-02   1.0321649533237319E-02   1.1857070042269999E-02
         3         45   0.0000000000000000E+00   1.5740800851547485E-01   1.3812466190260515E-02   1.7203993699538147E-02
         3         46   0.0000000000000000E+00   9.4495844519533273E-02   1.0360498410079980E-02   1.1864152121384655E-02
         3         47   0.0000000000000000E+00   7.8667382783460790E-02   8.9127437267891383E-03   1.1679542290900994E-02
         3         48   0.0000000000000000E+00   1.3342844308868191E-02   1.3626405220454364E-03   2.0762599224796530E-03
         3         49   0.0000000000000000E+00   3.1080390238242225E-03   1.8136027158688784E-04   2.9629690495859914E-04
         3         50   0.0000000000000000E+00   2.9575484366936799E-03   2.4412831078829414E-04   3.0642184658717902E-04
         3         51   0.0000000000000000E+00   3.5195475659041530E-03   2.8318726819723250E-04   3.9172851366419813E-04
         3         52   0.0000000000000000E+00   4.7871830414905770E-03   4.3679937959096562E-04   7.6930059984854681E-04
         3         53   0.0000000000000000E+00   2.7717003731169091E-02   1.3984487818333616E-03   1.8689348867197977E-03
         3         54   0.0000000000000000E+00   3.8713090276647842E-02   5.0921487819761170E-03   5.7323850009356973E-03
         3         55   0.0000000000000000E+00   5.3217341266035910E-02   5.3188369829662054E-03   6.0375778829502300E-03
         3         56   0.0000000000000000E+00   4.3249346576222161E-02   4.7836336050652677E-03   6.5276752372801653E-03
         3         57   0.0000000000000000E+00   7.1369375298262084E-03   5.2705666061188857E-04   7.7508311450762569E-04
         3         58   0.0000000000000000E+00   9.2388487700062298E-03   9.5245020660116085E-04   1.2292927578423758E-03
         3         59   0.0000000000000000E+00   8.6061710662447399E-03   8.8437521496802500E-04   1.2440683913262506E-03
         3         60   0.0000000000000000E+00   1.8772081983140291E-02   1.0294024184896904E-03   1.4667150284622926E-03
         3         61   0.0000000000000000E+00   1.5135534457707522E-02   1.7799430660490145E-03   2.1391281100928560E-03
         3         62   0.0000000000000000E+00   2.5730517063382845E-02   2.7597606451675240E-03   3.3764049551593643E-03
         3         63   0.0000000000000000E+00   2.3851411709667550E-02   2.4148263243632842E-03   3.2426801350853309E-03
         3         64   0.0000000000000000E+00   1.6504331880656326E-02   1.4204438585765082E-03   1.7395768925039109E-03
