
     Program PWSCF v.6.3 starts on 26Feb2020 at 22:38: 0 

     This program is part of the open-source Quantum ESPRESSO suite
     for quantum simulation of materials; please cite
         "P. Giannozzi et al., J. Phys.:Condens. Matter 21 395502 (2009);
         "P. Giannozzi et al., J. Phys.:Condens. Matter 29 465901 (2017);
          URL http://www.quantum-espresso.org", 
     in publications or presentations arising from this work. More details at
     http://www.quantum-espresso.org/quote

 *** WARNING: using old-style file format, will disappear from next version ***

     Parallel version (MPI & OpenMP), running on     288 processor cores
     Number of MPI processes:               288
     Threads/MPI process:                     1

     MPI processes distributed on     8 nodes
     K-points division:     npool     =      36
     R & G space division:  proc/nbgrp/npool/nimage =       8
     Reading input from aiida.in
Warning: card &IONS ignored
Warning: card   !PRESS_CONV_THR = 0.05                 ! JUST FOR VOLUME RELAXATIONS ignored
Warning: card / ignored

     Current dimensions of program PWSCF are:
     Max number of different atomic species (ntypx) = 10
     Max number of k-points (npk) =  40000
     Max angular momentum in pseudopotentials (lmaxx) =  3
               file Al.pbe-n-kjpaw_psl.1.0.0.UPF: wavefunction(s)  3S 3P renormalized

     Subspace diagonalization in iterative solution of the eigenvalue problem:
     one sub-group per band group will be used
     scalapack distributed-memory algorithm (size of sub-group:  2*  2 procs)

     Found symmetry operation: I + (  0.5000 -0.5000  0.5000)
     This is a supercell, fractional translations are disabled
 
     Parallelization info
     --------------------
     sticks:   dense  smooth     PW     G-vecs:    dense   smooth      PW
     Min        3740    1497    390               486920   123201   16474
     Max        3741    1498    391               486925   123204   16481
     Sum       29921   11977   3125              3895379   985619  131827
 


     bravais-lattice index     =            0
     lattice parameter (alat)  =      30.6665  a.u.
     unit-cell volume          =   28839.7502 (a.u.)^3
     number of atoms/cell      =          254
     number of atomic types    =            1
     number of electrons       =       762.00
     number of Kohn-Sham states=          457
     kinetic-energy cutoff     =      40.0000  Ry
     charge density cutoff     =     400.0000  Ry
     convergence threshold     =      1.0E-12
     mixing beta               =       0.4000
     number of iterations used =            8  local-TF  mixing
     Exchange-correlation      = SLA PW PBX PBC ( 1  4  3  4 0 0)

     celldm(1)=  30.666473  celldm(2)=   0.000000  celldm(3)=   0.000000
     celldm(4)=   0.000000  celldm(5)=   0.000000  celldm(6)=   0.000000

     crystal axes: (cart. coord. in units of alat)
               a(1) = (   1.000000   0.000000   0.000000 )  
               a(2) = (   0.000000   1.000000   0.000000 )  
               a(3) = (   0.000000   0.000000   1.000000 )  

     reciprocal axes: (cart. coord. in units 2 pi/alat)
               b(1) = (  1.000000  0.000000  0.000000 )  
               b(2) = (  0.000000  1.000000  0.000000 )  
               b(3) = (  0.000000  0.000000  1.000000 )  


     PseudoPot. # 1 for Al read from file:
     /users/aglensk/Dropbox/Albert/scripts/dotfiles/scripts/potentials/quantum_espresso/pseudo_SSSPefV1.1_alalloy/Al.pbe-n-kjpaw_psl.1.0.0.UPF
     MD5 check sum: cfc449ca30b5f3223ec38ddd88ac046d
     Pseudo is Projector augmented-wave + core cor, Zval =  3.0
     Generated using "atomic" code by A. Dal Corso v.5.1
     Shape of augmentation charge: PSQ
     Using radial grid of 1135 points,  6 beta functions with: 
                l(1) =   0
                l(2) =   0
                l(3) =   1
                l(4) =   1
                l(5) =   2
                l(6) =   2
     Q(r) pseudized with 0 coefficients 


     atomic species   valence    mass     pseudopotential
        Al             3.00    26.98154     Al( 1.00)

     No symmetry found


                                    s                        frac. trans.

      isym =  1     identity                                     

 cryst.   s( 1) = (     1          0          0      )
                  (     0          1          0      )
                  (     0          0          1      )

 cart.    s( 1) = (  1.0000000  0.0000000  0.0000000 )
                  (  0.0000000  1.0000000  0.0000000 )
                  (  0.0000000  0.0000000  1.0000000 )


   Cartesian axes

     site n.     atom                  positions (alat units)
         1           Al  tau(   1) = (   0.1228961   0.0000000   0.1228961  )
         2           Al  tau(   2) = (   0.1228961   0.1228961   0.0000000  )
         3           Al  tau(   3) = (   0.0000000   0.1228961   0.1228961  )
         4           Al  tau(   4) = (   0.0000000   0.0000000   0.2497121  )
         5           Al  tau(   5) = (   0.1248970   0.1248970   0.2498923  )
         6           Al  tau(   6) = (   0.1249492   0.0000000   0.3750208  )
         7           Al  tau(   7) = (   0.0000000   0.1249492   0.3750208  )
         8           Al  tau(   8) = (   0.0000000   0.0000000   0.5000000  )
         9           Al  tau(   9) = (   0.1251416   0.1251416   0.5000000  )
        10           Al  tau(  10) = (   0.1249492   0.0000000   0.6249792  )
        11           Al  tau(  11) = (   0.0000000   0.1249492   0.6249792  )
        12           Al  tau(  12) = (   0.0000000   0.0000000   0.7502879  )
        13           Al  tau(  13) = (   0.1248970   0.1248970   0.7501077  )
        14           Al  tau(  14) = (   0.1228961   0.0000000   0.8771040  )
        15           Al  tau(  15) = (   0.0000000   0.1228961   0.8771040  )
        16           Al  tau(  16) = (   0.0000000   0.2497121   0.0000000  )
        17           Al  tau(  17) = (   0.1249492   0.3750208   0.0000000  )
        18           Al  tau(  18) = (   0.1248970   0.2498923   0.1248970  )
        19           Al  tau(  19) = (   0.0000000   0.3750208   0.1249492  )
        20           Al  tau(  20) = (   0.0000000   0.2492080   0.2492080  )
        21           Al  tau(  21) = (   0.1250044   0.3749957   0.2500000  )
        22           Al  tau(  22) = (   0.1250044   0.2500000   0.3749957  )
        23           Al  tau(  23) = (   0.0000000   0.3748584   0.3748584  )
        24           Al  tau(  24) = (   0.0000000   0.2500000   0.5000000  )
        25           Al  tau(  25) = (   0.1249795   0.3750510   0.5000000  )
        26           Al  tau(  26) = (   0.1250044   0.2500000   0.6250044  )
        27           Al  tau(  27) = (   0.0000000   0.3748584   0.6251416  )
        28           Al  tau(  28) = (   0.0000000   0.2492080   0.7507920  )
        29           Al  tau(  29) = (   0.1250044   0.3749957   0.7500000  )
        30           Al  tau(  30) = (   0.1248970   0.2498923   0.8751030  )
        31           Al  tau(  31) = (   0.0000000   0.3750208   0.8750508  )
        32           Al  tau(  32) = (   0.0000000   0.5000000   0.0000000  )
        33           Al  tau(  33) = (   0.1249492   0.6249792   0.0000000  )
        34           Al  tau(  34) = (   0.1251416   0.5000000   0.1251416  )
        35           Al  tau(  35) = (   0.0000000   0.6249792   0.1249492  )
        36           Al  tau(  36) = (   0.0000000   0.5000000   0.2500000  )
        37           Al  tau(  37) = (   0.1250044   0.6250044   0.2500000  )
        38           Al  tau(  38) = (   0.1249795   0.5000000   0.3750510  )
        39           Al  tau(  39) = (   0.0000000   0.6251416   0.3748584  )
        40           Al  tau(  40) = (   0.0000000   0.5000000   0.5000000  )
        41           Al  tau(  41) = (   0.1249795   0.6249490   0.5000000  )
        42           Al  tau(  42) = (   0.1249795   0.5000000   0.6249490  )
        43           Al  tau(  43) = (   0.0000000   0.6251416   0.6251416  )
        44           Al  tau(  44) = (   0.0000000   0.5000000   0.7500001  )
        45           Al  tau(  45) = (   0.1250044   0.6250044   0.7500000  )
        46           Al  tau(  46) = (   0.1251416   0.5000000   0.8748584  )
        47           Al  tau(  47) = (   0.0000000   0.6249792   0.8750508  )
        48           Al  tau(  48) = (   0.0000000   0.7502879   0.0000000  )
        49           Al  tau(  49) = (   0.1228961   0.8771040   0.0000000  )
        50           Al  tau(  50) = (   0.1248970   0.7501077   0.1248970  )
        51           Al  tau(  51) = (   0.0000000   0.8771040   0.1228961  )
        52           Al  tau(  52) = (   0.0000000   0.7507920   0.2492080  )
        53           Al  tau(  53) = (   0.1248970   0.8751030   0.2498923  )
        54           Al  tau(  54) = (   0.1250044   0.7500000   0.3749957  )
        55           Al  tau(  55) = (   0.0000000   0.8750508   0.3750208  )
        56           Al  tau(  56) = (   0.0000000   0.7500001   0.5000000  )
        57           Al  tau(  57) = (   0.1251416   0.8748584   0.5000000  )
        58           Al  tau(  58) = (   0.1250044   0.7500000   0.6250044  )
        59           Al  tau(  59) = (   0.0000000   0.8750508   0.6249792  )
        60           Al  tau(  60) = (   0.0000000   0.7507920   0.7507920  )
        61           Al  tau(  61) = (   0.1248970   0.8751030   0.7501077  )
        62           Al  tau(  62) = (   0.1248970   0.7501077   0.8751030  )
        63           Al  tau(  63) = (   0.0000000   0.8771040   0.8771040  )
        64           Al  tau(  64) = (   0.2497121   0.0000000   0.0000000  )
        65           Al  tau(  65) = (   0.3750208   0.1249492   0.0000000  )
        66           Al  tau(  66) = (   0.3750208   0.0000000   0.1249492  )
        67           Al  tau(  67) = (   0.2498923   0.1248970   0.1248970  )
        68           Al  tau(  68) = (   0.2492080   0.0000000   0.2492080  )
        69           Al  tau(  69) = (   0.3749957   0.1250044   0.2500000  )
        70           Al  tau(  70) = (   0.3748584   0.0000000   0.3748584  )
        71           Al  tau(  71) = (   0.2500000   0.1250044   0.3749957  )
        72           Al  tau(  72) = (   0.2500000   0.0000000   0.5000000  )
        73           Al  tau(  73) = (   0.3750510   0.1249795   0.5000000  )
        74           Al  tau(  74) = (   0.3748584   0.0000000   0.6251416  )
        75           Al  tau(  75) = (   0.2500000   0.1250044   0.6250044  )
        76           Al  tau(  76) = (   0.2492080   0.0000000   0.7507920  )
        77           Al  tau(  77) = (   0.3749957   0.1250044   0.7500000  )
        78           Al  tau(  78) = (   0.3750208   0.0000000   0.8750508  )
        79           Al  tau(  79) = (   0.2498923   0.1248970   0.8751030  )
        80           Al  tau(  80) = (   0.2492080   0.2492080   0.0000000  )
        81           Al  tau(  81) = (   0.3748584   0.3748584   0.0000000  )
        82           Al  tau(  82) = (   0.3749957   0.2500000   0.1250044  )
        83           Al  tau(  83) = (   0.2500000   0.3749957   0.1250044  )
        84           Al  tau(  84) = (   0.2500000   0.2500000   0.2500000  )
        85           Al  tau(  85) = (   0.3751033   0.3751033   0.2501078  )
        86           Al  tau(  86) = (   0.3751033   0.2501078   0.3751033  )
        87           Al  tau(  87) = (   0.2501078   0.3751033   0.3751033  )
        88           Al  tau(  88) = (   0.2507920   0.2507920   0.5000000  )
        89           Al  tau(  89) = (   0.3771041   0.3771041   0.5000000  )
        90           Al  tau(  90) = (   0.3751033   0.2501078   0.6248968  )
        91           Al  tau(  91) = (   0.2501078   0.3751033   0.6248968  )
        92           Al  tau(  92) = (   0.2500000   0.2500000   0.7500000  )
        93           Al  tau(  93) = (   0.3751033   0.3751033   0.7498923  )
        94           Al  tau(  94) = (   0.3749957   0.2500000   0.8749956  )
        95           Al  tau(  95) = (   0.2500000   0.3749957   0.8749956  )
        96           Al  tau(  96) = (   0.2500000   0.5000000   0.0000000  )
        97           Al  tau(  97) = (   0.3748584   0.6251416   0.0000000  )
        98           Al  tau(  98) = (   0.3750510   0.5000000   0.1249795  )
        99           Al  tau(  99) = (   0.2500000   0.6250044   0.1250044  )
       100           Al  tau( 100) = (   0.2507920   0.5000000   0.2507920  )
       101           Al  tau( 101) = (   0.3751033   0.6248968   0.2501078  )
       102           Al  tau( 102) = (   0.3771041   0.5000000   0.3771041  )
       103           Al  tau( 103) = (   0.2501078   0.6248968   0.3751033  )
       104           Al  tau( 104) = (   0.2502881   0.5000000   0.5000000  )
       105           Al  tau( 105) = (   0.3771041   0.6228959   0.5000000  )
       106           Al  tau( 106) = (   0.3771041   0.5000000   0.6228959  )
       107           Al  tau( 107) = (   0.2501078   0.6248968   0.6248968  )
       108           Al  tau( 108) = (   0.2507920   0.5000000   0.7492081  )
       109           Al  tau( 109) = (   0.3751033   0.6248968   0.7498923  )
       110           Al  tau( 110) = (   0.3750510   0.5000000   0.8750205  )
       111           Al  tau( 111) = (   0.2500000   0.6250044   0.8749956  )
       112           Al  tau( 112) = (   0.2492080   0.7507920   0.0000000  )
       113           Al  tau( 113) = (   0.3750208   0.8750508   0.0000000  )
       114           Al  tau( 114) = (   0.3749957   0.7500000   0.1250044  )
       115           Al  tau( 115) = (   0.2498923   0.8751030   0.1248970  )
       116           Al  tau( 116) = (   0.2500000   0.7500000   0.2500000  )
       117           Al  tau( 117) = (   0.3749957   0.8749956   0.2500000  )
       118           Al  tau( 118) = (   0.3751033   0.7498923   0.3751033  )
       119           Al  tau( 119) = (   0.2500000   0.8749956   0.3749957  )
       120           Al  tau( 120) = (   0.2507920   0.7492081   0.5000000  )
       121           Al  tau( 121) = (   0.3750510   0.8750205   0.5000000  )
       122           Al  tau( 122) = (   0.3751033   0.7498923   0.6248968  )
       123           Al  tau( 123) = (   0.2500000   0.8749956   0.6250044  )
       124           Al  tau( 124) = (   0.2500000   0.7500000   0.7500000  )
       125           Al  tau( 125) = (   0.3749957   0.8749956   0.7500000  )
       126           Al  tau( 126) = (   0.3749957   0.7500000   0.8749956  )
       127           Al  tau( 127) = (   0.2498923   0.8751030   0.8751030  )
       128           Al  tau( 128) = (   0.5000000   0.0000000   0.0000000  )
       129           Al  tau( 129) = (   0.6249792   0.1249492   0.0000000  )
       130           Al  tau( 130) = (   0.6249792   0.0000000   0.1249492  )
       131           Al  tau( 131) = (   0.5000000   0.1251416   0.1251416  )
       132           Al  tau( 132) = (   0.5000000   0.0000000   0.2500000  )
       133           Al  tau( 133) = (   0.6250044   0.1250044   0.2500000  )
       134           Al  tau( 134) = (   0.6251416   0.0000000   0.3748584  )
       135           Al  tau( 135) = (   0.5000000   0.1249795   0.3750510  )
       136           Al  tau( 136) = (   0.5000000   0.0000000   0.5000000  )
       137           Al  tau( 137) = (   0.6249490   0.1249795   0.5000000  )
       138           Al  tau( 138) = (   0.6251416   0.0000000   0.6251416  )
       139           Al  tau( 139) = (   0.5000000   0.1249795   0.6249490  )
       140           Al  tau( 140) = (   0.5000000   0.0000000   0.7500001  )
       141           Al  tau( 141) = (   0.6250044   0.1250044   0.7500000  )
       142           Al  tau( 142) = (   0.6249792   0.0000000   0.8750508  )
       143           Al  tau( 143) = (   0.5000000   0.1251416   0.8748584  )
       144           Al  tau( 144) = (   0.5000000   0.2500000   0.0000000  )
       145           Al  tau( 145) = (   0.6251416   0.3748584   0.0000000  )
       146           Al  tau( 146) = (   0.6250044   0.2500000   0.1250044  )
       147           Al  tau( 147) = (   0.5000000   0.3750510   0.1249795  )
       148           Al  tau( 148) = (   0.5000000   0.2507920   0.2507920  )
       149           Al  tau( 149) = (   0.6248968   0.3751033   0.2501078  )
       150           Al  tau( 150) = (   0.6248968   0.2501078   0.3751033  )
       151           Al  tau( 151) = (   0.5000000   0.3771041   0.3771041  )
       152           Al  tau( 152) = (   0.5000000   0.2502881   0.5000000  )
       153           Al  tau( 153) = (   0.6228959   0.3771041   0.5000000  )
       154           Al  tau( 154) = (   0.6248968   0.2501078   0.6248968  )
       155           Al  tau( 155) = (   0.5000000   0.3771041   0.6228959  )
       156           Al  tau( 156) = (   0.5000000   0.2507920   0.7492081  )
       157           Al  tau( 157) = (   0.6248968   0.3751033   0.7498923  )
       158           Al  tau( 158) = (   0.6250044   0.2500000   0.8749956  )
       159           Al  tau( 159) = (   0.5000000   0.3750510   0.8750205  )
       160           Al  tau( 160) = (   0.5000000   0.5000000   0.0000000  )
       161           Al  tau( 161) = (   0.6251416   0.6251416   0.0000000  )
       162           Al  tau( 162) = (   0.6249490   0.5000000   0.1249795  )
       163           Al  tau( 163) = (   0.5000000   0.6249490   0.1249795  )
       164           Al  tau( 164) = (   0.5000000   0.5000000   0.2502881  )
       165           Al  tau( 165) = (   0.6248968   0.6248968   0.2501078  )
       166           Al  tau( 166) = (   0.6228959   0.5000000   0.3771041  )
       167           Al  tau( 167) = (   0.5000000   0.6228959   0.3771041  )
       168           Al  tau( 168) = (   0.6228959   0.6228959   0.5000000  )
       169           Al  tau( 169) = (   0.6228959   0.5000000   0.6228959  )
       170           Al  tau( 170) = (   0.5000000   0.6228959   0.6228959  )
       171           Al  tau( 171) = (   0.5000000   0.5000000   0.7497120  )
       172           Al  tau( 172) = (   0.6248968   0.6248968   0.7498923  )
       173           Al  tau( 173) = (   0.6249490   0.5000000   0.8750205  )
       174           Al  tau( 174) = (   0.5000000   0.6249490   0.8750205  )
       175           Al  tau( 175) = (   0.5000000   0.7500001   0.0000000  )
       176           Al  tau( 176) = (   0.6249792   0.8750508   0.0000000  )
       177           Al  tau( 177) = (   0.6250044   0.7500000   0.1250044  )
       178           Al  tau( 178) = (   0.5000000   0.8748584   0.1251416  )
       179           Al  tau( 179) = (   0.5000000   0.7492081   0.2507920  )
       180           Al  tau( 180) = (   0.6250044   0.8749956   0.2500000  )
       181           Al  tau( 181) = (   0.6248968   0.7498923   0.3751033  )
       182           Al  tau( 182) = (   0.5000000   0.8750205   0.3750510  )
       183           Al  tau( 183) = (   0.5000000   0.7497120   0.5000000  )
       184           Al  tau( 184) = (   0.6249490   0.8750205   0.5000000  )
       185           Al  tau( 185) = (   0.6248968   0.7498923   0.6248968  )
       186           Al  tau( 186) = (   0.5000000   0.8750205   0.6249490  )
       187           Al  tau( 187) = (   0.5000000   0.7492081   0.7492081  )
       188           Al  tau( 188) = (   0.6250044   0.8749956   0.7500000  )
       189           Al  tau( 189) = (   0.6250044   0.7500000   0.8749956  )
       190           Al  tau( 190) = (   0.5000000   0.8748584   0.8748584  )
       191           Al  tau( 191) = (   0.7502879   0.0000000   0.0000000  )
       192           Al  tau( 192) = (   0.8771040   0.1228961   0.0000000  )
       193           Al  tau( 193) = (   0.8771040   0.0000000   0.1228961  )
       194           Al  tau( 194) = (   0.7501077   0.1248970   0.1248970  )
       195           Al  tau( 195) = (   0.7507920   0.0000000   0.2492080  )
       196           Al  tau( 196) = (   0.8751030   0.1248970   0.2498923  )
       197           Al  tau( 197) = (   0.8750508   0.0000000   0.3750208  )
       198           Al  tau( 198) = (   0.7500000   0.1250044   0.3749957  )
       199           Al  tau( 199) = (   0.7500001   0.0000000   0.5000000  )
       200           Al  tau( 200) = (   0.8748584   0.1251416   0.5000000  )
       201           Al  tau( 201) = (   0.8750508   0.0000000   0.6249792  )
       202           Al  tau( 202) = (   0.7500000   0.1250044   0.6250044  )
       203           Al  tau( 203) = (   0.7507920   0.0000000   0.7507920  )
       204           Al  tau( 204) = (   0.8751030   0.1248970   0.7501077  )
       205           Al  tau( 205) = (   0.8771040   0.0000000   0.8771040  )
       206           Al  tau( 206) = (   0.7501077   0.1248970   0.8751030  )
       207           Al  tau( 207) = (   0.7507920   0.2492080   0.0000000  )
       208           Al  tau( 208) = (   0.8750508   0.3750208   0.0000000  )
       209           Al  tau( 209) = (   0.8751030   0.2498923   0.1248970  )
       210           Al  tau( 210) = (   0.7500000   0.3749957   0.1250044  )
       211           Al  tau( 211) = (   0.7500000   0.2500000   0.2500000  )
       212           Al  tau( 212) = (   0.8749956   0.3749957   0.2500000  )
       213           Al  tau( 213) = (   0.8749956   0.2500000   0.3749957  )
       214           Al  tau( 214) = (   0.7498923   0.3751033   0.3751033  )
       215           Al  tau( 215) = (   0.7492081   0.2507920   0.5000000  )
       216           Al  tau( 216) = (   0.8750205   0.3750510   0.5000000  )
       217           Al  tau( 217) = (   0.8749956   0.2500000   0.6250044  )
       218           Al  tau( 218) = (   0.7498923   0.3751033   0.6248968  )
       219           Al  tau( 219) = (   0.7500000   0.2500000   0.7500000  )
       220           Al  tau( 220) = (   0.8749956   0.3749957   0.7500000  )
       221           Al  tau( 221) = (   0.8751030   0.2498923   0.8751030  )
       222           Al  tau( 222) = (   0.7500000   0.3749957   0.8749956  )
       223           Al  tau( 223) = (   0.7500001   0.5000000   0.0000000  )
       224           Al  tau( 224) = (   0.8750508   0.6249792   0.0000000  )
       225           Al  tau( 225) = (   0.8748584   0.5000000   0.1251416  )
       226           Al  tau( 226) = (   0.7500000   0.6250044   0.1250044  )
       227           Al  tau( 227) = (   0.7492081   0.5000000   0.2507920  )
       228           Al  tau( 228) = (   0.8749956   0.6250044   0.2500000  )
       229           Al  tau( 229) = (   0.8750205   0.5000000   0.3750510  )
       230           Al  tau( 230) = (   0.7498923   0.6248968   0.3751033  )
       231           Al  tau( 231) = (   0.7497120   0.5000000   0.5000000  )
       232           Al  tau( 232) = (   0.8750205   0.6249490   0.5000000  )
       233           Al  tau( 233) = (   0.8750205   0.5000000   0.6249490  )
       234           Al  tau( 234) = (   0.7498923   0.6248968   0.6248968  )
       235           Al  tau( 235) = (   0.7492081   0.5000000   0.7492081  )
       236           Al  tau( 236) = (   0.8749956   0.6250044   0.7500000  )
       237           Al  tau( 237) = (   0.8748584   0.5000000   0.8748584  )
       238           Al  tau( 238) = (   0.7500000   0.6250044   0.8749956  )
       239           Al  tau( 239) = (   0.7507920   0.7507920   0.0000000  )
       240           Al  tau( 240) = (   0.8771040   0.8771040   0.0000000  )
       241           Al  tau( 241) = (   0.8751030   0.7501077   0.1248970  )
       242           Al  tau( 242) = (   0.7501077   0.8751030   0.1248970  )
       243           Al  tau( 243) = (   0.7500000   0.7500000   0.2500000  )
       244           Al  tau( 244) = (   0.8751030   0.8751030   0.2498923  )
       245           Al  tau( 245) = (   0.8749956   0.7500000   0.3749957  )
       246           Al  tau( 246) = (   0.7500000   0.8749956   0.3749957  )
       247           Al  tau( 247) = (   0.7492081   0.7492081   0.5000000  )
       248           Al  tau( 248) = (   0.8748584   0.8748584   0.5000000  )
       249           Al  tau( 249) = (   0.8749956   0.7500000   0.6250044  )
       250           Al  tau( 250) = (   0.7500000   0.8749956   0.6250044  )
       251           Al  tau( 251) = (   0.7500000   0.7500000   0.7500000  )
       252           Al  tau( 252) = (   0.8751030   0.8751030   0.7501077  )
       253           Al  tau( 253) = (   0.8751030   0.7501077   0.8751030  )
       254           Al  tau( 254) = (   0.7501077   0.8751030   0.8751030  )

   Crystallographic axes

     site n.     atom                  positions (cryst. coord.)
         1           Al  tau(   1) = (  0.1228961  0.0000000  0.1228961  )
         2           Al  tau(   2) = (  0.1228961  0.1228961  0.0000000  )
         3           Al  tau(   3) = (  0.0000000  0.1228961  0.1228961  )
         4           Al  tau(   4) = (  0.0000000  0.0000000  0.2497121  )
         5           Al  tau(   5) = (  0.1248970  0.1248970  0.2498923  )
         6           Al  tau(   6) = (  0.1249492  0.0000000  0.3750208  )
         7           Al  tau(   7) = (  0.0000000  0.1249492  0.3750208  )
         8           Al  tau(   8) = (  0.0000000  0.0000000  0.5000000  )
         9           Al  tau(   9) = (  0.1251416  0.1251416  0.5000000  )
        10           Al  tau(  10) = (  0.1249492  0.0000000  0.6249792  )
        11           Al  tau(  11) = (  0.0000000  0.1249492  0.6249792  )
        12           Al  tau(  12) = (  0.0000000  0.0000000  0.7502879  )
        13           Al  tau(  13) = (  0.1248970  0.1248970  0.7501077  )
        14           Al  tau(  14) = (  0.1228961  0.0000000  0.8771040  )
        15           Al  tau(  15) = (  0.0000000  0.1228961  0.8771040  )
        16           Al  tau(  16) = (  0.0000000  0.2497121  0.0000000  )
        17           Al  tau(  17) = (  0.1249492  0.3750208  0.0000000  )
        18           Al  tau(  18) = (  0.1248970  0.2498923  0.1248970  )
        19           Al  tau(  19) = (  0.0000000  0.3750208  0.1249492  )
        20           Al  tau(  20) = (  0.0000000  0.2492080  0.2492080  )
        21           Al  tau(  21) = (  0.1250044  0.3749957  0.2500000  )
        22           Al  tau(  22) = (  0.1250044  0.2500000  0.3749957  )
        23           Al  tau(  23) = (  0.0000000  0.3748584  0.3748584  )
        24           Al  tau(  24) = (  0.0000000  0.2500000  0.5000000  )
        25           Al  tau(  25) = (  0.1249795  0.3750510  0.5000000  )
        26           Al  tau(  26) = (  0.1250044  0.2500000  0.6250044  )
        27           Al  tau(  27) = (  0.0000000  0.3748584  0.6251416  )
        28           Al  tau(  28) = (  0.0000000  0.2492080  0.7507920  )
        29           Al  tau(  29) = (  0.1250044  0.3749957  0.7500000  )
        30           Al  tau(  30) = (  0.1248970  0.2498923  0.8751030  )
        31           Al  tau(  31) = (  0.0000000  0.3750208  0.8750508  )
        32           Al  tau(  32) = (  0.0000000  0.5000000  0.0000000  )
        33           Al  tau(  33) = (  0.1249492  0.6249792  0.0000000  )
        34           Al  tau(  34) = (  0.1251416  0.5000000  0.1251416  )
        35           Al  tau(  35) = (  0.0000000  0.6249792  0.1249492  )
        36           Al  tau(  36) = (  0.0000000  0.5000000  0.2500000  )
        37           Al  tau(  37) = (  0.1250044  0.6250044  0.2500000  )
        38           Al  tau(  38) = (  0.1249795  0.5000000  0.3750510  )
        39           Al  tau(  39) = (  0.0000000  0.6251416  0.3748584  )
        40           Al  tau(  40) = (  0.0000000  0.5000000  0.5000000  )
        41           Al  tau(  41) = (  0.1249795  0.6249490  0.5000000  )
        42           Al  tau(  42) = (  0.1249795  0.5000000  0.6249490  )
        43           Al  tau(  43) = (  0.0000000  0.6251416  0.6251416  )
        44           Al  tau(  44) = (  0.0000000  0.5000000  0.7500001  )
        45           Al  tau(  45) = (  0.1250044  0.6250044  0.7500000  )
        46           Al  tau(  46) = (  0.1251416  0.5000000  0.8748584  )
        47           Al  tau(  47) = (  0.0000000  0.6249792  0.8750508  )
        48           Al  tau(  48) = (  0.0000000  0.7502879  0.0000000  )
        49           Al  tau(  49) = (  0.1228961  0.8771040  0.0000000  )
        50           Al  tau(  50) = (  0.1248970  0.7501077  0.1248970  )
        51           Al  tau(  51) = (  0.0000000  0.8771040  0.1228961  )
        52           Al  tau(  52) = (  0.0000000  0.7507920  0.2492080  )
        53           Al  tau(  53) = (  0.1248970  0.8751030  0.2498923  )
        54           Al  tau(  54) = (  0.1250044  0.7500000  0.3749957  )
        55           Al  tau(  55) = (  0.0000000  0.8750508  0.3750208  )
        56           Al  tau(  56) = (  0.0000000  0.7500001  0.5000000  )
        57           Al  tau(  57) = (  0.1251416  0.8748584  0.5000000  )
        58           Al  tau(  58) = (  0.1250044  0.7500000  0.6250044  )
        59           Al  tau(  59) = (  0.0000000  0.8750508  0.6249792  )
        60           Al  tau(  60) = (  0.0000000  0.7507920  0.7507920  )
        61           Al  tau(  61) = (  0.1248970  0.8751030  0.7501077  )
        62           Al  tau(  62) = (  0.1248970  0.7501077  0.8751030  )
        63           Al  tau(  63) = (  0.0000000  0.8771040  0.8771040  )
        64           Al  tau(  64) = (  0.2497121  0.0000000  0.0000000  )
        65           Al  tau(  65) = (  0.3750208  0.1249492  0.0000000  )
        66           Al  tau(  66) = (  0.3750208  0.0000000  0.1249492  )
        67           Al  tau(  67) = (  0.2498923  0.1248970  0.1248970  )
        68           Al  tau(  68) = (  0.2492080  0.0000000  0.2492080  )
        69           Al  tau(  69) = (  0.3749957  0.1250044  0.2500000  )
        70           Al  tau(  70) = (  0.3748584  0.0000000  0.3748584  )
        71           Al  tau(  71) = (  0.2500000  0.1250044  0.3749957  )
        72           Al  tau(  72) = (  0.2500000  0.0000000  0.5000000  )
        73           Al  tau(  73) = (  0.3750510  0.1249795  0.5000000  )
        74           Al  tau(  74) = (  0.3748584  0.0000000  0.6251416  )
        75           Al  tau(  75) = (  0.2500000  0.1250044  0.6250044  )
        76           Al  tau(  76) = (  0.2492080  0.0000000  0.7507920  )
        77           Al  tau(  77) = (  0.3749957  0.1250044  0.7500000  )
        78           Al  tau(  78) = (  0.3750208  0.0000000  0.8750508  )
        79           Al  tau(  79) = (  0.2498923  0.1248970  0.8751030  )
        80           Al  tau(  80) = (  0.2492080  0.2492080  0.0000000  )
        81           Al  tau(  81) = (  0.3748584  0.3748584  0.0000000  )
        82           Al  tau(  82) = (  0.3749957  0.2500000  0.1250044  )
        83           Al  tau(  83) = (  0.2500000  0.3749957  0.1250044  )
        84           Al  tau(  84) = (  0.2500000  0.2500000  0.2500000  )
        85           Al  tau(  85) = (  0.3751033  0.3751033  0.2501078  )
        86           Al  tau(  86) = (  0.3751033  0.2501078  0.3751033  )
        87           Al  tau(  87) = (  0.2501078  0.3751033  0.3751033  )
        88           Al  tau(  88) = (  0.2507920  0.2507920  0.5000000  )
        89           Al  tau(  89) = (  0.3771041  0.3771041  0.5000000  )
        90           Al  tau(  90) = (  0.3751033  0.2501078  0.6248968  )
        91           Al  tau(  91) = (  0.2501078  0.3751033  0.6248968  )
        92           Al  tau(  92) = (  0.2500000  0.2500000  0.7500000  )
        93           Al  tau(  93) = (  0.3751033  0.3751033  0.7498923  )
        94           Al  tau(  94) = (  0.3749957  0.2500000  0.8749956  )
        95           Al  tau(  95) = (  0.2500000  0.3749957  0.8749956  )
        96           Al  tau(  96) = (  0.2500000  0.5000000  0.0000000  )
        97           Al  tau(  97) = (  0.3748584  0.6251416  0.0000000  )
        98           Al  tau(  98) = (  0.3750510  0.5000000  0.1249795  )
        99           Al  tau(  99) = (  0.2500000  0.6250044  0.1250044  )
       100           Al  tau( 100) = (  0.2507920  0.5000000  0.2507920  )
       101           Al  tau( 101) = (  0.3751033  0.6248968  0.2501078  )
       102           Al  tau( 102) = (  0.3771041  0.5000000  0.3771041  )
       103           Al  tau( 103) = (  0.2501078  0.6248968  0.3751033  )
       104           Al  tau( 104) = (  0.2502881  0.5000000  0.5000000  )
       105           Al  tau( 105) = (  0.3771041  0.6228959  0.5000000  )
       106           Al  tau( 106) = (  0.3771041  0.5000000  0.6228959  )
       107           Al  tau( 107) = (  0.2501078  0.6248968  0.6248968  )
       108           Al  tau( 108) = (  0.2507920  0.5000000  0.7492081  )
       109           Al  tau( 109) = (  0.3751033  0.6248968  0.7498923  )
       110           Al  tau( 110) = (  0.3750510  0.5000000  0.8750205  )
       111           Al  tau( 111) = (  0.2500000  0.6250044  0.8749956  )
       112           Al  tau( 112) = (  0.2492080  0.7507920  0.0000000  )
       113           Al  tau( 113) = (  0.3750208  0.8750508  0.0000000  )
       114           Al  tau( 114) = (  0.3749957  0.7500000  0.1250044  )
       115           Al  tau( 115) = (  0.2498923  0.8751030  0.1248970  )
       116           Al  tau( 116) = (  0.2500000  0.7500000  0.2500000  )
       117           Al  tau( 117) = (  0.3749957  0.8749956  0.2500000  )
       118           Al  tau( 118) = (  0.3751033  0.7498923  0.3751033  )
       119           Al  tau( 119) = (  0.2500000  0.8749956  0.3749957  )
       120           Al  tau( 120) = (  0.2507920  0.7492081  0.5000000  )
       121           Al  tau( 121) = (  0.3750510  0.8750205  0.5000000  )
       122           Al  tau( 122) = (  0.3751033  0.7498923  0.6248968  )
       123           Al  tau( 123) = (  0.2500000  0.8749956  0.6250044  )
       124           Al  tau( 124) = (  0.2500000  0.7500000  0.7500000  )
       125           Al  tau( 125) = (  0.3749957  0.8749956  0.7500000  )
       126           Al  tau( 126) = (  0.3749957  0.7500000  0.8749956  )
       127           Al  tau( 127) = (  0.2498923  0.8751030  0.8751030  )
       128           Al  tau( 128) = (  0.5000000  0.0000000  0.0000000  )
       129           Al  tau( 129) = (  0.6249792  0.1249492  0.0000000  )
       130           Al  tau( 130) = (  0.6249792  0.0000000  0.1249492  )
       131           Al  tau( 131) = (  0.5000000  0.1251416  0.1251416  )
       132           Al  tau( 132) = (  0.5000000  0.0000000  0.2500000  )
       133           Al  tau( 133) = (  0.6250044  0.1250044  0.2500000  )
       134           Al  tau( 134) = (  0.6251416  0.0000000  0.3748584  )
       135           Al  tau( 135) = (  0.5000000  0.1249795  0.3750510  )
       136           Al  tau( 136) = (  0.5000000  0.0000000  0.5000000  )
       137           Al  tau( 137) = (  0.6249490  0.1249795  0.5000000  )
       138           Al  tau( 138) = (  0.6251416  0.0000000  0.6251416  )
       139           Al  tau( 139) = (  0.5000000  0.1249795  0.6249490  )
       140           Al  tau( 140) = (  0.5000000  0.0000000  0.7500001  )
       141           Al  tau( 141) = (  0.6250044  0.1250044  0.7500000  )
       142           Al  tau( 142) = (  0.6249792  0.0000000  0.8750508  )
       143           Al  tau( 143) = (  0.5000000  0.1251416  0.8748584  )
       144           Al  tau( 144) = (  0.5000000  0.2500000  0.0000000  )
       145           Al  tau( 145) = (  0.6251416  0.3748584  0.0000000  )
       146           Al  tau( 146) = (  0.6250044  0.2500000  0.1250044  )
       147           Al  tau( 147) = (  0.5000000  0.3750510  0.1249795  )
       148           Al  tau( 148) = (  0.5000000  0.2507920  0.2507920  )
       149           Al  tau( 149) = (  0.6248968  0.3751033  0.2501078  )
       150           Al  tau( 150) = (  0.6248968  0.2501078  0.3751033  )
       151           Al  tau( 151) = (  0.5000000  0.3771041  0.3771041  )
       152           Al  tau( 152) = (  0.5000000  0.2502881  0.5000000  )
       153           Al  tau( 153) = (  0.6228959  0.3771041  0.5000000  )
       154           Al  tau( 154) = (  0.6248968  0.2501078  0.6248968  )
       155           Al  tau( 155) = (  0.5000000  0.3771041  0.6228959  )
       156           Al  tau( 156) = (  0.5000000  0.2507920  0.7492081  )
       157           Al  tau( 157) = (  0.6248968  0.3751033  0.7498923  )
       158           Al  tau( 158) = (  0.6250044  0.2500000  0.8749956  )
       159           Al  tau( 159) = (  0.5000000  0.3750510  0.8750205  )
       160           Al  tau( 160) = (  0.5000000  0.5000000  0.0000000  )
       161           Al  tau( 161) = (  0.6251416  0.6251416  0.0000000  )
       162           Al  tau( 162) = (  0.6249490  0.5000000  0.1249795  )
       163           Al  tau( 163) = (  0.5000000  0.6249490  0.1249795  )
       164           Al  tau( 164) = (  0.5000000  0.5000000  0.2502881  )
       165           Al  tau( 165) = (  0.6248968  0.6248968  0.2501078  )
       166           Al  tau( 166) = (  0.6228959  0.5000000  0.3771041  )
       167           Al  tau( 167) = (  0.5000000  0.6228959  0.3771041  )
       168           Al  tau( 168) = (  0.6228959  0.6228959  0.5000000  )
       169           Al  tau( 169) = (  0.6228959  0.5000000  0.6228959  )
       170           Al  tau( 170) = (  0.5000000  0.6228959  0.6228959  )
       171           Al  tau( 171) = (  0.5000000  0.5000000  0.7497120  )
       172           Al  tau( 172) = (  0.6248968  0.6248968  0.7498923  )
       173           Al  tau( 173) = (  0.6249490  0.5000000  0.8750205  )
       174           Al  tau( 174) = (  0.5000000  0.6249490  0.8750205  )
       175           Al  tau( 175) = (  0.5000000  0.7500001  0.0000000  )
       176           Al  tau( 176) = (  0.6249792  0.8750508  0.0000000  )
       177           Al  tau( 177) = (  0.6250044  0.7500000  0.1250044  )
       178           Al  tau( 178) = (  0.5000000  0.8748584  0.1251416  )
       179           Al  tau( 179) = (  0.5000000  0.7492081  0.2507920  )
       180           Al  tau( 180) = (  0.6250044  0.8749956  0.2500000  )
       181           Al  tau( 181) = (  0.6248968  0.7498923  0.3751033  )
       182           Al  tau( 182) = (  0.5000000  0.8750205  0.3750510  )
       183           Al  tau( 183) = (  0.5000000  0.7497120  0.5000000  )
       184           Al  tau( 184) = (  0.6249490  0.8750205  0.5000000  )
       185           Al  tau( 185) = (  0.6248968  0.7498923  0.6248968  )
       186           Al  tau( 186) = (  0.5000000  0.8750205  0.6249490  )
       187           Al  tau( 187) = (  0.5000000  0.7492081  0.7492081  )
       188           Al  tau( 188) = (  0.6250044  0.8749956  0.7500000  )
       189           Al  tau( 189) = (  0.6250044  0.7500000  0.8749956  )
       190           Al  tau( 190) = (  0.5000000  0.8748584  0.8748584  )
       191           Al  tau( 191) = (  0.7502879  0.0000000  0.0000000  )
       192           Al  tau( 192) = (  0.8771040  0.1228961  0.0000000  )
       193           Al  tau( 193) = (  0.8771040  0.0000000  0.1228961  )
       194           Al  tau( 194) = (  0.7501077  0.1248970  0.1248970  )
       195           Al  tau( 195) = (  0.7507920  0.0000000  0.2492080  )
       196           Al  tau( 196) = (  0.8751030  0.1248970  0.2498923  )
       197           Al  tau( 197) = (  0.8750508  0.0000000  0.3750208  )
       198           Al  tau( 198) = (  0.7500000  0.1250044  0.3749957  )
       199           Al  tau( 199) = (  0.7500001  0.0000000  0.5000000  )
       200           Al  tau( 200) = (  0.8748584  0.1251416  0.5000000  )
       201           Al  tau( 201) = (  0.8750508  0.0000000  0.6249792  )
       202           Al  tau( 202) = (  0.7500000  0.1250044  0.6250044  )
       203           Al  tau( 203) = (  0.7507920  0.0000000  0.7507920  )
       204           Al  tau( 204) = (  0.8751030  0.1248970  0.7501077  )
       205           Al  tau( 205) = (  0.8771040  0.0000000  0.8771040  )
       206           Al  tau( 206) = (  0.7501077  0.1248970  0.8751030  )
       207           Al  tau( 207) = (  0.7507920  0.2492080  0.0000000  )
       208           Al  tau( 208) = (  0.8750508  0.3750208  0.0000000  )
       209           Al  tau( 209) = (  0.8751030  0.2498923  0.1248970  )
       210           Al  tau( 210) = (  0.7500000  0.3749957  0.1250044  )
       211           Al  tau( 211) = (  0.7500000  0.2500000  0.2500000  )
       212           Al  tau( 212) = (  0.8749956  0.3749957  0.2500000  )
       213           Al  tau( 213) = (  0.8749956  0.2500000  0.3749957  )
       214           Al  tau( 214) = (  0.7498923  0.3751033  0.3751033  )
       215           Al  tau( 215) = (  0.7492081  0.2507920  0.5000000  )
       216           Al  tau( 216) = (  0.8750205  0.3750510  0.5000000  )
       217           Al  tau( 217) = (  0.8749956  0.2500000  0.6250044  )
       218           Al  tau( 218) = (  0.7498923  0.3751033  0.6248968  )
       219           Al  tau( 219) = (  0.7500000  0.2500000  0.7500000  )
       220           Al  tau( 220) = (  0.8749956  0.3749957  0.7500000  )
       221           Al  tau( 221) = (  0.8751030  0.2498923  0.8751030  )
       222           Al  tau( 222) = (  0.7500000  0.3749957  0.8749956  )
       223           Al  tau( 223) = (  0.7500001  0.5000000  0.0000000  )
       224           Al  tau( 224) = (  0.8750508  0.6249792  0.0000000  )
       225           Al  tau( 225) = (  0.8748584  0.5000000  0.1251416  )
       226           Al  tau( 226) = (  0.7500000  0.6250044  0.1250044  )
       227           Al  tau( 227) = (  0.7492081  0.5000000  0.2507920  )
       228           Al  tau( 228) = (  0.8749956  0.6250044  0.2500000  )
       229           Al  tau( 229) = (  0.8750205  0.5000000  0.3750510  )
       230           Al  tau( 230) = (  0.7498923  0.6248968  0.3751033  )
       231           Al  tau( 231) = (  0.7497120  0.5000000  0.5000000  )
       232           Al  tau( 232) = (  0.8750205  0.6249490  0.5000000  )
       233           Al  tau( 233) = (  0.8750205  0.5000000  0.6249490  )
       234           Al  tau( 234) = (  0.7498923  0.6248968  0.6248968  )
       235           Al  tau( 235) = (  0.7492081  0.5000000  0.7492081  )
       236           Al  tau( 236) = (  0.8749956  0.6250044  0.7500000  )
       237           Al  tau( 237) = (  0.8748584  0.5000000  0.8748584  )
       238           Al  tau( 238) = (  0.7500000  0.6250044  0.8749956  )
       239           Al  tau( 239) = (  0.7507920  0.7507920  0.0000000  )
       240           Al  tau( 240) = (  0.8771040  0.8771040  0.0000000  )
       241           Al  tau( 241) = (  0.8751030  0.7501077  0.1248970  )
       242           Al  tau( 242) = (  0.7501077  0.8751030  0.1248970  )
       243           Al  tau( 243) = (  0.7500000  0.7500000  0.2500000  )
       244           Al  tau( 244) = (  0.8751030  0.8751030  0.2498923  )
       245           Al  tau( 245) = (  0.8749956  0.7500000  0.3749957  )
       246           Al  tau( 246) = (  0.7500000  0.8749956  0.3749957  )
       247           Al  tau( 247) = (  0.7492081  0.7492081  0.5000000  )
       248           Al  tau( 248) = (  0.8748584  0.8748584  0.5000000  )
       249           Al  tau( 249) = (  0.8749956  0.7500000  0.6250044  )
       250           Al  tau( 250) = (  0.7500000  0.8749956  0.6250044  )
       251           Al  tau( 251) = (  0.7500000  0.7500000  0.7500000  )
       252           Al  tau( 252) = (  0.8751030  0.8751030  0.7501077  )
       253           Al  tau( 253) = (  0.8751030  0.7501077  0.8751030  )
       254           Al  tau( 254) = (  0.7501077  0.8751030  0.8751030  )

     number of k points=    63  Methfessel-Paxton smearing, width (Ry)=  0.0441
                       cart. coord. in units 2pi/alat
        k(    1) = (   0.0000000   0.0000000   0.0000000), wk =   0.0160000
        k(    2) = (   0.0000000   0.0000000   0.2000000), wk =   0.0320000
        k(    3) = (   0.0000000   0.0000000   0.4000000), wk =   0.0320000
        k(    4) = (   0.0000000   0.2000000   0.0000000), wk =   0.0320000
        k(    5) = (   0.0000000   0.2000000   0.2000000), wk =   0.0320000
        k(    6) = (   0.0000000   0.2000000   0.4000000), wk =   0.0320000
        k(    7) = (   0.0000000   0.2000000  -0.4000000), wk =   0.0320000
        k(    8) = (   0.0000000   0.2000000  -0.2000000), wk =   0.0320000
        k(    9) = (   0.0000000   0.4000000   0.0000000), wk =   0.0320000
        k(   10) = (   0.0000000   0.4000000   0.2000000), wk =   0.0320000
        k(   11) = (   0.0000000   0.4000000   0.4000000), wk =   0.0320000
        k(   12) = (   0.0000000   0.4000000  -0.4000000), wk =   0.0320000
        k(   13) = (   0.0000000   0.4000000  -0.2000000), wk =   0.0320000
        k(   14) = (   0.2000000   0.0000000   0.0000000), wk =   0.0320000
        k(   15) = (   0.2000000   0.0000000   0.2000000), wk =   0.0320000
        k(   16) = (   0.2000000   0.0000000   0.4000000), wk =   0.0320000
        k(   17) = (   0.2000000   0.0000000  -0.4000000), wk =   0.0320000
        k(   18) = (   0.2000000   0.0000000  -0.2000000), wk =   0.0320000
        k(   19) = (   0.2000000   0.2000000   0.0000000), wk =   0.0320000
        k(   20) = (   0.2000000   0.2000000   0.2000000), wk =   0.0320000
        k(   21) = (   0.2000000   0.2000000   0.4000000), wk =   0.0320000
        k(   22) = (   0.2000000   0.2000000  -0.4000000), wk =   0.0320000
        k(   23) = (   0.2000000   0.2000000  -0.2000000), wk =   0.0320000
        k(   24) = (   0.2000000   0.4000000   0.0000000), wk =   0.0320000
        k(   25) = (   0.2000000   0.4000000   0.2000000), wk =   0.0320000
        k(   26) = (   0.2000000   0.4000000   0.4000000), wk =   0.0320000
        k(   27) = (   0.2000000   0.4000000  -0.4000000), wk =   0.0320000
        k(   28) = (   0.2000000   0.4000000  -0.2000000), wk =   0.0320000
        k(   29) = (   0.2000000  -0.4000000   0.0000000), wk =   0.0320000
        k(   30) = (   0.2000000  -0.4000000   0.2000000), wk =   0.0320000
        k(   31) = (   0.2000000  -0.4000000   0.4000000), wk =   0.0320000
        k(   32) = (   0.2000000  -0.4000000  -0.4000000), wk =   0.0320000
        k(   33) = (   0.2000000  -0.4000000  -0.2000000), wk =   0.0320000
        k(   34) = (   0.2000000  -0.2000000   0.0000000), wk =   0.0320000
        k(   35) = (   0.2000000  -0.2000000   0.2000000), wk =   0.0320000
        k(   36) = (   0.2000000  -0.2000000   0.4000000), wk =   0.0320000
        k(   37) = (   0.2000000  -0.2000000  -0.4000000), wk =   0.0320000
        k(   38) = (   0.2000000  -0.2000000  -0.2000000), wk =   0.0320000
        k(   39) = (   0.4000000   0.0000000   0.0000000), wk =   0.0320000
        k(   40) = (   0.4000000   0.0000000   0.2000000), wk =   0.0320000
        k(   41) = (   0.4000000   0.0000000   0.4000000), wk =   0.0320000
        k(   42) = (   0.4000000   0.0000000  -0.4000000), wk =   0.0320000
        k(   43) = (   0.4000000   0.0000000  -0.2000000), wk =   0.0320000
        k(   44) = (   0.4000000   0.2000000   0.0000000), wk =   0.0320000
        k(   45) = (   0.4000000   0.2000000   0.2000000), wk =   0.0320000
        k(   46) = (   0.4000000   0.2000000   0.4000000), wk =   0.0320000
        k(   47) = (   0.4000000   0.2000000  -0.4000000), wk =   0.0320000
        k(   48) = (   0.4000000   0.2000000  -0.2000000), wk =   0.0320000
        k(   49) = (   0.4000000   0.4000000   0.0000000), wk =   0.0320000
        k(   50) = (   0.4000000   0.4000000   0.2000000), wk =   0.0320000
        k(   51) = (   0.4000000   0.4000000   0.4000000), wk =   0.0320000
        k(   52) = (   0.4000000   0.4000000  -0.4000000), wk =   0.0320000
        k(   53) = (   0.4000000   0.4000000  -0.2000000), wk =   0.0320000
        k(   54) = (   0.4000000  -0.4000000   0.0000000), wk =   0.0320000
        k(   55) = (   0.4000000  -0.4000000   0.2000000), wk =   0.0320000
        k(   56) = (   0.4000000  -0.4000000   0.4000000), wk =   0.0320000
        k(   57) = (   0.4000000  -0.4000000  -0.4000000), wk =   0.0320000
        k(   58) = (   0.4000000  -0.4000000  -0.2000000), wk =   0.0320000
        k(   59) = (   0.4000000  -0.2000000   0.0000000), wk =   0.0320000
        k(   60) = (   0.4000000  -0.2000000   0.2000000), wk =   0.0320000
        k(   61) = (   0.4000000  -0.2000000   0.4000000), wk =   0.0320000
        k(   62) = (   0.4000000  -0.2000000  -0.4000000), wk =   0.0320000
        k(   63) = (   0.4000000  -0.2000000  -0.2000000), wk =   0.0320000

                       cryst. coord.
        k(    1) = (   0.0000000   0.0000000   0.0000000), wk =   0.0160000
        k(    2) = (   0.0000000   0.0000000   0.2000000), wk =   0.0320000
        k(    3) = (   0.0000000   0.0000000   0.4000000), wk =   0.0320000
        k(    4) = (   0.0000000   0.2000000   0.0000000), wk =   0.0320000
        k(    5) = (   0.0000000   0.2000000   0.2000000), wk =   0.0320000
        k(    6) = (   0.0000000   0.2000000   0.4000000), wk =   0.0320000
        k(    7) = (   0.0000000   0.2000000  -0.4000000), wk =   0.0320000
        k(    8) = (   0.0000000   0.2000000  -0.2000000), wk =   0.0320000
        k(    9) = (   0.0000000   0.4000000   0.0000000), wk =   0.0320000
        k(   10) = (   0.0000000   0.4000000   0.2000000), wk =   0.0320000
        k(   11) = (   0.0000000   0.4000000   0.4000000), wk =   0.0320000
        k(   12) = (   0.0000000   0.4000000  -0.4000000), wk =   0.0320000
        k(   13) = (   0.0000000   0.4000000  -0.2000000), wk =   0.0320000
        k(   14) = (   0.2000000   0.0000000   0.0000000), wk =   0.0320000
        k(   15) = (   0.2000000   0.0000000   0.2000000), wk =   0.0320000
        k(   16) = (   0.2000000   0.0000000   0.4000000), wk =   0.0320000
        k(   17) = (   0.2000000   0.0000000  -0.4000000), wk =   0.0320000
        k(   18) = (   0.2000000   0.0000000  -0.2000000), wk =   0.0320000
        k(   19) = (   0.2000000   0.2000000   0.0000000), wk =   0.0320000
        k(   20) = (   0.2000000   0.2000000   0.2000000), wk =   0.0320000
        k(   21) = (   0.2000000   0.2000000   0.4000000), wk =   0.0320000
        k(   22) = (   0.2000000   0.2000000  -0.4000000), wk =   0.0320000
        k(   23) = (   0.2000000   0.2000000  -0.2000000), wk =   0.0320000
        k(   24) = (   0.2000000   0.4000000   0.0000000), wk =   0.0320000
        k(   25) = (   0.2000000   0.4000000   0.2000000), wk =   0.0320000
        k(   26) = (   0.2000000   0.4000000   0.4000000), wk =   0.0320000
        k(   27) = (   0.2000000   0.4000000  -0.4000000), wk =   0.0320000
        k(   28) = (   0.2000000   0.4000000  -0.2000000), wk =   0.0320000
        k(   29) = (   0.2000000  -0.4000000   0.0000000), wk =   0.0320000
        k(   30) = (   0.2000000  -0.4000000   0.2000000), wk =   0.0320000
        k(   31) = (   0.2000000  -0.4000000   0.4000000), wk =   0.0320000
        k(   32) = (   0.2000000  -0.4000000  -0.4000000), wk =   0.0320000
        k(   33) = (   0.2000000  -0.4000000  -0.2000000), wk =   0.0320000
        k(   34) = (   0.2000000  -0.2000000   0.0000000), wk =   0.0320000
        k(   35) = (   0.2000000  -0.2000000   0.2000000), wk =   0.0320000
        k(   36) = (   0.2000000  -0.2000000   0.4000000), wk =   0.0320000
        k(   37) = (   0.2000000  -0.2000000  -0.4000000), wk =   0.0320000
        k(   38) = (   0.2000000  -0.2000000  -0.2000000), wk =   0.0320000
        k(   39) = (   0.4000000   0.0000000   0.0000000), wk =   0.0320000
        k(   40) = (   0.4000000   0.0000000   0.2000000), wk =   0.0320000
        k(   41) = (   0.4000000   0.0000000   0.4000000), wk =   0.0320000
        k(   42) = (   0.4000000   0.0000000  -0.4000000), wk =   0.0320000
        k(   43) = (   0.4000000   0.0000000  -0.2000000), wk =   0.0320000
        k(   44) = (   0.4000000   0.2000000   0.0000000), wk =   0.0320000
        k(   45) = (   0.4000000   0.2000000   0.2000000), wk =   0.0320000
        k(   46) = (   0.4000000   0.2000000   0.4000000), wk =   0.0320000
        k(   47) = (   0.4000000   0.2000000  -0.4000000), wk =   0.0320000
        k(   48) = (   0.4000000   0.2000000  -0.2000000), wk =   0.0320000
        k(   49) = (   0.4000000   0.4000000   0.0000000), wk =   0.0320000
        k(   50) = (   0.4000000   0.4000000   0.2000000), wk =   0.0320000
        k(   51) = (   0.4000000   0.4000000   0.4000000), wk =   0.0320000
        k(   52) = (   0.4000000   0.4000000  -0.4000000), wk =   0.0320000
        k(   53) = (   0.4000000   0.4000000  -0.2000000), wk =   0.0320000
        k(   54) = (   0.4000000  -0.4000000   0.0000000), wk =   0.0320000
        k(   55) = (   0.4000000  -0.4000000   0.2000000), wk =   0.0320000
        k(   56) = (   0.4000000  -0.4000000   0.4000000), wk =   0.0320000
        k(   57) = (   0.4000000  -0.4000000  -0.4000000), wk =   0.0320000
        k(   58) = (   0.4000000  -0.4000000  -0.2000000), wk =   0.0320000
        k(   59) = (   0.4000000  -0.2000000   0.0000000), wk =   0.0320000
        k(   60) = (   0.4000000  -0.2000000   0.2000000), wk =   0.0320000
        k(   61) = (   0.4000000  -0.2000000   0.4000000), wk =   0.0320000
        k(   62) = (   0.4000000  -0.2000000  -0.4000000), wk =   0.0320000
        k(   63) = (   0.4000000  -0.2000000  -0.2000000), wk =   0.0320000

     Dense  grid:  3895379 G-vectors     FFT dimensions: ( 200, 200, 200)

     Smooth grid:   985619 G-vectors     FFT dimensions: ( 125, 125, 125)

     Dynamical RAM for                 wfc:     107.39 MB

     Dynamical RAM for     wfc (w. buffer):     322.16 MB

     Dynamical RAM for           str. fact:       7.43 MB

     Dynamical RAM for           local pot:       0.00 MB

     Dynamical RAM for          nlocal pot:    1074.35 MB

     Dynamical RAM for                qrad:       7.82 MB

     Dynamical RAM for          rho,v,vnew:      45.18 MB

     Dynamical RAM for               rhoin:      15.06 MB

     Dynamical RAM for            rho*nmix:     118.88 MB

     Dynamical RAM for           G-vectors:      28.80 MB

     Dynamical RAM for          h,s,v(r/c):      38.24 MB

     Dynamical RAM for          <psi|beta>:      31.88 MB

     Dynamical RAM for                 psi:     429.55 MB

     Dynamical RAM for                hpsi:     429.55 MB

     Dynamical RAM for                spsi:     429.55 MB

     Dynamical RAM for      wfcinit/wfcrot:     501.12 MB

     Dynamical RAM for           addusdens:      98.03 MB

     Dynamical RAM for          addusforce:     199.94 MB

     Dynamical RAM for         addusstress:      45.09 MB

     Estimated static dynamical RAM per process >       1.63 GB

     Estimated max dynamical RAM per process >       2.96 GB

     Estimated total dynamical RAM >     852.60 GB

     Initial potential from superposition of free atoms

     starting charge  761.41829, renormalised to  762.00000
     Starting wfcs are 1016 randomized atomic wfcs
     Checking if some PAW data can be deallocated... 

     total cpu time spent up to now is      200.7 secs

     Self-consistent Calculation

     iteration #  1     ecut=    40.00 Ry     beta= 0.40
     Davidson diagonalization with overlap
     ethr =  1.00E-02,  avg # of iterations =  3.0

     Threshold (ethr) on eigenvalues was too large:
     Diagonalizing with lowered threshold

     Davidson diagonalization with overlap
     ethr =  1.93E-04,  avg # of iterations =  8.7

     total cpu time spent up to now is     1002.9 secs

     total energy              =  -10033.78430751 Ry
     Harris-Foulkes estimate   =  -10033.95707707 Ry
     estimated scf accuracy    <       1.52280370 Ry

     iteration #  2     ecut=    40.00 Ry     beta= 0.40
     Davidson diagonalization with overlap
     ethr =  2.00E-04,  avg # of iterations =  1.1

     total cpu time spent up to now is     1225.8 secs

     total energy              =  -10033.56587529 Ry
     Harris-Foulkes estimate   =  -10033.79183208 Ry
     estimated scf accuracy    <       0.79817485 Ry

     iteration #  3     ecut=    40.00 Ry     beta= 0.40
     Davidson diagonalization with overlap
     ethr =  1.05E-04,  avg # of iterations =  1.1

     total cpu time spent up to now is     1454.7 secs

     total energy              =  -10033.58830084 Ry
     Harris-Foulkes estimate   =  -10033.59024146 Ry
     estimated scf accuracy    <       0.00415139 Ry

     iteration #  4     ecut=    40.00 Ry     beta= 0.40
     Davidson diagonalization with overlap
     ethr =  5.45E-07,  avg # of iterations = 19.7

     total cpu time spent up to now is     2126.8 secs

     total energy              =  -10033.59287140 Ry
     Harris-Foulkes estimate   =  -10033.59278065 Ry
     estimated scf accuracy    <       0.00863414 Ry

     iteration #  5     ecut=    40.00 Ry     beta= 0.40
     Davidson diagonalization with overlap
     c_bands:  1 eigenvalues not converged
     ethr =  5.45E-07,  avg # of iterations =  4.6

     total cpu time spent up to now is     2391.4 secs

     total energy              =  -10033.58837885 Ry
     Harris-Foulkes estimate   =  -10033.59287837 Ry
     estimated scf accuracy    <       0.00980748 Ry

     iteration #  6     ecut=    40.00 Ry     beta= 0.40
     Davidson diagonalization with overlap
     c_bands:  2 eigenvalues not converged
     ethr =  5.45E-07,  avg # of iterations =  7.2

     total cpu time spent up to now is     2869.9 secs

     total energy              =  -10033.59091101 Ry
     Harris-Foulkes estimate   =  -10033.59423576 Ry
     estimated scf accuracy    <       0.03458694 Ry

     iteration #  7     ecut=    40.00 Ry     beta= 0.40
     Davidson diagonalization with overlap
     ethr =  5.45E-07,  avg # of iterations =  2.6

     total cpu time spent up to now is     3135.5 secs

     total energy              =  -10033.59169920 Ry
     Harris-Foulkes estimate   =  -10033.59176384 Ry
     estimated scf accuracy    <       0.00673083 Ry

     iteration #  8     ecut=    40.00 Ry     beta= 0.40
     Davidson diagonalization with overlap
     ethr =  5.45E-07,  avg # of iterations =  1.0

     total cpu time spent up to now is     3359.1 secs

     total energy              =  -10033.59125381 Ry
     Harris-Foulkes estimate   =  -10033.59171545 Ry
     estimated scf accuracy    <       0.00615280 Ry

     iteration #  9     ecut=    40.00 Ry     beta= 0.40
     Davidson diagonalization with overlap
     ethr =  5.45E-07,  avg # of iterations =  1.0

     total cpu time spent up to now is     3585.0 secs

     total energy              =  -10033.59103949 Ry
     Harris-Foulkes estimate   =  -10033.59135610 Ry
     estimated scf accuracy    <       0.00212102 Ry

     iteration # 10     ecut=    40.00 Ry     beta= 0.40
     Davidson diagonalization with overlap
     ethr =  2.78E-07,  avg # of iterations =  3.5

     total cpu time spent up to now is     3839.3 secs

     total energy              =  -10033.59125284 Ry
     Harris-Foulkes estimate   =  -10033.59125443 Ry
     estimated scf accuracy    <       0.00000497 Ry

     iteration # 11     ecut=    40.00 Ry     beta= 0.40
     Davidson diagonalization with overlap
     ethr =  6.52E-10,  avg # of iterations =  5.8

     total cpu time spent up to now is     4321.4 secs

     total energy              =  -10033.59128916 Ry
     Harris-Foulkes estimate   =  -10033.59128791 Ry
     estimated scf accuracy    <       0.00005724 Ry

     iteration # 12     ecut=    40.00 Ry     beta= 0.40
     Davidson diagonalization with overlap
     ethr =  6.52E-10,  avg # of iterations =  1.0

     total cpu time spent up to now is     4545.5 secs

     total energy              =  -10033.59128328 Ry
     Harris-Foulkes estimate   =  -10033.59128917 Ry
     estimated scf accuracy    <       0.00007252 Ry

     iteration # 13     ecut=    40.00 Ry     beta= 0.40
     Davidson diagonalization with overlap
     ethr =  6.52E-10,  avg # of iterations =  3.0

     total cpu time spent up to now is     4828.0 secs

     total energy              =  -10033.59128086 Ry
     Harris-Foulkes estimate   =  -10033.59128449 Ry
     estimated scf accuracy    <       0.00004205 Ry

     iteration # 14     ecut=    40.00 Ry     beta= 0.40
     Davidson diagonalization with overlap
     ethr =  6.52E-10,  avg # of iterations =  2.9

     total cpu time spent up to now is     5091.0 secs

     total energy              =  -10033.59128165 Ry
     Harris-Foulkes estimate   =  -10033.59128177 Ry
     estimated scf accuracy    <       0.00000913 Ry

     iteration # 15     ecut=    40.00 Ry     beta= 0.40
     Davidson diagonalization with overlap
     ethr =  6.52E-10,  avg # of iterations =  1.0

     total cpu time spent up to now is     5313.5 secs

     total energy              =  -10033.59128025 Ry
     Harris-Foulkes estimate   =  -10033.59128166 Ry
     estimated scf accuracy    <       0.00000807 Ry

     iteration # 16     ecut=    40.00 Ry     beta= 0.40
     Davidson diagonalization with overlap
     ethr =  6.52E-10,  avg # of iterations =  3.1

     total cpu time spent up to now is     5577.5 secs

     total energy              =  -10033.59128104 Ry
     Harris-Foulkes estimate   =  -10033.59128109 Ry
     estimated scf accuracy    <       0.00000042 Ry

     iteration # 17     ecut=    40.00 Ry     beta= 0.40
     Davidson diagonalization with overlap
     ethr =  5.51E-11,  avg # of iterations =  2.2

     total cpu time spent up to now is     5815.2 secs

     total energy              =  -10033.59128105 Ry
     Harris-Foulkes estimate   =  -10033.59128105 Ry
     estimated scf accuracy    <       0.00000017 Ry

     iteration # 18     ecut=    40.00 Ry     beta= 0.40
     Davidson diagonalization with overlap
     ethr =  2.22E-11,  avg # of iterations =  1.0

     total cpu time spent up to now is     6040.0 secs

     total energy              =  -10033.59128105 Ry
     Harris-Foulkes estimate   =  -10033.59128105 Ry
     estimated scf accuracy    <       0.00000021 Ry

     iteration # 19     ecut=    40.00 Ry     beta= 0.40
     Davidson diagonalization with overlap
     ethr =  2.22E-11,  avg # of iterations =  1.0

     total cpu time spent up to now is     6263.5 secs

     total energy              =  -10033.59128103 Ry
     Harris-Foulkes estimate   =  -10033.59128105 Ry
     estimated scf accuracy    <       0.00000010 Ry

     iteration # 20     ecut=    40.00 Ry     beta= 0.40
     Davidson diagonalization with overlap
     ethr =  1.28E-11,  avg # of iterations =  2.8

     total cpu time spent up to now is     6497.4 secs

     total energy              =  -10033.59128103 Ry
     Harris-Foulkes estimate   =  -10033.59128103 Ry
     estimated scf accuracy    <       0.00000002 Ry

     iteration # 21     ecut=    40.00 Ry     beta= 0.40
     Davidson diagonalization with overlap
     ethr =  2.74E-12,  avg # of iterations =  3.8

     total cpu time spent up to now is     6747.9 secs

     total energy              =  -10033.59128104 Ry
     Harris-Foulkes estimate   =  -10033.59128103 Ry
     estimated scf accuracy    <       0.00000002 Ry

     iteration # 22     ecut=    40.00 Ry     beta= 0.40
     Davidson diagonalization with overlap
     ethr =  2.18E-12,  avg # of iterations =  3.7

     total cpu time spent up to now is     7047.2 secs

     total energy              =  -10033.59128099 Ry
     Harris-Foulkes estimate   =  -10033.59128103 Ry
     estimated scf accuracy    <       0.00000019 Ry

     iteration # 23     ecut=    40.00 Ry     beta= 0.40
     Davidson diagonalization with overlap
     ethr =  2.18E-12,  avg # of iterations =  4.0

     total cpu time spent up to now is     7365.1 secs

     total energy              =  -10033.59128100 Ry
     Harris-Foulkes estimate   =  -10033.59128100 Ry
     estimated scf accuracy    <       0.00000002 Ry

     iteration # 24     ecut=    40.00 Ry     beta= 0.40
     Davidson diagonalization with overlap
     ethr =  2.18E-12,  avg # of iterations =  1.3

     total cpu time spent up to now is     7592.0 secs

     total energy              =  -10033.59128099 Ry
     Harris-Foulkes estimate   =  -10033.59128099 Ry
     estimated scf accuracy    <       0.00000001 Ry

     iteration # 25     ecut=    40.00 Ry     beta= 0.40
     Davidson diagonalization with overlap
     ethr =  1.93E-12,  avg # of iterations =  1.0

     total cpu time spent up to now is     7815.8 secs

     total energy              =  -10033.59128099 Ry
     Harris-Foulkes estimate   =  -10033.59128099 Ry
     estimated scf accuracy    <       0.00000002 Ry

     iteration # 26     ecut=    40.00 Ry     beta= 0.40
     Davidson diagonalization with overlap
     ethr =  1.93E-12,  avg # of iterations =  1.0

     total cpu time spent up to now is     8039.8 secs

     total energy              =  -10033.59128099 Ry
     Harris-Foulkes estimate   =  -10033.59128099 Ry
     estimated scf accuracy    <       0.00000002 Ry

     iteration # 27     ecut=    40.00 Ry     beta= 0.40
     Davidson diagonalization with overlap
     ethr =  1.93E-12,  avg # of iterations =  1.0

     total cpu time spent up to now is     8263.2 secs

     total energy              =  -10033.59128099 Ry
     Harris-Foulkes estimate   =  -10033.59128099 Ry
     estimated scf accuracy    <          9.4E-09 Ry

     iteration # 28     ecut=    40.00 Ry     beta= 0.40
     Davidson diagonalization with overlap
     ethr =  1.24E-12,  avg # of iterations =  1.0

     total cpu time spent up to now is     8487.1 secs

     total energy              =  -10033.59128098 Ry
     Harris-Foulkes estimate   =  -10033.59128099 Ry
     estimated scf accuracy    <          4.9E-09 Ry

     iteration # 29     ecut=    40.00 Ry     beta= 0.40
     Davidson diagonalization with overlap
     ethr =  6.49E-13,  avg # of iterations =  1.9

     total cpu time spent up to now is     8719.7 secs

     total energy              =  -10033.59128098 Ry
     Harris-Foulkes estimate   =  -10033.59128098 Ry
     estimated scf accuracy    <          1.3E-09 Ry

     iteration # 30     ecut=    40.00 Ry     beta= 0.40
     Davidson diagonalization with overlap
     ethr =  1.76E-13,  avg # of iterations =  4.1

     total cpu time spent up to now is     9023.1 secs

     total energy              =  -10033.59128098 Ry
     Harris-Foulkes estimate   =  -10033.59128098 Ry
     estimated scf accuracy    <          5.4E-10 Ry

     iteration # 31     ecut=    40.00 Ry     beta= 0.40
     Davidson diagonalization with overlap
     ethr =  1.00E-13,  avg # of iterations =  1.3

     total cpu time spent up to now is     9252.0 secs

     total energy              =  -10033.59128098 Ry
     Harris-Foulkes estimate   =  -10033.59128098 Ry
     estimated scf accuracy    <          2.8E-11 Ry

     iteration # 32     ecut=    40.00 Ry     beta= 0.40
     Davidson diagonalization with overlap
     ethr =  1.00E-13,  avg # of iterations =  1.0

     total cpu time spent up to now is     9476.0 secs

     total energy              =  -10033.59128098 Ry
     Harris-Foulkes estimate   =  -10033.59128098 Ry
     estimated scf accuracy    <          1.5E-12 Ry

     iteration # 33     ecut=    40.00 Ry     beta= 0.40
     Davidson diagonalization with overlap
     ethr =  1.00E-13,  avg # of iterations =  1.0

     total cpu time spent up to now is     9699.5 secs

     End of self-consistent calculation

          k = 0.0000 0.0000 0.0000 (123065 PWs)   bands (ev):

    -3.3264  -2.7925  -2.7925  -2.7819  -2.7819  -2.7819  -2.6516  -2.2361
    -2.2361  -2.2305  -2.2305  -2.2305  -2.2275  -2.2275  -2.2275  -2.2054
    -2.2054  -2.2054  -1.9719  -1.6759  -1.6652  -1.6652  -1.6652  -1.6574
    -1.6574  -1.6574  -1.5275  -1.1118  -1.1118  -1.1010  -1.1010  -1.1010
    -1.0069  -0.5729  -0.5705  -0.5705  -0.5705  -0.5695  -0.5695  -0.5695
    -0.5692  -0.5692  -0.5692  -0.5667  -0.5667  -0.5581  -0.5581  -0.5544
    -0.5544  -0.5544  -0.5536  -0.5536  -0.5536  -0.4816  -0.4816  -0.4816
    -0.0412  -0.0196  -0.0196  -0.0196  -0.0182  -0.0182  -0.0153  -0.0153
    -0.0136  -0.0136  -0.0136  -0.0122  -0.0122  -0.0122  -0.0120  -0.0120
    -0.0120  -0.0113   0.0086   0.0086   0.0086   0.0671   0.0671   0.0671
     0.4083   1.0827   1.0827   1.0862   1.0862   1.0862   1.0896   1.0896
     1.0896   1.1285   1.1285   1.1285   1.3295   1.6174   1.6185   1.6185
     1.6185   1.6191   1.6191   1.6193   1.6193   1.6216   1.6216   1.6216
     1.6248   1.6248   1.6248   1.6266   1.6266   1.6287   1.6287   1.6287
     1.6295   1.6295   1.6295   1.6357   1.6514   1.6514   1.6514   1.7531
     1.7531   1.7531   2.0547   2.1540   2.1549   2.1549   2.1549   2.1558
     2.1558   2.1612   2.1612   2.1612   2.1638   2.1638   2.1638   2.1642
     2.1642   2.1642   2.1682   2.1682   2.1682   2.1856   2.1856   2.2884
     2.2884   2.2884   2.6288   2.6941   2.6941   2.6941   2.6975   2.7001
     2.7001   2.7016   2.7016   2.7016   2.7030   2.7030   2.7030   2.7096
     2.7096   2.7096   2.7106   2.7106   2.7161   2.7161   2.7161   2.8385
     2.8385   2.8385   3.1280   3.1573   3.2011   3.2011   3.2011   3.3560
     3.3560   3.3560   3.4816   3.7662   3.7704   3.7704   3.7704   3.7705
     3.7705   3.7705   3.7723   3.7723   3.7723   3.7787   3.7787   3.7793
     3.7793   3.7793   3.7946   3.7946   3.7970   3.7970   3.7970   3.9405
     3.9405   3.9405   4.1912   4.1912   4.1943   4.1943   4.1943   4.1949
     4.1974   4.1974   4.1974   4.1994   4.1994   4.1994   4.1995   4.1995
     4.1995   4.1998   4.2177   4.2177   4.2177   4.2276   4.2276   4.3362
     4.3534   4.3534   4.3534   4.4243   4.4268   4.4268   4.4269   4.4285
     4.4285   4.4285   4.4289   4.4289   4.4293   4.4293   4.4293   4.4366
     4.4366   4.4377   4.4377   4.4377   4.4917   4.4917   4.4917   4.5575
     4.5575   4.5575   4.8772   4.8772   4.8772   5.2539   5.3231   5.3231
     5.3231   5.3262   5.3262   5.3262   5.3401   5.3401   5.3401   5.4412
     5.4412   5.4412   5.8398   5.8398   5.8398   5.8444   5.8444   5.8456
     5.8685   5.8685   5.8685   5.8966   5.9106   5.9106   5.9106   5.9138
     5.9138   5.9138   5.9155   5.9155   5.9155   5.9163   5.9163   5.9196
     5.9196   5.9196   5.9198   5.9198   5.9633   5.9633   5.9633   5.9891
     5.9891   5.9891   6.0737   6.0737   6.0737   6.1319   6.1319   6.1338
     6.1958   6.3709   6.3709   6.3709   6.3815   6.3815   6.3815   6.3876
     6.3876   6.4322   6.4800   6.4800   6.4800   6.6430   6.6430   6.6489
     6.6532   6.6532   6.6532   6.6575   6.6575   6.6575   6.7348   6.7348
     6.7982   6.8795   6.8795   6.8795   6.8836   6.8836   6.8836   6.9059
     6.9059   6.9059   6.9453   6.9553   6.9553   6.9555   6.9555   6.9555
     6.9639   6.9639   6.9639   6.9652   6.9652   6.9652   6.9668   6.9668
     6.9668   6.9770   6.9770   7.0192   7.0192   7.0192   7.0454   7.0454
     7.0454   7.0681   7.0681   7.0681   7.2944   7.2944   7.2944   7.2950
     7.2950   7.2950   7.2998   7.2998   7.2998   7.3447   7.3447   7.3788
     7.3824   7.3824   7.3824   7.3884   7.3884   7.3884   7.3927   7.3927
     7.3927   7.3950   7.3950   7.3950   7.4018   7.4018   7.4018   7.4169
     7.4169   7.4974   7.4974   7.4974   7.4983   7.6838   7.7608   7.7608
     7.7608   7.9188   7.9369   7.9369   7.9369   7.9473   7.9473   8.5213
     8.5314   8.5314   8.5346   8.5346   8.5346   8.5363   8.5363   8.5363
     8.5373   8.5373   8.5373   8.5381   8.5381   8.5381   8.5419   8.5419
     8.6225   8.6225   8.6225   8.6248   8.6659   8.6659   8.6659   8.7563
     8.7563   8.7592   8.7592   8.7592   8.8331   8.8332   8.8367   8.8367
     8.8367   8.8383   8.8383   8.8383   8.8407   8.8407   8.8407   8.8508
     8.8536   8.8536   8.8536   8.8631   8.8631   8.8631   8.9340   8.9429
     8.9436

     occupation numbers 
     1.0000   1.0000   1.0000   1.0000   1.0000   1.0000   1.0000   1.0000
     1.0000   1.0000   1.0000   1.0000   1.0000   1.0000   1.0000   1.0000
     1.0000   1.0000   1.0000   1.0000   1.0000   1.0000   1.0000   1.0000
     1.0000   1.0000   1.0000   1.0000   1.0000   1.0000   1.0000   1.0000
     1.0000   1.0000   1.0000   1.0000   1.0000   1.0000   1.0000   1.0000
     1.0000   1.0000   1.0000   1.0000   1.0000   1.0000   1.0000   1.0000
     1.0000   1.0000   1.0000   1.0000   1.0000   1.0000   1.0000   1.0000
     1.0000   1.0000   1.0000   1.0000   1.0000   1.0000   1.0000   1.0000
     1.0000   1.0000   1.0000   1.0000   1.0000   1.0000   1.0000   1.0000
     1.0000   1.0000   1.0000   1.0000   1.0000   1.0000   1.0000   1.0000
     1.0000   1.0000   1.0000   1.0000   1.0000   1.0000   1.0000   1.0000
     1.0000   1.0000   1.0000   1.0000   1.0000   1.0000   1.0000   1.0000
     1.0000   1.0000   1.0000   1.0000   1.0000   1.0000   1.0000   1.0000
     1.0000   1.0000   1.0000   1.0000   1.0000   1.0000   1.0000   1.0000
     1.0000   1.0000   1.0000   1.0000   1.0000   1.0000   1.0000   1.0000
     1.0000   1.0000   1.0000   1.0000   1.0000   1.0000   1.0000   1.0000
     1.0000   1.0000   1.0000   1.0000   1.0000   1.0000   1.0000   1.0000
     1.0000   1.0000   1.0000   1.0000   1.0000   1.0000   1.0000   1.0000
     1.0000   1.0000   1.0000   1.0000   1.0000   1.0000   1.0000   1.0000
     1.0000   1.0000   1.0000   1.0000   1.0000   1.0000   1.0000   1.0000
     1.0000   1.0000   1.0000   1.0000   1.0000   1.0000   1.0000   1.0000
     1.0000   1.0000   1.0000   1.0000   1.0000   1.0000   1.0000   1.0000
     1.0000   1.0000   1.0000   1.0000   1.0000   1.0000   1.0000   1.0000
     1.0000   1.0000   1.0000   1.0000   1.0000   1.0000   1.0000   1.0000
     1.0000   1.0000   1.0000   1.0000   1.0000   1.0000   1.0000   1.0000
     1.0000   1.0000   1.0000   1.0000   1.0000   1.0000   1.0000   1.0000
     1.0000   1.0000   1.0000   1.0000   1.0000   1.0000   1.0000   1.0000
     1.0000   1.0000   1.0000   1.0000   1.0000   1.0000   1.0000   1.0000
     1.0000   1.0000   1.0000   1.0000   1.0000   1.0000   1.0000   1.0000
     1.0000   1.0000   1.0000   1.0000   1.0000   1.0000   1.0000   1.0000
     1.0000   1.0000   1.0000   1.0000   1.0000   1.0000   1.0000   1.0000
     1.0000   1.0000   1.0000   1.0000   1.0000   1.0000   1.0000   1.0000
     1.0000   1.0000   1.0000   1.0000   1.0000   1.0000   1.0000   1.0000
     1.0000   1.0000   1.0001   1.0001   1.0001   1.0001   1.0001   1.0001
     1.0001   1.0001   1.0001   1.0001   1.0001   1.0001   1.0001   1.0001
     1.0001   1.0001   1.0001   1.0001   1.0001   1.0001   1.0001   1.0001
     1.0001   1.0001   1.0001   1.0001   1.0002   1.0002   1.0002   1.0002
     1.0002   1.0002   1.0004   1.0004   1.0004   1.0007   1.0007   1.0007
     1.0011   1.0038   1.0038   1.0038   1.0040   1.0040   1.0040   1.0042
     1.0042   1.0055   1.0072   1.0072   1.0072   1.0160   1.0160   1.0164
     1.0167   1.0167   1.0167   1.0170   1.0170   1.0170   1.0227   1.0227
     1.0275   1.0329   1.0329   1.0329   1.0331   1.0331   1.0331   1.0342
     1.0342   1.0342   1.0353   1.0354   1.0354   1.0354   1.0354   1.0354
     1.0355   1.0355   1.0355   1.0355   1.0355   1.0355   1.0355   1.0355
     1.0355   1.0354   1.0354   1.0340   1.0340   1.0340   1.0321   1.0321
     1.0321   1.0298   1.0298   1.0298   0.9510   0.9510   0.9510   0.9506
     0.9506   0.9506   0.9476   0.9476   0.9476   0.9162   0.9162   0.8886
     0.8855   0.8855   0.8855   0.8803   0.8803   0.8803   0.8764   0.8764
     0.8764   0.8744   0.8744   0.8744   0.8681   0.8681   0.8681   0.8539
     0.8539   0.7682   0.7682   0.7682   0.7671   0.5225   0.4143   0.4143
     0.4143   0.2126   0.1927   0.1927   0.1927   0.1815   0.1815  -0.0328
    -0.0323  -0.0323  -0.0321  -0.0321  -0.0321  -0.0320  -0.0320  -0.0320
    -0.0319  -0.0319  -0.0319  -0.0319  -0.0319  -0.0319  -0.0316  -0.0316
    -0.0259  -0.0259  -0.0259  -0.0258  -0.0226  -0.0226  -0.0226  -0.0160
    -0.0160  -0.0158  -0.0158  -0.0158  -0.0113  -0.0113  -0.0111  -0.0111
    -0.0111  -0.0110  -0.0110  -0.0110  -0.0108  -0.0108  -0.0108  -0.0103
    -0.0102  -0.0102  -0.0102  -0.0097  -0.0097  -0.0097  -0.0066  -0.0063
    -0.0063

          k = 0.0000 0.0000 0.2000 (123202 PWs)   bands (ev):

    -3.3041  -2.9728  -2.7701  -2.7595  -2.7595  -2.6835  -2.5045  -2.4344
    -2.4241  -2.4241  -2.3679  -2.2052  -2.1957  -2.1957  -2.1378  -1.9880
    -1.9770  -1.9770  -1.8709  -1.8615  -1.8615  -1.8460  -1.7976  -1.5076
    -1.4261  -1.4171  -1.4171  -1.3472  -1.0897  -1.0790  -1.0790  -1.0216
    -0.9887  -0.9788  -0.9788  -0.9114  -0.7580  -0.7490  -0.7490  -0.7027
    -0.6265  -0.5474  -0.5422  -0.5414  -0.5414  -0.5324  -0.5031  -0.5031
    -0.4308  -0.4230  -0.4230  -0.4193  -0.3771  -0.3165  -0.3012  -0.3012
    -0.2168  -0.2150  -0.2117  -0.2109  -0.2109  -0.2019  -0.1723  -0.1723
    -0.1066  -0.0948  -0.0948  -0.0553   0.1372   0.2228   0.2279   0.2287
     0.2287   0.2378   0.2654   0.2654   0.3345   0.4482   0.4596   0.4596
     0.5930   0.6712   0.6833   0.6833   0.7970   1.0082   1.1081   1.1309
     1.1309   1.1881   1.2070   1.2120   1.2129   1.2129   1.2214   1.2441
     1.2441   1.3199   1.4351   1.4562   1.4562   1.5078   1.5299   1.5388
     1.5388   1.5435   1.5558   1.5558   1.6189   1.6462   1.6670   1.6670
     1.6878   1.7053   1.8686   1.8894   1.8894   1.9077   1.9712   1.9871
     1.9871   2.0216   2.0756   2.0783   2.0802   2.0802   2.0806   2.0863
     2.0863   2.0910   2.1252   2.1252   2.1723   2.1828   2.1858   2.1863
     2.1863   2.1954   2.2385   2.2397   2.2397   2.2991   2.3610   2.4046
     2.4389   2.4389   2.5068   2.5097   2.5104   2.5104   2.5194   2.5393
     2.5670   2.5670   2.6712   2.8187   2.8276   2.8276   2.8356   2.8668
     2.8668   2.8982   2.9375   2.9402   2.9408   2.9408   2.9499   3.0040
     3.0040   3.0269   3.0697   3.1608   3.1731   3.1731   3.2509   3.3607
     3.3674   3.3674   3.3726   3.4061   3.4061   3.4673   3.5612   3.6783
     3.6838   3.6843   3.6843   3.6900   3.7121   3.7121   3.7208   3.7361
     3.7361   3.7774   3.7916   3.7939   3.7939   3.7968   3.7989   3.8181
     3.8796   3.8796   3.8934   3.8940   3.8974   3.8974   3.9066   3.9480
     3.9480   4.0073   4.0135   4.1027   4.1050   4.1050   4.1084   4.1267
     4.2052   4.2052   4.2263   4.2551   4.2551   4.2728   4.3032   4.4326
     4.4492   4.4492   4.4743   4.5624   4.5653   4.5653   4.5662   4.5904
     4.6169   4.6169   4.6699   4.6785   4.7796   4.7831   4.7831   4.7851
     4.7891   4.8105   4.8105   4.8963   4.9046   4.9046   4.9237   4.9334
     4.9334   4.9793   4.9835   4.9859   4.9859   4.9975   5.0428   5.0473
     5.0473   5.1627   5.1627   5.3091   5.3196   5.3196   5.3468   5.3599
     5.3699   5.3967   5.3967   5.4463   5.4558   5.4558   5.4914   5.5107
     5.5131   5.5131   5.5150   5.5367   5.5538   5.5538   5.5672   5.6563
     5.6673   5.6673   5.6711   5.6892   5.7112   5.7112   5.7999   5.8392
     5.8392   5.8957   6.0692   6.0839   6.1445   6.1445   6.1540   6.2101
     6.3413   6.3532   6.3563   6.3563   6.3589   6.3608   6.3608   6.3616
     6.3644   6.3948   6.4022   6.4022   6.4141   6.4271   6.4355   6.4355
     6.4437   6.4615   6.4615   6.4671   6.4767   6.4924   6.4925   6.4945
     6.5396   6.5605   6.5605   6.5661   6.6003   6.6003   6.6025   6.6192
     6.6218   6.6758   6.6758   6.7066   6.7390   6.7872   6.8048   6.8048
     6.8273   6.8291   6.8291   6.8409   6.9002   6.9091   6.9138   6.9268
     6.9941   6.9941   6.9994   7.0039   7.0112   7.0198   7.0200   7.0200
     7.0258   7.0269   7.0269   7.0358   7.0826   7.0904   7.0904   7.1010
     7.1010   7.1805   7.1947   7.2089   7.2089   7.2104   7.2565   7.2792
     7.3017   7.3017   7.3035   7.3467   7.3467   7.3673   7.3724   7.3724
     7.4547   7.5063   7.5063   7.5294   7.5995   7.6000   7.6044   7.6044
     7.6099   7.6119   7.6196   7.6196   7.6253   7.6632   7.6950   7.6961
     7.6961   7.7151   7.7151   7.7711   7.7760   7.8283   7.8481   7.8857
[...]
     atom   73 type  1   force =     0.00000001   -0.00000000    0.00000000
     atom   74 type  1   force =     0.00000000    0.00000000    0.00000000
     atom   75 type  1   force =     0.00000001   -0.00000001    0.00000000
     atom   76 type  1   force =    -0.00000000   -0.00000000    0.00000002
     atom   77 type  1   force =     0.00000001   -0.00000000    0.00000001
     atom   78 type  1   force =    -0.00000000    0.00000000    0.00000001
     atom   79 type  1   force =     0.00000000   -0.00000001    0.00000001
     atom   80 type  1   force =     0.00000000   -0.00000000    0.00000000
     atom   81 type  1   force =     0.00000001   -0.00000000    0.00000001
     atom   82 type  1   force =     0.00000001    0.00000000   -0.00000001
     atom   83 type  1   force =     0.00000000    0.00000000   -0.00000001
     atom   84 type  1   force =    -0.00000001    0.00000000   -0.00000001
     atom   85 type  1   force =     0.00000001    0.00000000   -0.00000001
     atom   86 type  1   force =     0.00000001    0.00000001   -0.00000000
     atom   87 type  1   force =    -0.00000001   -0.00000000   -0.00000001
     atom   88 type  1   force =    -0.00000000   -0.00000000   -0.00000001
     atom   89 type  1   force =     0.00000003    0.00000001    0.00000000
     atom   90 type  1   force =     0.00000002    0.00000000    0.00000000
     atom   91 type  1   force =     0.00000001    0.00000001    0.00000000
     atom   92 type  1   force =     0.00000001   -0.00000001    0.00000001
     atom   93 type  1   force =     0.00000002    0.00000001   -0.00000000
     atom   94 type  1   force =     0.00000001   -0.00000001    0.00000001
     atom   95 type  1   force =     0.00000000   -0.00000000    0.00000002
     atom   96 type  1   force =     0.00000000   -0.00000001    0.00000001
     atom   97 type  1   force =     0.00000001   -0.00000000    0.00000001
     atom   98 type  1   force =     0.00000001   -0.00000001   -0.00000001
     atom   99 type  1   force =     0.00000000    0.00000000   -0.00000001
     atom  100 type  1   force =     0.00000000   -0.00000001   -0.00000001
     atom  101 type  1   force =     0.00000000   -0.00000000   -0.00000001
     atom  102 type  1   force =     0.00000002   -0.00000001    0.00000000
     atom  103 type  1   force =     0.00000000    0.00000001   -0.00000000
     atom  104 type  1   force =     0.00000000    0.00000000    0.00000001
     atom  105 type  1   force =     0.00000001   -0.00000001    0.00000001
     atom  106 type  1   force =     0.00000003   -0.00000000   -0.00000000
     atom  107 type  1   force =     0.00000000   -0.00000000    0.00000000
     atom  108 type  1   force =     0.00000001    0.00000000   -0.00000000
     atom  109 type  1   force =     0.00000001   -0.00000001   -0.00000000
     atom  110 type  1   force =     0.00000001   -0.00000000    0.00000000
     atom  111 type  1   force =     0.00000001    0.00000000    0.00000001
     atom  112 type  1   force =    -0.00000001    0.00000001    0.00000001
     atom  113 type  1   force =    -0.00000000    0.00000001   -0.00000000
     atom  114 type  1   force =    -0.00000001    0.00000000   -0.00000001
     atom  115 type  1   force =    -0.00000001    0.00000000   -0.00000001
     atom  116 type  1   force =     0.00000000    0.00000001   -0.00000001
     atom  117 type  1   force =    -0.00000001    0.00000001   -0.00000000
     atom  118 type  1   force =    -0.00000001    0.00000001   -0.00000000
     atom  119 type  1   force =     0.00000000    0.00000000   -0.00000001
     atom  120 type  1   force =     0.00000000    0.00000000   -0.00000000
     atom  121 type  1   force =    -0.00000000   -0.00000000   -0.00000001
     atom  122 type  1   force =    -0.00000000   -0.00000000    0.00000000
     atom  123 type  1   force =    -0.00000000    0.00000000    0.00000000
     atom  124 type  1   force =     0.00000001    0.00000000    0.00000000
     atom  125 type  1   force =    -0.00000000    0.00000000    0.00000001
     atom  126 type  1   force =     0.00000000    0.00000000    0.00000000
     atom  127 type  1   force =    -0.00000001    0.00000001    0.00000001
     atom  128 type  1   force =     0.00000001    0.00000001    0.00000001
     atom  129 type  1   force =    -0.00000000   -0.00000001    0.00000000
     atom  130 type  1   force =     0.00000001    0.00000001   -0.00000001
     atom  131 type  1   force =     0.00000001   -0.00000001   -0.00000002
     atom  132 type  1   force =     0.00000001   -0.00000000   -0.00000001
     atom  133 type  1   force =    -0.00000000   -0.00000001   -0.00000002
     atom  134 type  1   force =    -0.00000000   -0.00000001   -0.00000001
     atom  135 type  1   force =     0.00000001    0.00000000   -0.00000000
     atom  136 type  1   force =     0.00000001   -0.00000000   -0.00000000
     atom  137 type  1   force =    -0.00000000    0.00000000    0.00000001
     atom  138 type  1   force =     0.00000000    0.00000000   -0.00000000
     atom  139 type  1   force =     0.00000001    0.00000000    0.00000000
     atom  140 type  1   force =    -0.00000000    0.00000001    0.00000001
     atom  141 type  1   force =    -0.00000001    0.00000000    0.00000001
     atom  142 type  1   force =     0.00000000    0.00000001    0.00000002
     atom  143 type  1   force =     0.00000001    0.00000000    0.00000001
     atom  144 type  1   force =     0.00000000   -0.00000001   -0.00000000
     atom  145 type  1   force =    -0.00000001    0.00000000    0.00000000
     atom  146 type  1   force =    -0.00000001   -0.00000001   -0.00000001
     atom  147 type  1   force =    -0.00000000    0.00000001   -0.00000000
     atom  148 type  1   force =     0.00000000    0.00000001   -0.00000000
     atom  149 type  1   force =    -0.00000001    0.00000001    0.00000001
     atom  150 type  1   force =    -0.00000001    0.00000002    0.00000000
     atom  151 type  1   force =     0.00000002    0.00000001    0.00000001
     atom  152 type  1   force =     0.00000001    0.00000002    0.00000000
     atom  153 type  1   force =    -0.00000002    0.00000002   -0.00000000
     atom  154 type  1   force =    -0.00000001    0.00000001   -0.00000000
     atom  155 type  1   force =     0.00000001    0.00000002   -0.00000001
     atom  156 type  1   force =     0.00000001    0.00000001    0.00000001
     atom  157 type  1   force =    -0.00000001    0.00000000   -0.00000001
     atom  158 type  1   force =    -0.00000001   -0.00000001    0.00000001
     atom  159 type  1   force =     0.00000001   -0.00000000    0.00000000
     atom  160 type  1   force =     0.00000000   -0.00000000    0.00000001
     atom  161 type  1   force =     0.00000000   -0.00000000    0.00000000
     atom  162 type  1   force =    -0.00000001    0.00000000   -0.00000000
     atom  163 type  1   force =     0.00000000   -0.00000002   -0.00000001
     atom  164 type  1   force =     0.00000001   -0.00000001   -0.00000000
     atom  165 type  1   force =     0.00000000   -0.00000002   -0.00000000
     atom  166 type  1   force =    -0.00000001   -0.00000001    0.00000002
     atom  167 type  1   force =     0.00000002   -0.00000002    0.00000001
     atom  168 type  1   force =    -0.00000000   -0.00000003    0.00000000
     atom  169 type  1   force =    -0.00000002   -0.00000000   -0.00000002
     atom  170 type  1   force =     0.00000001   -0.00000003   -0.00000001
     atom  171 type  1   force =     0.00000001   -0.00000000   -0.00000001
     atom  172 type  1   force =    -0.00000001   -0.00000001    0.00000000
     atom  173 type  1   force =    -0.00000001    0.00000000    0.00000000
     atom  174 type  1   force =     0.00000001   -0.00000000    0.00000000
     atom  175 type  1   force =     0.00000001   -0.00000000   -0.00000000
     atom  176 type  1   force =     0.00000001    0.00000001    0.00000000
     atom  177 type  1   force =     0.00000001    0.00000000   -0.00000002
     atom  178 type  1   force =     0.00000001    0.00000002   -0.00000001
     atom  179 type  1   force =     0.00000000    0.00000000   -0.00000000
     atom  180 type  1   force =     0.00000001    0.00000002   -0.00000000
     atom  181 type  1   force =     0.00000001    0.00000000    0.00000001
     atom  182 type  1   force =     0.00000000    0.00000001   -0.00000000
     atom  183 type  1   force =     0.00000001   -0.00000000    0.00000000
     atom  184 type  1   force =     0.00000001    0.00000000   -0.00000001
     atom  185 type  1   force =     0.00000001   -0.00000001   -0.00000001
     atom  186 type  1   force =     0.00000000    0.00000000   -0.00000000
     atom  187 type  1   force =    -0.00000000   -0.00000001    0.00000001
     atom  188 type  1   force =     0.00000000    0.00000000    0.00000001
     atom  189 type  1   force =     0.00000000   -0.00000000    0.00000002
     atom  190 type  1   force =     0.00000000    0.00000000    0.00000001
     atom  191 type  1   force =     0.00000001   -0.00000001    0.00000001
     atom  192 type  1   force =     0.00000000   -0.00000003    0.00000000
     atom  193 type  1   force =     0.00000000   -0.00000002   -0.00000003
     atom  194 type  1   force =    -0.00000001   -0.00000002   -0.00000002
     atom  195 type  1   force =    -0.00000001   -0.00000001   -0.00000002
     atom  196 type  1   force =     0.00000000   -0.00000001   -0.00000001
     atom  197 type  1   force =     0.00000001   -0.00000001    0.00000000
     atom  198 type  1   force =    -0.00000000   -0.00000001   -0.00000000
     atom  199 type  1   force =    -0.00000000   -0.00000001    0.00000000
     atom  200 type  1   force =     0.00000001   -0.00000001    0.00000000
     atom  201 type  1   force =    -0.00000000   -0.00000001   -0.00000000
     atom  202 type  1   force =    -0.00000000   -0.00000000   -0.00000000
     atom  203 type  1   force =     0.00000000   -0.00000000    0.00000001
     atom  204 type  1   force =     0.00000000   -0.00000001    0.00000001
     atom  205 type  1   force =     0.00000000   -0.00000002    0.00000003
     atom  206 type  1   force =    -0.00000001   -0.00000001    0.00000002
     atom  207 type  1   force =    -0.00000001   -0.00000001    0.00000000
     atom  208 type  1   force =     0.00000000    0.00000000    0.00000000
     atom  209 type  1   force =    -0.00000000   -0.00000001   -0.00000000
     atom  210 type  1   force =    -0.00000001    0.00000000   -0.00000001
     atom  211 type  1   force =    -0.00000001   -0.00000000   -0.00000001
     atom  212 type  1   force =     0.00000000    0.00000000   -0.00000000
     atom  213 type  1   force =     0.00000001    0.00000000    0.00000000
     atom  214 type  1   force =    -0.00000002    0.00000001    0.00000001
     atom  215 type  1   force =    -0.00000001    0.00000001    0.00000000
     atom  216 type  1   force =    -0.00000001    0.00000000    0.00000000
     atom  217 type  1   force =    -0.00000000    0.00000000   -0.00000000
     atom  218 type  1   force =    -0.00000002    0.00000001   -0.00000001
     atom  219 type  1   force =    -0.00000001    0.00000000    0.00000000
     atom  220 type  1   force =    -0.00000000    0.00000000    0.00000000
     atom  221 type  1   force =     0.00000000   -0.00000001    0.00000001
     atom  222 type  1   force =    -0.00000001    0.00000000    0.00000000
     atom  223 type  1   force =    -0.00000001    0.00000001    0.00000000
     atom  224 type  1   force =    -0.00000000    0.00000002    0.00000000
     atom  225 type  1   force =    -0.00000000    0.00000001   -0.00000000
     atom  226 type  1   force =     0.00000001    0.00000001   -0.00000001
     atom  227 type  1   force =    -0.00000001    0.00000001    0.00000000
     atom  228 type  1   force =    -0.00000000    0.00000001   -0.00000001
     atom  229 type  1   force =    -0.00000001    0.00000001   -0.00000000
     atom  230 type  1   force =    -0.00000001   -0.00000001    0.00000000
     atom  231 type  1   force =    -0.00000003   -0.00000000   -0.00000000
     atom  232 type  1   force =    -0.00000001    0.00000000   -0.00000000
     atom  233 type  1   force =    -0.00000001    0.00000000   -0.00000000
     atom  234 type  1   force =    -0.00000001   -0.00000001   -0.00000001
     atom  235 type  1   force =    -0.00000001    0.00000000   -0.00000000
     atom  236 type  1   force =    -0.00000000    0.00000001    0.00000000
     atom  237 type  1   force =    -0.00000000    0.00000001    0.00000001
     atom  238 type  1   force =    -0.00000000    0.00000001    0.00000001
     atom  239 type  1   force =     0.00000002    0.00000001    0.00000000
     atom  240 type  1   force =     0.00000001    0.00000000    0.00000001
     atom  241 type  1   force =     0.00000001    0.00000002   -0.00000002
     atom  242 type  1   force =     0.00000002    0.00000001   -0.00000002
     atom  243 type  1   force =     0.00000002    0.00000001   -0.00000001
     atom  244 type  1   force =     0.00000000   -0.00000001   -0.00000002
     atom  245 type  1   force =    -0.00000000    0.00000000   -0.00000001
     atom  246 type  1   force =     0.00000000   -0.00000000   -0.00000000
     atom  247 type  1   force =    -0.00000000    0.00000000   -0.00000000
     atom  248 type  1   force =    -0.00000000   -0.00000000   -0.00000000
     atom  249 type  1   force =    -0.00000000    0.00000000   -0.00000000
     atom  250 type  1   force =     0.00000001    0.00000000   -0.00000001
     atom  251 type  1   force =     0.00000001   -0.00000000    0.00000001
     atom  252 type  1   force =     0.00000000    0.00000000    0.00000001
     atom  253 type  1   force =     0.00000000    0.00000002    0.00000003
     atom  254 type  1   force =     0.00000002    0.00000001    0.00000003

     Total force =     0.002426     Total SCF correction =     0.000000


     Computing stress (Cartesian axis) and pressure

          total   stress  (Ry/bohr**3)                   (kbar)     P=  -11.66
  -0.00007926   0.00000000  -0.00000000        -11.66      0.00     -0.00
   0.00000000  -0.00007926   0.00000000          0.00    -11.66      0.00
  -0.00000000   0.00000000  -0.00007926         -0.00      0.00    -11.66

     kinetic stress (kbar)   1419.97      0.00     -0.00
                                0.00   1419.97      0.00
                               -0.00      0.00   1419.97

     local   stress (kbar)    606.03      0.00     -0.00
                                0.00    606.03      0.00
                               -0.00      0.00    606.03

     nonloc. stress (kbar)   1030.11     -0.00      0.00
                               -0.00   1030.11     -0.00
                                0.00     -0.00   1030.11

     hartree stress (kbar)      7.41     -0.00      0.00
                               -0.00      7.41     -0.00
                                0.00     -0.00      7.41

     exc-cor stress (kbar)    498.08     -0.00      0.00
                               -0.00    498.08     -0.00
                                0.00     -0.00    498.08

     corecor stress (kbar)  -1261.33      0.00     -0.00
                                0.00  -1261.33      0.00
                               -0.00      0.00  -1261.33

     ewald   stress (kbar)  -2311.92      0.00     -0.00
                                0.00  -2311.92     -0.00
                               -0.00     -0.00  -2311.92

     hubbard stress (kbar)      0.00      0.00      0.00
                                0.00      0.00      0.00
                                0.00      0.00      0.00

     london  stress (kbar)      0.00      0.00      0.00
                                0.00      0.00      0.00
                                0.00      0.00      0.00

     DFT-D3  stress (kbar)      0.00      0.00      0.00
                                0.00      0.00      0.00
                                0.00      0.00      0.00

     XDM     stress (kbar)      0.00      0.00      0.00
                                0.00      0.00      0.00
                                0.00      0.00      0.00

     dft-nl  stress (kbar)      0.00      0.00      0.00
                                0.00      0.00      0.00
                                0.00      0.00      0.00

     TS-vdW  stress (kbar)      0.00      0.00      0.00
                                0.00      0.00      0.00
                                0.00      0.00      0.00



     Writing output data file aiida.save/
 
     init_run     :    197.03s CPU    199.53s WALL (       1 calls)
     electrons    :   9425.26s CPU   9499.32s WALL (       1 calls)
     forces       :     96.15s CPU     97.07s WALL (       1 calls)
     stress       :   1142.25s CPU   1143.75s WALL (       1 calls)

     Called by init_run:
     wfcinit      :    189.91s CPU    192.03s WALL (       1 calls)
     wfcinit:atom :      0.26s CPU      0.59s WALL (       2 calls)
     wfcinit:wfcr :    187.37s CPU    188.32s WALL (       2 calls)
     potinit      :      2.09s CPU      2.31s WALL (       1 calls)
     hinit0       :      2.49s CPU      2.55s WALL (       1 calls)

     Called by electrons:
     c_bands      :   8157.01s CPU   8218.89s WALL (      34 calls)
     sum_band     :   1161.73s CPU   1166.19s WALL (      34 calls)
     v_of_rho     :     50.23s CPU     52.53s WALL (      34 calls)
     v_h          :      4.18s CPU      4.19s WALL (      34 calls)
     v_xc         :     47.74s CPU     50.09s WALL (      36 calls)
     newd         :      9.92s CPU     11.73s WALL (      34 calls)
     PAW_pot      :      5.98s CPU      6.81s WALL (      34 calls)
     mix_rho      :     32.34s CPU     34.66s WALL (      34 calls)

     Called by c_bands:
     init_us_2    :    106.78s CPU    107.40s WALL (     142 calls)
     cegterg      :   7354.44s CPU   7414.65s WALL (      68 calls)

     Called by sum_band:
     sum_band:bec :      1.75s CPU      1.76s WALL (      68 calls)
     addusdens    :      7.62s CPU     10.20s WALL (      34 calls)

     Called by *egterg:
     h_psi        :   4711.13s CPU   4731.32s WALL (     290 calls)
     s_psi        :   1494.89s CPU   1497.87s WALL (     290 calls)
     g_psi        :      5.85s CPU      5.86s WALL (     220 calls)
     cdiaghg      :    338.66s CPU    344.75s WALL (     286 calls)
     cegterg:over :    407.82s CPU    410.06s WALL (     220 calls)
     cegterg:upda :    259.96s CPU    271.83s WALL (     220 calls)
     cegterg:last :    155.28s CPU    155.37s WALL (      72 calls)
     cdiaghg:chol :     15.38s CPU     15.53s WALL (     286 calls)
     cdiaghg:inve :      7.31s CPU      7.31s WALL (     286 calls)
     cdiaghg:para :     80.41s CPU     81.66s WALL (     572 calls)

     Called by h_psi:
     h_psi:pot    :   4704.63s CPU   4715.45s WALL (     290 calls)
     h_psi:calbec :   1527.10s CPU   1527.51s WALL (     290 calls)
     vloc_psi     :   1644.78s CPU   1651.78s WALL (     290 calls)
     add_vuspsi   :   1532.75s CPU   1536.16s WALL (     290 calls)

     General routines
     calbec       :   2236.00s CPU   2236.69s WALL (     368 calls)
     fft          :     53.31s CPU     55.87s WALL (     467 calls)
     ffts         :     15.20s CPU     15.26s WALL (     540 calls)
     fftw         :   1762.27s CPU   1769.03s WALL (  180836 calls)
     interpolate  :      4.99s CPU      5.51s WALL (      34 calls)
 
     Parallel routines
     fft_scatt_xy :    560.08s CPU    561.97s WALL (  181843 calls)
     fft_scatt_yz :    366.69s CPU    369.94s WALL (  181843 calls)

     PAW routines
     PAW_pot      :      5.98s CPU      6.81s WALL (      34 calls)
 
     PWSCF        :      3h 4m CPU      3h 6m WALL

 
   This run was terminated on:   1:44:28  27Feb2020            

=------------------------------------------------------------------------------=
   JOB DONE.
=------------------------------------------------------------------------------=
