begin
comment 254 atoms, species Al254
lattice     30.6664728719     0.0000000000     0.0000000000
lattice      0.0000000000    30.6664728719     0.0000000000
lattice      0.0000000000     0.0000000000    30.6664728719
atom      3.7687899167     0.0000000000     3.7687899167   Al  0.0 0.0    5.19149961e-05 -4.99999962e-09  5.19049961e-05
atom      3.7687899167     3.7687899167     0.0000000000   Al  0.0 0.0    5.19499961e-05  5.18849961e-05  4.99999962e-09
atom      0.0000000000     3.7687899167     3.7687899167   Al  0.0 0.0   -9.99999925e-09  5.19049961e-05  5.19599961e-05
atom      0.0000000000     0.0000000000     7.6577893404   Al  0.0 0.0    4.99999962e-09  5.49999959e-08  4.04599970e-05
atom      3.8301504623     3.8301504623     7.6633154388   Al  0.0 0.0   -1.05749992e-05 -1.04949992e-05  7.04349947e-05
atom      3.8317512522     0.0000000000    11.5005651896   Al  0.0 0.0    4.66999965e-06  3.99999970e-08 -8.30999938e-06
atom      0.0000000000     3.8317512522    11.5005651896   Al  0.0 0.0    1.99999985e-08  4.71499965e-06 -8.29999938e-06
atom      0.0000000000     0.0000000000    15.3332364360   Al  0.0 0.0    1.99999985e-08  5.99999955e-08 -2.99999977e-08
atom      3.8376514815     3.8376514815    15.3332364360   Al  0.0 0.0    8.02149940e-05  8.02699940e-05 -4.99999962e-09
atom      3.8317512522     0.0000000000    19.1659076823   Al  0.0 0.0    4.68499965e-06  2.49999981e-08  8.30499938e-06
atom      0.0000000000     3.8317512522    19.1659076823   Al  0.0 0.0    4.99999962e-09  4.74999964e-06  8.28999938e-06
atom      0.0000000000     0.0000000000    23.0086835315   Al  0.0 0.0    9.99999925e-09  9.99999925e-09 -4.03449970e-05
atom      3.8301504623     3.8301504623    23.0031574331   Al  0.0 0.0   -1.05599992e-05 -1.05749992e-05 -7.04649947e-05
atom      3.7687899167     0.0000000000    26.8976860218   Al  0.0 0.0    5.18499961e-05  0.00000000e+00 -5.19099961e-05
atom      0.0000000000     3.7687899167    26.8976860218   Al  0.0 0.0    1.49999989e-08  5.17999961e-05 -5.19549961e-05
atom      0.0000000000     7.6577893404     0.0000000000   Al  0.0 0.0    2.49999981e-08  4.04349970e-05  4.49999966e-08
atom      3.8317512522    11.5005651896     0.0000000000   Al  0.0 0.0    4.71999965e-06 -8.33499937e-06  0.00000000e+00
atom      3.8301504623     7.6633154388     3.8301504623   Al  0.0 0.0   -1.05299992e-05  7.03899947e-05 -1.04849992e-05
atom      0.0000000000    11.5005651896     3.8317512522   Al  0.0 0.0    4.99999962e-09 -8.34999937e-06  4.74499964e-06
atom      0.0000000000     7.6423303715     7.6423303715   Al  0.0 0.0    2.99999977e-08 -6.24999953e-07 -5.79999956e-07
atom      3.8334440415    11.4997954611     7.6666182180   Al  0.0 0.0    8.90299933e-05 -8.91149933e-05  1.44999989e-07
atom      3.8334440415     7.6666182180    11.4997954611   Al  0.0 0.0    8.90049933e-05  1.09999992e-07 -8.90399933e-05
atom      0.0000000000    11.4955849544    11.4955849544   Al  0.0 0.0    4.49999966e-08 -8.02699940e-05 -8.02299940e-05
atom      0.0000000000     7.6666182180    15.3332364360   Al  0.0 0.0    2.99999977e-08  2.34999982e-07  4.99999962e-09
atom      3.8326804463    11.5014913171    15.3332364360   Al  0.0 0.0    7.77999942e-06 -5.04499962e-06 -3.99999970e-08
atom      3.8334440415     7.6666182180    19.1666804774   Al  0.0 0.0    8.90549933e-05  1.04999992e-07  8.89849933e-05
atom      0.0000000000    11.4955849544    19.1708879175   Al  0.0 0.0    3.99999970e-08 -8.02899940e-05  8.02349940e-05
atom      0.0000000000     7.6423303715    23.0241425004   Al  0.0 0.0    4.99999962e-09 -6.39999952e-07  5.79999956e-07
atom      3.8334440415    11.4997954611    22.9998546539   Al  0.0 0.0    8.90899933e-05 -8.90499933e-05 -1.84999986e-07
atom      3.8301504623     7.6633154388    26.8363224096   Al  0.0 0.0   -1.05249992e-05  7.03849947e-05  1.05549992e-05
atom      0.0000000000    11.5005651896    26.8347216197   Al  0.0 0.0    3.99999970e-08 -8.31499938e-06 -4.75499964e-06
atom      0.0000000000    15.3332364360     0.0000000000   Al  0.0 0.0    2.99999977e-08 -4.99999962e-08  3.49999974e-08
atom      3.8317512522    19.1659076823     0.0000000000   Al  0.0 0.0    4.78999964e-06  8.36999937e-06  4.99999962e-09
atom      3.8376514815    15.3332364360     3.8376514815   Al  0.0 0.0    8.02949940e-05 -1.99999985e-08  8.03149940e-05
atom      0.0000000000    19.1659076823     3.8317512522   Al  0.0 0.0    9.99999925e-09  8.35999937e-06  4.75999964e-06
atom      0.0000000000    15.3332364360     7.6666182180   Al  0.0 0.0    5.99999955e-08 -3.49999974e-08  2.69999980e-07
atom      3.8334440415    19.1666804774     7.6666182180   Al  0.0 0.0    8.90849933e-05  8.90499933e-05  1.29999990e-07
atom      3.8326804463    15.3332364360    11.5014913171   Al  0.0 0.0    7.80499941e-06 -6.99999947e-08 -5.02999962e-06
atom      0.0000000000    19.1708879175    11.4955849544   Al  0.0 0.0    5.49999959e-08  8.02849940e-05 -8.02649940e-05
atom      0.0000000000    15.3332364360    15.3332364360   Al  0.0 0.0    5.49999959e-08 -7.99999940e-08 -3.99999970e-08
atom      3.8326804463    19.1649815548    15.3332364360   Al  0.0 0.0    7.83999941e-06  5.08499962e-06 -4.99999962e-09
atom      3.8326804463    15.3332364360    19.1649815548   Al  0.0 0.0    7.83999941e-06 -2.49999981e-08  5.01499962e-06
atom      0.0000000000    19.1708879175    19.1708879175   Al  0.0 0.0    2.99999977e-08  8.02949940e-05  8.02549940e-05
atom      0.0000000000    15.3332364360    22.9998577206   Al  0.0 0.0    1.49999989e-08 -3.99999970e-08 -2.99999977e-07
atom      3.8334440415    19.1666804774    22.9998546539   Al  0.0 0.0    8.90649933e-05  8.90349933e-05 -1.59999988e-07
atom      3.8376514815    15.3332364360    26.8288213904   Al  0.0 0.0    8.02749940e-05 -4.99999962e-09 -8.03049940e-05
atom      0.0000000000    19.1659076823    26.8347216197   Al  0.0 0.0    4.99999962e-08  8.37999937e-06 -4.71999965e-06
atom      0.0000000000    23.0086835315     0.0000000000   Al  0.0 0.0    0.00000000e+00 -4.03449970e-05 -4.99999962e-09
atom      3.7687899167    26.8976860218     0.0000000000   Al  0.0 0.0    5.18749961e-05 -5.18899961e-05  9.99999925e-09
atom      3.8301504623    23.0031574331     3.8301504623   Al  0.0 0.0   -1.05099992e-05 -7.04399947e-05 -1.05299992e-05
atom      0.0000000000    26.8976860218     3.7687899167   Al  0.0 0.0    2.49999981e-08 -5.18949961e-05  5.18449961e-05
atom      0.0000000000    23.0241425004     7.6423303715   Al  0.0 0.0    2.99999977e-08  6.09999954e-07 -6.14999954e-07
atom      3.8301504623    26.8363224096     7.6633154388   Al  0.0 0.0   -1.05349992e-05  1.05599992e-05  7.04049947e-05
atom      3.8334440415    22.9998546539    11.4997954611   Al  0.0 0.0    8.90499933e-05 -1.74999987e-07 -8.90399933e-05
atom      0.0000000000    26.8347216197    11.5005651896   Al  0.0 0.0    2.99999977e-08 -4.70499965e-06 -8.29499938e-06
atom      0.0000000000    22.9998577206    15.3332364360   Al  0.0 0.0    4.49999966e-08 -2.69999980e-07 -9.99999925e-09
atom      3.8376514815    26.8288213904    15.3332364360   Al  0.0 0.0    8.02149940e-05 -8.02799940e-05  1.49999989e-08
atom      3.8334440415    22.9998546539    19.1666804774   Al  0.0 0.0    8.90399933e-05 -1.54999988e-07  8.90399933e-05
atom      0.0000000000    26.8347216197    19.1659076823   Al  0.0 0.0    2.49999981e-08 -4.67499965e-06  8.31499938e-06
atom      0.0000000000    23.0241425004    23.0241425004   Al  0.0 0.0    4.99999962e-09  6.44999952e-07  6.24999953e-07
atom      3.8301504623    26.8363224096    23.0031574331   Al  0.0 0.0   -1.05649992e-05  1.05949992e-05 -7.04299947e-05
atom      3.8301504623    23.0031574331    26.8363224096   Al  0.0 0.0   -1.05399992e-05 -7.04249947e-05  1.05649992e-05
atom      0.0000000000    26.8976860218    26.8976860218   Al  0.0 0.0    4.49999966e-08 -5.18449961e-05 -5.19099961e-05
atom      7.6577893404     0.0000000000     0.0000000000   Al  0.0 0.0    4.04249970e-05 -1.99999985e-08 -4.99999962e-09
atom     11.5005651896     3.8317512522     0.0000000000   Al  0.0 0.0   -8.31999937e-06  4.69999965e-06  4.99999962e-09
atom     11.5005651896     0.0000000000     3.8317512522   Al  0.0 0.0   -8.32499937e-06 -3.49999974e-08  4.68499965e-06
atom      7.6633154388     3.8301504623     3.8301504623   Al  0.0 0.0    7.04049947e-05 -1.05099992e-05 -1.05649992e-05
atom      7.6423303715     0.0000000000     7.6423303715   Al  0.0 0.0   -6.39999952e-07  4.99999962e-09 -6.34999952e-07
atom     11.4997954611     3.8334440415     7.6666182180   Al  0.0 0.0   -8.90749933e-05  8.91249933e-05  7.99999940e-08
atom     11.4955849544     0.0000000000    11.4955849544   Al  0.0 0.0   -8.02999940e-05  1.49999989e-08 -8.02899940e-05
atom      7.6666182180     3.8334440415    11.4997954611   Al  0.0 0.0    4.99999962e-08  8.91299933e-05 -8.90549933e-05
atom      7.6666182180     0.0000000000    15.3332364360   Al  0.0 0.0    1.89999986e-07  3.49999974e-08  4.99999962e-09
atom     11.5014913171     3.8326804463    15.3332364360   Al  0.0 0.0   -5.08499962e-06  7.87499941e-06 -1.49999989e-08
atom     11.4955849544     0.0000000000    19.1708879175   Al  0.0 0.0   -8.02999940e-05  4.99999962e-09  8.03299940e-05
atom      7.6666182180     3.8334440415    19.1666804774   Al  0.0 0.0    8.99999932e-08  8.90949933e-05  8.89999933e-05
atom      7.6423303715     0.0000000000    23.0241425004   Al  0.0 0.0   -6.49999951e-07 -1.49999989e-08  6.39999952e-07
atom     11.4997954611     3.8334440415    22.9998546539   Al  0.0 0.0   -8.90749933e-05  8.90799933e-05 -1.44999989e-07
atom     11.5005651896     0.0000000000    26.8347216197   Al  0.0 0.0   -8.28999938e-06 -3.49999974e-08 -4.65999965e-06
atom      7.6633154388     3.8301504623    26.8363224096   Al  0.0 0.0    7.04049947e-05 -1.05649992e-05  1.05599992e-05
atom      7.6423303715     7.6423303715     0.0000000000   Al  0.0 0.0   -6.04999955e-07 -6.34999952e-07  1.49999989e-08
atom     11.4955849544    11.4955849544     0.0000000000   Al  0.0 0.0   -8.02449940e-05 -8.02349940e-05  3.49999974e-08
atom     11.4997954611     7.6666182180     3.8334440415   Al  0.0 0.0   -8.90599933e-05  1.04999992e-07  8.90549933e-05
atom      7.6666182180    11.4997954611     3.8334440415   Al  0.0 0.0    1.14999991e-07 -8.90949933e-05  8.90649933e-05
atom      7.6666182180     7.6666182180     7.6666182180   Al  0.0 0.0    1.49999989e-07  1.89999986e-07  1.94999985e-07
atom     11.5030951736    11.5030951736     7.6699240638   Al  0.0 0.0    1.01049992e-05  1.01049992e-05 -7.02599947e-05
atom     11.5030951736     7.6699240638    11.5030951736   Al  0.0 0.0    1.00549992e-05 -7.02349947e-05  1.00949992e-05
atom      7.6699240638    11.5030951736    11.5030951736   Al  0.0 0.0   -7.02649947e-05  1.00849992e-05  1.01199992e-05
atom      7.6909060645     7.6909060645    15.3332364360   Al  0.0 0.0    7.44999944e-07  7.74999942e-07 -0.00000000e+00
atom     11.5644526525    11.5644526525    15.3332364360   Al  0.0 0.0   -5.20299961e-05 -5.19849961e-05 -3.49999974e-08
atom     11.5030951736     7.6699240638    19.1633807649   Al  0.0 0.0    1.00349992e-05 -7.02249947e-05 -1.01099992e-05
atom      7.6699240638    11.5030951736    19.1633807649   Al  0.0 0.0   -7.02449947e-05  1.00949992e-05 -1.01449992e-05
atom      7.6666182180     7.6666182180    22.9998546539   Al  0.0 0.0    1.64999988e-07  1.69999987e-07 -1.69999987e-07
atom     11.5030951736    11.5030951736    22.9965518748   Al  0.0 0.0    1.00949992e-05  1.01349992e-05  7.02049947e-05
atom     11.4997954611     7.6666182180    26.8330288304   Al  0.0 0.0   -8.90849933e-05  1.24999991e-07 -8.90399933e-05
atom      7.6666182180    11.4997954611    26.8330288304   Al  0.0 0.0    1.49999989e-07 -8.90449933e-05 -8.90549933e-05
atom      7.6666182180    15.3332364360     0.0000000000   Al  0.0 0.0    2.79999979e-07  2.99999977e-08  5.99999955e-08
atom     11.4955849544    19.1708879175     0.0000000000   Al  0.0 0.0   -8.02449940e-05  8.03099940e-05  2.49999981e-08
atom     11.5014913171    15.3332364360     3.8326804463   Al  0.0 0.0   -5.04999962e-06 -4.99999962e-09  7.82999941e-06
atom      7.6666182180    19.1666804774     3.8334440415   Al  0.0 0.0    1.59999988e-07  8.90499933e-05  8.90649933e-05
atom      7.6909060645    15.3332364360     7.6909060645   Al  0.0 0.0    7.89999941e-07 -0.00000000e+00  7.79999941e-07
atom     11.5030951736    19.1633807649     7.6699240638   Al  0.0 0.0    1.00899992e-05 -1.00949992e-05 -7.02649947e-05
atom     11.5644526525    15.3332364360    11.5644526525   Al  0.0 0.0   -5.19899961e-05 -2.49999981e-08 -5.19899961e-05
atom      7.6699240638    19.1633807649    11.5030951736   Al  0.0 0.0   -7.02349947e-05 -1.01099992e-05  1.00749992e-05
atom      7.6754532288    15.3332364360    15.3332364360   Al  0.0 0.0   -4.02849970e-05 -4.99999962e-08 -1.99999985e-08
atom     11.5644526525    19.1020202194    15.3332364360   Al  0.0 0.0   -5.20549961e-05  5.20149961e-05 -2.99999977e-08
atom     11.5644526525    15.3332364360    19.1020202194   Al  0.0 0.0   -5.20449961e-05 -1.49999989e-08  5.20699961e-05
atom      7.6699240638    19.1633807649    19.1633807649   Al  0.0 0.0   -7.02099947e-05 -1.01199992e-05 -1.00949992e-05
atom      7.6909060645    15.3332364360    22.9755698741   Al  0.0 0.0    7.94999940e-07  9.99999925e-09 -8.09999939e-07
atom     11.5030951736    19.1633807649    22.9965518748   Al  0.0 0.0    1.01349992e-05 -1.00949992e-05  7.02449947e-05
atom     11.5014913171    15.3332364360    26.8337924256   Al  0.0 0.0   -4.97499963e-06  4.99999962e-09 -7.86999941e-06
atom      7.6666182180    19.1666804774    26.8330288304   Al  0.0 0.0    1.69999987e-07  8.90649933e-05 -8.90949933e-05
atom      7.6423303715    23.0241425004     0.0000000000   Al  0.0 0.0   -5.89999956e-07  6.24999953e-07  4.99999962e-09
atom     11.5005651896    26.8347216197     0.0000000000   Al  0.0 0.0   -8.28499938e-06 -4.73999964e-06  4.99999962e-09
atom     11.4997954611    22.9998546539     3.8334440415   Al  0.0 0.0   -8.90249933e-05 -1.49999989e-07  8.90449933e-05
atom      7.6633154388    26.8363224096     3.8301504623   Al  0.0 0.0    7.04199947e-05  1.05249992e-05 -1.05649992e-05
atom      7.6666182180    22.9998546539     7.6666182180   Al  0.0 0.0    1.89999986e-07 -1.64999988e-07  1.54999988e-07
atom     11.4997954611    26.8330288304     7.6666182180   Al  0.0 0.0   -8.90749933e-05 -8.90899933e-05  7.99999940e-08
atom     11.5030951736    22.9965518748    11.5030951736   Al  0.0 0.0    1.00649992e-05  7.01849947e-05  1.00699992e-05
atom      7.6666182180    26.8330288304    11.4997954611   Al  0.0 0.0    1.09999992e-07 -8.90799933e-05 -8.90849933e-05
atom      7.6909060645    22.9755698741    15.3332364360   Al  0.0 0.0    7.54999943e-07 -8.09999939e-07  1.49999989e-08
atom     11.5014913171    26.8337924256    15.3332364360   Al  0.0 0.0   -5.05999962e-06 -7.91499941e-06  0.00000000e+00
atom     11.5030951736    22.9965518748    19.1633807649   Al  0.0 0.0    1.01149992e-05  7.02149947e-05 -1.00349992e-05
atom      7.6666182180    26.8330288304    19.1666804774   Al  0.0 0.0    1.29999990e-07 -8.90649933e-05  8.90799933e-05
atom      7.6666182180    22.9998546539    22.9998546539   Al  0.0 0.0    1.99999985e-07 -1.49999989e-07 -1.24999991e-07
atom     11.4997954611    26.8330288304    22.9998546539   Al  0.0 0.0   -8.90249933e-05 -8.90799933e-05 -1.09999992e-07
atom     11.4997954611    22.9998546539    26.8330288304   Al  0.0 0.0   -8.90199933e-05 -1.29999990e-07 -8.90649933e-05
atom      7.6633154388    26.8363224096    26.8363224096   Al  0.0 0.0    7.04599947e-05  1.05549992e-05  1.05549992e-05
atom     15.3332364360     0.0000000000     0.0000000000   Al  0.0 0.0   -0.00000000e+00 -4.99999962e-08  4.99999962e-09
atom     19.1659076823     3.8317512522     0.0000000000   Al  0.0 0.0    8.29999938e-06  4.75499964e-06  0.00000000e+00
atom     19.1659076823     0.0000000000     3.8317512522   Al  0.0 0.0    8.29499938e-06 -3.49999974e-08  4.68499965e-06
atom     15.3332364360     3.8376514815     3.8376514815   Al  0.0 0.0    1.49999989e-08  8.02699940e-05  8.02299940e-05
atom     15.3332364360     0.0000000000     7.6666182180   Al  0.0 0.0    4.99999962e-09 -2.49999981e-08  1.84999986e-07
atom     19.1666804774     3.8334440415     7.6666182180   Al  0.0 0.0    8.90299933e-05  8.90999933e-05  1.14999991e-07
atom     19.1708879175     0.0000000000    11.4955849544   Al  0.0 0.0    8.03199940e-05  1.99999985e-08 -8.02999940e-05
atom     15.3332364360     3.8326804463    11.5014913171   Al  0.0 0.0   -0.00000000e+00  7.86999941e-06 -5.06499962e-06
atom     15.3332364360     0.0000000000    15.3332364360   Al  0.0 0.0   -4.99999962e-09 -0.00000000e+00 -4.99999962e-09
atom     19.1649815548     3.8326804463    15.3332364360   Al  0.0 0.0    5.12999961e-06  7.91999940e-06  0.00000000e+00
atom     19.1708879175     0.0000000000    19.1708879175   Al  0.0 0.0    8.03199940e-05  0.00000000e+00  8.03199940e-05
atom     15.3332364360     3.8326804463    19.1649815548   Al  0.0 0.0    1.99999985e-08  7.90999941e-06  5.10499962e-06
atom     15.3332364360     0.0000000000    22.9998577206   Al  0.0 0.0    3.49999974e-08 -9.99999925e-09 -2.19999983e-07
atom     19.1666804774     3.8334440415    22.9998546539   Al  0.0 0.0    8.90249933e-05  8.90849933e-05 -1.39999989e-07
atom     19.1659076823     0.0000000000    26.8347216197   Al  0.0 0.0    8.30999938e-06 -4.99999962e-08 -4.68999965e-06
atom     15.3332364360     3.8376514815    26.8288213904   Al  0.0 0.0    1.99999985e-08  8.02599940e-05 -8.02849940e-05
atom     15.3332364360     7.6666182180     0.0000000000   Al  0.0 0.0    2.99999977e-08  2.24999983e-07  2.99999977e-08
atom     19.1708879175    11.4955849544     0.0000000000   Al  0.0 0.0    8.02599940e-05 -8.02599940e-05  2.49999981e-08
atom     19.1666804774     7.6666182180     3.8334440415   Al  0.0 0.0    8.89999933e-05  1.04999992e-07  8.91049933e-05
atom     15.3332364360    11.5014913171     3.8326804463   Al  0.0 0.0   -2.49999981e-08 -5.02999962e-06  7.81999941e-06
atom     15.3332364360     7.6909060645     7.6909060645   Al  0.0 0.0    9.99999925e-09  7.84999941e-07  7.49999944e-07
atom     19.1633807649    11.5030951736     7.6699240638   Al  0.0 0.0   -1.00999992e-05  1.01149992e-05 -7.02399947e-05
atom     19.1633807649     7.6699240638    11.5030951736   Al  0.0 0.0   -1.00749992e-05 -7.02249947e-05  1.00699992e-05
atom     15.3332364360    11.5644526525    11.5644526525   Al  0.0 0.0   -2.49999981e-08 -5.19599961e-05 -5.20149961e-05
atom     15.3332364360     7.6754532288    15.3332364360   Al  0.0 0.0   -4.99999962e-09 -4.02599970e-05 -9.99999925e-09
atom     19.1020202194    11.5644526525    15.3332364360   Al  0.0 0.0    5.20699961e-05 -5.19949961e-05 -0.00000000e+00
atom     19.1633807649     7.6699240638    19.1633807649   Al  0.0 0.0   -1.00749992e-05 -7.02149947e-05 -1.00799992e-05
atom     15.3332364360    11.5644526525    19.1020202194   Al  0.0 0.0    4.99999962e-09 -5.20049961e-05  5.20349961e-05
atom     15.3332364360     7.6909060645    22.9755698741   Al  0.0 0.0    1.49999989e-08  7.59999943e-07 -7.84999941e-07
atom     19.1633807649    11.5030951736    22.9965518748   Al  0.0 0.0   -1.00949992e-05  1.01049992e-05  7.02199947e-05
atom     19.1666804774     7.6666182180    26.8330288304   Al  0.0 0.0    8.90299933e-05  1.14999991e-07 -8.90649933e-05
atom     15.3332364360    11.5014913171    26.8337924256   Al  0.0 0.0   -1.49999989e-08 -5.00999962e-06 -7.88499941e-06
atom     15.3332364360    15.3332364360     0.0000000000   Al  0.0 0.0   -1.49999989e-08  1.49999989e-08  1.49999989e-08
atom     19.1708879175    19.1708879175     0.0000000000   Al  0.0 0.0    8.02299940e-05  8.02999940e-05  1.99999985e-08
atom     19.1649815548    15.3332364360     3.8326804463   Al  0.0 0.0    5.01499962e-06  2.49999981e-08  7.84999941e-06
atom     15.3332364360    19.1649815548     3.8326804463   Al  0.0 0.0    1.99999985e-08  5.08499962e-06  7.82499941e-06
atom     15.3332364360    15.3332364360     7.6754532288   Al  0.0 0.0   -4.99999962e-09 -4.99999962e-09 -4.02649970e-05
atom     19.1633807649    19.1633807649     7.6699240638   Al  0.0 0.0   -1.01149992e-05 -1.01249992e-05 -7.02449947e-05
atom     19.1020202194    15.3332364360    11.5644526525   Al  0.0 0.0    5.20499961e-05 -1.99999985e-08 -5.20299961e-05
atom     15.3332364360    19.1020202194    11.5644526525   Al  0.0 0.0   -2.99999977e-08  5.19849961e-05 -5.20649961e-05
atom     19.1020202194    19.1020202194    15.3332364360   Al  0.0 0.0    5.20999961e-05  5.20449961e-05 -9.99999925e-09
atom     19.1020202194    15.3332364360    19.1020202194   Al  0.0 0.0    5.20649961e-05 -1.49999989e-08  5.20549961e-05
atom     15.3332364360    19.1020202194    19.1020202194   Al  0.0 0.0    4.99999962e-09  5.20749961e-05  5.21249961e-05
atom     15.3332364360    15.3332364360    22.9910227097   Al  0.0 0.0   -1.49999989e-08  3.99999970e-08  4.03449970e-05
atom     19.1633807649    19.1633807649    22.9965518748   Al  0.0 0.0   -1.01699992e-05 -1.00949992e-05  7.02549947e-05
atom     19.1649815548    15.3332364360    26.8337924256   Al  0.0 0.0    5.04999962e-06  3.99999970e-08 -7.87999941e-06
atom     15.3332364360    19.1649815548    26.8337924256   Al  0.0 0.0    1.49999989e-08  5.09499962e-06 -7.86999941e-06
atom     15.3332364360    22.9998577206     0.0000000000   Al  0.0 0.0   -4.99999962e-09 -2.64999980e-07  3.49999974e-08
atom     19.1659076823    26.8347216197     0.0000000000   Al  0.0 0.0    8.28999938e-06 -4.69999965e-06 -9.99999925e-09
atom     19.1666804774    22.9998546539     3.8334440415   Al  0.0 0.0    8.90049933e-05 -1.59999988e-07  8.90149933e-05
atom     15.3332364360    26.8288213904     3.8376514815   Al  0.0 0.0    1.49999989e-08 -8.03099940e-05  8.02099940e-05
atom     15.3332364360    22.9755698741     7.6909060645   Al  0.0 0.0    4.99999962e-09 -8.09999939e-07  7.14999946e-07
atom     19.1666804774    26.8330288304     7.6666182180   Al  0.0 0.0    8.90499933e-05 -8.90649933e-05  9.99999925e-08
atom     19.1633807649    22.9965518748    11.5030951736   Al  0.0 0.0   -1.00699992e-05  7.02049947e-05  1.01099992e-05
atom     15.3332364360    26.8337924256    11.5014913171   Al  0.0 0.0   -0.00000000e+00 -7.91999940e-06 -5.06999962e-06
atom     15.3332364360    22.9910227097    15.3332364360   Al  0.0 0.0    4.99999962e-09  4.03199970e-05  1.49999989e-08
atom     19.1649815548    26.8337924256    15.3332364360   Al  0.0 0.0    5.08999962e-06 -7.89499941e-06  2.49999981e-08
atom     19.1633807649    22.9965518748    19.1633807649   Al  0.0 0.0   -1.01249992e-05  7.02199947e-05 -1.00799992e-05
atom     15.3332364360    26.8337924256    19.1649815548   Al  0.0 0.0    1.49999989e-08 -7.90999941e-06  5.12499961e-06
atom     15.3332364360    22.9755698741    22.9755698741   Al  0.0 0.0    9.99999925e-09 -7.94999940e-07 -7.64999943e-07
atom     19.1666804774    26.8330288304    22.9998546539   Al  0.0 0.0    8.90099933e-05 -8.90949933e-05 -7.99999940e-08
atom     19.1666804774    22.9998546539    26.8330288304   Al  0.0 0.0    8.89849933e-05 -1.19999991e-07 -8.90249933e-05
atom     15.3332364360    26.8288213904    26.8288213904   Al  0.0 0.0    2.49999981e-08 -8.02899940e-05 -8.02699940e-05
atom     23.0086835315     0.0000000000     0.0000000000   Al  0.0 0.0   -4.03649970e-05 -3.99999970e-08 -4.99999962e-09
atom     26.8976860218     3.7687899167     0.0000000000   Al  0.0 0.0   -5.19349961e-05  5.18299961e-05  1.49999989e-08
atom     26.8976860218     0.0000000000     3.7687899167   Al  0.0 0.0   -5.19349961e-05  2.49999981e-08  5.18749961e-05
atom     23.0031574331     3.8301504623     3.8301504623   Al  0.0 0.0   -7.04349947e-05 -1.05699992e-05 -1.05449992e-05
atom     23.0241425004     0.0000000000     7.6423303715   Al  0.0 0.0    6.54999951e-07  9.99999925e-09 -6.44999952e-07
atom     26.8363224096     3.8301504623     7.6633154388   Al  0.0 0.0    1.05749992e-05 -1.05499992e-05  7.04249947e-05
atom     26.8347216197     0.0000000000    11.5005651896   Al  0.0 0.0   -4.65999965e-06  5.49999959e-08 -8.28499938e-06
atom     22.9998546539     3.8334440415    11.4997954611   Al  0.0 0.0   -1.14999991e-07  8.90949933e-05 -8.90599933e-05
atom     22.9998577206     0.0000000000    15.3332364360   Al  0.0 0.0   -2.19999983e-07  5.99999955e-08  2.99999977e-08
atom     26.8288213904     3.8376514815    15.3332364360   Al  0.0 0.0   -8.02549940e-05  8.02749940e-05 -0.00000000e+00
atom     26.8347216197     0.0000000000    19.1659076823   Al  0.0 0.0   -4.69499965e-06  3.99999970e-08  8.33499937e-06
atom     22.9998546539     3.8334440415    19.1666804774   Al  0.0 0.0   -1.14999991e-07  8.90849933e-05  8.90099933e-05
atom     23.0241425004     0.0000000000    23.0241425004   Al  0.0 0.0    6.44999952e-07 -1.49999989e-08  6.34999952e-07
atom     26.8363224096     3.8301504623    23.0031574331   Al  0.0 0.0    1.05749992e-05 -1.05449992e-05 -7.04499947e-05
atom     26.8976860218     0.0000000000    26.8976860218   Al  0.0 0.0   -5.18749961e-05  4.49999966e-08 -5.18949961e-05
atom     23.0031574331     3.8301504623    26.8363224096   Al  0.0 0.0   -7.04249947e-05 -1.05499992e-05  1.05499992e-05
atom     23.0241425004     7.6423303715     0.0000000000   Al  0.0 0.0    6.19999953e-07 -6.44999952e-07  4.99999962e-09
atom     26.8347216197    11.5005651896     0.0000000000   Al  0.0 0.0   -4.75499964e-06 -8.32499937e-06  4.49999966e-08
atom     26.8363224096     7.6633154388     3.8301504623   Al  0.0 0.0    1.05699992e-05  7.03999947e-05 -1.04849992e-05
atom     22.9998546539    11.4997954611     3.8334440415   Al  0.0 0.0   -1.49999989e-07 -8.90349933e-05  8.91149933e-05
atom     22.9998546539     7.6666182180     7.6666182180   Al  0.0 0.0   -1.24999991e-07  1.79999986e-07  2.04999985e-07
atom     26.8330288304    11.4997954611     7.6666182180   Al  0.0 0.0   -8.90549933e-05 -8.90699933e-05  1.69999987e-07
atom     26.8330288304     7.6666182180    11.4997954611   Al  0.0 0.0   -8.90299933e-05  1.44999989e-07 -8.90649933e-05
atom     22.9965518748    11.5030951736    11.5030951736   Al  0.0 0.0    7.02349947e-05  1.01149992e-05  1.00949992e-05
atom     22.9755698741     7.6909060645    15.3332364360   Al  0.0 0.0   -7.59999943e-07  7.64999943e-07  9.99999925e-09
atom     26.8337924256    11.5014913171    15.3332364360   Al  0.0 0.0   -7.87499941e-06 -5.04499962e-06 -4.49999966e-08
atom     26.8330288304     7.6666182180    19.1666804774   Al  0.0 0.0   -8.90599933e-05  1.34999990e-07  8.90049933e-05
atom     22.9965518748    11.5030951736    19.1633807649   Al  0.0 0.0    7.02399947e-05  1.00799992e-05 -1.01199992e-05
atom     22.9998546539     7.6666182180    22.9998546539   Al  0.0 0.0   -1.29999990e-07  1.64999988e-07 -1.74999987e-07
atom     26.8330288304    11.4997954611    22.9998546539   Al  0.0 0.0   -8.90849933e-05 -8.90699933e-05 -1.84999986e-07
atom     26.8363224096     7.6633154388    26.8363224096   Al  0.0 0.0    1.05049992e-05  7.04099947e-05  1.05049992e-05
atom     22.9998546539    11.4997954611    26.8330288304   Al  0.0 0.0   -1.59999988e-07 -8.90649933e-05 -8.90949933e-05
atom     22.9998577206    15.3332364360     0.0000000000   Al  0.0 0.0   -2.99999977e-07 -4.99999962e-09  1.99999985e-08
atom     26.8347216197    19.1659076823     0.0000000000   Al  0.0 0.0   -4.72999964e-06  8.37999937e-06  3.99999970e-08
atom     26.8288213904    15.3332364360     3.8376514815   Al  0.0 0.0   -8.03149940e-05 -1.99999985e-08  8.02799940e-05
atom     22.9998546539    19.1666804774     3.8334440415   Al  0.0 0.0   -1.84999986e-07  8.90299933e-05  8.90349933e-05
atom     22.9755698741    15.3332364360     7.6909060645   Al  0.0 0.0   -8.19999938e-07 -1.99999985e-08  7.84999941e-07
atom     26.8330288304    19.1666804774     7.6666182180   Al  0.0 0.0   -8.91049933e-05  8.90449933e-05  1.34999990e-07
atom     26.8337924256    15.3332364360    11.5014913171   Al  0.0 0.0   -7.88499941e-06 -7.99999940e-08 -4.97499963e-06
atom     22.9965518748    19.1633807649    11.5030951736   Al  0.0 0.0    7.02199947e-05 -1.01299992e-05  1.01199992e-05
atom     22.9910227097    15.3332364360    15.3332364360   Al  0.0 0.0    4.03099970e-05 -3.49999974e-08 -3.49999974e-08
atom     26.8337924256    19.1649815548    15.3332364360   Al  0.0 0.0   -7.88499941e-06  5.07999962e-06  4.99999962e-09
atom     26.8337924256    15.3332364360    19.1649815548   Al  0.0 0.0   -7.88999941e-06 -2.99999977e-08  5.06999962e-06
atom     22.9965518748    19.1633807649    19.1633807649   Al  0.0 0.0    7.02349947e-05 -1.00999992e-05 -1.01399992e-05
atom     22.9755698741    15.3332364360    22.9755698741   Al  0.0 0.0   -8.09999939e-07 -4.99999962e-09 -8.04999939e-07
atom     26.8330288304    19.1666804774    22.9998546539   Al  0.0 0.0   -8.90599933e-05  8.90999933e-05 -1.49999989e-07
atom     26.8288213904    15.3332364360    26.8288213904   Al  0.0 0.0   -8.03399940e-05 -0.00000000e+00 -8.03399940e-05
atom     22.9998546539    19.1666804774    26.8330288304   Al  0.0 0.0   -1.69999987e-07  8.91099933e-05 -8.90449933e-05
atom     23.0241425004    23.0241425004     0.0000000000   Al  0.0 0.0    5.99999955e-07  6.44999952e-07 -4.99999962e-09
atom     26.8976860218    26.8976860218     0.0000000000   Al  0.0 0.0   -5.19299961e-05 -5.18849961e-05  3.49999974e-08
atom     26.8363224096    23.0031574331     3.8301504623   Al  0.0 0.0    1.05249992e-05 -7.04249947e-05 -1.05699992e-05
atom     23.0031574331    26.8363224096     3.8301504623   Al  0.0 0.0   -7.04299947e-05  1.05749992e-05 -1.05849992e-05
atom     22.9998546539    22.9998546539     7.6666182180   Al  0.0 0.0   -1.69999987e-07 -1.54999988e-07  1.49999989e-07
atom     26.8363224096    26.8363224096     7.6633154388   Al  0.0 0.0    1.05249992e-05  1.05799992e-05  7.04349947e-05
atom     26.8330288304    22.9998546539    11.4997954611   Al  0.0 0.0   -8.90949933e-05 -1.39999989e-07 -8.90199933e-05
atom     22.9998546539    26.8330288304    11.4997954611   Al  0.0 0.0   -1.24999991e-07 -8.90649933e-05 -8.90449933e-05