begin
comment uuid: be696773-63f8-41a5-95fc-5269c6a6a7ee
lattice      5.8248532967    -5.8248532967     0.0000000000
lattice     -5.8248532967     0.0000000000    -5.8248532967
lattice      5.8248532967     5.8248532967     0.0000000000
atom      0.0000000000     0.0000000000     0.0000000000   Al  0.0 0.0    0.00000000e+00  0.00000000e+00 -5.00000000e-09
atom      2.9124270000     2.9124270000     0.0000000000   Al  0.0 0.0    5.00000000e-09 -1.00000000e-08  0.00000000e+00
atom     -2.9124270000    -0.0000000000    -2.9124270000   Al  0.0 0.0    5.00000000e-09  1.00000000e-08 -1.00000000e-08
atom     -0.0000000000     2.9124270000    -2.9124270000   Al  0.0 0.0    5.00000000e-09 -5.00000000e-09 -5.00000000e-09
atom      2.9124270000    -2.9124270000     0.0000000000   Al  0.0 0.0   -5.00000000e-09  0.00000000e+00  5.00000000e-09
atom      5.8248530000    -0.0000000000     0.0000000000   Al  0.0 0.0    5.00000000e-09  0.00000000e+00  1.00000000e-08
atom     -0.0000000000    -2.9124270000    -2.9124270000   Al  0.0 0.0   -5.00000000e-09 -0.00000000e+00 -5.00000000e-09
atom      2.9124270000    -0.0000000000    -2.9124270000   Al  0.0 0.0   -1.00000000e-08  5.00000000e-09  5.00000000e-09
energy -1.565429588450000e+02
charge 0.0000
end
begin
comment uuid: be696773-63f8-41a5-95fc-5269c6a6a7ee
lattice      5.8248532967    -5.8248532967     0.0000000000
lattice     -5.8248532967     0.0000000000    -5.8248532967
lattice      5.8248532967     5.8248532967     0.0000000000
atom      0.0000000000     0.0000000000     0.0000000000   Al  0.0 0.0    0.00000000e+00  0.00000000e+00 -5.00000000e-09
atom      2.9124270000     2.9124270000     0.0000000000   Al  0.0 0.0    5.00000000e-09 -1.00000000e-08  0.00000000e+00
atom     -2.9124270000    -0.0000000000    -2.9124270000   Al  0.0 0.0    5.00000000e-09  1.00000000e-08 -1.00000000e-08
atom     -0.0000000000     2.9124270000    -2.9124270000   Al  0.0 0.0    5.00000000e-09 -5.00000000e-09 -5.00000000e-09
atom      2.9124270000    -2.9124270000     0.0000000000   Al  0.0 0.0   -5.00000000e-09  0.00000000e+00  5.00000000e-09
atom      5.8248530000    -0.0000000000     0.0000000000   Al  0.0 0.0    5.00000000e-09  0.00000000e+00  1.00000000e-08
atom     -0.0000000000    -2.9124270000    -2.9124270000   Al  0.0 0.0   -5.00000000e-09 -0.00000000e+00 -5.00000000e-09
atom      2.9124270000    -0.0000000000    -2.9124270000   Al  0.0 0.0   -1.00000000e-08  5.00000000e-09  5.00000000e-09
energy -1.565429588450000e+02
charge 0.0000
end
begin
comment uuid: be696773-63f8-41a5-95fc-5269c6a6a7ee
lattice      5.8248532967    -5.8248532967     0.0000000000
lattice     -5.8248532967     0.0000000000    -5.8248532967
lattice      5.8248532967     5.8248532967     0.0000000000
atom      0.0000000000     0.0000000000     0.0000000000   Al  0.0 0.0    0.00000000e+00  0.00000000e+00 -5.00000000e-09
atom      2.9124270000     2.9124270000     0.0000000000   Al  0.0 0.0    5.00000000e-09 -1.00000000e-08  0.00000000e+00
atom     -2.9124270000    -0.0000000000    -2.9124270000   Al  0.0 0.0    5.00000000e-09  1.00000000e-08 -1.00000000e-08
atom     -0.0000000000     2.9124270000    -2.9124270000   Al  0.0 0.0    5.00000000e-09 -5.00000000e-09 -5.00000000e-09
atom      2.9124270000    -2.9124270000     0.0000000000   Al  0.0 0.0   -5.00000000e-09  0.00000000e+00  5.00000000e-09
atom      5.8248530000    -0.0000000000     0.0000000000   Al  0.0 0.0    5.00000000e-09  0.00000000e+00  1.00000000e-08
atom     -0.0000000000    -2.9124270000    -2.9124270000   Al  0.0 0.0   -5.00000000e-09 -0.00000000e+00 -5.00000000e-09
atom      2.9124270000    -0.0000000000    -2.9124270000   Al  0.0 0.0   -1.00000000e-08  5.00000000e-09  5.00000000e-09
energy -1.565429588450000e+02
charge 0.0000
end
