LAMMPS (18 Feb 2020)
  using 1 OpenMP thread(s) per MPI task
Total wall time: 0:00:00
time0, for standardimports -1.299101859331131e-05
time1, for myutils 4.2153988033533096e-05
time1, for ase_calc... -1.526111736893654e-05
time3, after help  ... 3.534369170665741e-06
__main__ after p = help 1.51805579662323e-06
__main__ after parsing help 2.0689330995082855e-06
########################################## argparse values (begin) #########
# inputfile                           ../test.data         <class 'str'>   #
# sys                                 False                <class 'bool'>  #
# sys_ele                             False                <class 'bool'>  #
# sys_ncell                           1                    <class 'int'>   #
# sys_cell                            cubic                <class 'str'>   #
# exectue_function_myutils                                 <class 'str'>   #
# execute_function                                         <class 'str'>   #
# format_in                           runner               <class 'str'>   #
# remove_unknown_elements_from_structures False                <class 'bool'>  #
# potpath                             ..                   <class 'str'>   #
# show_availabel_pots                 False                <class 'bool'>  #
# potepoch                            False                <class 'bool'>  #
# structures_idx                      :                    <class 'str'>   #
# units                               meV_pa               <class 'str'>   #
# interstitial_form                   False                <class 'bool'>  #
# geopt                               False                <class 'bool'>  #
# elastic                             False                <class 'bool'>  #
# thermo                              False                <class 'bool'>  #
# evinet                              False                <class 'bool'>  #
# fqh                                 False                <class 'bool'>  #
# fah                                 False                <class 'bool'>  #
# fqh_atoms_max                       200                  <class 'int'>   #
# fqh_supercell                       None                 <class 'NoneType'> #
# fah_atoms_max                       200                  <class 'int'>   #
# fah_supercell                       None                 <class 'NoneType'> #
# elastic_all                         False                <class 'bool'>  #
# elastic_from_ene                    False                <class 'bool'>  #
# ase                                 True                 <class 'bool'>  #
# lmp                                 False                <class 'bool'>  #
# ipi                                 False                <class 'bool'>  #
# test_this_script                    False                <class 'bool'>  #
# formation_energies                  None                 <class 'NoneType'> #
# test3                               False                <class 'bool'>  #
# testkmc                             False                <class 'bool'>  #
# testkmc_b                           False                <class 'bool'>  #
# testkmc_l                           False                <class 'bool'>  #
# testkmc_a                           False                <class 'bool'>  #
# testaccuracy_kmc_approx             False                <class 'bool'>  #
# check_testdata                      False                <class 'bool'>  #
# check_traindata                     False                <class 'bool'>  #
# check_inputdata                     False                <class 'bool'>  #
# check_kmc57data                     False                <class 'bool'>  #
# check_outliers                      False                <class 'bool'>  #
# analyze_kmc_number_1NN_2NN_ext      False                <class 'bool'>  #
# analyze_kmc_number_1NN_2NN_ipi      False                <class 'bool'>  #
# analyze_kmc_number_1NN_2NN_post     False                <class 'bool'>  #
# pick_concentration_al               -1.0                 <class 'float'> #
# pick_concentration_mg               -1.0                 <class 'float'> #
# pick_concentration_si               -1.0                 <class 'float'> #
# pick_atoms_al                       -1.0                 <class 'float'> #
# pick_atoms_mg                       -1.0                 <class 'float'> #
# pick_atoms_si                       -1.0                 <class 'float'> #
# pick_number_of_atoms                -1.0                 <class 'float'> #
# pick_forcesmax                      -1.0                 <class 'float'> #
# pick_cellshape                      -1.0                 <class 'float'> #
# pick_c44                            False                <class 'bool'>  #
# pick_amount_1NN                     False                <class 'bool'>  #
# pick_uuid                           -1.0                 <class 'float'> #
# write_runner                        False                <class 'bool'>  #
# write_runner_ene_forces             False                <class 'bool'>  #
# write_DFT_ene_forces                False                <class 'bool'>  #
# write_espresso_job                  False                <class 'bool'>  #
# write_runner_DFT                    False                <class 'bool'>  #
# write_runner_repeated               False                <class 'bool'>  #
# write_forces                        False                <class 'bool'>  #
# write_forcesx                       False                <class 'bool'>  #
# write_analysis                      False                <class 'bool'>  #
# write_analysis_full                 False                <class 'bool'>  #
# print_only_energies                 False                <class 'bool'>  #
# get_harmonic_energy                 False                <class 'bool'>  #
# debug                               False                <class 'bool'>  #
# verbose                             1                    <class 'int'>   #
# uuid                                False                <class 'bool'>  #
########################################## argparse values (end  ) #########
>> formats.py /home/glensk/.local/lib/python3.7/site-packages/ase/io/formats.py
>> formats.py knows runner
>> formats.py knows lammpsrunner
>> formats.py knows lammps-data
>> formats.py knows ipi
>> formats.py knows quippy
>> vasp.py adapted to write free energies by default.
time00 after ase_formats_check... 9.410548955202103e-06

written  /home/glensk/Dropbox/Albert/scripts/dotfiles/scripts/potentials/n2p2_v7ag_neinth20_28341/investigate_outliers2/README_2020-07-09_12:30:26.txt

getEne(0.1) LD_LIBRARY_PATH            : /ssoft/spack/humagne/v1/opt/spack/linux-rhel7-x86_E5v4_Mellanox/intel-18.0.5/python-3.7.3-t6azvyfvc6hq72fnyfzvereqk54ng4xk/lib:/home/glensk/sources/n2p2/lib:/home/glensk/sources/lammps/src
getEne(0.2) imported lammps
getEne(0.3) lammps
getEne(0.4) check if lammps woring with ase done
getEne(p1) args.potepoch             : False
>> ase_calculate_ene: initializing mypot .... to self.pot
getEne(p2)                           : ace.pot_get_and_ase_lmp_cmd()
PPi self.pot.get()
PPk self.potpath_in ..
PPk self.potpath    /home/glensk/Dropbox/Albert/scripts/dotfiles/scripts/potentials/n2p2_v7ag_neinth20_28341
PPk self.pottype    n2p2
PPk self.pot        ..
self.potepoch_all [341]
self.use_epoch 341
self.potpath_work /home/glensk/._tmp_pot_fidis/
self.potepoch_linked False
self.potepoch_using False
self.potpath /home/glensk/Dropbox/Albert/scripts/dotfiles/scripts/potentials/n2p2_v7ag_neinth20_28341
self.potepoch_linked False
We need to work in a different folder since other epoch is linked!
PPf copy files ... 000341
f_ /home/glensk/Dropbox/Albert/scripts/dotfiles/scripts/potentials/n2p2_v7ag_neinth20_28341/weights.013.000341.out
f_ /home/glensk/Dropbox/Albert/scripts/dotfiles/scripts/potentials/n2p2_v7ag_neinth20_28341/weights.012.000341.out
f_ /home/glensk/Dropbox/Albert/scripts/dotfiles/scripts/potentials/n2p2_v7ag_neinth20_28341/weights.014.000341.out
copying /home/glensk/Dropbox/Albert/scripts/dotfiles/scripts/potentials/n2p2_v7ag_neinth20_28341/weights.013.000341.out to /home/glensk/._tmp_pot_fidis//weights.013.data
copying /home/glensk/Dropbox/Albert/scripts/dotfiles/scripts/potentials/n2p2_v7ag_neinth20_28341/weights.012.000341.out to /home/glensk/._tmp_pot_fidis//weights.012.data
copying /home/glensk/Dropbox/Albert/scripts/dotfiles/scripts/potentials/n2p2_v7ag_neinth20_28341/weights.014.000341.out to /home/glensk/._tmp_pot_fidis//weights.014.data
self.pot_tmpdir /home/glensk/._tmp_pot_fidis/
... copying potential 000341 to /home/glensk/._tmp_pot_fidis/
ace.lmpcmd ['### lmpcmd.begin ###', 'mass 1 24.305', 'mass 2 26.9815386', 'mass 3 28.0855', 'variable nnpDir string "/home/glensk/._tmp_pot_fidis/"', 'pair_style nnp dir ${nnpDir} showew no resetew yes maxew 100000000 cflength 1.8897261258369282 cfenergy 0.03674932247495664', 'pair_coeff * * 10.6', '### lmpcmd.end  ####']
getEne(P): self.potpath_in              ..
getEne(P): self.pot                     ..
getEne(P): self.potpath (source = src)  /home/glensk/Dropbox/Albert/scripts/dotfiles/scripts/potentials/n2p2_v7ag_neinth20_28341
getEne(P): self.pottype                 n2p2
getEne(P): self.potpath_work (typ src)  /home/glensk/._tmp_pot_fidis/
getEne(P): self.inputnn                 /home/glensk/Dropbox/Albert/scripts/dotfiles/scripts/potentials/n2p2_v7ag_neinth20_28341/input.nn
getEne(P): self.inputdata               /home/glensk/Dropbox/Albert/scripts/dotfiles/scripts/potentials/n2p2_v7ag_neinth20_28341/input.data
getEne(P): self.learning_curve_file     /home/glensk/Dropbox/Albert/scripts/dotfiles/scripts/potentials/n2p2_v7ag_neinth20_28341/learning-curve.out
getEne(P): self.potepoch_all            [341]
getEne(P): self.assessed_epochs         []
getEne(P): self.assessed_test           []
getEne(P): self.assessed_train          []
getEne(P): self.assessed_kmc57          []
getEne(P): self.assessed_c44            []
getEne(P): self.use_epoch (from input)  341
getEne(P): self.potepoch_bestteste      2
getEne(P): self.potepoch_linked         False
getEne(P): self.potepoch_using (finaly) False
getEne(P): self.c44_al_file             False
getEne(P): self.c44_al                  False
getEne(P): self.pot_tmpdir              /home/glensk/._tmp_pot_fidis/
getEne(P): self.lammps_tmpdir           /home/glensk/._tmp_lammps_fidis/
getEne(P): self.potlib                  /home/glensk/sources/lammps/src/USER-NNP
getEne(P): self.potcutoff (Angstrom)    10.6
getEne(P): self.elements                ['Al', 'Mg', 'Si']
getEne(P): self.atom_energy             {'Al': -19.6283516, 'Mg': -16.7493351, 'Si': -5.5274864}
getEne(P): self.reference_volumes       {'Al': 16.607531249999997, 'Mg': 23.259574096759252, 'Si': 20.012875874999995}
getEne(P): self.atom_types              {'Mg': 1, 'Al': 2, 'Si': 3}
getEne(P): self.atom_numbers            {'Al': 13, 'Mg': 12, 'Si': 14}
getEne(P): self.atom_masses             {'Al': 26.9815386, 'Mg': 24.305, 'Si': 28.0855}
getEne(P): self.atom_masses_str         ['mass 1 24.305', 'mass 2 26.9815386', 'mass 3 28.0855']
getEne(P): self.potDONE                 True
getEne(P): self.verbose                 1
getEne(P): len(self.pot_all_dict)       170
########################################## argparse values (begin) #########
# inputfile                           ../test.data         <class 'str'>   #
# sys                                 False                <class 'bool'>  #
# sys_ele                             False                <class 'bool'>  #
# sys_ncell                           1                    <class 'int'>   #
# sys_cell                            cubic                <class 'str'>   #
# exectue_function_myutils                                 <class 'str'>   #
# execute_function                                         <class 'str'>   #
# format_in                           runner               <class 'str'>   #
# remove_unknown_elements_from_structures False                <class 'bool'>  #
# potpath                             ..                   <class 'str'>   #
# show_availabel_pots                 False                <class 'bool'>  #
# potepoch                            False                <class 'bool'>  #
# structures_idx                      :                    <class 'str'>   #
# units                               meV_pa               <class 'str'>   #
# interstitial_form                   False                <class 'bool'>  #
# geopt                               False                <class 'bool'>  #
# elastic                             False                <class 'bool'>  #
# thermo                              False                <class 'bool'>  #
# evinet                              False                <class 'bool'>  #
# fqh                                 False                <class 'bool'>  #
# fah                                 False                <class 'bool'>  #
# fqh_atoms_max                       200                  <class 'int'>   #
# fqh_supercell                       None                 <class 'NoneType'> #
# fah_atoms_max                       200                  <class 'int'>   #
# fah_supercell                       None                 <class 'NoneType'> #
# elastic_all                         False                <class 'bool'>  #
# elastic_from_ene                    False                <class 'bool'>  #
# ase                                 True                 <class 'bool'>  #
# lmp                                 False                <class 'bool'>  #
# ipi                                 False                <class 'bool'>  #
# test_this_script                    False                <class 'bool'>  #
# formation_energies                  None                 <class 'NoneType'> #
# test3                               False                <class 'bool'>  #
# testkmc                             False                <class 'bool'>  #
# testkmc_b                           False                <class 'bool'>  #
# testkmc_l                           False                <class 'bool'>  #
# testkmc_a                           False                <class 'bool'>  #
# testaccuracy_kmc_approx             False                <class 'bool'>  #
# check_testdata                      False                <class 'bool'>  #
# check_traindata                     False                <class 'bool'>  #
# check_inputdata                     False                <class 'bool'>  #
# check_kmc57data                     False                <class 'bool'>  #
# check_outliers                      False                <class 'bool'>  #
# analyze_kmc_number_1NN_2NN_ext      False                <class 'bool'>  #
# analyze_kmc_number_1NN_2NN_ipi      False                <class 'bool'>  #
# analyze_kmc_number_1NN_2NN_post     False                <class 'bool'>  #
# pick_concentration_al               -1.0                 <class 'float'> #
# pick_concentration_mg               -1.0                 <class 'float'> #
# pick_concentration_si               -1.0                 <class 'float'> #
# pick_atoms_al                       -1.0                 <class 'float'> #
# pick_atoms_mg                       -1.0                 <class 'float'> #
# pick_atoms_si                       -1.0                 <class 'float'> #
# pick_number_of_atoms                -1.0                 <class 'float'> #
# pick_forcesmax                      -1.0                 <class 'float'> #
# pick_cellshape                      -1.0                 <class 'float'> #
# pick_c44                            False                <class 'bool'>  #
# pick_amount_1NN                     False                <class 'bool'>  #
# pick_uuid                           -1.0                 <class 'float'> #
# write_runner                        False                <class 'bool'>  #
# write_runner_ene_forces             False                <class 'bool'>  #
# write_DFT_ene_forces                False                <class 'bool'>  #
# write_espresso_job                  False                <class 'bool'>  #
# write_runner_DFT                    False                <class 'bool'>  #
# write_runner_repeated               False                <class 'bool'>  #
# write_forces                        False                <class 'bool'>  #
# write_forcesx                       False                <class 'bool'>  #
# write_analysis                      False                <class 'bool'>  #
# write_analysis_full                 False                <class 'bool'>  #
# print_only_energies                 False                <class 'bool'>  #
# get_harmonic_energy                 False                <class 'bool'>  #
# debug                               False                <class 'bool'>  #
# verbose                             1                    <class 'int'>   #
# uuid                                False                <class 'bool'>  #
########################################## argparse values (end  ) #########
getEne(0) args.inputfile             : ../test.data
392
410
idx 0 ../test.data path (i) ../test.data
########################################################
XXX args.inputfile: ../test.data
XXX args.format_in: runner
XXX args.inputfile: ../tes
########################################################
type(frames) <class 'list'>
len(frames) 548
getting DFT data
getting DFT data DONE!
430
501
idx 0 ../test.data path (i) ../test.data
@@@@@@@@@@@@@@@@@@@@@@@@@@@@@@@@@@@@@@@@@@@@@@@@@@@@@@@@@@@@@@@@@@@@@@@@
@@  allepochs: [False]
@@@@@@@@@@@@@@@@@@@@@@@@@@@@@@@@@@@@@@@@@@@@@@@@@@@@@@@@@@@@@@@@@@@@@@@@


Epoch: False
getEne (23): reading args.inputfile ...  : ../test.data
YYY getEne (23): args.format_in ...          : runner
YYY getEne (23): args.structures_idx ...     : :
getEne (24): structures_to_calc          : 548

ase                          : True
lmp                          : False

args.units                   : meV_pa
ace.units                    : mev_pa
geopt                        : False

verbose                      : 1
lmp                          : False
ipi                          : False
write_runner                 : False
write_runner_repeated        : False
--pick_concentration_al      : -1.0
--pick_concentration_mg      : -1.0
--pick_concentration_si      : -1.0
--pick_atoms_al              : -1.0
--pick_atoms_mg              : -1.0
--pick_atoms_si              : -1.0
--pick_number_of_atoms       : -1.0
--pick_forcesmax             : -1.0
--pick_cellshape             : -1.0
--pick_c44                   : False


#                         (mev_pa)                                (mev_pa)       (mev_pa)                  (mev_pa)     (eV/Ang)
#                         (DFT-ref)                                                    ene_pot_wo_..      forces      (if geopt)     Vol per atom    min at dist   VOL_diff_norm
#   i   idx /    from       diff  [atms   Si   Mg   Al]     ene_DFT       ene_pot      .._wo_atomic       DFTmax       E-E_geopt        (Ang^3)      (Angstrom)     (Ang^3)
--------------------------------------------------------------------------------------------------------------------------------------------------------------
range(structures_to_calc) range(0, 548)
    0     0 /    548 R         1.204 [ 100    3    0   96]   -525076.832   -525075.628        -1.204         0.113           nan        15.835         2.681        -0.053  ABC
    1     1 /    548 Q         0.599 [ 100   25    6   68]   -436789.502   -436788.903        -0.599         0.794           nan        16.694         2.561        -0.066  ABC
    2     2 /    548 Q         0.958 [ 100    6    0   93]   -513512.499   -513513.458         0.958         1.238           nan        16.674         2.590        -0.009  ABC
    3     3 /    548 Q         0.513 [ 100    3    0   96]   -525074.179   -525073.666        -0.513         0.996           nan        17.212         2.619         0.030  ABC
    4     4 /    548 Q         0.499 [ 100    0    0  100]   -537396.462   -537395.963         0.266         0.000           nan        18.887         2.989         0.137  ABC
    5     5 /    548 Q         0.184 [ 100   25    6   68]   -436805.643   -436805.459        -0.184         0.414           nan        16.694         2.555        -0.066  ABC
    6     6 /    548 ?         0.078 [ 100   36   36   27]   -369436.243   -369436.165        -0.078         0.063           nan        18.152         2.384        -0.104  ABC
    7     7 /    548 Q         0.008 [ 100   25    6   68]   -436803.152   -436803.144        -0.008         0.604           nan        16.694         2.583        -0.066  ABC
    8     8 /    548 R         7.681 [ 100    0    0  100]   -537325.517   -537317.835         1.736         0.237           nan        19.151         2.868         0.153  ABC
    9     9 /    548 R         4.914 [ 100   50    0   50]   -346048.413   -346053.327         4.914         0.000           nan        13.532         2.600        -0.261  ABC
   10    10 /    548 ?         1.006 [ 100    0  100    0]   -457324.619   -457325.626         1.006         0.103           nan        24.542         3.153         0.055  ABC
   11    11 /    548 Q         0.765 [ 100    0   25   75]   -517408.966   -517409.730         0.765         0.602           nan        18.472         2.741         0.011  ABC
   12    12 /    548 Q         0.373 [ 100    0    3   96]   -534833.787   -534834.160         0.373         0.580           nan        17.212         2.673         0.023  ABC
   13    13 /    548 R         0.078 [ 100    0    6   93]   -532431.663   -532431.584        -0.078         0.043           nan        15.840         2.749        -0.069  ABC
   14    14 /    548 ?         0.734 [ 100   36   45   18]   -362142.770   -362142.036        -0.734         0.348           nan        17.034         2.373        -0.184  ABC
   15    15 /    548 ?         0.301 [ 100   27   22   50]   -415015.469   -415015.168        -0.301         0.119           nan        17.187         2.418        -0.098  ABC
   16    16 /    548 Q         1.420 [ 100   16   30   53]   -449631.886   -449633.306         1.420         0.261           nan        17.647         2.565        -0.080  ABC
   17    17 /    548 ?         1.075 [ 100    0    6   93]   -532436.156   -532435.081        -1.075         0.074           nan        16.640         2.706        -0.022  ABC
   18    18 /    548 Q         0.036 [ 100    0   58   41]   -490526.270   -490526.233        -0.036         0.330           nan        20.166         2.673        -0.017  ABC
   19    19 /    548 R         0.322 [ 100    0    0  100]   -537452.882   -537452.560         0.040         0.000           nan        17.250         2.869         0.039  ABC
   20    20 /    548 R         0.276 [ 100    0    0  100]   -537435.022   -537434.746         0.111         0.000           nan        16.967         2.802         0.022  ABC
   21    21 /    548 R         0.012 [ 100    0    0  100]   -537462.252   -537462.240         0.001         0.000           nan        16.614         2.857         0.000  ABC
   22    22 /    548 Q         0.674 [ 100    3    0   96]   -525029.926   -525029.251        -0.674         0.064           nan        14.757         2.664        -0.117  ABC
   23    23 /    548 ?         1.057 [ 100   54   45    0]   -292577.960   -292579.017         1.057         0.722           nan        18.199         2.364        -0.153  ABC
   24    24 /    548 Q         3.785 [ 100   26   26   46]   -414066.085   -414069.870         3.785         0.425           nan        17.807         2.428        -0.077  ABC
   25    25 /    548 ?         0.036 [ 100    0  100    0]   -457258.710   -457258.745         0.036         0.660           nan        22.099         2.861        -0.050  ABC
   26    26 /    548 Q         1.027 [ 100   50    0   50]   -346088.990   -346087.963        -1.027         0.951           nan        17.012         2.427        -0.071  ABC
   27    27 /    548 ?         8.236 [ 100   21   21   57]   -438259.711   -438251.475        -8.236         0.594           nan        19.169         2.411         0.022  ABC
   28    28 /    548 Q         1.404 [ 100    3    0   96]   -525023.064   -525024.468         1.404         1.627           nan        17.232         2.448         0.031  ABC
   29    29 /    548 ?         1.430 [ 100   54   45    0]   -292586.401   -292587.831         1.430         0.379           nan        19.843         2.382        -0.077  ABC
   30    30 /    548 Q         0.511 [ 100   50   50    0]   -305772.893   -305772.382        -0.511         1.726           nan        17.547         2.383        -0.189  ABC
   31    31 /    548 Q         0.038 [ 100   18   12   68]   -455683.341   -455683.379         0.038         0.933           nan        16.694         2.525        -0.077  ABC
   32    32 /    548 R         1.029 [ 100    0    3   96]   -534792.150   -534791.121        -1.029         0.170           nan        15.491         2.677        -0.079  ABC
   33    33 /    548 Q        11.598 [ 100   50   50    0]   -306136.706   -306125.107       -11.598         0.525           nan        15.918         2.636        -0.264  DDD
   34    34 /    548 Q         0.576 [ 100   18   12   68]   -455683.159   -455683.735         0.576         1.045           nan        16.694         2.505        -0.077  ABC
   35    35 /    548 ?         1.330 [ 100   54   45    0]   -292591.680   -292590.349        -1.330         0.242           nan        19.518         2.391        -0.092  ABC
   36    36 /    548 Q         0.382 [ 100    3    3   93]   -522977.385   -522977.768         0.382         0.669           nan        16.674         2.660        -0.015  ABC
   37    37 /    548 R         1.894 [ 100    0    0  100]   -537389.504   -537387.609         1.349         0.570           nan        18.021         2.868         0.085  ABC
   38    38 /    548 Q         0.201 [ 100   23   23   53]   -429485.687   -429485.486        -0.201         0.356           nan        17.647         2.471        -0.069  ABC
   39    39 /    548 Q         0.317 [ 100    3    0   96]   -525752.796   -525753.113         0.317         1.812           nan        16.188         2.183        -0.031  ABC
   40    40 /    548 Q         0.740 [ 100   21    9   68]   -446232.704   -446233.444         0.740         1.043           nan        16.694         2.562        -0.071  ABC
   41    41 /    548 ?         0.605 [ 100    0  100    0]   -457277.373   -457277.978         0.605         0.430           nan        26.458         3.038         0.138  ABC
   42    42 /    548 Q         0.009 [ 100    0    0  100]   -537354.498   -537354.489         0.432         0.000           nan        19.687         3.031         0.185  ABC
   43    43 /    548 Q         0.085 [ 100    0    0  100]   -537447.715   -537447.630         0.477         0.576           nan        16.483         2.722        -0.008  ABC
   44    44 /    548 ?         7.964 [ 100   54   45    0]   -291911.779   -291919.743         7.964         5.373           nan        13.042         1.984        -0.393  ABC
   45    45 /    548 Q         0.002 [ 100    0    0  100]   -537456.291   -537456.288         1.587         0.013           nan        16.825         2.782         0.013  ABC
   46    46 /    548 Q         0.003 [ 100    0    0   99]   -537144.956   -537144.954        -0.003         0.023           nan        16.759         2.813         0.008  ABC
   47    47 /    548 ?         1.838 [ 100   54   45    0]   -292600.009   -292598.171        -1.838         0.038           nan        17.863         2.377        -0.169  ABC
   48    48 /    548 R         1.089 [ 100   50   50    0]   -305927.450   -305926.362        -1.089         0.000           nan        22.811         2.830         0.054  ABC
   49    49 /    548 R         0.194 [ 100    0    0  100]   -537395.869   -537396.064         2.061         0.085           nan        18.604         2.811         0.120  ABC
   50    50 /    548 Q         0.591 [ 100    0    3   96]   -534891.533   -534892.124         0.591         0.850           nan        16.188         2.335        -0.037  ABC
   51    51 /    548 R         0.296 [ 100    0    3   96]   -534902.791   -534903.087         0.296         0.087           nan        15.251         2.719        -0.093  ABC
   52    52 /    548 Q         0.597 [ 100    3    0   96]   -525031.511   -525030.913        -0.597         2.541           nan        17.232         2.317         0.031  ABC
   53    53 /    548 Q         4.173 [ 100   16   30   53]   -449646.425   -449642.252        -4.173         0.292           nan        17.647         2.452        -0.080  ABC
   54    54 /    548 Q         0.130 [ 100   25    6   68]   -436796.559   -436796.688         0.130         0.934           nan        16.694         2.581        -0.066  ABC
   55    55 /    548 R         0.067 [ 100    3    3   93]   -523002.584   -523002.651         0.067         0.016           nan        16.841         2.843        -0.005  ABC
   56    56 /    548 R         0.610 [ 100    3    3   93]   -522983.133   -522982.523        -0.610         0.061           nan        15.674         2.759        -0.074  ABC
   57    57 /    548 R         3.082 [ 100    0    0  100]   -537306.065   -537309.147         2.761         0.384           nan        19.356         2.868         0.165  ABC
   58    58 /    548 ?         0.232 [ 100    0  100    0]   -457297.413   -457297.645         0.232         0.733           nan        24.542         2.868         0.055  ABC
   59    59 /    548 R         0.030 [ 100    0    0  100]   -537436.588   -537436.558         0.104         0.000           nan        15.530         2.771        -0.065  ABC
   60    60 /    548 Q         0.005 [ 100   25    6   68]   -436783.945   -436783.949         0.005         0.860           nan        16.694         2.559        -0.066  ABC
   61    61 /    548 R         3.008 [ 100    0    0  100]   -537382.940   -537385.948         1.532         0.050           nan        23.613         2.851         0.422  ABC
   62    62 /    548 Q         0.889 [ 100    6    0   93]   -513109.287   -513110.176         0.889         0.090           nan        12.155         2.543        -0.277  ABC
   63    63 /    548 R         3.273 [ 100   50    0   50]   -345880.257   -345883.529         3.273         0.000           nan        12.431         2.528        -0.321  ABC
   64    64 /    548 Q         4.477 [ 100    0    0  100]   -537187.992   -537183.515         8.650         7.845           nan        17.232         2.150         0.038  ABC
   65    65 /    548 Q         0.146 [ 100    0    3   96]   -534868.945   -534868.799        -0.146         2.015           nan        16.188         2.330        -0.037  ABC
   66    66 /    548 ?     38197.928 [ 100    0    0  100]   -532468.860   -570666.788      -265.634         0.000           nan         7.321         2.180        -0.559  DDD
save frames[i] 66
save frames[i] 66
   67    67 /    548 Q         0.755 [ 100   25    6   68]   -436785.168   -436784.413        -0.755         0.889           nan        16.694         2.534        -0.066  ABC
   68    68 /    548 R         1.066 [ 100    0    0  100]   -537212.329   -537213.395         4.485         0.188           nan        23.360         2.868         0.407  ABC
   69    69 /    548 Q         0.179 [ 100    1    8   89]   -523699.555   -523699.376        -0.179         0.215           nan        16.694         2.697        -0.031  ABC
   70    70 /    548 Q         0.906 [ 100    0    3   96]   -534773.356   -534774.262         0.906         0.049           nan        21.174         3.076         0.259  ABC
   71    71 /    548 R         3.555 [ 100  100    0    0]   -155360.270   -155356.715        -3.555         0.000           nan        21.262         2.400         0.062  ABC
   72    72 /    548 Q         0.690 [ 100   25    6   68]   -436786.575   -436787.265         0.690         0.676           nan        16.694         2.522        -0.066  ABC
   73    73 /    548 Q         3.816 [ 100   16   30   53]   -449635.632   -449631.816        -3.816         0.221           nan        17.647         2.621        -0.080  ABC
   74    74 /    548 Q         0.051 [ 100   25    6   68]   -436797.020   -436797.071         0.051         0.554           nan        16.694         2.621        -0.066  ABC
   75    75 /    548 Q         0.195 [ 100    3    0   96]   -525761.212   -525761.017        -0.195         1.361           nan        16.188         2.318        -0.031  ABC
   76    76 /    548 Q         1.156 [ 100    3    0   96]   -525760.075   -525761.231         1.156         3.675           nan        16.188         2.143        -0.031  ABC
   77    77 /    548 Q         2.660 [ 100   26   26   46]   -414069.231   -414066.571        -2.660         0.268           nan        17.807         2.550        -0.077  ABC
   78    78 /    548 R         0.792 [ 100   33   66    0]   -356859.209   -356858.417        -0.792         0.000           nan        20.187         2.700        -0.090  ABC
   79    79 /    548 ?         2.229 [ 100   36   36   27]   -369411.353   -369409.124        -2.229         0.671           nan        17.972         2.354        -0.113  ABC
   80    80 /    548 Q         0.069 [ 100   25    6   68]   -436797.308   -436797.238        -0.069         0.695           nan        16.694         2.610        -0.066  ABC
   81    81 /    548 Q         0.563 [ 100   25    6   68]   -436792.831   -436792.268        -0.563         0.903           nan        16.694         2.601        -0.066  ABC
   82    82 /    548 R         0.925 [ 100   33   66    0]   -356813.679   -356814.604         0.925         0.000           nan        24.474         2.878         0.104  ABC
   83    83 /    548 R         2.312 [ 100    0    0  100]   -537415.488   -537417.800         0.179         0.000           nan        17.182         2.800         0.035  ABC
   84    84 /    548 R         0.309 [ 100    0    0  100]   -537453.725   -537453.416         0.036         0.000           nan        17.217         2.869         0.037  ABC
   85    85 /    548 R         0.358 [ 100    0    0  100]   -537448.176   -537447.818         0.059         0.000           nan        17.419         2.869         0.049  ABC
   86    86 /    548 ?         0.024 [ 100    1    1   97]   -531003.402   -531003.378        -0.024         0.063           nan        16.777         2.709         0.002  ABC
   87    87 /    548 Q         0.350 [ 100    0    0  100]   -537446.194   -537445.844         0.534         0.680           nan        16.483         2.656        -0.008  ABC
   88    88 /    548 R         0.063 [ 100   50    0   50]   -346110.675   -346110.612        -0.063         0.000           nan        16.671         2.520        -0.090  ABC
   89    89 /    548 Q         0.226 [ 100   18   12   68]   -455696.120   -455696.346         0.226         0.731           nan        16.694         2.562        -0.077  ABC
   90    90 /    548 Q         0.604 [ 100    3    0   96]   -525082.307   -525081.703        -0.604         0.594           nan        17.212         2.637         0.030  ABC
   91    91 /    548 Q         0.208 [ 100   25    6   68]   -436782.416   -436782.208        -0.208         0.835           nan        16.694         2.579        -0.066  ABC
   92    92 /    548 R         0.435 [ 100    0   50   50]   -496980.692   -496980.256        -0.435         0.000           nan        24.225         2.855         0.215  ABC
   93    93 /    548 Q         5.377 [ 100   30   16   53]   -409310.342   -409315.719         5.377         0.466           nan        17.647         2.412        -0.058  ABC
   94    94 /    548 Q         1.353 [ 100   50   50    0]   -305873.457   -305872.104        -1.353         0.000           nan        24.563         2.907         0.135  ABC
   95    95 /    548 Q         0.190 [ 100    3    0   96]   -525750.449   -525750.639         0.190         1.906           nan        16.188         2.279        -0.031  ABC
   96    96 /    548 R         0.277 [ 100    0    6   93]   -532446.523   -532446.247        -0.277         0.059           nan        17.341         2.844         0.019  ABC
   97    97 /    548 ?         0.477 [ 100    0  100    0]   -457113.101   -457112.623        -0.477         0.208           nan        33.114         3.274         0.424  ABC
   98    98 /    548 Q         0.065 [ 100   25    6   68]   -436797.472   -436797.537         0.065         0.617           nan        16.694         2.582        -0.066  ABC
   99    99 /    548 Q         0.439 [ 100    0    3   96]   -534730.088   -534729.649        -0.439         3.509           nan        17.232         2.210         0.024  ABC
  100   100 /    548 ?         0.971 [ 100   36   36   27]   -369360.386   -369361.357         0.971         0.469           nan        16.175         2.368        -0.202  ABC
  101   101 /    548 Q         1.045 [ 100    0   50   50]   -496889.674   -496888.629        -1.045         0.000           nan        29.045         3.074         0.457  ABC
  102   102 /    548 R         1.739 [ 100   75    0   25]   -250514.656   -250516.395         1.739         0.000           nan        13.880         2.680        -0.276  ABC
  103   103 /    548 Q         0.838 [ 100  100    0    0]   -154885.647   -154884.809        -0.838         1.272           nan        23.369         2.307         0.168  ABC
  104   104 /    548 Q         1.124 [ 100    3    0   96]   -525100.392   -525099.267        -1.124         0.022           nan        16.200         2.736        -0.031  ABC
  105   105 /    548 Q         5.199 [ 100   23   23   53]   -429519.462   -429514.263        -5.199         0.237           nan        17.647         2.547        -0.069  ABC
  106   106 /    548 R         1.716 [ 100   50   50    0]   -305918.528   -305916.811        -1.716         0.000           nan        23.127         2.811         0.069  ABC
  107   107 /    548 Q         0.446 [ 100   25    6   68]   -436787.119   -436787.564         0.446         0.751           nan        16.694         2.507        -0.066  ABC
  108   108 /    548 Q         0.312 [ 100   21    9   68]   -446243.181   -446242.870        -0.312         0.862           nan        16.694         2.642        -0.071  ABC
  109   109 /    548 Q         0.337 [ 100   15   34   50]   -450123.521   -450123.183        -0.337         0.782           nan        16.694         2.551        -0.141  ABC
  110   110 /    548 R         6.611 [ 100   75    0   25]   -250429.600   -250436.211         6.611         0.000           nan        12.714         2.603        -0.336  ABC
  111   111 /    548 R         0.158 [ 100    0    0  100]   -537417.405   -537417.247         0.181         0.000           nan        18.195         2.869         0.096  ABC
  112   112 /    548 R         6.754 [ 100   50   50    0]   -306183.187   -306189.941         6.754         0.000           nan        20.062         2.965        -0.073  ABC
  113   113 /    548 ?         2.062 [ 100   36   45   18]   -362141.414   -362139.351        -2.062         0.209           nan        20.172         2.456        -0.033  ABC
  114   114 /    548 R         3.611 [ 100    0   25   75]   -517219.071   -517222.682         3.611         0.000           nan        14.156         2.712        -0.225  ABC
  115   115 /    548 ?         0.048 [ 100    0   50   50]   -496920.798   -496920.846         0.048         0.000           nan        27.921         3.034         0.401  ABC
  116   116 /    548 Q         1.518 [ 100   23   23   53]   -429478.004   -429476.486        -1.518         0.271           nan        17.647         2.524        -0.069  ABC
  117   117 /    548 R         0.673 [ 100   33   66    0]   -356873.699   -356873.026        -0.673         0.000           nan        21.346         2.750        -0.038  ABC
  118   118 /    548 R         1.081 [ 100    0   25   75]   -517406.965   -517408.046         1.081         0.000           nan        19.644         3.019         0.075  ABC
  119   119 /    548 Q         0.802 [ 100    0    0  100]   -537402.520   -537401.718         1.885         1.403           nan        17.232         2.524         0.038  ABC
  120   120 /    548 Q         1.467 [ 100   23   23   53]   -429495.710   -429497.177         1.467         0.422           nan        17.647         2.440        -0.069  ABC
  121   121 /    548 Q         2.659 [ 100    0   50   50]   -497350.930   -497348.271        -2.659         0.243           nan        19.458         2.845        -0.024  ABC
  122   122 /    548 ?         3.010 [ 100   36   36   27]   -369414.893   -369411.882        -3.010         0.729           nan        17.612         2.244        -0.131  ABC
  123   123 /    548 R         0.110 [ 100    0   58   41]   -490535.296   -490535.186        -0.110         0.100           nan        20.774         2.686         0.013  ABC
  124   124 /    548 R         0.009 [ 100    3    3   93]   -523000.472   -523000.462        -0.009         0.025           nan        17.008         2.843         0.005  ABC
  125   125 /    548 Q         1.407 [ 100    0    0  100]   -537271.054   -537269.648         6.365         2.324           nan        16.188         2.309        -0.025  ABC
  126   126 /    548 ?         1.133 [ 100   54   45    0]   -292579.271   -292578.138        -1.133         0.714           nan        18.199         2.350        -0.153  ABC
  127   127 /    548 ?         4.534 [ 100   21   21   57]   -438220.505   -438225.039         4.534         0.330           nan        19.169         2.545         0.022  ABC
  128   128 /    548 Q         0.228 [ 100   21    9   68]   -446255.442   -446255.214        -0.228         0.496           nan        16.694         2.642        -0.071  ABC
  129   129 /    548 Q         0.081 [ 100   21    9   68]   -446244.090   -446244.008        -0.081         1.394           nan        16.694         2.485        -0.071  ABC
  130   130 /    548 ?        18.325 [ 100    0    0  100]   -537340.513   -537358.838         0.207         0.000           nan        19.576         3.037         0.179  DDD
  131   131 /    548 Q         0.082 [ 100    0    6   93]   -532439.916   -532439.998         0.082         0.649           nan        16.674         2.688        -0.021  ABC
  132   132 /    548 Q         3.779 [ 100    0   75   25]   -477130.657   -477126.878        -3.779         1.303           nan        16.851         2.566        -0.220  ABC
  133   133 /    548 Q         0.240 [ 100   21    9   68]   -446259.922   -446260.162         0.240         0.766           nan        16.694         2.570        -0.071  ABC
  134   134 /    548 ?         2.982 [ 100   54   45    0]   -292596.395   -292593.413        -2.982         0.580           nan        18.199         2.331        -0.153  ABC
  135   135 /    548 R         0.138 [ 100    0    0  100]   -537459.168   -537459.031         0.014         0.000           nan        16.947         2.869         0.020  ABC
  136   136 /    548 ?         0.306 [ 100   36   44   18]   -362786.646   -362786.952         0.306         0.348           nan        18.486         2.363        -0.112  ABC
  137   137 /    548 R         0.297 [ 100    0    0  100]   -537447.462   -537447.165         0.061         0.545           nan        16.400         2.716        -0.012  ABC
  138   138 /    548 Q         0.568 [ 100   21    9   68]   -446233.110   -446233.678         0.568         1.373           nan        16.694         2.516        -0.071  ABC
  139   139 /    548 ?         1.592 [ 100   54   45    0]   -292580.822   -292582.414         1.592         1.033           nan        18.199         2.296        -0.153  ABC
  140   140 /    548 Q         0.024 [ 100    2    7   89]   -520901.393   -520901.369        -0.024         0.226           nan        16.694         2.628        -0.029  ABC
  141   141 /    548 Q         0.190 [ 100   21    9   68]   -446249.496   -446249.686         0.190         0.552           nan        16.694         2.631        -0.071  ABC
  142   142 /    548 R         0.523 [ 100    3    0   96]   -525054.242   -525053.719        -0.523         0.154           nan        15.491         2.655        -0.073  ABC
  143   143 /    548 Q         0.172 [ 100   25    6   68]   -436798.753   -436798.926         0.172         0.781           nan        16.694         2.632        -0.066  ABC
  144   144 /    548 Q         0.717 [ 100   21    9   68]   -446251.263   -446250.546        -0.717         0.714           nan        16.694         2.639        -0.071  ABC
  145   145 /    548 Q         0.691 [ 100    0    0  100]   -537404.817   -537404.126         1.752         0.049           nan        16.233         2.697        -0.023  ABC
  146   146 /    548 R         0.199 [ 100    0    0  100]   -537419.736   -537419.537         1.333         0.061           nan        18.033         2.811         0.086  ABC
  147   147 /    548 Q         0.135 [ 100    0    0  100]   -537436.638   -537436.504         0.807         0.236           nan        17.063         2.734         0.027  ABC
  148   148 /    548 ?         0.616 [ 100   36   45   18]   -362132.119   -362131.503        -0.616         0.224           nan        20.947         2.473         0.004  ABC
  149   149 /    548 Q         0.091 [ 100    0    3   96]   -534824.293   -534824.384         0.091         0.722           nan        17.212         2.636         0.023  ABC
  150   150 /    548 Q         0.489 [ 100    3    0   96]   -524863.356   -524862.867        -0.489         0.103           nan        13.403         2.568        -0.198  ABC
  151   151 /    548 Q         2.150 [ 100   75   25    0]   -230558.466   -230560.616         2.150         0.000           nan        17.225         2.899        -0.173  ABC
  152   152 /    548 R         0.079 [ 100    3    3   93]   -523000.390   -523000.469         0.079         0.028           nan        17.008         2.839         0.005  ABC
  153   153 /    548 ?         1.433 [ 100   54   45    0]   -292582.369   -292580.936        -1.433         0.261           nan        19.750         2.393        -0.081  ABC
  154   154 /    548 Q         0.077 [ 100    0    3   96]   -534876.385   -534876.308        -0.077         0.037           nan        19.397         2.987         0.154  ABC
  155   155 /    548 R         0.675 [ 100    3    3   93]   -522977.080   -522977.756         0.675         0.066           nan        17.841         2.843         0.054  ABC
  156   156 /    548 R         1.022 [ 100    0   50   50]   -496802.815   -496803.837         1.022         0.000           nan        18.690         2.618        -0.062  ABC
  157   157 /    548 R         0.044 [ 100    0    0  100]   -537461.686   -537461.642         0.004         0.000           nan        16.696         2.859         0.005  ABC
  158   158 /    548 ?         0.323 [ 100   53   46    0]   -294901.138   -294901.461         0.323         0.504           nan        18.196         2.362        -0.154  ABC
  159   159 /    548 ?         0.349 [ 100   54   45    0]   -292620.853   -292621.201         0.349         0.027           nan        18.287         2.393        -0.149  ABC
  160   160 /    548 ?         0.087 [ 100    0  100    0]   -457369.010   -457368.923        -0.087         0.074           nan        23.526         3.149         0.011  ABC
  161   161 /    548 Q         2.094 [ 100    0  100    0]   -457258.036   -457255.941        -2.094         0.000           nan        28.939         3.446         0.244  ABC
  162   162 /    548 ?         0.130 [ 100   54   45    0]   -292580.727   -292580.857         0.130         0.619           nan        18.199         2.399        -0.153  ABC
  163   163 /    548 ?         1.991 [ 100   36   36   27]   -369364.093   -369362.101        -1.991         0.290           nan        15.789         2.268        -0.221  ABC
  164   164 /    548 Q         0.608 [ 100    3    0   96]   -524976.629   -524977.236         0.608         4.004           nan        17.232         2.222         0.031  ABC
  165   165 /    548 Q         1.438 [ 100    0    0  100]   -537397.087   -537395.649         0.268         1.110           nan        16.002         2.615        -0.036  ABC
  166   166 /    548 R         0.351 [ 100    0    0  100]   -537446.066   -537445.715         0.067         0.000           nan        17.486         2.869         0.053  ABC
  167   167 /    548 Q         0.175 [ 100   25    6   68]   -436795.070   -436794.895        -0.175         0.740           nan        16.694         2.544        -0.066  ABC
  168   168 /    548 Q         0.746 [ 100    3    0   96]   -525636.390   -525637.136         0.746         7.142           nan        16.188         2.058        -0.031  ABC
  169   169 /    548 ?         0.298 [ 100   36   45   18]   -362173.554   -362173.851         0.298         0.153           nan        19.393         2.446        -0.071  ABC
  170   170 /    548 Q         0.469 [ 100   12   37   50]   -459584.814   -459584.345        -0.469         0.732           nan        16.694         2.612        -0.145  ABC
  171   171 /    548 Q         1.361 [ 100   21    9   68]   -446239.230   -446237.869        -1.361         1.198           nan        16.694         2.440        -0.071  ABC
  172   172 /    548 Q         0.001 [ 100   25    6   68]   -436785.194   -436785.193        -0.001         1.163           nan        16.694         2.485        -0.066  ABC
  173   173 /    548 Q         0.231 [ 100    0    0  100]   -537428.657   -537428.426         1.057         0.560           nan        17.063         2.666         0.027  ABC
  174   174 /    548 ?         1.375 [ 100   54   45    0]   -292572.266   -292570.891        -1.375         0.733           nan        18.199         2.342        -0.153  ABC
  175   175 /    548 Q         0.438 [ 100   21    9   68]   -446243.718   -446244.156         0.438         0.969           nan        16.694         2.498        -0.071  ABC
  176   176 /    548 Q         0.176 [ 100    0    6   93]   -532419.587   -532419.763         0.176         0.829           nan        16.674         2.591        -0.021  ABC
  177   177 /    548 Q         0.272 [ 100   21    9   68]   -446247.346   -446247.618         0.272         0.701           nan        16.694         2.560        -0.071  ABC
  178   178 /    548 Q         0.746 [ 100   12   37   50]   -459575.344   -459576.090         0.746         0.363           nan        16.694         2.637        -0.145  ABC
  179   179 /    548 Q         0.191 [ 100    6    0   93]   -513529.200   -513529.391         0.191         0.612           nan        16.674         2.682        -0.009  ABC
  180   180 /    548 Q         0.098 [ 100   87    0   12]   -202944.330   -202944.232        -0.098         1.863           nan        20.444         2.208         0.044  ABC
  181   181 /    548 Q         0.208 [ 100   26   26   46]   -414091.379   -414091.587         0.208         0.558           nan        17.807         2.482        -0.077  ABC
  182   182 /    548 ?         0.242 [ 100   21   21   57]   -438221.967   -438222.209         0.242         0.318           nan        19.169         2.613         0.022  ABC
  183   183 /    548 R         2.674 [ 100    0    0  100]   -537413.236   -537415.909         0.187         0.000           nan        17.209         2.800         0.036  ABC
  184   184 /    548 R         1.954 [ 100    0    0  100]   -537417.702   -537419.656         0.172         0.000           nan        17.157         2.800         0.033  ABC
  185   185 /    548 ?         1.476 [ 100   54   45    0]   -292618.600   -292620.076         1.476         0.126           nan        17.836         2.369        -0.170  ABC
  186   186 /    548 Q         0.603 [ 100    3    0   96]   -525067.270   -525066.666        -0.603         1.040           nan        17.212         2.567         0.030  ABC
  187   187 /    548 Q         0.938 [ 100   15   34   50]   -450131.998   -450131.061        -0.938         0.437           nan        16.694         2.627        -0.141  ABC
  188   188 /    548 R         0.092 [ 100    0   58   41]   -490504.252   -490504.160        -0.092         0.226           nan        21.881         2.686         0.067  ABC
  189   189 /    548 Q        27.872 [ 100   50   50    0]   -306158.265   -306130.393       -27.872         0.542           nan        17.355         2.581        -0.198  DDD
  190   190 /    548 Q         0.853 [ 100   15   34   50]   -450139.704   -450138.851        -0.853         0.477           nan        16.694         2.632        -0.141  ABC
  191   191 /    548 R         2.270 [ 100    0   50   50]   -497223.212   -497225.481         2.270         0.000           nan        15.965         2.748        -0.199  ABC
  192   192 /    548 R         5.000 [ 100   50   50    0]   -306215.778   -306220.778         5.000         0.000           nan        17.742         2.846        -0.180  ABC
  193   193 /    548 R         3.661 [ 100   25   75    0]   -381745.267   -381748.928         3.661         0.000           nan        15.798         2.798        -0.296  ABC
  194   194 /    548 R         0.951 [ 100   50    0   50]   -346016.615   -346017.566         0.951         0.000           nan        15.291         2.449        -0.165  ABC
  195   195 /    548 R         0.410 [ 100    0   50   50]   -496911.524   -496911.934         0.410         0.000           nan        20.344         2.712         0.021  ABC
  196   196 /    548 R         0.197 [ 100    0    0  100]   -537398.861   -537399.058         1.968         0.121           nan        15.608         2.693        -0.060  ABC
  197   197 /    548 Q         0.212 [ 100   25    6   68]   -436793.738   -436793.525        -0.212         0.678           nan        16.694         2.614        -0.066  ABC
  198   198 /    548 Q         1.904 [ 100   26   26   46]   -414061.388   -414063.292         1.904         0.384           nan        17.807         2.517        -0.077  ABC
  199   199 /    548 Q         0.093 [ 100   25    6   68]   -436786.068   -436785.974        -0.093         0.788           nan        16.694         2.573        -0.066  ABC
  200   200 /    548 Q         1.516 [ 100   20   26   53]   -439562.101   -439560.585        -1.516         0.364           nan        17.647         2.544        -0.074  ABC
  201   201 /    548 ?         0.407 [ 100   36   45   18]   -362154.477   -362154.884         0.407         0.254           nan        19.968         2.494        -0.043  ABC
  202   202 /    548 R         2.272 [ 100    0   25   75]   -517440.334   -517442.606         2.272         0.000           nan        18.072         2.926        -0.011  ABC
  203   203 /    548 R         0.184 [ 100    0    0  100]   -537423.687   -537423.503         0.156         0.000           nan        18.060         2.869         0.087  ABC
  204   204 /    548 ?         0.298 [ 100    2    2   95]   -526263.858   -526264.156         0.298         0.079           nan        16.834         2.690        -0.001  ABC
  205   205 /    548 Q         0.404 [ 100    0    0  100]   -537450.299   -537449.895         0.051         0.000           nan        15.608         2.805        -0.060  ABC
  206   206 /    548 ?         0.021 [ 100    0    0  100]   -537462.523   -537462.502         0.000         0.000           nan        16.482         2.845        -0.008  ABC
  207   207 /    548 ?        16.223 [ 100    0  100    0]   -456753.342   -456737.119       -16.223         0.000           nan        14.943         2.764        -0.358  DDD
  208   208 /    548 Q         0.290 [ 100   18   12   68]   -455689.248   -455689.537         0.290         0.854           nan        16.694         2.532        -0.077  ABC
  209   209 /    548 ?         1.553 [ 100   54   45    0]   -292586.626   -292585.073        -1.553         0.573           nan        18.199         2.367        -0.153  ABC
  210   210 /    548 R         0.383 [ 100   50   50    0]   -305947.529   -305947.912         0.383         0.000           nan        20.128         2.714        -0.070  ABC
  211   211 /    548 Q         0.136 [ 100   18   12   68]   -455683.859   -455683.995         0.136         0.924           nan        16.694         2.545        -0.077  ABC
  212   212 /    548 R         0.144 [ 100    0    0  100]   -537412.466   -537412.322         0.201         0.000           nan        18.296         2.869         0.102  ABC
  213   213 /    548 Q         0.073 [ 100    0    0  100]   -537390.344   -537390.417         2.164         0.036           nan        18.874         2.836         0.136  ABC
  214   214 /    548 R         0.030 [ 100    0    3   96]   -534837.015   -534836.986        -0.030         0.133           nan        18.073         2.813         0.074  ABC
  215   215 /    548 Q         0.723 [ 100   75   25    0]   -230459.918   -230460.641         0.723         0.000           nan        13.338         2.662        -0.359  ABC
  216   216 /    548 R         0.033 [ 100    6    0   93]   -513548.639   -513548.606        -0.033         0.040           nan        17.008         2.838         0.011  ABC
  217   217 /    548 ?         4.800 [ 100    0  100    0]   -457357.715   -457352.916        -4.800         0.000           nan        24.832         3.354         0.068  ABC
  218   218 /    548 Q         0.192 [ 100   75    0   25]   -250439.557   -250439.365        -0.192         0.949           nan        13.028         2.503        -0.320  ABC
  219   219 /    548 Q        22.559 [ 100   75    0   25]   -250369.464   -250346.905       -22.559         0.629           nan        18.152         2.551        -0.053  DDD
  220   220 /    548 ?         3.786 [ 100   36   45   18]   -362150.792   -362147.006        -3.786         0.836           nan        18.501         2.321        -0.114  ABC
  221   221 /    548 Q         0.092 [ 100    6    0   93]   -513477.126   -513477.218         0.092         0.059           nan        14.296         2.694        -0.150  ABC
  222   222 /    548 Q         0.119 [ 100    3    0   96]   -525080.928   -525080.809        -0.119         0.818           nan        17.232         2.617         0.031  ABC
  223   223 /    548 ?         0.659 [ 100   36   36   27]   -369422.866   -369423.524         0.659         0.194           nan        18.839         2.444        -0.070  ABC
  224   224 /    548 R         0.168 [ 100    3    3   93]   -522997.282   -522997.450         0.168         0.054           nan        16.007         2.777        -0.054  ABC
  225   225 /    548 Q         0.374 [ 100   13   33   53]   -459701.532   -459701.906         0.374         0.308           nan        17.647         2.532        -0.085  ABC
  226   226 /    548 Q         0.003 [ 100   21    9   68]   -446256.338   -446256.341         0.003         0.506           nan        16.694         2.668        -0.071  ABC
  227   227 /    548 Q         0.201 [ 100   18   12   68]   -455702.356   -455702.558         0.201         1.031           nan        16.694         2.589        -0.077  ABC
  228   228 /    548 Q         0.279 [ 100    0    6   93]   -532427.270   -532427.549         0.279         0.940           nan        16.674         2.654        -0.021  ABC
  229   229 /    548 ?         2.118 [ 100    3    0   96]   -525496.740   -525494.621        -2.118         0.028           nan        16.569         2.727        -0.009  ABC
  230   230 /    548 Q         1.229 [ 100    3    0   96]   -524673.169   -524674.398         1.229         0.164           nan        12.548         2.523        -0.249  ABC
  231   231 /    548 Q         0.631 [ 100   25    6   68]   -436786.443   -436785.813        -0.631         1.242           nan        16.694         2.556        -0.066  ABC
  232   232 /    548 Q         3.174 [ 100   25    0   75]   -441777.180   -441780.353         3.174         0.086           nan        18.023         2.837         0.032  ABC
  233   233 /    548 R         1.336 [ 100    6    0   93]   -513502.753   -513504.089         1.336         0.107           nan        15.007         2.711        -0.108  ABC
  234   234 /    548 ?         1.084 [ 100   21   21   57]   -438254.528   -438255.612         1.084         0.280           nan        19.169         2.471         0.022  ABC
  235   235 /    548 Q         0.950 [ 100   50   50    0]   -305926.079   -305925.129        -0.950         0.000           nan        19.155         2.676        -0.115  ABC
  236   236 /    548 R         0.681 [ 100    0    0  100]   -537450.707   -537450.027         0.050         0.000           nan        16.803         2.817         0.012  ABC
  237   237 /    548 ?         0.042 [ 100   53   45    0]   -295514.869   -295514.911         0.042         0.248           nan        18.196         2.354        -0.152  ABC
  238   238 /    548 ?         0.918 [ 100    9    9   80]   -492323.679   -492322.761        -0.918         0.132           nan        16.971         2.658        -0.035  ABC
  239   239 /    548 Q         0.282 [ 100    0    6   93]   -532422.298   -532422.580         0.282         0.774           nan        16.674         2.662        -0.021  ABC
  240   240 /    548 Q         0.740 [ 100   25    6   68]   -436783.175   -436783.915         0.740         0.818           nan        16.694         2.572        -0.066  ABC
  241   241 /    548 Q         0.003 [ 100   15   34   50]   -450138.271   -450138.274         0.003         0.527           nan        16.694         2.600        -0.141  ABC
  242   242 /    548 R         2.140 [ 100    0    0  100]   -537351.466   -537353.607         3.268         0.161           nan        19.564         2.780         0.178  ABC
  243   243 /    548 Q         4.314 [ 100   26   26   46]   -414061.747   -414066.061         4.314         0.504           nan        17.807         2.558        -0.077  ABC
  244   244 /    548 Q         2.505 [ 100    0   75   25]   -477159.179   -477156.674        -2.505         1.116           nan        16.851         2.652        -0.220  ABC
  245   245 /    548 Q         0.073 [ 100    0    6   93]   -532451.855   -532451.929         0.073         0.210           nan        16.674         2.826        -0.021  ABC
  246   246 /    548 ?         0.743 [ 100   36   36   27]   -369406.772   -369406.030        -0.743         0.164           nan        19.690         2.442        -0.028  ABC
  247   247 /    548 R         0.181 [ 100    0    0  100]   -537354.776   -537354.595         0.432         0.000           nan        14.137         2.708        -0.149  ABC
  248   248 /    548 Q         0.018 [ 100    0    0   99]   -535967.737   -535967.719        -0.018         0.010           nan        16.694         2.852         0.004  ABC
  249   249 /    548 Q         1.194 [ 100   87    0   12]   -202203.736   -202202.542        -1.194        13.264           nan        20.444         1.711         0.044  ABC
  250   250 /    548 Q         0.913 [ 100   16   30   53]   -449625.058   -449624.145        -0.913         0.847           nan        17.647         2.390        -0.080  ABC
  251   251 /    548 ?         2.317 [ 100   54   45    0]   -292574.369   -292576.686         2.317         0.360           nan        19.918         2.472        -0.073  ABC
  252   252 /    548 R         0.150 [ 100    0    0  100]   -537409.080   -537408.931         0.214         0.000           nan        18.363         2.869         0.106  ABC
  253   253 /    548 Q         1.437 [ 100   25    0   75]   -441742.512   -441741.075        -1.437         1.353           nan        14.629         2.515        -0.162  ABC
  254   254 /    548 R         0.306 [ 100   25   75    0]   -381874.133   -381874.439         0.306         0.000           nan        20.779         3.082        -0.074  ABC
  255   255 /    548 ?         4.931 [ 100   21   21   57]   -438232.509   -438237.440         4.931         0.284           nan        19.169         2.477         0.022  ABC
  256   256 /    548 Q         1.797 [ 100   26   26   46]   -414047.634   -414049.431         1.797         0.440           nan        17.807         2.479        -0.077  ABC
  257   257 /    548 R         0.315 [ 100   25    0   75]   -441686.223   -441686.538         0.315         0.000           nan        19.645         3.022         0.125  ABC
  258   258 /    548 ?         3.489 [ 100   21   21   57]   -438246.701   -438243.212        -3.489         0.333           nan        19.169         2.604         0.022  ABC
  259   259 /    548 Q         0.678 [ 100    3    3   93]   -522967.679   -522968.357         0.678         0.922           nan        16.674         2.597        -0.015  ABC
  260   260 /    548 Q         2.178 [ 100    0   50   50]   -497337.432   -497335.254        -2.178         0.123           nan        21.139         2.960         0.060  ABC
  261   261 /    548 R         0.340 [ 100    0    0  100]   -537451.094   -537450.754         0.047         0.000           nan        17.318         2.869         0.043  ABC
  262   262 /    548 ?         0.294 [ 100   54   45    0]   -292582.824   -292583.118         0.294         1.896           nan        18.199         2.256        -0.153  ABC
  263   263 /    548 Q         1.131 [ 100    0    0  100]   -537402.776   -537403.908         1.759         0.030           nan        18.325         2.813         0.103  ABC
  264   264 /    548 Q         3.966 [ 100   26   26   46]   -414072.380   -414068.415        -3.966         0.684           nan        17.807         2.398        -0.077  ABC
  265   265 /    548 ?         2.127 [ 100    6    0   93]   -513544.463   -513542.336        -2.127         0.024           nan        16.647         2.740        -0.010  ABC
  266   266 /    548 Q         0.209 [ 100    0    6   93]   -532419.874   -532420.083         0.209         0.913           nan        16.674         2.644        -0.021  ABC
  267   267 /    548 Q         0.034 [ 100   21    9   68]   -446227.636   -446227.670         0.034         1.479           nan        16.694         2.388        -0.071  ABC
  268   268 /    548 R         0.463 [ 100    0    0  100]   -537300.436   -537300.899         0.647         0.000           nan        20.587         3.070         0.240  ABC
  269   269 /    548 R         5.301 [ 100  100    0    0]   -155374.347   -155369.046        -5.301         0.000           nan        20.649         2.376         0.032  ABC
  270   270 /    548 ?         1.457 [ 100    0    0  100]   -537454.749   -537453.292         0.037         0.000           nan        16.746         2.777         0.008  ABC
  271   271 /    548 ?         0.008 [ 100    0    0  100]   -537461.952   -537461.944         0.002         0.000           nan        16.694         2.867         0.005  ABC
  272   272 /    548 ?         0.478 [ 100    9    9   80]   -492307.149   -492306.672        -0.478         0.495           nan        16.971         2.869        -0.035  ABC
  273   273 /    548 ?         0.293 [ 100   54   45    0]   -292620.756   -292621.049         0.293         0.027           nan        18.323         2.394        -0.147  ABC
  274   274 /    548 R         0.131 [ 100    0   50   50]   -496972.257   -496972.388         0.131         0.000           nan        25.242         2.894         0.266  ABC
  275   275 /    548 Q        24.130 [ 100   50   50    0]   -306108.784   -306084.654       -24.130         0.291           nan        21.319         2.803        -0.015  DDD
  276   276 /    548 R         1.061 [ 100    0   75   25]   -477334.481   -477335.541         1.061         0.000           nan        24.505         3.257         0.135  ABC
  277   277 /    548 Q         0.593 [ 100    3    0   96]   -525068.376   -525067.783        -0.593         0.975           nan        17.212         2.611         0.030  ABC
  278   278 /    548 Q         1.857 [ 100    0    3   96]   -534486.565   -534484.708        -1.857         0.230           nan        12.970         2.559        -0.229  ABC
  279   279 /    548 Q         0.649 [ 100    3    0   96]   -525101.460   -525102.110         0.649         0.032           nan        16.701         2.794        -0.001  ABC
  280   280 /    548 Q         0.207 [ 100    0    3   96]   -534813.259   -534813.466         0.207         1.002           nan        17.212         2.570         0.023  ABC
  281   281 /    548 Q         0.329 [ 100    6    0   93]   -513548.503   -513548.832         0.329         0.379           nan        16.674         2.759        -0.009  ABC
  282   282 /    548 Q         2.020 [ 100   23   23   53]   -429472.198   -429474.218         2.020         0.232           nan        17.647         2.584        -0.069  ABC
  283   283 /    548 ?         0.433 [ 100   36   45   18]   -362159.202   -362159.635         0.433         0.233           nan        19.842         2.483        -0.049  ABC
  284   284 /    548 Q         0.137 [ 100   15   34   50]   -450127.457   -450127.320        -0.137         0.648           nan        16.694         2.582        -0.141  ABC
  285   285 /    548 R         4.064 [ 100   25    0   75]   -441567.705   -441571.768         4.064         0.000           nan        12.557         2.600        -0.281  ABC
  286   286 /    548 Q         0.587 [ 100    0    0  100]   -537398.613   -537399.199         0.253         0.539           nan        18.136         2.716         0.092  ABC
  287   287 /    548 Q         0.661 [ 100    0    0  100]   -537427.298   -537426.637         1.113         0.478           nan        17.232         2.681         0.038  ABC
  288   288 /    548 Q         0.208 [ 100    0    0  100]   -537194.316   -537194.524         8.308         0.060           nan        22.369         3.076         0.347  ABC
  289   289 /    548 Q         0.470 [ 100   15   34   50]   -450113.226   -450113.696         0.470         0.945           nan        16.694         2.515        -0.141  ABC
  290   290 /    548 R         0.253 [ 100    6    0   93]   -513521.382   -513521.634         0.253         0.045           nan        17.841         2.853         0.061  ABC
  291   291 /    548 R         1.163 [ 100    0   75   25]   -477358.772   -477359.935         1.163         0.000           nan        18.787         2.964        -0.130  ABC
  292   292 /    548 Q         0.372 [ 100   18   12   68]   -455690.269   -455690.642         0.372         1.027           nan        16.694         2.529        -0.077  ABC
  293   293 /    548 Q         0.048 [ 100   25    6   68]   -436805.077   -436805.125         0.048         0.725           nan        16.694         2.618        -0.066  ABC
  294   294 /    548 R         0.112 [ 100    0    0  100]   -537363.343   -537363.230         0.397         0.000           nan        19.527         3.019         0.176  ABC
  295   295 /    548 R         2.542 [ 100    0    0  100]   -537213.348   -537210.806         4.531         0.071           nan        25.585         2.798         0.541  ABC
  296   296 /    548 R         0.726 [ 100    0    3   96]   -534844.543   -534843.817        -0.726         0.083           nan        16.351         2.738        -0.028  ABC
  297   297 /    548 R         0.309 [ 100    0    0  100]   -537453.725   -537453.416         0.036         0.000           nan        17.217         2.869         0.037  ABC
  298   298 /    548 ?         2.614 [ 100   54   45    0]   -292564.488   -292567.101         2.614         0.937           nan        16.647         2.260        -0.225  ABC
  299   299 /    548 Q         0.710 [ 100   18   12   68]   -455689.137   -455689.847         0.710         0.754           nan        16.694         2.508        -0.077  ABC
  300   300 /    548 R         1.190 [ 100    3    3   93]   -522955.053   -522956.243         1.190         0.086           nan        18.342         2.839         0.084  ABC
  301   301 /    548 R         0.294 [ 100    0    0  100]   -537454.534   -537454.240         0.033         0.000           nan        17.183         2.869         0.035  ABC
  302   302 /    548 R         0.066 [ 100    0    0  100]   -537462.073   -537462.007         0.002         0.000           nan        16.317         2.842        -0.017  ABC
  303   303 /    548 R         0.155 [ 100    0    0  100]   -537453.016   -537452.860         0.039         0.294           nan        16.647         2.747         0.002  ABC
  304   304 /    548 Q         0.186 [ 100    0    0  100]   -537446.143   -537445.957         0.066         0.562           nan        16.731         2.712         0.007  ABC
  305   305 /    548 R         0.458 [ 100   19   16   63]   -448414.524   -448414.982         0.458         0.054           nan        16.694         2.360        -0.092  ABC
  306   306 /    548 R         0.350 [ 100   50    0   50]   -346066.255   -346065.905        -0.350         0.000           nan        20.212         2.718         0.104  ABC
  307   307 /    548 Q         0.867 [ 100   33   66    0]   -356848.430   -356847.563        -0.867         0.000           nan        19.734         2.679        -0.110  ABC
  308   308 /    548 ?         2.822 [ 100   54   45    0]   -292590.637   -292593.459         2.822         0.606           nan        17.016         2.293        -0.208  ABC
  309   309 /    548 Q         1.123 [ 100    0    0  100]   -537243.473   -537244.597         6.538         0.092           nan        21.788         2.975         0.312  ABC
  310   310 /    548 ?         1.542 [ 100   36   45   18]   -362166.040   -362164.498        -1.542         0.234           nan        17.449         2.373        -0.164  ABC
  311   311 /    548 Q         2.982 [ 100   75    0   25]   -250374.793   -250377.775         2.982         0.889           nan        12.465         2.470        -0.349  ABC
  312   312 /    548 ?         0.201 [ 100   36   36   27]   -369403.142   -369403.342         0.201         0.273           nan        19.397         2.494        -0.043  ABC
  313   313 /    548 R         1.795 [ 100   25    0   75]   -441754.003   -441752.208        -1.795         0.000           nan        13.913         2.697        -0.203  ABC
  314   314 /    548 Q        12.066 [ 100    0    0  100]   -537280.629   -537292.695         0.340         0.000           nan        19.930         2.958         0.200  DDD
  315   315 /    548 Q         0.381 [ 100   25   75    0]   -381853.705   -381853.324        -0.381         0.444           nan        17.683         2.815        -0.212  ABC
  316   316 /    548 Q         2.012 [ 100    3    0   96]   -524939.239   -524941.251         2.012         3.207           nan        17.232         2.314         0.031  ABC
  317   317 /    548 Q         2.936 [ 100   16   30   53]   -449627.506   -449630.443         2.936         0.167           nan        17.647         2.586        -0.080  ABC
  318   318 /    548 Q         0.632 [ 100    6    0   93]   -513487.437   -513486.805        -0.632         0.030           nan        18.756         2.938         0.115  ABC
  319   319 /    548 Q         0.762 [ 100    0    0  100]   -537383.449   -537382.687         2.475         0.033           nan        19.144         2.921         0.153  ABC
  320   320 /    548 Q         0.510 [ 100   25    6   68]   -436792.795   -436792.285        -0.510         0.567           nan        16.694         2.641        -0.066  ABC
  321   321 /    548 ?         2.060 [ 100   36   45   18]   -362063.127   -362061.067        -2.060         0.475           nan        15.637         2.243        -0.251  ABC
  322   322 /    548 Q         6.627 [ 100    0  100    0]   -457018.052   -457024.679         6.627         0.000           nan        35.562         3.691         0.529  ABC
  323   323 /    548 R         0.386 [ 100    0    0  100]   -537384.103   -537383.717         0.946         0.371           nan        18.025         2.868         0.085  ABC
  324   324 /    548 Q         0.402 [ 100    3    0   96]   -525086.662   -525086.260        -0.402         0.553           nan        17.212         2.658         0.030  ABC
  325   325 /    548 Q         1.447 [ 100   75    0   25]   -250525.692   -250527.139         1.447         0.142           nan        15.449         2.664        -0.194  ABC
  326   326 /    548 Q         0.750 [ 100    0    0  100]   -537241.798   -537242.548         6.600         0.150           nan        21.788         2.980         0.312  ABC
  327   327 /    548 Q         0.095 [ 100   18   12   68]   -455696.921   -455696.826        -0.095         0.679           nan        16.694         2.558        -0.077  ABC
  328   328 /    548 Q         0.216 [ 100   33   66    0]   -356680.483   -356680.699         0.216         2.686           nan        18.077         2.325        -0.185  ABC
  329   329 /    548 ?         0.005 [ 100   21   21   57]   -438261.723   -438261.728         0.005         0.409           nan        19.169         2.549         0.022  ABC
  330   330 /    548 Q         0.334 [ 100    0    0  100]   -537242.732   -537243.067         6.584         0.062           nan        21.788         2.985         0.312  ABC
  331   331 /    548 ?         0.215 [ 100   27   22   50]   -415005.693   -415005.478        -0.215         0.055           nan        18.188         2.427        -0.045  ABC
  332   332 /    548 Q         1.061 [ 100    0    0  100]   -537152.306   -537153.367         1.237         1.766           nan        13.428         2.412        -0.191  ABC
  333   333 /    548 Q         0.572 [ 100   75   25    0]   -230537.914   -230538.486         0.572         0.585           nan        14.561         2.557        -0.301  ABC
  334   334 /    548 Q         0.421 [ 100    0    3   96]   -534712.975   -534713.396         0.421         0.119           nan        14.296         2.640        -0.150  ABC
  335   335 /    548 R         0.976 [ 100   50    0   50]   -346132.147   -346131.171        -0.976         0.000           nan        17.628         2.591        -0.037  ABC
  336   336 /    548 Q         0.549 [ 100   18   12   68]   -455701.726   -455702.276         0.549         0.594           nan        16.694         2.557        -0.077  ABC
  337   337 /    548 R         0.158 [ 100    0    6   93]   -532437.735   -532437.577        -0.158         0.064           nan        17.675         2.840         0.038  ABC
  338   338 /    548 Q         0.135 [ 100   21    9   68]   -446244.653   -446244.788         0.135         0.740           nan        16.694         2.612        -0.071  ABC
  339   339 /    548 Q         0.166 [ 100   25    6   68]   -436800.388   -436800.554         0.166         0.614           nan        16.694         2.597        -0.066  ABC
  340   340 /    548 Q         0.361 [ 100   21    9   68]   -446236.634   -446236.273        -0.361         0.814           nan        16.694         2.614        -0.071  ABC
  341   341 /    548 Q         0.961 [ 100   21    9   68]   -446238.309   -446239.270         0.961         0.845           nan        16.694         2.534        -0.071  ABC
  342   342 /    548 Q         0.373 [ 100   21    9   68]   -446256.040   -446256.413         0.373         0.501           nan        16.694         2.618        -0.071  ABC
  343   343 /    548 ?         3.382 [ 100   54   45    0]   -292584.072   -292587.453         3.382         0.714           nan        18.199         2.357        -0.153  ABC
[...]
# potpath                             ..                   <class 'str'>   #
# show_availabel_pots                 False                <class 'bool'>  #
# potepoch                            False                <class 'bool'>  #
# structures_idx                      60:70                <class 'str'>   #
# units                               meV_pa               <class 'str'>   #
# interstitial_form                   False                <class 'bool'>  #
# geopt                               False                <class 'bool'>  #
# elastic                             False                <class 'bool'>  #
# thermo                              False                <class 'bool'>  #
# evinet                              False                <class 'bool'>  #
# fqh                                 False                <class 'bool'>  #
# fah                                 False                <class 'bool'>  #
# fqh_atoms_max                       200                  <class 'int'>   #
# fqh_supercell                       None                 <class 'NoneType'> #
# fah_atoms_max                       200                  <class 'int'>   #
# fah_supercell                       None                 <class 'NoneType'> #
# elastic_all                         False                <class 'bool'>  #
# elastic_from_ene                    False                <class 'bool'>  #
# ase                                 True                 <class 'bool'>  #
# lmp                                 False                <class 'bool'>  #
# ipi                                 False                <class 'bool'>  #
# test_this_script                    False                <class 'bool'>  #
# formation_energies                  None                 <class 'NoneType'> #
# test3                               False                <class 'bool'>  #
# testkmc                             False                <class 'bool'>  #
# testkmc_b                           False                <class 'bool'>  #
# testkmc_l                           False                <class 'bool'>  #
# testkmc_a                           False                <class 'bool'>  #
# testaccuracy_kmc_approx             False                <class 'bool'>  #
# check_testdata                      False                <class 'bool'>  #
# check_traindata                     False                <class 'bool'>  #
# check_inputdata                     False                <class 'bool'>  #
# check_kmc57data                     False                <class 'bool'>  #
# check_outliers                      False                <class 'bool'>  #
# analyze_kmc_number_1NN_2NN_ext      False                <class 'bool'>  #
# analyze_kmc_number_1NN_2NN_ipi      False                <class 'bool'>  #
# analyze_kmc_number_1NN_2NN_post     False                <class 'bool'>  #
# pick_concentration_al               -1.0                 <class 'float'> #
# pick_concentration_mg               -1.0                 <class 'float'> #
# pick_concentration_si               -1.0                 <class 'float'> #
# pick_atoms_al                       -1.0                 <class 'float'> #
# pick_atoms_mg                       -1.0                 <class 'float'> #
# pick_atoms_si                       -1.0                 <class 'float'> #
# pick_number_of_atoms                -1.0                 <class 'float'> #
# pick_forcesmax                      -1.0                 <class 'float'> #
# pick_cellshape                      -1.0                 <class 'float'> #
# pick_c44                            False                <class 'bool'>  #
# pick_amount_1NN                     False                <class 'bool'>  #
# pick_uuid                           -1.0                 <class 'float'> #
# write_runner                        False                <class 'bool'>  #
# write_runner_ene_forces             False                <class 'bool'>  #
# write_DFT_ene_forces                False                <class 'bool'>  #
# write_espresso_job                  False                <class 'bool'>  #
# write_runner_DFT                    False                <class 'bool'>  #
# write_runner_repeated               False                <class 'bool'>  #
# write_forces                        False                <class 'bool'>  #
# write_forcesx                       False                <class 'bool'>  #
# write_analysis                      False                <class 'bool'>  #
# write_analysis_full                 False                <class 'bool'>  #
# print_only_energies                 False                <class 'bool'>  #
# get_harmonic_energy                 False                <class 'bool'>  #
# debug                               False                <class 'bool'>  #
# verbose                             1                    <class 'int'>   #
# uuid                                False                <class 'bool'>  #
########################################## argparse values (end  ) #########
>> formats.py /home/glensk/.local/lib/python3.7/site-packages/ase/io/formats.py
>> formats.py knows runner
>> formats.py knows lammpsrunner
>> formats.py knows lammps-data
>> formats.py knows ipi
>> formats.py knows quippy
>> vasp.py adapted to write free energies by default.
time00 after ase_formats_check... 1.8064863979816437e-05

written  /home/glensk/Dropbox/Albert/scripts/dotfiles/scripts/potentials/n2p2_v7ag_neinth20_28341/investigate_outliers2/README_2020-07-09_12:34:41.txt

getEne(0.1) LD_LIBRARY_PATH            : /ssoft/spack/humagne/v1/opt/spack/linux-rhel7-x86_E5v4_Mellanox/intel-18.0.5/python-3.7.3-t6azvyfvc6hq72fnyfzvereqk54ng4xk/lib:/home/glensk/sources/n2p2/lib:/home/glensk/sources/lammps/src
getEne(0.2) imported lammps
getEne(0.3) lammps
getEne(0.4) check if lammps woring with ase done
getEne(p1) args.potepoch             : False
>> ase_calculate_ene: initializing mypot .... to self.pot
getEne(p2)                           : ace.pot_get_and_ase_lmp_cmd()
PPi self.pot.get()
PPk self.potpath_in ..
PPk self.potpath    /home/glensk/Dropbox/Albert/scripts/dotfiles/scripts/potentials/n2p2_v7ag_neinth20_28341
PPk self.pottype    n2p2
PPk self.pot        ..
self.potepoch_all [341]
self.use_epoch 341
self.potpath_work /home/glensk/._tmp_pot_fidis/
self.potepoch_linked False
self.potepoch_using False
self.potpath /home/glensk/Dropbox/Albert/scripts/dotfiles/scripts/potentials/n2p2_v7ag_neinth20_28341
self.potepoch_linked False
We need to work in a different folder since other epoch is linked!
PPf copy files ... 000341
f_ /home/glensk/Dropbox/Albert/scripts/dotfiles/scripts/potentials/n2p2_v7ag_neinth20_28341/weights.013.000341.out
f_ /home/glensk/Dropbox/Albert/scripts/dotfiles/scripts/potentials/n2p2_v7ag_neinth20_28341/weights.012.000341.out
f_ /home/glensk/Dropbox/Albert/scripts/dotfiles/scripts/potentials/n2p2_v7ag_neinth20_28341/weights.014.000341.out
copying /home/glensk/Dropbox/Albert/scripts/dotfiles/scripts/potentials/n2p2_v7ag_neinth20_28341/weights.013.000341.out to /home/glensk/._tmp_pot_fidis//weights.013.data
copying /home/glensk/Dropbox/Albert/scripts/dotfiles/scripts/potentials/n2p2_v7ag_neinth20_28341/weights.012.000341.out to /home/glensk/._tmp_pot_fidis//weights.012.data
copying /home/glensk/Dropbox/Albert/scripts/dotfiles/scripts/potentials/n2p2_v7ag_neinth20_28341/weights.014.000341.out to /home/glensk/._tmp_pot_fidis//weights.014.data
self.pot_tmpdir /home/glensk/._tmp_pot_fidis/
... copying potential 000341 to /home/glensk/._tmp_pot_fidis/
ace.lmpcmd ['### lmpcmd.begin ###', 'mass 1 24.305', 'mass 2 26.9815386', 'mass 3 28.0855', 'variable nnpDir string "/home/glensk/._tmp_pot_fidis/"', 'pair_style nnp dir ${nnpDir} showew no resetew yes maxew 100000000 cflength 1.8897261258369282 cfenergy 0.03674932247495664', 'pair_coeff * * 10.6', '### lmpcmd.end  ####']
getEne(P): self.potpath_in              ..
getEne(P): self.pot                     ..
getEne(P): self.potpath (source = src)  /home/glensk/Dropbox/Albert/scripts/dotfiles/scripts/potentials/n2p2_v7ag_neinth20_28341
getEne(P): self.pottype                 n2p2
getEne(P): self.potpath_work (typ src)  /home/glensk/._tmp_pot_fidis/
getEne(P): self.inputnn                 /home/glensk/Dropbox/Albert/scripts/dotfiles/scripts/potentials/n2p2_v7ag_neinth20_28341/input.nn
getEne(P): self.inputdata               /home/glensk/Dropbox/Albert/scripts/dotfiles/scripts/potentials/n2p2_v7ag_neinth20_28341/input.data
getEne(P): self.learning_curve_file     /home/glensk/Dropbox/Albert/scripts/dotfiles/scripts/potentials/n2p2_v7ag_neinth20_28341/learning-curve.out
getEne(P): self.potepoch_all            [341]
getEne(P): self.assessed_epochs         []
getEne(P): self.assessed_test           []
getEne(P): self.assessed_train          []
getEne(P): self.assessed_kmc57          []
getEne(P): self.assessed_c44            []
getEne(P): self.use_epoch (from input)  341
getEne(P): self.potepoch_bestteste      2
getEne(P): self.potepoch_linked         False
getEne(P): self.potepoch_using (finaly) False
getEne(P): self.c44_al_file             False
getEne(P): self.c44_al                  False
getEne(P): self.pot_tmpdir              /home/glensk/._tmp_pot_fidis/
getEne(P): self.lammps_tmpdir           /home/glensk/._tmp_lammps_fidis/
getEne(P): self.potlib                  /home/glensk/sources/lammps/src/USER-NNP
getEne(P): self.potcutoff (Angstrom)    10.6
getEne(P): self.elements                ['Al', 'Mg', 'Si']
getEne(P): self.atom_energy             {'Al': -19.6283516, 'Mg': -16.7493351, 'Si': -5.5274864}
getEne(P): self.reference_volumes       {'Al': 16.607531249999997, 'Mg': 23.259574096759252, 'Si': 20.012875874999995}
getEne(P): self.atom_types              {'Mg': 1, 'Al': 2, 'Si': 3}
getEne(P): self.atom_numbers            {'Al': 13, 'Mg': 12, 'Si': 14}
getEne(P): self.atom_masses             {'Al': 26.9815386, 'Mg': 24.305, 'Si': 28.0855}
getEne(P): self.atom_masses_str         ['mass 1 24.305', 'mass 2 26.9815386', 'mass 3 28.0855']
getEne(P): self.potDONE                 True
getEne(P): self.verbose                 1
getEne(P): len(self.pot_all_dict)       170
########################################## argparse values (begin) #########
# inputfile                           ../test.data         <class 'str'>   #
# sys                                 False                <class 'bool'>  #
# sys_ele                             False                <class 'bool'>  #
# sys_ncell                           1                    <class 'int'>   #
# sys_cell                            cubic                <class 'str'>   #
# exectue_function_myutils                                 <class 'str'>   #
# execute_function                                         <class 'str'>   #
# format_in                           runner               <class 'str'>   #
# remove_unknown_elements_from_structures False                <class 'bool'>  #
# potpath                             ..                   <class 'str'>   #
# show_availabel_pots                 False                <class 'bool'>  #
# potepoch                            False                <class 'bool'>  #
# structures_idx                      60:70                <class 'str'>   #
# units                               meV_pa               <class 'str'>   #
# interstitial_form                   False                <class 'bool'>  #
# geopt                               False                <class 'bool'>  #
# elastic                             False                <class 'bool'>  #
# thermo                              False                <class 'bool'>  #
# evinet                              False                <class 'bool'>  #
# fqh                                 False                <class 'bool'>  #
# fah                                 False                <class 'bool'>  #
# fqh_atoms_max                       200                  <class 'int'>   #
# fqh_supercell                       None                 <class 'NoneType'> #
# fah_atoms_max                       200                  <class 'int'>   #
# fah_supercell                       None                 <class 'NoneType'> #
# elastic_all                         False                <class 'bool'>  #
# elastic_from_ene                    False                <class 'bool'>  #
# ase                                 True                 <class 'bool'>  #
# lmp                                 False                <class 'bool'>  #
# ipi                                 False                <class 'bool'>  #
# test_this_script                    False                <class 'bool'>  #
# formation_energies                  None                 <class 'NoneType'> #
# test3                               False                <class 'bool'>  #
# testkmc                             False                <class 'bool'>  #
# testkmc_b                           False                <class 'bool'>  #
# testkmc_l                           False                <class 'bool'>  #
# testkmc_a                           False                <class 'bool'>  #
# testaccuracy_kmc_approx             False                <class 'bool'>  #
# check_testdata                      False                <class 'bool'>  #
# check_traindata                     False                <class 'bool'>  #
# check_inputdata                     False                <class 'bool'>  #
# check_kmc57data                     False                <class 'bool'>  #
# check_outliers                      False                <class 'bool'>  #
# analyze_kmc_number_1NN_2NN_ext      False                <class 'bool'>  #
# analyze_kmc_number_1NN_2NN_ipi      False                <class 'bool'>  #
# analyze_kmc_number_1NN_2NN_post     False                <class 'bool'>  #
# pick_concentration_al               -1.0                 <class 'float'> #
# pick_concentration_mg               -1.0                 <class 'float'> #
# pick_concentration_si               -1.0                 <class 'float'> #
# pick_atoms_al                       -1.0                 <class 'float'> #
# pick_atoms_mg                       -1.0                 <class 'float'> #
# pick_atoms_si                       -1.0                 <class 'float'> #
# pick_number_of_atoms                -1.0                 <class 'float'> #
# pick_forcesmax                      -1.0                 <class 'float'> #
# pick_cellshape                      -1.0                 <class 'float'> #
# pick_c44                            False                <class 'bool'>  #
# pick_amount_1NN                     False                <class 'bool'>  #
# pick_uuid                           -1.0                 <class 'float'> #
# write_runner                        False                <class 'bool'>  #
# write_runner_ene_forces             False                <class 'bool'>  #
# write_DFT_ene_forces                False                <class 'bool'>  #
# write_espresso_job                  False                <class 'bool'>  #
# write_runner_DFT                    False                <class 'bool'>  #
# write_runner_repeated               False                <class 'bool'>  #
# write_forces                        False                <class 'bool'>  #
# write_forcesx                       False                <class 'bool'>  #
# write_analysis                      False                <class 'bool'>  #
# write_analysis_full                 False                <class 'bool'>  #
# print_only_energies                 False                <class 'bool'>  #
# get_harmonic_energy                 False                <class 'bool'>  #
# debug                               False                <class 'bool'>  #
# verbose                             1                    <class 'int'>   #
# uuid                                False                <class 'bool'>  #
########################################## argparse values (end  ) #########
getEne(0) args.inputfile             : ../test.data
392
410
idx 0 ../test.data path (i) ../test.data
########################################################
XXX args.inputfile: ../test.data
XXX args.format_in: runner
XXX args.inputfile: ../tes
########################################################
type(frames) <class 'list'>
len(frames) 548
getting DFT data
getting DFT data DONE!
430
501
idx 0 ../test.data path (i) ../test.data
@@@@@@@@@@@@@@@@@@@@@@@@@@@@@@@@@@@@@@@@@@@@@@@@@@@@@@@@@@@@@@@@@@@@@@@@
@@  allepochs: [False]
@@@@@@@@@@@@@@@@@@@@@@@@@@@@@@@@@@@@@@@@@@@@@@@@@@@@@@@@@@@@@@@@@@@@@@@@


Epoch: False
getEne (23): reading args.inputfile ...  : ../test.data
YYY getEne (23): args.format_in ...          : runner
YYY getEne (23): args.structures_idx ...     : 60:70
getEne (24): structures_to_calc          : 10

ase                          : True
lmp                          : False

args.units                   : meV_pa
ace.units                    : mev_pa
geopt                        : False

verbose                      : 1
lmp                          : False
ipi                          : False
write_runner                 : False
write_runner_repeated        : False
--pick_concentration_al      : -1.0
--pick_concentration_mg      : -1.0
--pick_concentration_si      : -1.0
--pick_atoms_al              : -1.0
--pick_atoms_mg              : -1.0
--pick_atoms_si              : -1.0
--pick_number_of_atoms       : -1.0
--pick_forcesmax             : -1.0
--pick_cellshape             : -1.0
--pick_c44                   : False


#                         (mev_pa)                                (mev_pa)       (mev_pa)                  (mev_pa)     (eV/Ang)
#                         (DFT-ref)                                                    ene_pot_wo_..      forces      (if geopt)     Vol per atom    min at dist   VOL_diff_norm
#   i   idx /    from       diff  [atms   Si   Mg   Al]     ene_DFT       ene_pot      .._wo_atomic       DFTmax       E-E_geopt        (Ang^3)      (Angstrom)     (Ang^3)
--------------------------------------------------------------------------------------------------------------------------------------------------------------
range(structures_to_calc) range(0, 10)
    0     0 /     10 Q         0.005 [ 100   25    6   68]   -436783.945   -436783.949         0.005         0.860           nan        16.694         2.559        -0.066  ABC
    1     1 /     10 R         3.008 [ 100    0    0  100]   -537382.940   -537385.948         1.532         0.050           nan        23.613         2.851         0.422  ABC
    2     2 /     10 Q         0.889 [ 100    6    0   93]   -513109.287   -513110.176         0.889         0.090           nan        12.155         2.543        -0.277  ABC
    3     3 /     10 R         3.273 [ 100   50    0   50]   -345880.257   -345883.529         3.273         0.000           nan        12.431         2.528        -0.321  ABC
    4     4 /     10 Q         4.477 [ 100    0    0  100]   -537187.992   -537183.515         8.650         7.845           nan        17.232         2.150         0.038  ABC
    5     5 /     10 Q         0.146 [ 100    0    3   96]   -534868.945   -534868.799        -0.146         2.015           nan        16.188         2.330        -0.037  ABC
    6     6 /     10 ?     38197.928 [ 100    0    0  100]   -532468.860   -570666.788      -265.634         0.000           nan         7.321         2.180        -0.559  DDD
save frames[i] 6
save frames[i] 6
    7     7 /     10 Q         0.755 [ 100   25    6   68]   -436785.168   -436784.413        -0.755         0.889           nan        16.694         2.534        -0.066  ABC
    8     8 /     10 R         1.066 [ 100    0    0  100]   -537212.329   -537213.395         4.485         0.188           nan        23.360         2.868         0.407  ABC
    9     9 /     10 Q         0.179 [ 100    1    8   89]   -523699.555   -523699.376        -0.179         0.215           nan        16.694         2.697        -0.031  ABC
