begin
comment Si dc pure
lattice     10.3343970000     0.0000000000     0.0000000000
lattice      0.0000000000    10.3343970000     0.0000000000
lattice      0.0000000000     0.0000000000    10.3343970000
atom      0.4724310000     0.4724310000     0.4724310000   Si  0.0 0.0       0.0000000000     0.0000000000     0.0000000000
atom      1.4172940000     1.4172940000     0.4724310000   Si  0.0 0.0      -0.0000000000    -0.0000000000     0.0000000000
atom      0.9448630000     0.9448630000     0.0000000000   Si  0.0 0.0       0.0000000000     0.0000000000     0.0000000000
atom      0.0000000000     0.9448630000     0.9448630000   Si  0.0 0.0       0.0000000000     0.0000000000     0.0000000000
atom      0.4724310000     1.4172940000     1.4172940000   Si  0.0 0.0       0.0000000000    -0.0000000000    -0.0000000000
atom      0.0000000000     0.0000000000     0.0000000000   Si  0.0 0.0       0.0000000000     0.0000000000     0.0000000000
atom      1.4172940000     0.4724310000     1.4172940000   Si  0.0 0.0      -0.0000000000     0.0000000000    -0.0000000000
atom      0.9448630000     0.0000000000     0.9448630000   Si  0.0 0.0       0.0000000000     0.0000000000     0.0000000000
energy 0.0
charge 0.0000
end
