begin
comment 4 atoms, species Al4
lattice      7.6413433483    -0.3820671674    -0.0000000000
lattice     -0.3820671674     7.6413433483    -0.0000000000
lattice     -0.0000000000    -0.0000000000     7.6604945847
atom      0.0000000000     0.0000000000     0.0000000000   Al  0.0 0.0    2.21765969e-13  1.22653719e-13 -2.14405556e-13
atom     -0.1910335837     3.8206716741     3.8302472924   Al  0.0 0.0    1.90933326e-13  1.85919909e-14  2.14286826e-13
atom      3.8206716741    -0.1910335837     3.8302472924   Al  0.0 0.0   -1.90965793e-13 -1.85225430e-14  2.14326798e-13
atom      3.6296380904     3.6296380904    -0.0000000000   Al  0.0 0.0   -2.21696039e-13 -1.22800768e-13 -2.14243634e-13
energy -7.900267254661107e+01
charge 0.0000
end
begin
comment 4 atoms, species Al4
lattice      7.6413433483    -0.2971633524    -0.0000000000
lattice     -0.2971633524     7.6413433483    -0.0000000000
lattice     -0.0000000000    -0.0000000000     7.6529172046
atom      0.0000000000     0.0000000000     0.0000000000   Al  0.0 0.0   -1.99771052e-13 -2.62901214e-13  5.42874281e-15
atom     -0.1485816762     3.8206716741     3.8264586023   Al  0.0 0.0   -7.15800251e-14  1.90038277e-13 -5.40736852e-15
atom      3.8206716741    -0.1485816762     3.8264586023   Al  0.0 0.0    7.16214026e-14 -1.89981311e-13 -5.58584144e-15
atom      3.6720899979     3.6720899979    -0.0000000000   Al  0.0 0.0    1.99665461e-13  2.62893706e-13  5.45795864e-15
energy -7.900384506295917e+01
charge 0.0000
end
begin
comment 4 atoms, species Al4
lattice      7.6413433483    -0.2122595375    -0.0000000000
lattice     -0.2122595375     7.6413433483    -0.0000000000
lattice     -0.0000000000    -0.0000000000     7.6472439995
atom      0.0000000000     0.0000000000     0.0000000000   Al  0.0 0.0    1.77657715e-13 -6.71197347e-14 -1.75175062e-13
atom     -0.1061297687     3.8206716741     3.8236219998   Al  0.0 0.0    2.08254416e-13  1.41806996e-13  1.75000866e-13
atom      3.8206716741    -0.1061297687     3.8236219998   Al  0.0 0.0   -2.08276626e-13 -1.41829024e-13  1.74968431e-13
atom      3.7145419054     3.7145419054    -0.0000000000   Al  0.0 0.0   -1.77667967e-13  6.70616691e-14 -1.74865928e-13
energy -7.900468612102702e+01
charge 0.0000
end
begin
comment 4 atoms, species Al4
lattice      7.6413433483    -0.1273557225    -0.0000000000
lattice     -0.1273557225     7.6413433483    -0.0000000000
lattice     -0.0000000000    -0.0000000000     7.6434665334
atom      0.0000000000     0.0000000000     0.0000000000   Al  0.0 0.0    2.35589791e-14  1.97873571e-13 -2.65042019e-15
atom     -0.0636778612     3.8206716741     3.8217332667   Al  0.0 0.0   -3.76255886e-14 -1.99468459e-13  2.50837178e-15
atom      3.8206716741    -0.0636778612     3.8217332667   Al  0.0 0.0    3.75922004e-14  1.99538131e-13  2.44944596e-15
atom      3.7569938129     3.7569938129    -0.0000000000   Al  0.0 0.0   -2.35703786e-14 -1.97909735e-13 -2.34307812e-15
energy -7.900523090195205e+01
charge 0.0000
end
begin
comment 4 atoms, species Al4
lattice      7.6413433483    -0.0424519075    -0.0000000000
lattice     -0.0424519075     7.6413433483    -0.0000000000
lattice     -0.0000000000    -0.0000000000     7.6415791995
atom      0.0000000000     0.0000000000     0.0000000000   Al  0.0 0.0    3.46842626e-14 -1.81716902e-13  5.18250042e-14
atom     -0.0212259537     3.8206716741     3.8207895997   Al  0.0 0.0    5.02652279e-14  1.84960747e-13 -5.17645044e-14
atom      3.8206716741    -0.0212259537     3.8207895997   Al  0.0 0.0   -5.03566485e-14 -1.84939015e-13 -5.17812256e-14
atom      3.7994457204     3.7994457204    -0.0000000000   Al  0.0 0.0   -3.46118785e-14  1.81587175e-13  5.19359608e-14
energy -7.900549894647351e+01
charge 0.0000
end
begin
comment 4 atoms, species Al4
lattice      7.6413433483     0.0424519075    -0.0000000000
lattice      0.0424519075     7.6413433483    -0.0000000000
lattice     -0.0000000000    -0.0000000000     7.6415791995
atom      0.0000000000     0.0000000000     0.0000000000   Al  0.0 0.0    5.02323362e-14 -1.84869738e-13  5.18255821e-14
atom      0.0212259537     3.8206716741     3.8207895997   Al  0.0 0.0    3.46845799e-14  1.81659790e-13 -5.14693287e-14
atom      3.8206716741     0.0212259537     3.8207895997   Al  0.0 0.0   -3.46195716e-14 -1.81702289e-13 -5.17105156e-14
atom      3.8418976279     3.8418976279    -0.0000000000   Al  0.0 0.0   -5.02285032e-14  1.84957050e-13  5.15649504e-14
energy -7.900549894647351e+01
charge 0.0000
end
begin
comment 4 atoms, species Al4
lattice      7.6413433483     0.1273557225    -0.0000000000
lattice      0.1273557225     7.6413433483    -0.0000000000
lattice     -0.0000000000    -0.0000000000     7.6434665334
atom      0.0000000000     0.0000000000     0.0000000000   Al  0.0 0.0   -3.75426213e-14  1.99543276e-13 -2.49277073e-15
atom      0.0636778612     3.8206716741     3.8217332667   Al  0.0 0.0    2.36372129e-14 -1.97903425e-13  2.68554972e-15
atom      3.8206716741     0.0636778612     3.8217332667   Al  0.0 0.0   -2.36268971e-14  1.97891788e-13  2.51959941e-15
atom      3.8843495354     3.8843495354    -0.0000000000   Al  0.0 0.0    3.75604253e-14 -1.99625642e-13 -2.44556977e-15
energy -7.900523090195205e+01
charge 0.0000
end
begin
comment 4 atoms, species Al4
lattice      7.6413433483     0.2122595375    -0.0000000000
lattice      0.2122595375     7.6413433483    -0.0000000000
lattice     -0.0000000000    -0.0000000000     7.6472439995
atom      0.0000000000     0.0000000000     0.0000000000   Al  0.0 0.0    2.08287526e-13 -1.41832636e-13 -1.75305864e-13
atom      0.1061297687     3.8206716741     3.8236219998   Al  0.0 0.0    1.77603492e-13  6.69334918e-14  1.74966728e-13
atom      3.8206716741     0.1061297687     3.8236219998   Al  0.0 0.0   -1.77669736e-13 -6.69409004e-14  1.74916917e-13
atom      3.9268014429     3.9268014429    -0.0000000000   Al  0.0 0.0   -2.08267930e-13  1.41822111e-13 -1.74937434e-13
energy -7.900468612102702e+01
charge 0.0000
end
begin
comment 4 atoms, species Al4
lattice      7.6413433483     0.2971633524    -0.0000000000
lattice      0.2971633524     7.6413433483    -0.0000000000
lattice     -0.0000000000    -0.0000000000     7.6529172046
atom      0.0000000000     0.0000000000     0.0000000000   Al  0.0 0.0   -7.15950043e-14 -1.89764217e-13  5.47184349e-15
atom      0.1485816762     3.8206716741     3.8264586023   Al  0.0 0.0   -1.99853576e-13  2.62856411e-13 -5.28322082e-15
atom      3.8206716741     0.1485816762     3.8264586023   Al  0.0 0.0    1.99750814e-13 -2.62825297e-13 -5.47949738e-15
atom      3.9692533504     3.9692533504    -0.0000000000   Al  0.0 0.0    7.16277685e-14  1.89866233e-13  5.43845388e-15
energy -7.900384506295917e+01
charge 0.0000
end
begin
comment 4 atoms, species Al4
lattice      7.6413433483     0.3820671674    -0.0000000000
lattice      0.3820671674     7.6413433483    -0.0000000000
lattice     -0.0000000000    -0.0000000000     7.6604945847
atom      0.0000000000     0.0000000000     0.0000000000   Al  0.0 0.0    1.90945553e-13 -1.85771256e-14 -2.14565315e-13
atom      0.1910335837     3.8206716741     3.8302472924   Al  0.0 0.0    2.21707366e-13 -1.22692250e-13  2.14338544e-13
atom      3.8206716741     0.1910335837     3.8302472924   Al  0.0 0.0   -2.21730823e-13  1.22599339e-13  2.14309999e-13
atom      4.0117052578     4.0117052578    -0.0000000000   Al  0.0 0.0   -1.90889397e-13  1.85781094e-14 -2.14529924e-13
energy -7.900267254661107e+01
charge 0.0000
end
