
     Program PWSCF v.6.3 starts on 22Feb2020 at 14:12:33 

     This program is part of the open-source Quantum ESPRESSO suite
     for quantum simulation of materials; please cite
         "P. Giannozzi et al., J. Phys.:Condens. Matter 21 395502 (2009);
         "P. Giannozzi et al., J. Phys.:Condens. Matter 29 465901 (2017);
          URL http://www.quantum-espresso.org", 
     in publications or presentations arising from this work. More details at
     http://www.quantum-espresso.org/quote

 *** WARNING: using old-style file format, will disappear from next version ***

     Parallel version (MPI & OpenMP), running on      36 processor cores
     Number of MPI processes:                36
     Threads/MPI process:                     1

     MPI processes distributed on     1 nodes
     K-points division:     npool     =       4
     R & G space division:  proc/nbgrp/npool/nimage =       9
     Reading input from aiida.in
Warning: card &IONS ignored
Warning: card   !PRESS_CONV_THR = 0.05                 ! JUST FOR VOLUME RELAXATIONS ignored
Warning: card / ignored

     Current dimensions of program PWSCF are:
     Max number of different atomic species (ntypx) = 10
     Max number of k-points (npk) =  40000
     Max angular momentum in pseudopotentials (lmaxx) =  3
               file Mg.pbe-n-kjpaw_psl.0.3.0.UPF: wavefunction(s)  3S renormalized
               file Al.pbe-n-kjpaw_psl.1.0.0.UPF: wavefunction(s)  3S 3P renormalized

     Subspace diagonalization in iterative solution of the eigenvalue problem:
     one sub-group per band group will be used
     scalapack distributed-memory algorithm (size of sub-group:  2*  2 procs)

 
     Parallelization info
     --------------------
     sticks:   dense  smooth     PW     G-vecs:    dense   smooth      PW
     Min         787     315     91                41471    10489    1640
     Max         788     315     92                41473    10491    1643
     Sum        7085    2835    827               373243    94409   14783
 


     bravais-lattice index     =            0
     lattice parameter (alat)  =      29.0335  a.u.
     unit-cell volume          =    2762.8523 (a.u.)^3
     number of atoms/cell      =           22
     number of atomic types    =            3
     number of electrons       =        64.00
     number of Kohn-Sham states=           38
     kinetic-energy cutoff     =      40.0000  Ry
     charge density cutoff     =     400.0000  Ry
     convergence threshold     =      1.0E-12
     mixing beta               =       0.4000
     number of iterations used =            8  local-TF  mixing
     Exchange-correlation      = SLA PW PBX PBC ( 1  4  3  4 0 0)

     celldm(1)=  29.033517  celldm(2)=   0.000000  celldm(3)=   0.000000
     celldm(4)=   0.000000  celldm(5)=   0.000000  celldm(6)=   0.000000

     crystal axes: (cart. coord. in units of alat)
               a(1) = (   0.961322   0.000000  -0.275428 )  
               a(2) = (   0.000000   0.263885   0.000000 )  
               a(3) = (   0.000000   0.000000   0.445016 )  

     reciprocal axes: (cart. coord. in units 2 pi/alat)
               b(1) = (  1.040235  0.000000  0.000000 )  
               b(2) = (  0.000000  3.789531  0.000000 )  
               b(3) = (  0.643820  0.000000  2.247111 )  


     PseudoPot. # 1 for Mg read from file:
     /users/aglensk/Dropbox/Albert/scripts/dotfiles/scripts/potentials/quantum_espresso/pseudo_SSSPefV1.1_alalloy/Mg.pbe-n-kjpaw_psl.0.3.0.UPF
     MD5 check sum: 24ecedc7f3e3cbe212e682f4413594e4
     Pseudo is Projector augmented-wave + core cor, Zval =  2.0
     Generated using "atomic" code by A. Dal Corso v.5.0.99 svn rev. 10869
     Shape of augmentation charge: PSQ
     Using radial grid of 1129 points,  4 beta functions with: 
                l(1) =   0
                l(2) =   0
                l(3) =   1
                l(4) =   1
     Q(r) pseudized with 0 coefficients 


     PseudoPot. # 2 for Si read from file:
     /users/aglensk/Dropbox/Albert/scripts/dotfiles/scripts/potentials/quantum_espresso/pseudo_SSSPefV1.1_alalloy/Si.pbe-n-rrkjus_psl.1.0.0.UPF
     MD5 check sum: 0b0bb1205258b0d07b9f9672cf965d36
     Pseudo is Ultrasoft + core correction, Zval =  4.0
     Generated using "atomic" code by A. Dal Corso v.5.1
     Using radial grid of 1141 points,  6 beta functions with: 
                l(1) =   0
                l(2) =   0
                l(3) =   1
                l(4) =   1
                l(5) =   2
                l(6) =   2
     Q(r) pseudized with 0 coefficients 


     PseudoPot. # 3 for Al read from file:
     /users/aglensk/Dropbox/Albert/scripts/dotfiles/scripts/potentials/quantum_espresso/pseudo_SSSPefV1.1_alalloy/Al.pbe-n-kjpaw_psl.1.0.0.UPF
     MD5 check sum: cfc449ca30b5f3223ec38ddd88ac046d
     Pseudo is Projector augmented-wave + core cor, Zval =  3.0
     Generated using "atomic" code by A. Dal Corso v.5.1
     Shape of augmentation charge: PSQ
     Using radial grid of 1135 points,  6 beta functions with: 
                l(1) =   0
                l(2) =   0
                l(3) =   1
                l(4) =   1
                l(5) =   2
                l(6) =   2
     Q(r) pseudized with 0 coefficients 


     atomic species   valence    mass     pseudopotential
        Mg             2.00    24.30500     Mg( 1.00)
        Si             4.00    28.08500     Si( 1.00)
        Al             3.00    26.98154     Al( 1.00)

     No symmetry found


                                    s                        frac. trans.

      isym =  1     identity                                     

 cryst.   s( 1) = (     1          0          0      )
                  (     0          1          0      )
                  (     0          0          1      )

 cart.    s( 1) = (  1.0000000  0.0000000  0.0000000 )
                  (  0.0000000  1.0000000  0.0000000 )
                  (  0.0000000  0.0000000  1.0000000 )


   Cartesian axes

     site n.     atom                  positions (alat units)
         1           Mg  tau(   1) = (   0.0008660   0.0000000   0.4396358  )
         2           Mg  tau(   2) = (   0.0724278   0.1319425   0.1340093  )
         3           Mg  tau(   3) = (   0.1496929   0.1319425   0.3585034  )
         4           Mg  tau(   4) = (   0.3327157   0.0000000  -0.0618902  )
         5           Mg  tau(   5) = (   0.4099800   0.0000000   0.1626052  )
         6           Si  tau(   6) = (   0.0563902   0.0000000   0.2716026  )
         7           Si  tau(   7) = (   0.1794044   0.0000000   0.0425753  )
         8           Al  tau(   8) = (   0.2091819   0.0000000   0.2096892  )
         9           Al  tau(   9) = (   0.2732256   0.1319425   0.0869248  )
        10           Si  tau(  10) = (   0.3030044   0.1319425   0.2540380  )
        11           Si  tau(  11) = (   0.4260164   0.1319425   0.0250117  )
        12           Mg  tau(  12) = (   0.4815410   0.1319425   0.3019947  )
        13           Mg  tau(  13) = (   0.5530973   0.0000000  -0.0036218  )
        14           Mg  tau(  14) = (   0.6303690   0.0000000   0.2208367  )
        15           Mg  tau(  15) = (   0.8133614   0.1319425  -0.1996518  )
        16           Mg  tau(  16) = (   0.8906322   0.1319425   0.0248079  )
        17           Si  tau(  17) = (   0.5370616   0.1319425   0.1339581  )
        18           Si  tau(  18) = (   0.6600693   0.1319425  -0.0951119  )
        19           Al  tau(  19) = (   0.6898376   0.1319425   0.0719934  )
        20           Al  tau(  20) = (   0.7538916   0.0000000  -0.0508078  )
        21           Si  tau(  21) = (   0.7836611   0.0000000   0.1162967  )
        22           Si  tau(  22) = (   0.9066667   0.0000000  -0.1127721  )

   Crystallographic axes

     site n.     atom                  positions (cryst. coord.)
         1           Mg  tau(   1) = (  0.0009008  0.0000000  0.9884679  )
         2           Mg  tau(   2) = (  0.0753419  0.5000001  0.3477642  )
         3           Mg  tau(   3) = (  0.1557158  0.5000001  0.9019722  )
         4           Mg  tau(   4) = (  0.3461024  0.0000000  0.0751348  )
         5           Mg  tau(   5) = (  0.4264754  0.0000000  0.6293452  )
         6           Si  tau(   6) = (  0.0586591  0.0000000  0.6466265  )
         7           Si  tau(   7) = (  0.1866227  0.0000000  0.2111755  )
         8           Al  tau(   8) = (  0.2175983  0.0000000  0.6058703  )
         9           Al  tau(   9) = (  0.2842187  0.5000001  0.3712378  )
        10           Si  tau(  10) = (  0.3151956  0.5000001  0.7659317  )
        11           Si  tau(  11) = (  0.4431570  0.5000001  0.3304818  )
        12           Mg  tau(  12) = (  0.5009156  0.5000001  0.9886413  )
        13           Mg  tau(  13) = (  0.5753509  0.0000000  0.3479565  )
        14           Mg  tau(  14) = (  0.6557316  0.0000000  0.9020886  )
        15           Mg  tau(  15) = (  0.8460866  0.5000001  0.0750184  )
        16           Mg  tau(  16) = (  0.9264664  0.5000001  0.6291528  )
        17           Si  tau(  17) = (  0.5586700  0.5000001  0.6467896  )
        18           Si  tau(  18) = (  0.6866270  0.5000001  0.2112388  )
        19           Al  tau(  19) = (  0.7175929  0.5000001  0.6059082  )
        20           Al  tau(  20) = (  0.7842242  0.0000000  0.3711996  )
        21           Si  tau(  21) = (  0.8151914  0.0000000  0.7658681  )
        22           Si  tau(  22) = (  0.9431460  0.0000000  0.3303186  )

     number of k points=   782  Methfessel-Paxton smearing, width (Ry)=  0.0441
                       cart. coord. in units 2pi/alat
        k(    1) = (   0.0000000   0.0000000   0.0000000), wk =   0.0012821
        k(    2) = (   0.0495246   0.0000000   0.1728547), wk =   0.0025641
        k(    3) = (   0.0990492   0.0000000   0.3457094), wk =   0.0025641
        k(    4) = (   0.1485738   0.0000000   0.5185641), wk =   0.0025641
        k(    5) = (   0.1980984   0.0000000   0.6914188), wk =   0.0025641
        k(    6) = (   0.2476230   0.0000000   0.8642735), wk =   0.0025641
        k(    7) = (   0.2971476   0.0000000   1.0371281), wk =   0.0025641
        k(    8) = (   0.0000000   0.1894765   0.0000000), wk =   0.0025641
        k(    9) = (   0.0495246   0.1894765   0.1728547), wk =   0.0025641
        k(   10) = (   0.0990492   0.1894765   0.3457094), wk =   0.0025641
        k(   11) = (   0.1485738   0.1894765   0.5185641), wk =   0.0025641
        k(   12) = (   0.1980984   0.1894765   0.6914188), wk =   0.0025641
        k(   13) = (   0.2476230   0.1894765   0.8642735), wk =   0.0025641
        k(   14) = (   0.2971476   0.1894765   1.0371281), wk =   0.0025641
        k(   15) = (  -0.2971476   0.1894765  -1.0371281), wk =   0.0025641
        k(   16) = (  -0.2476230   0.1894765  -0.8642735), wk =   0.0025641
        k(   17) = (  -0.1980984   0.1894765  -0.6914188), wk =   0.0025641
        k(   18) = (  -0.1485738   0.1894765  -0.5185641), wk =   0.0025641
        k(   19) = (  -0.0990492   0.1894765  -0.3457094), wk =   0.0025641
        k(   20) = (  -0.0495246   0.1894765  -0.1728547), wk =   0.0025641
        k(   21) = (   0.0000000   0.3789531   0.0000000), wk =   0.0025641
        k(   22) = (   0.0495246   0.3789531   0.1728547), wk =   0.0025641
        k(   23) = (   0.0990492   0.3789531   0.3457094), wk =   0.0025641
        k(   24) = (   0.1485738   0.3789531   0.5185641), wk =   0.0025641
        k(   25) = (   0.1980984   0.3789531   0.6914188), wk =   0.0025641
        k(   26) = (   0.2476230   0.3789531   0.8642735), wk =   0.0025641
        k(   27) = (   0.2971476   0.3789531   1.0371281), wk =   0.0025641
        k(   28) = (  -0.2971476   0.3789531  -1.0371281), wk =   0.0025641
        k(   29) = (  -0.2476230   0.3789531  -0.8642735), wk =   0.0025641
        k(   30) = (  -0.1980984   0.3789531  -0.6914188), wk =   0.0025641
        k(   31) = (  -0.1485738   0.3789531  -0.5185641), wk =   0.0025641
        k(   32) = (  -0.0990492   0.3789531  -0.3457094), wk =   0.0025641
        k(   33) = (  -0.0495246   0.3789531  -0.1728547), wk =   0.0025641
        k(   34) = (   0.0000000   0.5684296   0.0000000), wk =   0.0025641
        k(   35) = (   0.0495246   0.5684296   0.1728547), wk =   0.0025641
        k(   36) = (   0.0990492   0.5684296   0.3457094), wk =   0.0025641
        k(   37) = (   0.1485738   0.5684296   0.5185641), wk =   0.0025641
        k(   38) = (   0.1980984   0.5684296   0.6914188), wk =   0.0025641
        k(   39) = (   0.2476230   0.5684296   0.8642735), wk =   0.0025641
        k(   40) = (   0.2971476   0.5684296   1.0371281), wk =   0.0025641
        k(   41) = (  -0.2971476   0.5684296  -1.0371281), wk =   0.0025641
        k(   42) = (  -0.2476230   0.5684296  -0.8642735), wk =   0.0025641
        k(   43) = (  -0.1980984   0.5684296  -0.6914188), wk =   0.0025641
        k(   44) = (  -0.1485738   0.5684296  -0.5185641), wk =   0.0025641
        k(   45) = (  -0.0990492   0.5684296  -0.3457094), wk =   0.0025641
        k(   46) = (  -0.0495246   0.5684296  -0.1728547), wk =   0.0025641
        k(   47) = (   0.0000000   0.7579062   0.0000000), wk =   0.0025641
        k(   48) = (   0.0495246   0.7579062   0.1728547), wk =   0.0025641
        k(   49) = (   0.0990492   0.7579062   0.3457094), wk =   0.0025641
        k(   50) = (   0.1485738   0.7579062   0.5185641), wk =   0.0025641
        k(   51) = (   0.1980984   0.7579062   0.6914188), wk =   0.0025641
        k(   52) = (   0.2476230   0.7579062   0.8642735), wk =   0.0025641
        k(   53) = (   0.2971476   0.7579062   1.0371281), wk =   0.0025641
        k(   54) = (  -0.2971476   0.7579062  -1.0371281), wk =   0.0025641
        k(   55) = (  -0.2476230   0.7579062  -0.8642735), wk =   0.0025641
        k(   56) = (  -0.1980984   0.7579062  -0.6914188), wk =   0.0025641
        k(   57) = (  -0.1485738   0.7579062  -0.5185641), wk =   0.0025641
        k(   58) = (  -0.0990492   0.7579062  -0.3457094), wk =   0.0025641
        k(   59) = (  -0.0495246   0.7579062  -0.1728547), wk =   0.0025641
        k(   60) = (   0.0000000   0.9473827   0.0000000), wk =   0.0025641
        k(   61) = (   0.0495246   0.9473827   0.1728547), wk =   0.0025641
        k(   62) = (   0.0990492   0.9473827   0.3457094), wk =   0.0025641
        k(   63) = (   0.1485738   0.9473827   0.5185641), wk =   0.0025641
        k(   64) = (   0.1980984   0.9473827   0.6914188), wk =   0.0025641
        k(   65) = (   0.2476230   0.9473827   0.8642735), wk =   0.0025641
        k(   66) = (   0.2971476   0.9473827   1.0371281), wk =   0.0025641
        k(   67) = (  -0.2971476   0.9473827  -1.0371281), wk =   0.0025641
        k(   68) = (  -0.2476230   0.9473827  -0.8642735), wk =   0.0025641
        k(   69) = (  -0.1980984   0.9473827  -0.6914188), wk =   0.0025641
        k(   70) = (  -0.1485738   0.9473827  -0.5185641), wk =   0.0025641
        k(   71) = (  -0.0990492   0.9473827  -0.3457094), wk =   0.0025641
        k(   72) = (  -0.0495246   0.9473827  -0.1728547), wk =   0.0025641
        k(   73) = (   0.0000000   1.1368592   0.0000000), wk =   0.0025641
        k(   74) = (   0.0495246   1.1368592   0.1728547), wk =   0.0025641
        k(   75) = (   0.0990492   1.1368592   0.3457094), wk =   0.0025641
        k(   76) = (   0.1485738   1.1368592   0.5185641), wk =   0.0025641
        k(   77) = (   0.1980984   1.1368592   0.6914188), wk =   0.0025641
        k(   78) = (   0.2476230   1.1368592   0.8642735), wk =   0.0025641
        k(   79) = (   0.2971476   1.1368592   1.0371281), wk =   0.0025641
        k(   80) = (  -0.2971476   1.1368592  -1.0371281), wk =   0.0025641
        k(   81) = (  -0.2476230   1.1368592  -0.8642735), wk =   0.0025641
        k(   82) = (  -0.1980984   1.1368592  -0.6914188), wk =   0.0025641
        k(   83) = (  -0.1485738   1.1368592  -0.5185641), wk =   0.0025641
        k(   84) = (  -0.0990492   1.1368592  -0.3457094), wk =   0.0025641
        k(   85) = (  -0.0495246   1.1368592  -0.1728547), wk =   0.0025641
        k(   86) = (   0.0000000   1.3263358   0.0000000), wk =   0.0025641
        k(   87) = (   0.0495246   1.3263358   0.1728547), wk =   0.0025641
        k(   88) = (   0.0990492   1.3263358   0.3457094), wk =   0.0025641
        k(   89) = (   0.1485738   1.3263358   0.5185641), wk =   0.0025641
        k(   90) = (   0.1980984   1.3263358   0.6914188), wk =   0.0025641
        k(   91) = (   0.2476230   1.3263358   0.8642735), wk =   0.0025641
        k(   92) = (   0.2971476   1.3263358   1.0371281), wk =   0.0025641
        k(   93) = (  -0.2971476   1.3263358  -1.0371281), wk =   0.0025641
        k(   94) = (  -0.2476230   1.3263358  -0.8642735), wk =   0.0025641
        k(   95) = (  -0.1980984   1.3263358  -0.6914188), wk =   0.0025641
        k(   96) = (  -0.1485738   1.3263358  -0.5185641), wk =   0.0025641
        k(   97) = (  -0.0990492   1.3263358  -0.3457094), wk =   0.0025641
        k(   98) = (  -0.0495246   1.3263358  -0.1728547), wk =   0.0025641
        k(   99) = (   0.0000000   1.5158123   0.0000000), wk =   0.0025641
        k(  100) = (   0.0495246   1.5158123   0.1728547), wk =   0.0025641
        k(  101) = (   0.0990492   1.5158123   0.3457094), wk =   0.0025641
        k(  102) = (   0.1485738   1.5158123   0.5185641), wk =   0.0025641
        k(  103) = (   0.1980984   1.5158123   0.6914188), wk =   0.0025641
        k(  104) = (   0.2476230   1.5158123   0.8642735), wk =   0.0025641
        k(  105) = (   0.2971476   1.5158123   1.0371281), wk =   0.0025641
        k(  106) = (  -0.2971476   1.5158123  -1.0371281), wk =   0.0025641
        k(  107) = (  -0.2476230   1.5158123  -0.8642735), wk =   0.0025641
        k(  108) = (  -0.1980984   1.5158123  -0.6914188), wk =   0.0025641
        k(  109) = (  -0.1485738   1.5158123  -0.5185641), wk =   0.0025641
        k(  110) = (  -0.0990492   1.5158123  -0.3457094), wk =   0.0025641
        k(  111) = (  -0.0495246   1.5158123  -0.1728547), wk =   0.0025641
        k(  112) = (   0.0000000   1.7052888   0.0000000), wk =   0.0025641
        k(  113) = (   0.0495246   1.7052888   0.1728547), wk =   0.0025641
        k(  114) = (   0.0990492   1.7052888   0.3457094), wk =   0.0025641
        k(  115) = (   0.1485738   1.7052888   0.5185641), wk =   0.0025641
        k(  116) = (   0.1980984   1.7052888   0.6914188), wk =   0.0025641
        k(  117) = (   0.2476230   1.7052888   0.8642735), wk =   0.0025641
        k(  118) = (   0.2971476   1.7052888   1.0371281), wk =   0.0025641
        k(  119) = (  -0.2971476   1.7052888  -1.0371281), wk =   0.0025641
        k(  120) = (  -0.2476230   1.7052888  -0.8642735), wk =   0.0025641
        k(  121) = (  -0.1980984   1.7052888  -0.6914188), wk =   0.0025641
        k(  122) = (  -0.1485738   1.7052888  -0.5185641), wk =   0.0025641
        k(  123) = (  -0.0990492   1.7052888  -0.3457094), wk =   0.0025641
        k(  124) = (  -0.0495246   1.7052888  -0.1728547), wk =   0.0025641
        k(  125) = (   0.0000000  -1.8947654   0.0000000), wk =   0.0012821
        k(  126) = (   0.0495246  -1.8947654   0.1728547), wk =   0.0025641
        k(  127) = (   0.0990492  -1.8947654   0.3457094), wk =   0.0025641
        k(  128) = (   0.1485738  -1.8947654   0.5185641), wk =   0.0025641
        k(  129) = (   0.1980984  -1.8947654   0.6914188), wk =   0.0025641
        k(  130) = (   0.2476230  -1.8947654   0.8642735), wk =   0.0025641
        k(  131) = (   0.2971476  -1.8947654   1.0371281), wk =   0.0025641
        k(  132) = (   0.1733724   0.0000000   0.0000000), wk =   0.0025641
        k(  133) = (   0.2228970   0.0000000   0.1728547), wk =   0.0025641
        k(  134) = (   0.2724216   0.0000000   0.3457094), wk =   0.0025641
        k(  135) = (   0.3219462   0.0000000   0.5185641), wk =   0.0025641
        k(  136) = (   0.3714709   0.0000000   0.6914188), wk =   0.0025641
        k(  137) = (   0.4209955   0.0000000   0.8642735), wk =   0.0025641
        k(  138) = (   0.4705201   0.0000000   1.0371281), wk =   0.0025641
        k(  139) = (  -0.1237752   0.0000000  -1.0371281), wk =   0.0025641
        k(  140) = (  -0.0742506   0.0000000  -0.8642735), wk =   0.0025641
        k(  141) = (  -0.0247260   0.0000000  -0.6914188), wk =   0.0025641
        k(  142) = (   0.0247986   0.0000000  -0.5185641), wk =   0.0025641
        k(  143) = (   0.0743232   0.0000000  -0.3457094), wk =   0.0025641
        k(  144) = (   0.1238478   0.0000000  -0.1728547), wk =   0.0025641
        k(  145) = (   0.1733724   0.1894765   0.0000000), wk =   0.0025641
        k(  146) = (   0.2228970   0.1894765   0.1728547), wk =   0.0025641
        k(  147) = (   0.2724216   0.1894765   0.3457094), wk =   0.0025641
        k(  148) = (   0.3219462   0.1894765   0.5185641), wk =   0.0025641
        k(  149) = (   0.3714709   0.1894765   0.6914188), wk =   0.0025641
        k(  150) = (   0.4209955   0.1894765   0.8642735), wk =   0.0025641
        k(  151) = (   0.4705201   0.1894765   1.0371281), wk =   0.0025641
        k(  152) = (  -0.1237752   0.1894765  -1.0371281), wk =   0.0025641
        k(  153) = (  -0.0742506   0.1894765  -0.8642735), wk =   0.0025641
        k(  154) = (  -0.0247260   0.1894765  -0.6914188), wk =   0.0025641
        k(  155) = (   0.0247986   0.1894765  -0.5185641), wk =   0.0025641
        k(  156) = (   0.0743232   0.1894765  -0.3457094), wk =   0.0025641
        k(  157) = (   0.1238478   0.1894765  -0.1728547), wk =   0.0025641
        k(  158) = (   0.1733724   0.3789531   0.0000000), wk =   0.0025641
        k(  159) = (   0.2228970   0.3789531   0.1728547), wk =   0.0025641
        k(  160) = (   0.2724216   0.3789531   0.3457094), wk =   0.0025641
        k(  161) = (   0.3219462   0.3789531   0.5185641), wk =   0.0025641
        k(  162) = (   0.3714709   0.3789531   0.6914188), wk =   0.0025641
        k(  163) = (   0.4209955   0.3789531   0.8642735), wk =   0.0025641
        k(  164) = (   0.4705201   0.3789531   1.0371281), wk =   0.0025641
        k(  165) = (  -0.1237752   0.3789531  -1.0371281), wk =   0.0025641
        k(  166) = (  -0.0742506   0.3789531  -0.8642735), wk =   0.0025641
        k(  167) = (  -0.0247260   0.3789531  -0.6914188), wk =   0.0025641
        k(  168) = (   0.0247986   0.3789531  -0.5185641), wk =   0.0025641
        k(  169) = (   0.0743232   0.3789531  -0.3457094), wk =   0.0025641
        k(  170) = (   0.1238478   0.3789531  -0.1728547), wk =   0.0025641
        k(  171) = (   0.1733724   0.5684296   0.0000000), wk =   0.0025641
        k(  172) = (   0.2228970   0.5684296   0.1728547), wk =   0.0025641
        k(  173) = (   0.2724216   0.5684296   0.3457094), wk =   0.0025641
        k(  174) = (   0.3219462   0.5684296   0.5185641), wk =   0.0025641
        k(  175) = (   0.3714709   0.5684296   0.6914188), wk =   0.0025641
        k(  176) = (   0.4209955   0.5684296   0.8642735), wk =   0.0025641
        k(  177) = (   0.4705201   0.5684296   1.0371281), wk =   0.0025641
        k(  178) = (  -0.1237752   0.5684296  -1.0371281), wk =   0.0025641
        k(  179) = (  -0.0742506   0.5684296  -0.8642735), wk =   0.0025641
        k(  180) = (  -0.0247260   0.5684296  -0.6914188), wk =   0.0025641
        k(  181) = (   0.0247986   0.5684296  -0.5185641), wk =   0.0025641
        k(  182) = (   0.0743232   0.5684296  -0.3457094), wk =   0.0025641
        k(  183) = (   0.1238478   0.5684296  -0.1728547), wk =   0.0025641
        k(  184) = (   0.1733724   0.7579062   0.0000000), wk =   0.0025641
        k(  185) = (   0.2228970   0.7579062   0.1728547), wk =   0.0025641
        k(  186) = (   0.2724216   0.7579062   0.3457094), wk =   0.0025641
        k(  187) = (   0.3219462   0.7579062   0.5185641), wk =   0.0025641
        k(  188) = (   0.3714709   0.7579062   0.6914188), wk =   0.0025641
        k(  189) = (   0.4209955   0.7579062   0.8642735), wk =   0.0025641
        k(  190) = (   0.4705201   0.7579062   1.0371281), wk =   0.0025641
        k(  191) = (  -0.1237752   0.7579062  -1.0371281), wk =   0.0025641
        k(  192) = (  -0.0742506   0.7579062  -0.8642735), wk =   0.0025641
        k(  193) = (  -0.0247260   0.7579062  -0.6914188), wk =   0.0025641
        k(  194) = (   0.0247986   0.7579062  -0.5185641), wk =   0.0025641
        k(  195) = (   0.0743232   0.7579062  -0.3457094), wk =   0.0025641
        k(  196) = (   0.1238478   0.7579062  -0.1728547), wk =   0.0025641
        k(  197) = (   0.1733724   0.9473827   0.0000000), wk =   0.0025641
        k(  198) = (   0.2228970   0.9473827   0.1728547), wk =   0.0025641
        k(  199) = (   0.2724216   0.9473827   0.3457094), wk =   0.0025641
        k(  200) = (   0.3219462   0.9473827   0.5185641), wk =   0.0025641
        k(  201) = (   0.3714709   0.9473827   0.6914188), wk =   0.0025641
        k(  202) = (   0.4209955   0.9473827   0.8642735), wk =   0.0025641
        k(  203) = (   0.4705201   0.9473827   1.0371281), wk =   0.0025641
        k(  204) = (  -0.1237752   0.9473827  -1.0371281), wk =   0.0025641
        k(  205) = (  -0.0742506   0.9473827  -0.8642735), wk =   0.0025641
        k(  206) = (  -0.0247260   0.9473827  -0.6914188), wk =   0.0025641
        k(  207) = (   0.0247986   0.9473827  -0.5185641), wk =   0.0025641
        k(  208) = (   0.0743232   0.9473827  -0.3457094), wk =   0.0025641
        k(  209) = (   0.1238478   0.9473827  -0.1728547), wk =   0.0025641
        k(  210) = (   0.1733724   1.1368592   0.0000000), wk =   0.0025641
        k(  211) = (   0.2228970   1.1368592   0.1728547), wk =   0.0025641
        k(  212) = (   0.2724216   1.1368592   0.3457094), wk =   0.0025641
        k(  213) = (   0.3219462   1.1368592   0.5185641), wk =   0.0025641
        k(  214) = (   0.3714709   1.1368592   0.6914188), wk =   0.0025641
        k(  215) = (   0.4209955   1.1368592   0.8642735), wk =   0.0025641
        k(  216) = (   0.4705201   1.1368592   1.0371281), wk =   0.0025641
        k(  217) = (  -0.1237752   1.1368592  -1.0371281), wk =   0.0025641
        k(  218) = (  -0.0742506   1.1368592  -0.8642735), wk =   0.0025641
        k(  219) = (  -0.0247260   1.1368592  -0.6914188), wk =   0.0025641
        k(  220) = (   0.0247986   1.1368592  -0.5185641), wk =   0.0025641
        k(  221) = (   0.0743232   1.1368592  -0.3457094), wk =   0.0025641
        k(  222) = (   0.1238478   1.1368592  -0.1728547), wk =   0.0025641
        k(  223) = (   0.1733724   1.3263358   0.0000000), wk =   0.0025641
        k(  224) = (   0.2228970   1.3263358   0.1728547), wk =   0.0025641
        k(  225) = (   0.2724216   1.3263358   0.3457094), wk =   0.0025641
        k(  226) = (   0.3219462   1.3263358   0.5185641), wk =   0.0025641
        k(  227) = (   0.3714709   1.3263358   0.6914188), wk =   0.0025641
        k(  228) = (   0.4209955   1.3263358   0.8642735), wk =   0.0025641
        k(  229) = (   0.4705201   1.3263358   1.0371281), wk =   0.0025641
        k(  230) = (  -0.1237752   1.3263358  -1.0371281), wk =   0.0025641
        k(  231) = (  -0.0742506   1.3263358  -0.8642735), wk =   0.0025641
        k(  232) = (  -0.0247260   1.3263358  -0.6914188), wk =   0.0025641
        k(  233) = (   0.0247986   1.3263358  -0.5185641), wk =   0.0025641
        k(  234) = (   0.0743232   1.3263358  -0.3457094), wk =   0.0025641
        k(  235) = (   0.1238478   1.3263358  -0.1728547), wk =   0.0025641
        k(  236) = (   0.1733724   1.5158123   0.0000000), wk =   0.0025641
        k(  237) = (   0.2228970   1.5158123   0.1728547), wk =   0.0025641
        k(  238) = (   0.2724216   1.5158123   0.3457094), wk =   0.0025641
        k(  239) = (   0.3219462   1.5158123   0.5185641), wk =   0.0025641
        k(  240) = (   0.3714709   1.5158123   0.6914188), wk =   0.0025641
        k(  241) = (   0.4209955   1.5158123   0.8642735), wk =   0.0025641
        k(  242) = (   0.4705201   1.5158123   1.0371281), wk =   0.0025641
        k(  243) = (  -0.1237752   1.5158123  -1.0371281), wk =   0.0025641
        k(  244) = (  -0.0742506   1.5158123  -0.8642735), wk =   0.0025641
        k(  245) = (  -0.0247260   1.5158123  -0.6914188), wk =   0.0025641
        k(  246) = (   0.0247986   1.5158123  -0.5185641), wk =   0.0025641
        k(  247) = (   0.0743232   1.5158123  -0.3457094), wk =   0.0025641
        k(  248) = (   0.1238478   1.5158123  -0.1728547), wk =   0.0025641
        k(  249) = (   0.1733724   1.7052888   0.0000000), wk =   0.0025641
        k(  250) = (   0.2228970   1.7052888   0.1728547), wk =   0.0025641
        k(  251) = (   0.2724216   1.7052888   0.3457094), wk =   0.0025641
        k(  252) = (   0.3219462   1.7052888   0.5185641), wk =   0.0025641
        k(  253) = (   0.3714709   1.7052888   0.6914188), wk =   0.0025641
        k(  254) = (   0.4209955   1.7052888   0.8642735), wk =   0.0025641
        k(  255) = (   0.4705201   1.7052888   1.0371281), wk =   0.0025641
        k(  256) = (  -0.1237752   1.7052888  -1.0371281), wk =   0.0025641
        k(  257) = (  -0.0742506   1.7052888  -0.8642735), wk =   0.0025641
        k(  258) = (  -0.0247260   1.7052888  -0.6914188), wk =   0.0025641
        k(  259) = (   0.0247986   1.7052888  -0.5185641), wk =   0.0025641
        k(  260) = (   0.0743232   1.7052888  -0.3457094), wk =   0.0025641
        k(  261) = (   0.1238478   1.7052888  -0.1728547), wk =   0.0025641
        k(  262) = (   0.1733724  -1.8947654   0.0000000), wk =   0.0025641
        k(  263) = (   0.2228970  -1.8947654   0.1728547), wk =   0.0025641
        k(  264) = (   0.2724216  -1.8947654   0.3457094), wk =   0.0025641
        k(  265) = (   0.3219462  -1.8947654   0.5185641), wk =   0.0025641
        k(  266) = (   0.3714709  -1.8947654   0.6914188), wk =   0.0025641
        k(  267) = (   0.4209955  -1.8947654   0.8642735), wk =   0.0025641
        k(  268) = (   0.4705201  -1.8947654   1.0371281), wk =   0.0025641
        k(  269) = (  -0.1237752  -1.8947654  -1.0371281), wk =   0.0025641
        k(  270) = (  -0.0742506  -1.8947654  -0.8642735), wk =   0.0025641
        k(  271) = (  -0.0247260  -1.8947654  -0.6914188), wk =   0.0025641
        k(  272) = (   0.0247986  -1.8947654  -0.5185641), wk =   0.0025641
        k(  273) = (   0.0743232  -1.8947654  -0.3457094), wk =   0.0025641
        k(  274) = (   0.1238478  -1.8947654  -0.1728547), wk =   0.0025641
        k(  275) = (   0.1733724  -1.7052888   0.0000000), wk =   0.0025641
        k(  276) = (   0.2228970  -1.7052888   0.1728547), wk =   0.0025641
        k(  277) = (   0.2724216  -1.7052888   0.3457094), wk =   0.0025641
        k(  278) = (   0.3219462  -1.7052888   0.5185641), wk =   0.0025641
        k(  279) = (   0.3714709  -1.7052888   0.6914188), wk =   0.0025641
        k(  280) = (   0.4209955  -1.7052888   0.8642735), wk =   0.0025641
        k(  281) = (   0.4705201  -1.7052888   1.0371281), wk =   0.0025641
        k(  282) = (  -0.1237752  -1.7052888  -1.0371281), wk =   0.0025641
        k(  283) = (  -0.0742506  -1.7052888  -0.8642735), wk =   0.0025641
        k(  284) = (  -0.0247260  -1.7052888  -0.6914188), wk =   0.0025641
        k(  285) = (   0.0247986  -1.7052888  -0.5185641), wk =   0.0025641
        k(  286) = (   0.0743232  -1.7052888  -0.3457094), wk =   0.0025641
        k(  287) = (   0.1238478  -1.7052888  -0.1728547), wk =   0.0025641
        k(  288) = (   0.1733724  -1.5158123   0.0000000), wk =   0.0025641
        k(  289) = (   0.2228970  -1.5158123   0.1728547), wk =   0.0025641
        k(  290) = (   0.2724216  -1.5158123   0.3457094), wk =   0.0025641
        k(  291) = (   0.3219462  -1.5158123   0.5185641), wk =   0.0025641
        k(  292) = (   0.3714709  -1.5158123   0.6914188), wk =   0.0025641
        k(  293) = (   0.4209955  -1.5158123   0.8642735), wk =   0.0025641
        k(  294) = (   0.4705201  -1.5158123   1.0371281), wk =   0.0025641
        k(  295) = (  -0.1237752  -1.5158123  -1.0371281), wk =   0.0025641
        k(  296) = (  -0.0742506  -1.5158123  -0.8642735), wk =   0.0025641
        k(  297) = (  -0.0247260  -1.5158123  -0.6914188), wk =   0.0025641
        k(  298) = (   0.0247986  -1.5158123  -0.5185641), wk =   0.0025641
        k(  299) = (   0.0743232  -1.5158123  -0.3457094), wk =   0.0025641
        k(  300) = (   0.1238478  -1.5158123  -0.1728547), wk =   0.0025641
        k(  301) = (   0.1733724  -1.3263358   0.0000000), wk =   0.0025641
        k(  302) = (   0.2228970  -1.3263358   0.1728547), wk =   0.0025641
        k(  303) = (   0.2724216  -1.3263358   0.3457094), wk =   0.0025641
        k(  304) = (   0.3219462  -1.3263358   0.5185641), wk =   0.0025641
        k(  305) = (   0.3714709  -1.3263358   0.6914188), wk =   0.0025641
        k(  306) = (   0.4209955  -1.3263358   0.8642735), wk =   0.0025641
        k(  307) = (   0.4705201  -1.3263358   1.0371281), wk =   0.0025641
        k(  308) = (  -0.1237752  -1.3263358  -1.0371281), wk =   0.0025641
        k(  309) = (  -0.0742506  -1.3263358  -0.8642735), wk =   0.0025641
        k(  310) = (  -0.0247260  -1.3263358  -0.6914188), wk =   0.0025641
        k(  311) = (   0.0247986  -1.3263358  -0.5185641), wk =   0.0025641
        k(  312) = (   0.0743232  -1.3263358  -0.3457094), wk =   0.0025641
        k(  313) = (   0.1238478  -1.3263358  -0.1728547), wk =   0.0025641
        k(  314) = (   0.1733724  -1.1368592   0.0000000), wk =   0.0025641
        k(  315) = (   0.2228970  -1.1368592   0.1728547), wk =   0.0025641
        k(  316) = (   0.2724216  -1.1368592   0.3457094), wk =   0.0025641
        k(  317) = (   0.3219462  -1.1368592   0.5185641), wk =   0.0025641
        k(  318) = (   0.3714709  -1.1368592   0.6914188), wk =   0.0025641
        k(  319) = (   0.4209955  -1.1368592   0.8642735), wk =   0.0025641
        k(  320) = (   0.4705201  -1.1368592   1.0371281), wk =   0.0025641
        k(  321) = (  -0.1237752  -1.1368592  -1.0371281), wk =   0.0025641
        k(  322) = (  -0.0742506  -1.1368592  -0.8642735), wk =   0.0025641
        k(  323) = (  -0.0247260  -1.1368592  -0.6914188), wk =   0.0025641
        k(  324) = (   0.0247986  -1.1368592  -0.5185641), wk =   0.0025641
        k(  325) = (   0.0743232  -1.1368592  -0.3457094), wk =   0.0025641
        k(  326) = (   0.1238478  -1.1368592  -0.1728547), wk =   0.0025641
        k(  327) = (   0.1733724  -0.9473827   0.0000000), wk =   0.0025641
        k(  328) = (   0.2228970  -0.9473827   0.1728547), wk =   0.0025641
        k(  329) = (   0.2724216  -0.9473827   0.3457094), wk =   0.0025641
        k(  330) = (   0.3219462  -0.9473827   0.5185641), wk =   0.0025641
        k(  331) = (   0.3714709  -0.9473827   0.6914188), wk =   0.0025641
        k(  332) = (   0.4209955  -0.9473827   0.8642735), wk =   0.0025641
        k(  333) = (   0.4705201  -0.9473827   1.0371281), wk =   0.0025641
        k(  334) = (  -0.1237752  -0.9473827  -1.0371281), wk =   0.0025641
        k(  335) = (  -0.0742506  -0.9473827  -0.8642735), wk =   0.0025641
        k(  336) = (  -0.0247260  -0.9473827  -0.6914188), wk =   0.0025641
        k(  337) = (   0.0247986  -0.9473827  -0.5185641), wk =   0.0025641
        k(  338) = (   0.0743232  -0.9473827  -0.3457094), wk =   0.0025641
        k(  339) = (   0.1238478  -0.9473827  -0.1728547), wk =   0.0025641
        k(  340) = (   0.1733724  -0.7579062   0.0000000), wk =   0.0025641
        k(  341) = (   0.2228970  -0.7579062   0.1728547), wk =   0.0025641
        k(  342) = (   0.2724216  -0.7579062   0.3457094), wk =   0.0025641
        k(  343) = (   0.3219462  -0.7579062   0.5185641), wk =   0.0025641
        k(  344) = (   0.3714709  -0.7579062   0.6914188), wk =   0.0025641
        k(  345) = (   0.4209955  -0.7579062   0.8642735), wk =   0.0025641
        k(  346) = (   0.4705201  -0.7579062   1.0371281), wk =   0.0025641
        k(  347) = (  -0.1237752  -0.7579062  -1.0371281), wk =   0.0025641
        k(  348) = (  -0.0742506  -0.7579062  -0.8642735), wk =   0.0025641
        k(  349) = (  -0.0247260  -0.7579062  -0.6914188), wk =   0.0025641
        k(  350) = (   0.0247986  -0.7579062  -0.5185641), wk =   0.0025641
        k(  351) = (   0.0743232  -0.7579062  -0.3457094), wk =   0.0025641
        k(  352) = (   0.1238478  -0.7579062  -0.1728547), wk =   0.0025641
        k(  353) = (   0.1733724  -0.5684296   0.0000000), wk =   0.0025641
        k(  354) = (   0.2228970  -0.5684296   0.1728547), wk =   0.0025641
        k(  355) = (   0.2724216  -0.5684296   0.3457094), wk =   0.0025641
        k(  356) = (   0.3219462  -0.5684296   0.5185641), wk =   0.0025641
        k(  357) = (   0.3714709  -0.5684296   0.6914188), wk =   0.0025641
        k(  358) = (   0.4209955  -0.5684296   0.8642735), wk =   0.0025641
        k(  359) = (   0.4705201  -0.5684296   1.0371281), wk =   0.0025641
        k(  360) = (  -0.1237752  -0.5684296  -1.0371281), wk =   0.0025641
        k(  361) = (  -0.0742506  -0.5684296  -0.8642735), wk =   0.0025641
        k(  362) = (  -0.0247260  -0.5684296  -0.6914188), wk =   0.0025641
        k(  363) = (   0.0247986  -0.5684296  -0.5185641), wk =   0.0025641
        k(  364) = (   0.0743232  -0.5684296  -0.3457094), wk =   0.0025641
        k(  365) = (   0.1238478  -0.5684296  -0.1728547), wk =   0.0025641
        k(  366) = (   0.1733724  -0.3789531   0.0000000), wk =   0.0025641
        k(  367) = (   0.2228970  -0.3789531   0.1728547), wk =   0.0025641
        k(  368) = (   0.2724216  -0.3789531   0.3457094), wk =   0.0025641
        k(  369) = (   0.3219462  -0.3789531   0.5185641), wk =   0.0025641
        k(  370) = (   0.3714709  -0.3789531   0.6914188), wk =   0.0025641
        k(  371) = (   0.4209955  -0.3789531   0.8642735), wk =   0.0025641
        k(  372) = (   0.4705201  -0.3789531   1.0371281), wk =   0.0025641
        k(  373) = (  -0.1237752  -0.3789531  -1.0371281), wk =   0.0025641
        k(  374) = (  -0.0742506  -0.3789531  -0.8642735), wk =   0.0025641
        k(  375) = (  -0.0247260  -0.3789531  -0.6914188), wk =   0.0025641
        k(  376) = (   0.0247986  -0.3789531  -0.5185641), wk =   0.0025641
        k(  377) = (   0.0743232  -0.3789531  -0.3457094), wk =   0.0025641
        k(  378) = (   0.1238478  -0.3789531  -0.1728547), wk =   0.0025641
        k(  379) = (   0.1733724  -0.1894765   0.0000000), wk =   0.0025641
        k(  380) = (   0.2228970  -0.1894765   0.1728547), wk =   0.0025641
        k(  381) = (   0.2724216  -0.1894765   0.3457094), wk =   0.0025641
        k(  382) = (   0.3219462  -0.1894765   0.5185641), wk =   0.0025641
        k(  383) = (   0.3714709  -0.1894765   0.6914188), wk =   0.0025641
        k(  384) = (   0.4209955  -0.1894765   0.8642735), wk =   0.0025641
        k(  385) = (   0.4705201  -0.1894765   1.0371281), wk =   0.0025641
        k(  386) = (  -0.1237752  -0.1894765  -1.0371281), wk =   0.0025641
        k(  387) = (  -0.0742506  -0.1894765  -0.8642735), wk =   0.0025641
        k(  388) = (  -0.0247260  -0.1894765  -0.6914188), wk =   0.0025641
        k(  389) = (   0.0247986  -0.1894765  -0.5185641), wk =   0.0025641
        k(  390) = (   0.0743232  -0.1894765  -0.3457094), wk =   0.0025641
        k(  391) = (   0.1238478  -0.1894765  -0.1728547), wk =   0.0025641
        k(  392) = (   0.3467449   0.0000000   0.0000000), wk =   0.0025641
        k(  393) = (   0.3962695   0.0000000   0.1728547), wk =   0.0025641
        k(  394) = (   0.4457941   0.0000000   0.3457094), wk =   0.0025641
        k(  395) = (   0.4953187   0.0000000   0.5185641), wk =   0.0025641
        k(  396) = (   0.5448433   0.0000000   0.6914188), wk =   0.0025641
        k(  397) = (   0.5943679   0.0000000   0.8642735), wk =   0.0025641
        k(  398) = (   0.6438925   0.0000000   1.0371281), wk =   0.0025641
        k(  399) = (   0.0495972   0.0000000  -1.0371281), wk =   0.0025641
        k(  400) = (   0.0991218   0.0000000  -0.8642735), wk =   0.0025641
        k(  401) = (   0.1486464   0.0000000  -0.6914188), wk =   0.0025641
        k(  402) = (   0.1981710   0.0000000  -0.5185641), wk =   0.0025641
        k(  403) = (   0.2476957   0.0000000  -0.3457094), wk =   0.0025641
        k(  404) = (   0.2972203   0.0000000  -0.1728547), wk =   0.0025641
        k(  405) = (   0.3467449   0.1894765   0.0000000), wk =   0.0025641
        k(  406) = (   0.3962695   0.1894765   0.1728547), wk =   0.0025641
        k(  407) = (   0.4457941   0.1894765   0.3457094), wk =   0.0025641
        k(  408) = (   0.4953187   0.1894765   0.5185641), wk =   0.0025641
        k(  409) = (   0.5448433   0.1894765   0.6914188), wk =   0.0025641
        k(  410) = (   0.5943679   0.1894765   0.8642735), wk =   0.0025641
        k(  411) = (   0.6438925   0.1894765   1.0371281), wk =   0.0025641
        k(  412) = (   0.0495972   0.1894765  -1.0371281), wk =   0.0025641
        k(  413) = (   0.0991218   0.1894765  -0.8642735), wk =   0.0025641
        k(  414) = (   0.1486464   0.1894765  -0.6914188), wk =   0.0025641
        k(  415) = (   0.1981710   0.1894765  -0.5185641), wk =   0.0025641
        k(  416) = (   0.2476957   0.1894765  -0.3457094), wk =   0.0025641
        k(  417) = (   0.2972203   0.1894765  -0.1728547), wk =   0.0025641
        k(  418) = (   0.3467449   0.3789531   0.0000000), wk =   0.0025641
        k(  419) = (   0.3962695   0.3789531   0.1728547), wk =   0.0025641
        k(  420) = (   0.4457941   0.3789531   0.3457094), wk =   0.0025641
        k(  421) = (   0.4953187   0.3789531   0.5185641), wk =   0.0025641
        k(  422) = (   0.5448433   0.3789531   0.6914188), wk =   0.0025641
        k(  423) = (   0.5943679   0.3789531   0.8642735), wk =   0.0025641
        k(  424) = (   0.6438925   0.3789531   1.0371281), wk =   0.0025641
        k(  425) = (   0.0495972   0.3789531  -1.0371281), wk =   0.0025641
        k(  426) = (   0.0991218   0.3789531  -0.8642735), wk =   0.0025641
        k(  427) = (   0.1486464   0.3789531  -0.6914188), wk =   0.0025641
        k(  428) = (   0.1981710   0.3789531  -0.5185641), wk =   0.0025641
        k(  429) = (   0.2476957   0.3789531  -0.3457094), wk =   0.0025641
        k(  430) = (   0.2972203   0.3789531  -0.1728547), wk =   0.0025641
        k(  431) = (   0.3467449   0.5684296   0.0000000), wk =   0.0025641
        k(  432) = (   0.3962695   0.5684296   0.1728547), wk =   0.0025641
        k(  433) = (   0.4457941   0.5684296   0.3457094), wk =   0.0025641
        k(  434) = (   0.4953187   0.5684296   0.5185641), wk =   0.0025641
        k(  435) = (   0.5448433   0.5684296   0.6914188), wk =   0.0025641
        k(  436) = (   0.5943679   0.5684296   0.8642735), wk =   0.0025641
        k(  437) = (   0.6438925   0.5684296   1.0371281), wk =   0.0025641
        k(  438) = (   0.0495972   0.5684296  -1.0371281), wk =   0.0025641
        k(  439) = (   0.0991218   0.5684296  -0.8642735), wk =   0.0025641
        k(  440) = (   0.1486464   0.5684296  -0.6914188), wk =   0.0025641
        k(  441) = (   0.1981710   0.5684296  -0.5185641), wk =   0.0025641
        k(  442) = (   0.2476957   0.5684296  -0.3457094), wk =   0.0025641
        k(  443) = (   0.2972203   0.5684296  -0.1728547), wk =   0.0025641
        k(  444) = (   0.3467449   0.7579062   0.0000000), wk =   0.0025641
        k(  445) = (   0.3962695   0.7579062   0.1728547), wk =   0.0025641
        k(  446) = (   0.4457941   0.7579062   0.3457094), wk =   0.0025641
        k(  447) = (   0.4953187   0.7579062   0.5185641), wk =   0.0025641
        k(  448) = (   0.5448433   0.7579062   0.6914188), wk =   0.0025641
        k(  449) = (   0.5943679   0.7579062   0.8642735), wk =   0.0025641
        k(  450) = (   0.6438925   0.7579062   1.0371281), wk =   0.0025641
        k(  451) = (   0.0495972   0.7579062  -1.0371281), wk =   0.0025641
        k(  452) = (   0.0991218   0.7579062  -0.8642735), wk =   0.0025641
        k(  453) = (   0.1486464   0.7579062  -0.6914188), wk =   0.0025641
        k(  454) = (   0.1981710   0.7579062  -0.5185641), wk =   0.0025641
        k(  455) = (   0.2476957   0.7579062  -0.3457094), wk =   0.0025641
        k(  456) = (   0.2972203   0.7579062  -0.1728547), wk =   0.0025641
        k(  457) = (   0.3467449   0.9473827   0.0000000), wk =   0.0025641
        k(  458) = (   0.3962695   0.9473827   0.1728547), wk =   0.0025641
        k(  459) = (   0.4457941   0.9473827   0.3457094), wk =   0.0025641
        k(  460) = (   0.4953187   0.9473827   0.5185641), wk =   0.0025641
        k(  461) = (   0.5448433   0.9473827   0.6914188), wk =   0.0025641
        k(  462) = (   0.5943679   0.9473827   0.8642735), wk =   0.0025641
        k(  463) = (   0.6438925   0.9473827   1.0371281), wk =   0.0025641
        k(  464) = (   0.0495972   0.9473827  -1.0371281), wk =   0.0025641
        k(  465) = (   0.0991218   0.9473827  -0.8642735), wk =   0.0025641
        k(  466) = (   0.1486464   0.9473827  -0.6914188), wk =   0.0025641
        k(  467) = (   0.1981710   0.9473827  -0.5185641), wk =   0.0025641
        k(  468) = (   0.2476957   0.9473827  -0.3457094), wk =   0.0025641
        k(  469) = (   0.2972203   0.9473827  -0.1728547), wk =   0.0025641
        k(  470) = (   0.3467449   1.1368592   0.0000000), wk =   0.0025641
        k(  471) = (   0.3962695   1.1368592   0.1728547), wk =   0.0025641
        k(  472) = (   0.4457941   1.1368592   0.3457094), wk =   0.0025641
        k(  473) = (   0.4953187   1.1368592   0.5185641), wk =   0.0025641
        k(  474) = (   0.5448433   1.1368592   0.6914188), wk =   0.0025641
        k(  475) = (   0.5943679   1.1368592   0.8642735), wk =   0.0025641
        k(  476) = (   0.6438925   1.1368592   1.0371281), wk =   0.0025641
        k(  477) = (   0.0495972   1.1368592  -1.0371281), wk =   0.0025641
        k(  478) = (   0.0991218   1.1368592  -0.8642735), wk =   0.0025641
        k(  479) = (   0.1486464   1.1368592  -0.6914188), wk =   0.0025641
        k(  480) = (   0.1981710   1.1368592  -0.5185641), wk =   0.0025641
        k(  481) = (   0.2476957   1.1368592  -0.3457094), wk =   0.0025641
        k(  482) = (   0.2972203   1.1368592  -0.1728547), wk =   0.0025641
        k(  483) = (   0.3467449   1.3263358   0.0000000), wk =   0.0025641
        k(  484) = (   0.3962695   1.3263358   0.1728547), wk =   0.0025641
        k(  485) = (   0.4457941   1.3263358   0.3457094), wk =   0.0025641
        k(  486) = (   0.4953187   1.3263358   0.5185641), wk =   0.0025641
        k(  487) = (   0.5448433   1.3263358   0.6914188), wk =   0.0025641
        k(  488) = (   0.5943679   1.3263358   0.8642735), wk =   0.0025641
        k(  489) = (   0.6438925   1.3263358   1.0371281), wk =   0.0025641
        k(  490) = (   0.0495972   1.3263358  -1.0371281), wk =   0.0025641
        k(  491) = (   0.0991218   1.3263358  -0.8642735), wk =   0.0025641
        k(  492) = (   0.1486464   1.3263358  -0.6914188), wk =   0.0025641
        k(  493) = (   0.1981710   1.3263358  -0.5185641), wk =   0.0025641
        k(  494) = (   0.2476957   1.3263358  -0.3457094), wk =   0.0025641
        k(  495) = (   0.2972203   1.3263358  -0.1728547), wk =   0.0025641
        k(  496) = (   0.3467449   1.5158123   0.0000000), wk =   0.0025641
        k(  497) = (   0.3962695   1.5158123   0.1728547), wk =   0.0025641
        k(  498) = (   0.4457941   1.5158123   0.3457094), wk =   0.0025641
        k(  499) = (   0.4953187   1.5158123   0.5185641), wk =   0.0025641
        k(  500) = (   0.5448433   1.5158123   0.6914188), wk =   0.0025641
        k(  501) = (   0.5943679   1.5158123   0.8642735), wk =   0.0025641
        k(  502) = (   0.6438925   1.5158123   1.0371281), wk =   0.0025641
        k(  503) = (   0.0495972   1.5158123  -1.0371281), wk =   0.0025641
        k(  504) = (   0.0991218   1.5158123  -0.8642735), wk =   0.0025641
        k(  505) = (   0.1486464   1.5158123  -0.6914188), wk =   0.0025641
        k(  506) = (   0.1981710   1.5158123  -0.5185641), wk =   0.0025641
        k(  507) = (   0.2476957   1.5158123  -0.3457094), wk =   0.0025641
        k(  508) = (   0.2972203   1.5158123  -0.1728547), wk =   0.0025641
        k(  509) = (   0.3467449   1.7052888   0.0000000), wk =   0.0025641
        k(  510) = (   0.3962695   1.7052888   0.1728547), wk =   0.0025641
        k(  511) = (   0.4457941   1.7052888   0.3457094), wk =   0.0025641
        k(  512) = (   0.4953187   1.7052888   0.5185641), wk =   0.0025641
        k(  513) = (   0.5448433   1.7052888   0.6914188), wk =   0.0025641
        k(  514) = (   0.5943679   1.7052888   0.8642735), wk =   0.0025641
        k(  515) = (   0.6438925   1.7052888   1.0371281), wk =   0.0025641
        k(  516) = (   0.0495972   1.7052888  -1.0371281), wk =   0.0025641
        k(  517) = (   0.0991218   1.7052888  -0.8642735), wk =   0.0025641
        k(  518) = (   0.1486464   1.7052888  -0.6914188), wk =   0.0025641
        k(  519) = (   0.1981710   1.7052888  -0.5185641), wk =   0.0025641
        k(  520) = (   0.2476957   1.7052888  -0.3457094), wk =   0.0025641
        k(  521) = (   0.2972203   1.7052888  -0.1728547), wk =   0.0025641
        k(  522) = (   0.3467449  -1.8947654   0.0000000), wk =   0.0025641
        k(  523) = (   0.3962695  -1.8947654   0.1728547), wk =   0.0025641
        k(  524) = (   0.4457941  -1.8947654   0.3457094), wk =   0.0025641
        k(  525) = (   0.4953187  -1.8947654   0.5185641), wk =   0.0025641
        k(  526) = (   0.5448433  -1.8947654   0.6914188), wk =   0.0025641
        k(  527) = (   0.5943679  -1.8947654   0.8642735), wk =   0.0025641
        k(  528) = (   0.6438925  -1.8947654   1.0371281), wk =   0.0025641
        k(  529) = (   0.0495972  -1.8947654  -1.0371281), wk =   0.0025641
        k(  530) = (   0.0991218  -1.8947654  -0.8642735), wk =   0.0025641
        k(  531) = (   0.1486464  -1.8947654  -0.6914188), wk =   0.0025641
        k(  532) = (   0.1981710  -1.8947654  -0.5185641), wk =   0.0025641
        k(  533) = (   0.2476957  -1.8947654  -0.3457094), wk =   0.0025641
        k(  534) = (   0.2972203  -1.8947654  -0.1728547), wk =   0.0025641
        k(  535) = (   0.3467449  -1.7052888   0.0000000), wk =   0.0025641
        k(  536) = (   0.3962695  -1.7052888   0.1728547), wk =   0.0025641
        k(  537) = (   0.4457941  -1.7052888   0.3457094), wk =   0.0025641
        k(  538) = (   0.4953187  -1.7052888   0.5185641), wk =   0.0025641
        k(  539) = (   0.5448433  -1.7052888   0.6914188), wk =   0.0025641
        k(  540) = (   0.5943679  -1.7052888   0.8642735), wk =   0.0025641
        k(  541) = (   0.6438925  -1.7052888   1.0371281), wk =   0.0025641
        k(  542) = (   0.0495972  -1.7052888  -1.0371281), wk =   0.0025641
        k(  543) = (   0.0991218  -1.7052888  -0.8642735), wk =   0.0025641
        k(  544) = (   0.1486464  -1.7052888  -0.6914188), wk =   0.0025641
        k(  545) = (   0.1981710  -1.7052888  -0.5185641), wk =   0.0025641
        k(  546) = (   0.2476957  -1.7052888  -0.3457094), wk =   0.0025641
        k(  547) = (   0.2972203  -1.7052888  -0.1728547), wk =   0.0025641
        k(  548) = (   0.3467449  -1.5158123   0.0000000), wk =   0.0025641
        k(  549) = (   0.3962695  -1.5158123   0.1728547), wk =   0.0025641
        k(  550) = (   0.4457941  -1.5158123   0.3457094), wk =   0.0025641
        k(  551) = (   0.4953187  -1.5158123   0.5185641), wk =   0.0025641
        k(  552) = (   0.5448433  -1.5158123   0.6914188), wk =   0.0025641
        k(  553) = (   0.5943679  -1.5158123   0.8642735), wk =   0.0025641
        k(  554) = (   0.6438925  -1.5158123   1.0371281), wk =   0.0025641
        k(  555) = (   0.0495972  -1.5158123  -1.0371281), wk =   0.0025641
        k(  556) = (   0.0991218  -1.5158123  -0.8642735), wk =   0.0025641
        k(  557) = (   0.1486464  -1.5158123  -0.6914188), wk =   0.0025641
        k(  558) = (   0.1981710  -1.5158123  -0.5185641), wk =   0.0025641
        k(  559) = (   0.2476957  -1.5158123  -0.3457094), wk =   0.0025641
        k(  560) = (   0.2972203  -1.5158123  -0.1728547), wk =   0.0025641
        k(  561) = (   0.3467449  -1.3263358   0.0000000), wk =   0.0025641
        k(  562) = (   0.3962695  -1.3263358   0.1728547), wk =   0.0025641
        k(  563) = (   0.4457941  -1.3263358   0.3457094), wk =   0.0025641
        k(  564) = (   0.4953187  -1.3263358   0.5185641), wk =   0.0025641
        k(  565) = (   0.5448433  -1.3263358   0.6914188), wk =   0.0025641
        k(  566) = (   0.5943679  -1.3263358   0.8642735), wk =   0.0025641
        k(  567) = (   0.6438925  -1.3263358   1.0371281), wk =   0.0025641
        k(  568) = (   0.0495972  -1.3263358  -1.0371281), wk =   0.0025641
        k(  569) = (   0.0991218  -1.3263358  -0.8642735), wk =   0.0025641
        k(  570) = (   0.1486464  -1.3263358  -0.6914188), wk =   0.0025641
        k(  571) = (   0.1981710  -1.3263358  -0.5185641), wk =   0.0025641
        k(  572) = (   0.2476957  -1.3263358  -0.3457094), wk =   0.0025641
        k(  573) = (   0.2972203  -1.3263358  -0.1728547), wk =   0.0025641
        k(  574) = (   0.3467449  -1.1368592   0.0000000), wk =   0.0025641
        k(  575) = (   0.3962695  -1.1368592   0.1728547), wk =   0.0025641
        k(  576) = (   0.4457941  -1.1368592   0.3457094), wk =   0.0025641
        k(  577) = (   0.4953187  -1.1368592   0.5185641), wk =   0.0025641
        k(  578) = (   0.5448433  -1.1368592   0.6914188), wk =   0.0025641
        k(  579) = (   0.5943679  -1.1368592   0.8642735), wk =   0.0025641
        k(  580) = (   0.6438925  -1.1368592   1.0371281), wk =   0.0025641
        k(  581) = (   0.0495972  -1.1368592  -1.0371281), wk =   0.0025641
        k(  582) = (   0.0991218  -1.1368592  -0.8642735), wk =   0.0025641
        k(  583) = (   0.1486464  -1.1368592  -0.6914188), wk =   0.0025641
        k(  584) = (   0.1981710  -1.1368592  -0.5185641), wk =   0.0025641
        k(  585) = (   0.2476957  -1.1368592  -0.3457094), wk =   0.0025641
        k(  586) = (   0.2972203  -1.1368592  -0.1728547), wk =   0.0025641
        k(  587) = (   0.3467449  -0.9473827   0.0000000), wk =   0.0025641
        k(  588) = (   0.3962695  -0.9473827   0.1728547), wk =   0.0025641
        k(  589) = (   0.4457941  -0.9473827   0.3457094), wk =   0.0025641
        k(  590) = (   0.4953187  -0.9473827   0.5185641), wk =   0.0025641
        k(  591) = (   0.5448433  -0.9473827   0.6914188), wk =   0.0025641
        k(  592) = (   0.5943679  -0.9473827   0.8642735), wk =   0.0025641
        k(  593) = (   0.6438925  -0.9473827   1.0371281), wk =   0.0025641
        k(  594) = (   0.0495972  -0.9473827  -1.0371281), wk =   0.0025641
        k(  595) = (   0.0991218  -0.9473827  -0.8642735), wk =   0.0025641
        k(  596) = (   0.1486464  -0.9473827  -0.6914188), wk =   0.0025641
        k(  597) = (   0.1981710  -0.9473827  -0.5185641), wk =   0.0025641
        k(  598) = (   0.2476957  -0.9473827  -0.3457094), wk =   0.0025641
        k(  599) = (   0.2972203  -0.9473827  -0.1728547), wk =   0.0025641
        k(  600) = (   0.3467449  -0.7579062   0.0000000), wk =   0.0025641
        k(  601) = (   0.3962695  -0.7579062   0.1728547), wk =   0.0025641
        k(  602) = (   0.4457941  -0.7579062   0.3457094), wk =   0.0025641
        k(  603) = (   0.4953187  -0.7579062   0.5185641), wk =   0.0025641
        k(  604) = (   0.5448433  -0.7579062   0.6914188), wk =   0.0025641
        k(  605) = (   0.5943679  -0.7579062   0.8642735), wk =   0.0025641
        k(  606) = (   0.6438925  -0.7579062   1.0371281), wk =   0.0025641
        k(  607) = (   0.0495972  -0.7579062  -1.0371281), wk =   0.0025641
        k(  608) = (   0.0991218  -0.7579062  -0.8642735), wk =   0.0025641
        k(  609) = (   0.1486464  -0.7579062  -0.6914188), wk =   0.0025641
        k(  610) = (   0.1981710  -0.7579062  -0.5185641), wk =   0.0025641
        k(  611) = (   0.2476957  -0.7579062  -0.3457094), wk =   0.0025641
        k(  612) = (   0.2972203  -0.7579062  -0.1728547), wk =   0.0025641
        k(  613) = (   0.3467449  -0.5684296   0.0000000), wk =   0.0025641
        k(  614) = (   0.3962695  -0.5684296   0.1728547), wk =   0.0025641
        k(  615) = (   0.4457941  -0.5684296   0.3457094), wk =   0.0025641
        k(  616) = (   0.4953187  -0.5684296   0.5185641), wk =   0.0025641
        k(  617) = (   0.5448433  -0.5684296   0.6914188), wk =   0.0025641
        k(  618) = (   0.5943679  -0.5684296   0.8642735), wk =   0.0025641
        k(  619) = (   0.6438925  -0.5684296   1.0371281), wk =   0.0025641
        k(  620) = (   0.0495972  -0.5684296  -1.0371281), wk =   0.0025641
        k(  621) = (   0.0991218  -0.5684296  -0.8642735), wk =   0.0025641
        k(  622) = (   0.1486464  -0.5684296  -0.6914188), wk =   0.0025641
        k(  623) = (   0.1981710  -0.5684296  -0.5185641), wk =   0.0025641
        k(  624) = (   0.2476957  -0.5684296  -0.3457094), wk =   0.0025641
        k(  625) = (   0.2972203  -0.5684296  -0.1728547), wk =   0.0025641
        k(  626) = (   0.3467449  -0.3789531   0.0000000), wk =   0.0025641
        k(  627) = (   0.3962695  -0.3789531   0.1728547), wk =   0.0025641
        k(  628) = (   0.4457941  -0.3789531   0.3457094), wk =   0.0025641
        k(  629) = (   0.4953187  -0.3789531   0.5185641), wk =   0.0025641
        k(  630) = (   0.5448433  -0.3789531   0.6914188), wk =   0.0025641
        k(  631) = (   0.5943679  -0.3789531   0.8642735), wk =   0.0025641
        k(  632) = (   0.6438925  -0.3789531   1.0371281), wk =   0.0025641
        k(  633) = (   0.0495972  -0.3789531  -1.0371281), wk =   0.0025641
        k(  634) = (   0.0991218  -0.3789531  -0.8642735), wk =   0.0025641
        k(  635) = (   0.1486464  -0.3789531  -0.6914188), wk =   0.0025641
        k(  636) = (   0.1981710  -0.3789531  -0.5185641), wk =   0.0025641
        k(  637) = (   0.2476957  -0.3789531  -0.3457094), wk =   0.0025641
        k(  638) = (   0.2972203  -0.3789531  -0.1728547), wk =   0.0025641
        k(  639) = (   0.3467449  -0.1894765   0.0000000), wk =   0.0025641
        k(  640) = (   0.3962695  -0.1894765   0.1728547), wk =   0.0025641
        k(  641) = (   0.4457941  -0.1894765   0.3457094), wk =   0.0025641
        k(  642) = (   0.4953187  -0.1894765   0.5185641), wk =   0.0025641
        k(  643) = (   0.5448433  -0.1894765   0.6914188), wk =   0.0025641
        k(  644) = (   0.5943679  -0.1894765   0.8642735), wk =   0.0025641
        k(  645) = (   0.6438925  -0.1894765   1.0371281), wk =   0.0025641
        k(  646) = (   0.0495972  -0.1894765  -1.0371281), wk =   0.0025641
        k(  647) = (   0.0991218  -0.1894765  -0.8642735), wk =   0.0025641
        k(  648) = (   0.1486464  -0.1894765  -0.6914188), wk =   0.0025641
        k(  649) = (   0.1981710  -0.1894765  -0.5185641), wk =   0.0025641
        k(  650) = (   0.2476957  -0.1894765  -0.3457094), wk =   0.0025641
        k(  651) = (   0.2972203  -0.1894765  -0.1728547), wk =   0.0025641
        k(  652) = (  -0.5201173   0.0000000   0.0000000), wk =   0.0012821
        k(  653) = (  -0.4705927   0.0000000   0.1728547), wk =   0.0025641
        k(  654) = (  -0.4210681   0.0000000   0.3457094), wk =   0.0025641
        k(  655) = (  -0.3715435   0.0000000   0.5185641), wk =   0.0025641
        k(  656) = (  -0.3220189   0.0000000   0.6914188), wk =   0.0025641
        k(  657) = (  -0.2724943   0.0000000   0.8642735), wk =   0.0025641
        k(  658) = (  -0.2229697   0.0000000   1.0371281), wk =   0.0025641
        k(  659) = (  -0.5201173   0.1894765   0.0000000), wk =   0.0025641
        k(  660) = (  -0.4705927   0.1894765   0.1728547), wk =   0.0025641
        k(  661) = (  -0.4210681   0.1894765   0.3457094), wk =   0.0025641
        k(  662) = (  -0.3715435   0.1894765   0.5185641), wk =   0.0025641
        k(  663) = (  -0.3220189   0.1894765   0.6914188), wk =   0.0025641
        k(  664) = (  -0.2724943   0.1894765   0.8642735), wk =   0.0025641
        k(  665) = (  -0.2229697   0.1894765   1.0371281), wk =   0.0025641
        k(  666) = (  -0.8172649   0.1894765  -1.0371281), wk =   0.0025641
        k(  667) = (  -0.7677403   0.1894765  -0.8642735), wk =   0.0025641
        k(  668) = (  -0.7182157   0.1894765  -0.6914188), wk =   0.0025641
        k(  669) = (  -0.6686911   0.1894765  -0.5185641), wk =   0.0025641
        k(  670) = (  -0.6191665   0.1894765  -0.3457094), wk =   0.0025641
        k(  671) = (  -0.5696419   0.1894765  -0.1728547), wk =   0.0025641
        k(  672) = (  -0.5201173   0.3789531   0.0000000), wk =   0.0025641
        k(  673) = (  -0.4705927   0.3789531   0.1728547), wk =   0.0025641
        k(  674) = (  -0.4210681   0.3789531   0.3457094), wk =   0.0025641
        k(  675) = (  -0.3715435   0.3789531   0.5185641), wk =   0.0025641
        k(  676) = (  -0.3220189   0.3789531   0.6914188), wk =   0.0025641
        k(  677) = (  -0.2724943   0.3789531   0.8642735), wk =   0.0025641
        k(  678) = (  -0.2229697   0.3789531   1.0371281), wk =   0.0025641
        k(  679) = (  -0.8172649   0.3789531  -1.0371281), wk =   0.0025641
        k(  680) = (  -0.7677403   0.3789531  -0.8642735), wk =   0.0025641
        k(  681) = (  -0.7182157   0.3789531  -0.6914188), wk =   0.0025641
        k(  682) = (  -0.6686911   0.3789531  -0.5185641), wk =   0.0025641
        k(  683) = (  -0.6191665   0.3789531  -0.3457094), wk =   0.0025641
        k(  684) = (  -0.5696419   0.3789531  -0.1728547), wk =   0.0025641
        k(  685) = (  -0.5201173   0.5684296   0.0000000), wk =   0.0025641
        k(  686) = (  -0.4705927   0.5684296   0.1728547), wk =   0.0025641
        k(  687) = (  -0.4210681   0.5684296   0.3457094), wk =   0.0025641
        k(  688) = (  -0.3715435   0.5684296   0.5185641), wk =   0.0025641
        k(  689) = (  -0.3220189   0.5684296   0.6914188), wk =   0.0025641
        k(  690) = (  -0.2724943   0.5684296   0.8642735), wk =   0.0025641
        k(  691) = (  -0.2229697   0.5684296   1.0371281), wk =   0.0025641
        k(  692) = (  -0.8172649   0.5684296  -1.0371281), wk =   0.0025641
        k(  693) = (  -0.7677403   0.5684296  -0.8642735), wk =   0.0025641
        k(  694) = (  -0.7182157   0.5684296  -0.6914188), wk =   0.0025641
        k(  695) = (  -0.6686911   0.5684296  -0.5185641), wk =   0.0025641
        k(  696) = (  -0.6191665   0.5684296  -0.3457094), wk =   0.0025641
        k(  697) = (  -0.5696419   0.5684296  -0.1728547), wk =   0.0025641
        k(  698) = (  -0.5201173   0.7579062   0.0000000), wk =   0.0025641
        k(  699) = (  -0.4705927   0.7579062   0.1728547), wk =   0.0025641
        k(  700) = (  -0.4210681   0.7579062   0.3457094), wk =   0.0025641
        k(  701) = (  -0.3715435   0.7579062   0.5185641), wk =   0.0025641
        k(  702) = (  -0.3220189   0.7579062   0.6914188), wk =   0.0025641
        k(  703) = (  -0.2724943   0.7579062   0.8642735), wk =   0.0025641
        k(  704) = (  -0.2229697   0.7579062   1.0371281), wk =   0.0025641
        k(  705) = (  -0.8172649   0.7579062  -1.0371281), wk =   0.0025641
        k(  706) = (  -0.7677403   0.7579062  -0.8642735), wk =   0.0025641
        k(  707) = (  -0.7182157   0.7579062  -0.6914188), wk =   0.0025641
        k(  708) = (  -0.6686911   0.7579062  -0.5185641), wk =   0.0025641
        k(  709) = (  -0.6191665   0.7579062  -0.3457094), wk =   0.0025641
        k(  710) = (  -0.5696419   0.7579062  -0.1728547), wk =   0.0025641
        k(  711) = (  -0.5201173   0.9473827   0.0000000), wk =   0.0025641
        k(  712) = (  -0.4705927   0.9473827   0.1728547), wk =   0.0025641
        k(  713) = (  -0.4210681   0.9473827   0.3457094), wk =   0.0025641
        k(  714) = (  -0.3715435   0.9473827   0.5185641), wk =   0.0025641
        k(  715) = (  -0.3220189   0.9473827   0.6914188), wk =   0.0025641
        k(  716) = (  -0.2724943   0.9473827   0.8642735), wk =   0.0025641
        k(  717) = (  -0.2229697   0.9473827   1.0371281), wk =   0.0025641
        k(  718) = (  -0.8172649   0.9473827  -1.0371281), wk =   0.0025641
        k(  719) = (  -0.7677403   0.9473827  -0.8642735), wk =   0.0025641
        k(  720) = (  -0.7182157   0.9473827  -0.6914188), wk =   0.0025641
        k(  721) = (  -0.6686911   0.9473827  -0.5185641), wk =   0.0025641
        k(  722) = (  -0.6191665   0.9473827  -0.3457094), wk =   0.0025641
        k(  723) = (  -0.5696419   0.9473827  -0.1728547), wk =   0.0025641
        k(  724) = (  -0.5201173   1.1368592   0.0000000), wk =   0.0025641
        k(  725) = (  -0.4705927   1.1368592   0.1728547), wk =   0.0025641
        k(  726) = (  -0.4210681   1.1368592   0.3457094), wk =   0.0025641
        k(  727) = (  -0.3715435   1.1368592   0.5185641), wk =   0.0025641
        k(  728) = (  -0.3220189   1.1368592   0.6914188), wk =   0.0025641
        k(  729) = (  -0.2724943   1.1368592   0.8642735), wk =   0.0025641
        k(  730) = (  -0.2229697   1.1368592   1.0371281), wk =   0.0025641
        k(  731) = (  -0.8172649   1.1368592  -1.0371281), wk =   0.0025641
        k(  732) = (  -0.7677403   1.1368592  -0.8642735), wk =   0.0025641
        k(  733) = (  -0.7182157   1.1368592  -0.6914188), wk =   0.0025641
        k(  734) = (  -0.6686911   1.1368592  -0.5185641), wk =   0.0025641
        k(  735) = (  -0.6191665   1.1368592  -0.3457094), wk =   0.0025641
        k(  736) = (  -0.5696419   1.1368592  -0.1728547), wk =   0.0025641
        k(  737) = (  -0.5201173   1.3263358   0.0000000), wk =   0.0025641
        k(  738) = (  -0.4705927   1.3263358   0.1728547), wk =   0.0025641
        k(  739) = (  -0.4210681   1.3263358   0.3457094), wk =   0.0025641
        k(  740) = (  -0.3715435   1.3263358   0.5185641), wk =   0.0025641
        k(  741) = (  -0.3220189   1.3263358   0.6914188), wk =   0.0025641
        k(  742) = (  -0.2724943   1.3263358   0.8642735), wk =   0.0025641
        k(  743) = (  -0.2229697   1.3263358   1.0371281), wk =   0.0025641
        k(  744) = (  -0.8172649   1.3263358  -1.0371281), wk =   0.0025641
        k(  745) = (  -0.7677403   1.3263358  -0.8642735), wk =   0.0025641
        k(  746) = (  -0.7182157   1.3263358  -0.6914188), wk =   0.0025641
        k(  747) = (  -0.6686911   1.3263358  -0.5185641), wk =   0.0025641
        k(  748) = (  -0.6191665   1.3263358  -0.3457094), wk =   0.0025641
        k(  749) = (  -0.5696419   1.3263358  -0.1728547), wk =   0.0025641
        k(  750) = (  -0.5201173   1.5158123   0.0000000), wk =   0.0025641
        k(  751) = (  -0.4705927   1.5158123   0.1728547), wk =   0.0025641
        k(  752) = (  -0.4210681   1.5158123   0.3457094), wk =   0.0025641
        k(  753) = (  -0.3715435   1.5158123   0.5185641), wk =   0.0025641
        k(  754) = (  -0.3220189   1.5158123   0.6914188), wk =   0.0025641
        k(  755) = (  -0.2724943   1.5158123   0.8642735), wk =   0.0025641
        k(  756) = (  -0.2229697   1.5158123   1.0371281), wk =   0.0025641
        k(  757) = (  -0.8172649   1.5158123  -1.0371281), wk =   0.0025641
        k(  758) = (  -0.7677403   1.5158123  -0.8642735), wk =   0.0025641
        k(  759) = (  -0.7182157   1.5158123  -0.6914188), wk =   0.0025641
        k(  760) = (  -0.6686911   1.5158123  -0.5185641), wk =   0.0025641
        k(  761) = (  -0.6191665   1.5158123  -0.3457094), wk =   0.0025641
        k(  762) = (  -0.5696419   1.5158123  -0.1728547), wk =   0.0025641
        k(  763) = (  -0.5201173   1.7052888   0.0000000), wk =   0.0025641
        k(  764) = (  -0.4705927   1.7052888   0.1728547), wk =   0.0025641
        k(  765) = (  -0.4210681   1.7052888   0.3457094), wk =   0.0025641
        k(  766) = (  -0.3715435   1.7052888   0.5185641), wk =   0.0025641
        k(  767) = (  -0.3220189   1.7052888   0.6914188), wk =   0.0025641
        k(  768) = (  -0.2724943   1.7052888   0.8642735), wk =   0.0025641
        k(  769) = (  -0.2229697   1.7052888   1.0371281), wk =   0.0025641
        k(  770) = (  -0.8172649   1.7052888  -1.0371281), wk =   0.0025641
        k(  771) = (  -0.7677403   1.7052888  -0.8642735), wk =   0.0025641
        k(  772) = (  -0.7182157   1.7052888  -0.6914188), wk =   0.0025641
        k(  773) = (  -0.6686911   1.7052888  -0.5185641), wk =   0.0025641
        k(  774) = (  -0.6191665   1.7052888  -0.3457094), wk =   0.0025641
        k(  775) = (  -0.5696419   1.7052888  -0.1728547), wk =   0.0025641
        k(  776) = (  -0.5201173  -1.8947654   0.0000000), wk =   0.0012821
        k(  777) = (  -0.4705927  -1.8947654   0.1728547), wk =   0.0025641
        k(  778) = (  -0.4210681  -1.8947654   0.3457094), wk =   0.0025641
        k(  779) = (  -0.3715435  -1.8947654   0.5185641), wk =   0.0025641
        k(  780) = (  -0.3220189  -1.8947654   0.6914188), wk =   0.0025641
        k(  781) = (  -0.2724943  -1.8947654   0.8642735), wk =   0.0025641
        k(  782) = (  -0.2229697  -1.8947654   1.0371281), wk =   0.0025641

                       cryst. coord.
        k(    1) = (   0.0000000   0.0000000   0.0000000), wk =   0.0012821
        k(    2) = (   0.0000000   0.0000000   0.0769231), wk =   0.0025641
        k(    3) = (   0.0000000   0.0000000   0.1538462), wk =   0.0025641
        k(    4) = (  -0.0000000   0.0000000   0.2307692), wk =   0.0025641
        k(    5) = (   0.0000000   0.0000000   0.3076923), wk =   0.0025641
        k(    6) = (   0.0000000   0.0000000   0.3846154), wk =   0.0025641
        k(    7) = (  -0.0000000   0.0000000   0.4615385), wk =   0.0025641
        k(    8) = (   0.0000000   0.0500000   0.0000000), wk =   0.0025641
        k(    9) = (   0.0000000   0.0500000   0.0769231), wk =   0.0025641
        k(   10) = (   0.0000000   0.0500000   0.1538462), wk =   0.0025641
        k(   11) = (  -0.0000000   0.0500000   0.2307692), wk =   0.0025641
        k(   12) = (   0.0000000   0.0500000   0.3076923), wk =   0.0025641
        k(   13) = (   0.0000000   0.0500000   0.3846154), wk =   0.0025641
        k(   14) = (  -0.0000000   0.0500000   0.4615385), wk =   0.0025641
        k(   15) = (   0.0000000   0.0500000  -0.4615385), wk =   0.0025641
        k(   16) = (  -0.0000000   0.0500000  -0.3846154), wk =   0.0025641
        k(   17) = (  -0.0000000   0.0500000  -0.3076923), wk =   0.0025641
        k(   18) = (  -0.0000000   0.0500000  -0.2307692), wk =   0.0025641
        k(   19) = (  -0.0000000   0.0500000  -0.1538462), wk =   0.0025641
        k(   20) = (  -0.0000000   0.0500000  -0.0769231), wk =   0.0025641
        k(   21) = (   0.0000000   0.1000000   0.0000000), wk =   0.0025641
        k(   22) = (   0.0000000   0.1000000   0.0769231), wk =   0.0025641
        k(   23) = (   0.0000000   0.1000000   0.1538462), wk =   0.0025641
        k(   24) = (  -0.0000000   0.1000000   0.2307692), wk =   0.0025641
        k(   25) = (   0.0000000   0.1000000   0.3076923), wk =   0.0025641
        k(   26) = (   0.0000000   0.1000000   0.3846154), wk =   0.0025641
        k(   27) = (  -0.0000000   0.1000000   0.4615385), wk =   0.0025641
        k(   28) = (   0.0000000   0.1000000  -0.4615385), wk =   0.0025641
        k(   29) = (  -0.0000000   0.1000000  -0.3846154), wk =   0.0025641
        k(   30) = (  -0.0000000   0.1000000  -0.3076923), wk =   0.0025641
        k(   31) = (  -0.0000000   0.1000000  -0.2307692), wk =   0.0025641
        k(   32) = (  -0.0000000   0.1000000  -0.1538462), wk =   0.0025641
        k(   33) = (  -0.0000000   0.1000000  -0.0769231), wk =   0.0025641
        k(   34) = (   0.0000000   0.1500000   0.0000000), wk =   0.0025641
        k(   35) = (   0.0000000   0.1500000   0.0769231), wk =   0.0025641
        k(   36) = (   0.0000000   0.1500000   0.1538462), wk =   0.0025641
        k(   37) = (  -0.0000000   0.1500000   0.2307692), wk =   0.0025641
        k(   38) = (   0.0000000   0.1500000   0.3076923), wk =   0.0025641
        k(   39) = (   0.0000000   0.1500000   0.3846154), wk =   0.0025641
        k(   40) = (  -0.0000000   0.1500000   0.4615385), wk =   0.0025641
        k(   41) = (   0.0000000   0.1500000  -0.4615385), wk =   0.0025641
        k(   42) = (  -0.0000000   0.1500000  -0.3846154), wk =   0.0025641
        k(   43) = (  -0.0000000   0.1500000  -0.3076923), wk =   0.0025641
        k(   44) = (  -0.0000000   0.1500000  -0.2307692), wk =   0.0025641
        k(   45) = (  -0.0000000   0.1500000  -0.1538462), wk =   0.0025641
        k(   46) = (  -0.0000000   0.1500000  -0.0769231), wk =   0.0025641
        k(   47) = (   0.0000000   0.2000000   0.0000000), wk =   0.0025641
        k(   48) = (   0.0000000   0.2000000   0.0769231), wk =   0.0025641
        k(   49) = (   0.0000000   0.2000000   0.1538462), wk =   0.0025641
        k(   50) = (  -0.0000000   0.2000000   0.2307692), wk =   0.0025641
        k(   51) = (   0.0000000   0.2000000   0.3076923), wk =   0.0025641
        k(   52) = (   0.0000000   0.2000000   0.3846154), wk =   0.0025641
        k(   53) = (  -0.0000000   0.2000000   0.4615385), wk =   0.0025641
        k(   54) = (   0.0000000   0.2000000  -0.4615385), wk =   0.0025641
        k(   55) = (  -0.0000000   0.2000000  -0.3846154), wk =   0.0025641
        k(   56) = (  -0.0000000   0.2000000  -0.3076923), wk =   0.0025641
        k(   57) = (  -0.0000000   0.2000000  -0.2307692), wk =   0.0025641
        k(   58) = (  -0.0000000   0.2000000  -0.1538462), wk =   0.0025641
        k(   59) = (  -0.0000000   0.2000000  -0.0769231), wk =   0.0025641
        k(   60) = (   0.0000000   0.2500000   0.0000000), wk =   0.0025641
        k(   61) = (   0.0000000   0.2500000   0.0769231), wk =   0.0025641
        k(   62) = (   0.0000000   0.2500000   0.1538462), wk =   0.0025641
        k(   63) = (  -0.0000000   0.2500000   0.2307692), wk =   0.0025641
        k(   64) = (   0.0000000   0.2500000   0.3076923), wk =   0.0025641
        k(   65) = (   0.0000000   0.2500000   0.3846154), wk =   0.0025641
        k(   66) = (  -0.0000000   0.2500000   0.4615385), wk =   0.0025641
        k(   67) = (   0.0000000   0.2500000  -0.4615385), wk =   0.0025641
        k(   68) = (  -0.0000000   0.2500000  -0.3846154), wk =   0.0025641
        k(   69) = (  -0.0000000   0.2500000  -0.3076923), wk =   0.0025641
        k(   70) = (  -0.0000000   0.2500000  -0.2307692), wk =   0.0025641
        k(   71) = (  -0.0000000   0.2500000  -0.1538462), wk =   0.0025641
        k(   72) = (  -0.0000000   0.2500000  -0.0769231), wk =   0.0025641
        k(   73) = (   0.0000000   0.3000000   0.0000000), wk =   0.0025641
        k(   74) = (   0.0000000   0.3000000   0.0769231), wk =   0.0025641
        k(   75) = (   0.0000000   0.3000000   0.1538462), wk =   0.0025641
        k(   76) = (  -0.0000000   0.3000000   0.2307692), wk =   0.0025641
        k(   77) = (   0.0000000   0.3000000   0.3076923), wk =   0.0025641
        k(   78) = (   0.0000000   0.3000000   0.3846154), wk =   0.0025641
        k(   79) = (  -0.0000000   0.3000000   0.4615385), wk =   0.0025641
        k(   80) = (   0.0000000   0.3000000  -0.4615385), wk =   0.0025641
        k(   81) = (  -0.0000000   0.3000000  -0.3846154), wk =   0.0025641
        k(   82) = (  -0.0000000   0.3000000  -0.3076923), wk =   0.0025641
        k(   83) = (  -0.0000000   0.3000000  -0.2307692), wk =   0.0025641
        k(   84) = (  -0.0000000   0.3000000  -0.1538462), wk =   0.0025641
        k(   85) = (  -0.0000000   0.3000000  -0.0769231), wk =   0.0025641
        k(   86) = (   0.0000000   0.3500000   0.0000000), wk =   0.0025641
        k(   87) = (   0.0000000   0.3500000   0.0769231), wk =   0.0025641
        k(   88) = (   0.0000000   0.3500000   0.1538462), wk =   0.0025641
        k(   89) = (  -0.0000000   0.3500000   0.2307692), wk =   0.0025641
        k(   90) = (   0.0000000   0.3500000   0.3076923), wk =   0.0025641
        k(   91) = (   0.0000000   0.3500000   0.3846154), wk =   0.0025641
        k(   92) = (  -0.0000000   0.3500000   0.4615385), wk =   0.0025641
        k(   93) = (   0.0000000   0.3500000  -0.4615385), wk =   0.0025641
        k(   94) = (  -0.0000000   0.3500000  -0.3846154), wk =   0.0025641
        k(   95) = (  -0.0000000   0.3500000  -0.3076923), wk =   0.0025641
        k(   96) = (  -0.0000000   0.3500000  -0.2307692), wk =   0.0025641
        k(   97) = (  -0.0000000   0.3500000  -0.1538462), wk =   0.0025641
        k(   98) = (  -0.0000000   0.3500000  -0.0769231), wk =   0.0025641
        k(   99) = (   0.0000000   0.4000000   0.0000000), wk =   0.0025641
        k(  100) = (   0.0000000   0.4000000   0.0769231), wk =   0.0025641
        k(  101) = (   0.0000000   0.4000000   0.1538462), wk =   0.0025641
        k(  102) = (  -0.0000000   0.4000000   0.2307692), wk =   0.0025641
        k(  103) = (   0.0000000   0.4000000   0.3076923), wk =   0.0025641
        k(  104) = (   0.0000000   0.4000000   0.3846154), wk =   0.0025641
        k(  105) = (  -0.0000000   0.4000000   0.4615385), wk =   0.0025641
        k(  106) = (   0.0000000   0.4000000  -0.4615385), wk =   0.0025641
        k(  107) = (  -0.0000000   0.4000000  -0.3846154), wk =   0.0025641
        k(  108) = (  -0.0000000   0.4000000  -0.3076923), wk =   0.0025641
        k(  109) = (  -0.0000000   0.4000000  -0.2307692), wk =   0.0025641
        k(  110) = (  -0.0000000   0.4000000  -0.1538462), wk =   0.0025641
        k(  111) = (  -0.0000000   0.4000000  -0.0769231), wk =   0.0025641
        k(  112) = (   0.0000000   0.4500000   0.0000000), wk =   0.0025641
        k(  113) = (   0.0000000   0.4500000   0.0769231), wk =   0.0025641
        k(  114) = (   0.0000000   0.4500000   0.1538462), wk =   0.0025641
        k(  115) = (  -0.0000000   0.4500000   0.2307692), wk =   0.0025641
        k(  116) = (   0.0000000   0.4500000   0.3076923), wk =   0.0025641
        k(  117) = (   0.0000000   0.4500000   0.3846154), wk =   0.0025641
        k(  118) = (  -0.0000000   0.4500000   0.4615385), wk =   0.0025641
        k(  119) = (   0.0000000   0.4500000  -0.4615385), wk =   0.0025641
        k(  120) = (  -0.0000000   0.4500000  -0.3846154), wk =   0.0025641
        k(  121) = (  -0.0000000   0.4500000  -0.3076923), wk =   0.0025641
        k(  122) = (  -0.0000000   0.4500000  -0.2307692), wk =   0.0025641
        k(  123) = (  -0.0000000   0.4500000  -0.1538462), wk =   0.0025641
        k(  124) = (  -0.0000000   0.4500000  -0.0769231), wk =   0.0025641
        k(  125) = (   0.0000000  -0.5000000   0.0000000), wk =   0.0012821
        k(  126) = (   0.0000000  -0.5000000   0.0769231), wk =   0.0025641
        k(  127) = (   0.0000000  -0.5000000   0.1538462), wk =   0.0025641
        k(  128) = (  -0.0000000  -0.5000000   0.2307692), wk =   0.0025641
        k(  129) = (   0.0000000  -0.5000000   0.3076923), wk =   0.0025641
        k(  130) = (   0.0000000  -0.5000000   0.3846154), wk =   0.0025641
        k(  131) = (  -0.0000000  -0.5000000   0.4615385), wk =   0.0025641
        k(  132) = (   0.1666667   0.0000000   0.0000000), wk =   0.0025641
        k(  133) = (   0.1666667   0.0000000   0.0769231), wk =   0.0025641
        k(  134) = (   0.1666667   0.0000000   0.1538462), wk =   0.0025641
        k(  135) = (   0.1666667   0.0000000   0.2307692), wk =   0.0025641
        k(  136) = (   0.1666667   0.0000000   0.3076923), wk =   0.0025641
        k(  137) = (   0.1666667   0.0000000   0.3846154), wk =   0.0025641
        k(  138) = (   0.1666667   0.0000000   0.4615385), wk =   0.0025641
        k(  139) = (   0.1666667   0.0000000  -0.4615385), wk =   0.0025641
        k(  140) = (   0.1666667   0.0000000  -0.3846154), wk =   0.0025641
        k(  141) = (   0.1666667   0.0000000  -0.3076923), wk =   0.0025641
        k(  142) = (   0.1666667   0.0000000  -0.2307692), wk =   0.0025641
        k(  143) = (   0.1666667   0.0000000  -0.1538462), wk =   0.0025641
[...]
     0.8330   0.8330   0.1906   0.1906   0.0915   0.0915

          k =-0.2230-1.8948 1.0371 ( 11826 PWs)   bands (ev):

    -3.1573  -3.1573  -2.1802  -2.1802  -1.9688  -1.9688  -1.1736  -1.1736
     0.0038   0.0038   0.7527   0.7527   0.8527   0.8527   1.9892   1.9892
     2.0844   2.0844   2.7182   2.7182   3.4854   3.4854   3.8009   3.8009
     4.2443   4.2443   4.6279   4.6279   4.8679   4.8679   5.5537   5.5537
     6.1196   6.1196   6.4847   6.4847   6.7840   6.7840

     occupation numbers 
     1.0000   1.0000   1.0000   1.0000   1.0000   1.0000   1.0000   1.0000
     1.0000   1.0000   1.0000   1.0000   1.0000   1.0000   1.0000   1.0000
     1.0000   1.0000   1.0000   1.0000   1.0000   1.0000   1.0000   1.0000
     1.0000   1.0000   1.0002   1.0002   1.0012   1.0012   1.0337   1.0337
     0.8084   0.8084   0.3253   0.3253   0.0366   0.0366

     the Fermi energy is     6.3578 ev

!    total energy              =    -585.64447508 Ry
     Harris-Foulkes estimate   =    -585.64447508 Ry
     estimated scf accuracy    <          3.8E-13 Ry

     The total energy is the sum of the following terms:

     one-electron contribution =      41.68091006 Ry
     hartree contribution      =       8.29361746 Ry
     xc contribution           =     -75.83947387 Ry
     ewald contribution        =    -108.18782694 Ry
     one-center paw contrib.   =    -451.58800885 Ry
      -> PAW hartree energy AE =       0.84054116 Ry
      -> PAW hartree energy PS =      -0.83862916 Ry
      -> PAW xc energy AE      =     -32.63512605 Ry
      -> PAW xc energy PS      =       1.33700711 Ry
      -> total E_H with PAW    =       8.29552945 Ry
      -> total E_XC with PAW   =    -107.13759281 Ry
     smearing contrib. (-TS)   =      -0.00369295 Ry

     convergence has been achieved in  18 iterations

     Forces acting on atoms (cartesian axes, Ry/au):

     atom    1 type  1   force =     0.00001281    0.00000002    0.00000700
     atom    2 type  1   force =    -0.00084476   -0.00000005    0.00016371
     atom    3 type  1   force =    -0.00126780   -0.00000003   -0.00045272
     atom    4 type  1   force =     0.00126739    0.00000002    0.00045311
     atom    5 type  1   force =     0.00084473    0.00000006   -0.00016418
     atom    6 type  2   force =    -0.00055527    0.00000009   -0.00052163
     atom    7 type  2   force =     0.00024647    0.00000002    0.00026303
     atom    8 type  3   force =    -0.00060093    0.00000000   -0.00044299
     atom    9 type  3   force =     0.00060054   -0.00000004    0.00044319
     atom   10 type  2   force =    -0.00024721    0.00000004   -0.00026300
     atom   11 type  2   force =     0.00055517   -0.00000005    0.00052155
     atom   12 type  1   force =    -0.00000903   -0.00000002   -0.00000733
     atom   13 type  1   force =    -0.00084925    0.00000004    0.00014070
     atom   14 type  1   force =    -0.00127235    0.00000002   -0.00047617
     atom   15 type  1   force =     0.00127171   -0.00000001    0.00047654
     atom   16 type  1   force =     0.00084912   -0.00000005   -0.00014106
     atom   17 type  2   force =    -0.00056853   -0.00000009   -0.00054224
     atom   18 type  2   force =     0.00023121   -0.00000000    0.00025987
     atom   19 type  3   force =    -0.00060278    0.00000001   -0.00044324
     atom   20 type  3   force =     0.00060216    0.00000003    0.00044337
     atom   21 type  2   force =    -0.00023181   -0.00000007   -0.00025966
     atom   22 type  2   force =     0.00056842    0.00000004    0.00054213
     The non-local contrib.  to forces
     atom    1 type  1   force =     0.00004239    0.00000002    0.00002368
     atom    2 type  1   force =     0.01369112   -0.00000009   -0.00087140
     atom    3 type  1   force =     0.00770447    0.00000008    0.01094832
     atom    4 type  1   force =    -0.00770751    0.00000008   -0.01094780
     atom    5 type  1   force =    -0.01369249    0.00000003    0.00086933
     atom    6 type  2   force =    -0.02250172    0.00000002   -0.05440272
     atom    7 type  2   force =     0.01660840    0.00000010    0.02099291
     atom    8 type  3   force =     0.00559973    0.00000007   -0.01065441
     atom    9 type  3   force =    -0.00560136    0.00000002    0.01065466
     atom   10 type  2   force =    -0.01661465   -0.00000015   -0.02099004
     atom   11 type  2   force =     0.02251272   -0.00000002    0.05439996
     atom   12 type  1   force =    -0.00003458   -0.00000002   -0.00002435
     atom   13 type  1   force =     0.01370143    0.00000010   -0.00096110
     atom   14 type  1   force =     0.00773089   -0.00000007    0.01088775
     atom   15 type  1   force =    -0.00773437   -0.00000010   -0.01088700
     atom   16 type  1   force =    -0.01370303   -0.00000004    0.00095885
     atom   17 type  2   force =    -0.02252394   -0.00000004   -0.05445476
     atom   18 type  2   force =     0.01661850   -0.00000008    0.02094754
     atom   19 type  3   force =     0.00559751   -0.00000011   -0.01064831
     atom   20 type  3   force =    -0.00559967    0.00000002    0.01064863
     atom   21 type  2   force =    -0.01662491    0.00000015   -0.02094447
     atom   22 type  2   force =     0.02253514    0.00000005    0.05445200
     The ionic contribution  to forces
     atom    1 type  1   force =     0.00029721    0.00000007    0.00000053
     atom    2 type  1   force =    -0.16005380   -0.00000025   -0.31440737
     atom    3 type  1   force =    -0.15679827   -0.00000021    0.17753522
     atom    4 type  1   force =     0.15679514    0.00000021   -0.17753514
     atom    5 type  1   force =     0.16006237    0.00000025    0.31440421
     atom    6 type  2   force =     0.14416036    0.00000024    0.85118302
     atom    7 type  2   force =    -0.62757258    0.00000037   -0.77494582
     atom    8 type  3   force =    -0.05661175    0.00000035    0.33603520
     atom    9 type  3   force =     0.05658132   -0.00000035   -0.33603066
     atom   10 type  2   force =     0.62754310   -0.00000037    0.77495036
     atom   11 type  2   force =    -0.14411797   -0.00000024   -0.85119246
     atom   12 type  1   force =    -0.00026442   -0.00000007    0.00000677
     atom   13 type  1   force =    -0.16026216    0.00000025   -0.31444809
     atom   14 type  1   force =    -0.15685466    0.00000021    0.17728380
     atom   15 type  1   force =     0.15684989   -0.00000021   -0.17728430
     atom   16 type  1   force =     0.16026992   -0.00000025    0.31444482
     atom   17 type  2   force =     0.14364021   -0.00000024    0.85116550
     atom   18 type  2   force =    -0.62803552   -0.00000037   -0.77458407
     atom   19 type  3   force =    -0.05678421   -0.00000035    0.33594350
     atom   20 type  3   force =     0.05675089    0.00000035   -0.33593963
     atom   21 type  2   force =     0.62800365    0.00000037    0.77458977
     atom   22 type  2   force =    -0.14359872    0.00000024   -0.85117517
     The local contribution  to forces
     atom    1 type  1   force =    -0.00032203   -0.00000008   -0.00001485
     atom    2 type  1   force =     0.14721294    0.00000028    0.31486977
     atom    3 type  1   force =     0.14855187    0.00000011   -0.18739264
     atom    4 type  1   force =    -0.14854685   -0.00000027    0.18739242
     atom    5 type  1   force =    -0.14722074   -0.00000022   -0.31486533
     atom    6 type  2   force =    -0.12434744   -0.00000016   -0.80267864
     atom    7 type  2   force =     0.61281820   -0.00000044    0.75622847
     atom    8 type  3   force =     0.05098906   -0.00000041   -0.32672709
     atom    9 type  3   force =    -0.05095800    0.00000028    0.32672246
     atom   10 type  2   force =    -0.61278864    0.00000055   -0.75623359
     atom   11 type  2   force =     0.12430506    0.00000021    0.80268943
     atom   12 type  1   force =     0.00028572    0.00000007    0.00000777
     atom   13 type  1   force =     0.14740839   -0.00000030    0.31496683
     atom   14 type  1   force =     0.14858071   -0.00000012   -0.18711187
     atom   15 type  1   force =    -0.14857395    0.00000028    0.18711197
     atom   16 type  1   force =    -0.14741530    0.00000024   -0.31496200
     atom   17 type  2   force =    -0.12382067    0.00000018   -0.80263526
     atom   18 type  2   force =     0.61325662    0.00000044    0.75590382
     atom   19 type  3   force =     0.05116067    0.00000046   -0.32664104
     atom   20 type  3   force =    -0.05112660   -0.00000033    0.32663697
     atom   21 type  2   force =    -0.61322450   -0.00000057   -0.75591004
     atom   22 type  2   force =     0.12377888   -0.00000024    0.80264621
     The core correction contribution to forces
     atom    1 type  1   force =    -0.00000499   -0.00000000   -0.00000240
     atom    2 type  1   force =    -0.00169530    0.00000001    0.00057258
     atom    3 type  1   force =    -0.00072611   -0.00000001   -0.00154359
     atom    4 type  1   force =     0.00072644   -0.00000001    0.00154353
     atom    5 type  1   force =     0.00169544   -0.00000000   -0.00057234
     atom    6 type  2   force =     0.00213328   -0.00000000    0.00537691
     atom    7 type  2   force =    -0.00160794   -0.00000001   -0.00201281
     atom    8 type  3   force =    -0.00057815   -0.00000001    0.00090336
     atom    9 type  3   force =     0.00057837   -0.00000000   -0.00090341
     atom   10 type  2   force =     0.00161300    0.00000002    0.00201047
     atom   11 type  2   force =    -0.00214481    0.00000000   -0.00537565
     atom   12 type  1   force =     0.00000404    0.00000000    0.00000243
     atom   13 type  1   force =    -0.00169719   -0.00000001    0.00058294
     atom   14 type  1   force =    -0.00072956    0.00000001   -0.00153583
     atom   15 type  1   force =     0.00072994    0.00000001    0.00153576
     atom   16 type  1   force =     0.00169735    0.00000001   -0.00058268
     atom   17 type  2   force =     0.00213562    0.00000000    0.00538247
     atom   18 type  2   force =    -0.00160884    0.00000001   -0.00200770
     atom   19 type  3   force =    -0.00057699    0.00000001    0.00090268
     atom   20 type  3   force =     0.00057726   -0.00000000   -0.00090273
     atom   21 type  2   force =     0.00161387   -0.00000002    0.00200531
     atom   22 type  2   force =    -0.00214709   -0.00000001   -0.00538120
     The Hubbard contrib.    to forces
     atom    1 type  1   force =     0.00000000    0.00000000    0.00000000
     atom    2 type  1   force =     0.00000000    0.00000000    0.00000000
     atom    3 type  1   force =     0.00000000    0.00000000    0.00000000
     atom    4 type  1   force =     0.00000000    0.00000000    0.00000000
     atom    5 type  1   force =     0.00000000    0.00000000    0.00000000
     atom    6 type  2   force =     0.00000000    0.00000000    0.00000000
     atom    7 type  2   force =     0.00000000    0.00000000    0.00000000
     atom    8 type  3   force =     0.00000000    0.00000000    0.00000000
     atom    9 type  3   force =     0.00000000    0.00000000    0.00000000
     atom   10 type  2   force =     0.00000000    0.00000000    0.00000000
     atom   11 type  2   force =     0.00000000    0.00000000    0.00000000
     atom   12 type  1   force =     0.00000000    0.00000000    0.00000000
     atom   13 type  1   force =     0.00000000    0.00000000    0.00000000
     atom   14 type  1   force =     0.00000000    0.00000000    0.00000000
     atom   15 type  1   force =     0.00000000    0.00000000    0.00000000
     atom   16 type  1   force =     0.00000000    0.00000000    0.00000000
     atom   17 type  2   force =     0.00000000    0.00000000    0.00000000
     atom   18 type  2   force =     0.00000000    0.00000000    0.00000000
     atom   19 type  3   force =     0.00000000    0.00000000    0.00000000
     atom   20 type  3   force =     0.00000000    0.00000000    0.00000000
     atom   21 type  2   force =     0.00000000    0.00000000    0.00000000
     atom   22 type  2   force =     0.00000000    0.00000000    0.00000000
     The SCF correction term to forces
     atom    1 type  1   force =     0.00000000   -0.00000000   -0.00000000
     atom    2 type  1   force =     0.00000005   -0.00000000    0.00000010
     atom    3 type  1   force =     0.00000003   -0.00000000   -0.00000007
     atom    4 type  1   force =    -0.00000005    0.00000000    0.00000006
     atom    5 type  1   force =    -0.00000007   -0.00000000   -0.00000009
     atom    6 type  2   force =     0.00000004    0.00000000   -0.00000024
     atom    7 type  2   force =     0.00000016    0.00000000    0.00000025
     atom    8 type  3   force =    -0.00000004    0.00000000   -0.00000009
     atom    9 type  3   force =    -0.00000000   -0.00000000    0.00000010
     atom   10 type  2   force =    -0.00000023   -0.00000000   -0.00000025
     atom   11 type  2   force =    -0.00000005   -0.00000000    0.00000023
     atom   12 type  1   force =    -0.00000001    0.00000000   -0.00000000
     atom   13 type  1   force =     0.00000006   -0.00000000    0.00000009
     atom   14 type  1   force =     0.00000005   -0.00000000   -0.00000006
     atom   15 type  1   force =    -0.00000002   -0.00000000    0.00000007
     atom   16 type  1   force =    -0.00000005    0.00000000   -0.00000009
     atom   17 type  2   force =     0.00000002    0.00000000   -0.00000023
     atom   18 type  2   force =     0.00000023    0.00000000    0.00000025
     atom   19 type  3   force =     0.00000001   -0.00000000   -0.00000010
     atom   20 type  3   force =     0.00000005   -0.00000000    0.00000010
     atom   21 type  2   force =    -0.00000015   -0.00000000   -0.00000026
     atom   22 type  2   force =    -0.00000002   -0.00000000    0.00000024

     Total force =     0.003925     Total SCF correction =     0.000001


     Computing stress (Cartesian axis) and pressure

          total   stress  (Ry/bohr**3)                   (kbar)     P=   -4.54
  -0.00002880  -0.00000000  -0.00000287         -4.24     -0.00     -0.42
  -0.00000000  -0.00001697  -0.00000000         -0.00     -2.50     -0.00
  -0.00000287  -0.00000000  -0.00004680         -0.42     -0.00     -6.88

     kinetic stress (kbar)   1348.92     -0.00    -14.59
                               -0.00   1367.79     -0.00
                              -14.59     -0.00   1350.30

     local   stress (kbar)    -93.48     -0.00    -57.97
                               -0.00     55.30      0.00
                              -57.97      0.00    149.89

     nonloc. stress (kbar)   1075.52      0.00      0.06
                                0.00   1064.10     -0.00
                                0.06     -0.00   1071.53

     hartree stress (kbar)    181.16      0.00      3.28
                                0.00    167.62     -0.00
                                3.28     -0.00     92.80

     exc-cor stress (kbar)   1444.42      0.00      0.10
                                0.00   1443.79     -0.00
                                0.10     -0.00   1444.02

     corecor stress (kbar)  -2139.72     -0.00      0.24
                               -0.00  -2138.19      0.00
                                0.24      0.00  -2139.06

     ewald   stress (kbar)  -1821.06      0.00     68.46
                                0.00  -1962.91     -0.00
                               68.46     -0.00  -1976.37

     hubbard stress (kbar)      0.00      0.00      0.00
                                0.00      0.00      0.00
                                0.00      0.00      0.00

     london  stress (kbar)      0.00      0.00      0.00
                                0.00      0.00      0.00
                                0.00      0.00      0.00

     DFT-D3  stress (kbar)      0.00      0.00      0.00
                                0.00      0.00      0.00
                                0.00      0.00      0.00

     XDM     stress (kbar)      0.00      0.00      0.00
                                0.00      0.00      0.00
                                0.00      0.00      0.00

     dft-nl  stress (kbar)      0.00      0.00      0.00
                                0.00      0.00      0.00
                                0.00      0.00      0.00

     TS-vdW  stress (kbar)      0.00      0.00      0.00
                                0.00      0.00      0.00
                                0.00      0.00      0.00



     Writing output data file aiida.save/
 
     init_run     :     23.73s CPU     24.16s WALL (       1 calls)
     electrons    :    799.28s CPU    811.74s WALL (       1 calls)
     forces       :      8.99s CPU      9.07s WALL (       1 calls)
     stress       :     59.31s CPU     60.32s WALL (       1 calls)

     Called by init_run:
     wfcinit      :     21.12s CPU     21.45s WALL (       1 calls)
     wfcinit:atom :      0.17s CPU      0.18s WALL (     196 calls)
     wfcinit:wfcr :     19.64s CPU     19.88s WALL (     196 calls)
     potinit      :      0.91s CPU      0.92s WALL (       1 calls)
     hinit0       :      1.53s CPU      1.56s WALL (       1 calls)

     Called by electrons:
     c_bands      :    715.65s CPU    725.38s WALL (      18 calls)
     sum_band     :     77.49s CPU     79.19s WALL (      18 calls)
     v_of_rho     :      1.64s CPU      1.77s WALL (      19 calls)
     v_h          :      0.11s CPU      0.13s WALL (      19 calls)
     v_xc         :      1.67s CPU      1.78s WALL (      21 calls)
     newd         :      1.45s CPU      2.30s WALL (      19 calls)
     PAW_pot      :      2.44s CPU      2.45s WALL (      19 calls)
     mix_rho      :      0.58s CPU      0.64s WALL (      18 calls)

     Called by c_bands:
     init_us_2    :     22.58s CPU     22.91s WALL (    7644 calls)
     cegterg      :    555.01s CPU    562.15s WALL (    3528 calls)

     Called by sum_band:
     sum_band:bec :      0.46s CPU      0.46s WALL (    3528 calls)
     addusdens    :      1.48s CPU      2.31s WALL (      18 calls)

     Called by *egterg:
     h_psi        :    384.09s CPU    389.86s WALL (   16597 calls)
     s_psi        :     55.88s CPU     56.05s WALL (   16597 calls)
     g_psi        :      2.72s CPU      2.75s WALL (   12873 calls)
     cdiaghg      :     59.59s CPU     60.58s WALL (   16401 calls)
     cegterg:over :     27.42s CPU     27.58s WALL (   12873 calls)
     cegterg:upda :     22.81s CPU     23.03s WALL (   12873 calls)
     cegterg:last :      9.41s CPU      9.46s WALL (    4016 calls)
     cdiaghg:chol :      3.79s CPU      3.83s WALL (   16401 calls)
     cdiaghg:inve :      0.81s CPU      0.82s WALL (   16401 calls)
     cdiaghg:para :      7.53s CPU      7.59s WALL (   32802 calls)

     Called by h_psi:
     h_psi:pot    :    382.06s CPU    387.82s WALL (   16597 calls)
     h_psi:calbec :     54.44s CPU     55.11s WALL (   16597 calls)
     vloc_psi     :    271.16s CPU    276.08s WALL (   16597 calls)
     add_vuspsi   :     56.31s CPU     56.51s WALL (   16597 calls)

     General routines
     calbec       :    101.97s CPU    103.64s WALL (   21105 calls)
     fft          :      1.36s CPU      1.47s WALL (     271 calls)
     ffts         :      0.20s CPU      0.21s WALL (     290 calls)
     fftw         :    286.19s CPU    291.16s WALL (  939430 calls)
     interpolate  :      0.14s CPU      0.14s WALL (      19 calls)
 
     Parallel routines
     fft_scatt_xy :     36.58s CPU     37.25s WALL (  939991 calls)
     fft_scatt_yz :    109.37s CPU    111.45s WALL (  939991 calls)

     PAW routines
     PAW_pot      :      2.44s CPU      2.45s WALL (      19 calls)
 
     PWSCF        :  15m15.28s CPU  15m49.23s WALL

 
   This run was terminated on:  14:28:22  22Feb2020            

=------------------------------------------------------------------------------=
   JOB DONE.
=------------------------------------------------------------------------------=
