
     Program PWSCF v.6.3 starts on 22Feb2020 at 14:12:21 

     This program is part of the open-source Quantum ESPRESSO suite
     for quantum simulation of materials; please cite
         "P. Giannozzi et al., J. Phys.:Condens. Matter 21 395502 (2009);
         "P. Giannozzi et al., J. Phys.:Condens. Matter 29 465901 (2017);
          URL http://www.quantum-espresso.org", 
     in publications or presentations arising from this work. More details at
     http://www.quantum-espresso.org/quote

 *** WARNING: using old-style file format, will disappear from next version ***

     Parallel version (MPI & OpenMP), running on      36 processor cores
     Number of MPI processes:                36
     Threads/MPI process:                     1

     MPI processes distributed on     1 nodes
     K-points division:     npool     =       4
     R & G space division:  proc/nbgrp/npool/nimage =       9
     Reading input from aiida.in
Warning: card &IONS ignored
Warning: card   !PRESS_CONV_THR = 0.05                 ! JUST FOR VOLUME RELAXATIONS ignored
Warning: card / ignored

     Current dimensions of program PWSCF are:
     Max number of different atomic species (ntypx) = 10
     Max number of k-points (npk) =  40000
     Max angular momentum in pseudopotentials (lmaxx) =  3
               file Al.pbe-n-kjpaw_psl.1.0.0.UPF: wavefunction(s)  3S 3P renormalized
               file Mg.pbe-n-kjpaw_psl.0.3.0.UPF: wavefunction(s)  3S renormalized

     Subspace diagonalization in iterative solution of the eigenvalue problem:
     one sub-group per band group will be used
     scalapack distributed-memory algorithm (size of sub-group:  2*  2 procs)

     Found symmetry operation: I + (  0.5000  0.5000  0.0000)
     This is a supercell, fractional translations are disabled
 
     Parallelization info
     --------------------
     sticks:   dense  smooth     PW     G-vecs:    dense   smooth      PW
     Min         784     314     90                38988     9865    1534
     Max         785     315     91                38991     9867    1536
     Sum        7061    2831    815               350903    88791   13817
 


     bravais-lattice index     =            0
     lattice parameter (alat)  =      27.6424  a.u.
     unit-cell volume          =    2596.7773 (a.u.)^3
     number of atoms/cell      =           22
     number of atomic types    =            3
     number of electrons       =        66.00
     number of Kohn-Sham states=           40
     kinetic-energy cutoff     =      40.0000  Ry
     charge density cutoff     =     400.0000  Ry
     convergence threshold     =      1.0E-12
     mixing beta               =       0.4000
     number of iterations used =            8  local-TF  mixing
     Exchange-correlation      = PBE ( 1  4  3  4 0 0)

     celldm(1)=  27.642386  celldm(2)=   0.000000  celldm(3)=   0.000000
     celldm(4)=   0.000000  celldm(5)=   0.000000  celldm(6)=   0.000000

     crystal axes: (cart. coord. in units of alat)
               a(1) = (   0.554700   0.000000   0.832050 )  
               a(2) = (   0.000000   0.290595   0.000000 )  
               a(3) = (  -0.416025   0.000000   0.138675 )  

     reciprocal axes: (cart. coord. in units 2 pi/alat)
               b(1) = (  0.327777  0.000000  0.983332 )  
               b(2) = (  0.000000  3.441210  0.000000 )  
               b(3) = ( -1.966664  0.000000  1.311110 )  


     PseudoPot. # 1 for Al read from file:
     /users/aglensk/Dropbox/Albert/scripts/dotfiles/scripts/potentials/quantum_espresso/pseudo_SSSPefV1.1_alalloy/Al.pbe-n-kjpaw_psl.1.0.0.UPF
     MD5 check sum: cfc449ca30b5f3223ec38ddd88ac046d
     Pseudo is Projector augmented-wave + core cor, Zval =  3.0
     Generated using "atomic" code by A. Dal Corso v.5.1
     Shape of augmentation charge: PSQ
     Using radial grid of 1135 points,  6 beta functions with: 
                l(1) =   0
                l(2) =   0
                l(3) =   1
                l(4) =   1
                l(5) =   2
                l(6) =   2
     Q(r) pseudized with 0 coefficients 


     PseudoPot. # 2 for Mg read from file:
     /users/aglensk/Dropbox/Albert/scripts/dotfiles/scripts/potentials/quantum_espresso/pseudo_SSSPefV1.1_alalloy/Mg.pbe-n-kjpaw_psl.0.3.0.UPF
     MD5 check sum: 24ecedc7f3e3cbe212e682f4413594e4
     Pseudo is Projector augmented-wave + core cor, Zval =  2.0
     Generated using "atomic" code by A. Dal Corso v.5.0.99 svn rev. 10869
     Shape of augmentation charge: PSQ
     Using radial grid of 1129 points,  4 beta functions with: 
                l(1) =   0
                l(2) =   0
                l(3) =   1
                l(4) =   1
     Q(r) pseudized with 0 coefficients 


     PseudoPot. # 3 for Si read from file:
     /users/aglensk/Dropbox/Albert/scripts/dotfiles/scripts/potentials/quantum_espresso/pseudo_SSSPefV1.1_alalloy/Si.pbe-n-rrkjus_psl.1.0.0.UPF
     MD5 check sum: 0b0bb1205258b0d07b9f9672cf965d36
     Pseudo is Ultrasoft + core correction, Zval =  4.0
     Generated using "atomic" code by A. Dal Corso v.5.1
     Using radial grid of 1141 points,  6 beta functions with: 
                l(1) =   0
                l(2) =   0
                l(3) =   1
                l(4) =   1
                l(5) =   2
                l(6) =   2
     Q(r) pseudized with 0 coefficients 


     atomic species   valence    mass     pseudopotential
        Al             3.00    26.98154     Al( 1.00)
        Mg             2.00    24.30500     Mg( 1.00)
        Si             4.00    28.08500     Si( 1.00)

     No symmetry found


                                    s                        frac. trans.

      isym =  1     identity                                     

 cryst.   s( 1) = (     1          0          0      )
                  (     0          1          0      )
                  (     0          0          1      )

 cart.    s( 1) = (  1.0000000  0.0000000  0.0000000 )
                  (  0.0000000  1.0000000  0.0000000 )
                  ( -0.0000000  0.0000000  1.0000000 )


   Cartesian axes

     site n.     atom                  positions (alat units)
         1           Al  tau(   1) = (  -0.4104768   0.0000000   0.1382638  )
         2           Mg  tau(   2) = (  -0.0993776   0.1452977   0.1071990  )
         3           Mg  tau(   3) = (  -0.2896927   0.1452977   0.2513758  )
         4           Mg  tau(   4) = (   0.1621004   0.0000000   0.3024883  )
         5           Mg  tau(   5) = (  -0.0281974   0.0000000   0.4466759  )
         6           Si  tau(   6) = (  -0.2387172   0.0000000   0.1406857  )
         7           Si  tau(   7) = (   0.0170362   0.0000000   0.1809584  )
         8           Al  tau(   8) = (  -0.1313886   0.0000000   0.2708964  )
         9           Al  tau(   9) = (   0.0037909   0.1452977   0.2829852  )
        10           Si  tau(  10) = (  -0.1446298   0.1452977   0.3729206  )
        11           Si  tau(  11) = (   0.1111392   0.1452977   0.4131767  )
        12           Al  tau(  12) = (  -0.1331267   0.1452977   0.5542889  )
        13           Mg  tau(  13) = (   0.1779725   0.0000000   0.5232241  )
        14           Mg  tau(  14) = (  -0.0123426   0.0000000   0.6674010  )
        15           Mg  tau(  15) = (   0.4394505   0.1452977   0.7185135  )
        16           Mg  tau(  16) = (   0.2491527   0.1452977   0.8627010  )
        17           Si  tau(  17) = (   0.0386330   0.1452977   0.5567109  )
        18           Si  tau(  18) = (   0.2943863   0.1452977   0.5969836  )
        19           Al  tau(  19) = (   0.1459616   0.1452977   0.6869215  )
        20           Al  tau(  20) = (   0.2811410   0.0000000   0.6990103  )
        21           Si  tau(  21) = (   0.1327203   0.0000000   0.7889457  )
        22           Si  tau(  22) = (   0.3884894   0.0000000   0.8292019  )

   Crystallographic axes

     site n.     atom                  positions (cryst. coord.)
         1           Al  tau(   1) = (  0.0014142  0.0000000  0.9885490  )
         2           Mg  tau(   2) = (  0.0728385  0.4999999  0.3359920  )
         3           Mg  tau(   3) = (  0.1522312  0.4999999  0.8993095  )
         4           Mg  tau(   4) = (  0.3505793  0.0000000  0.0777983  )
         5           Mg  tau(   5) = (  0.4299883  0.0000000  0.6410959  )
         6           Si  tau(   6) = (  0.0600947  0.0000000  0.6539309  )
         7           Si  tau(   7) = (  0.1835263  0.0000000  0.2037519  )
         8           Al  tau(   8) = (  0.2233150  0.0000000  0.6135720  )
         9           Al  tau(   9) = (  0.2795110  0.4999999  0.3635692  )
        10           Si  tau(  10) = (  0.3192984  0.4999999  0.7733779  )
        11           Si  tau(  11) = (  0.4427189  0.4999999  0.3231463  )
        12           Al  tau(  12) = (  0.5014142  0.4999999  0.9885490  )
        13           Mg  tau(  13) = (  0.5728385  0.0000000  0.3359919  )
        14           Mg  tau(  14) = (  0.6522312  0.0000000  0.8993095  )
        15           Mg  tau(  15) = (  0.8505794  0.4999999  0.0777983  )
        16           Mg  tau(  16) = (  0.9299883  0.4999999  0.6410959  )
        17           Si  tau(  17) = (  0.5600947  0.4999999  0.6539309  )
        18           Si  tau(  18) = (  0.6835263  0.4999999  0.2037519  )
        19           Al  tau(  19) = (  0.7233150  0.4999999  0.6135720  )
        20           Al  tau(  20) = (  0.7795110  0.0000000  0.3635692  )
        21           Si  tau(  21) = (  0.8192984  0.0000000  0.7733779  )
        22           Si  tau(  22) = (  0.9427189  0.0000000  0.3231463  )

     number of k points=   742  Methfessel-Paxton smearing, width (Ry)=  0.0441
                       cart. coord. in units 2pi/alat
        k(    1) = (   0.0000000   0.0000000   0.0000000), wk =   0.0013495
        k(    2) = (  -0.1512819   0.0000000   0.1008546), wk =   0.0026991
        k(    3) = (  -0.3025637   0.0000000   0.2017092), wk =   0.0026991
        k(    4) = (  -0.4538456   0.0000000   0.3025637), wk =   0.0026991
        k(    5) = (  -0.6051275   0.0000000   0.4034183), wk =   0.0026991
        k(    6) = (  -0.7564093   0.0000000   0.5042729), wk =   0.0026991
        k(    7) = (  -0.9076912   0.0000000   0.6051275), wk =   0.0026991
        k(    8) = (   0.0000000   0.1811163   0.0000000), wk =   0.0026991
        k(    9) = (  -0.1512819   0.1811163   0.1008546), wk =   0.0026991
        k(   10) = (  -0.3025637   0.1811163   0.2017092), wk =   0.0026991
        k(   11) = (  -0.4538456   0.1811163   0.3025637), wk =   0.0026991
        k(   12) = (  -0.6051275   0.1811163   0.4034183), wk =   0.0026991
        k(   13) = (  -0.7564093   0.1811163   0.5042729), wk =   0.0026991
        k(   14) = (  -0.9076912   0.1811163   0.6051275), wk =   0.0026991
        k(   15) = (   0.9076912   0.1811163  -0.6051275), wk =   0.0026991
        k(   16) = (   0.7564093   0.1811163  -0.5042729), wk =   0.0026991
        k(   17) = (   0.6051275   0.1811163  -0.4034183), wk =   0.0026991
        k(   18) = (   0.4538456   0.1811163  -0.3025637), wk =   0.0026991
        k(   19) = (   0.3025637   0.1811163  -0.2017092), wk =   0.0026991
        k(   20) = (   0.1512819   0.1811163  -0.1008546), wk =   0.0026991
        k(   21) = (   0.0000000   0.3622327   0.0000000), wk =   0.0026991
        k(   22) = (  -0.1512819   0.3622327   0.1008546), wk =   0.0026991
        k(   23) = (  -0.3025637   0.3622327   0.2017092), wk =   0.0026991
        k(   24) = (  -0.4538456   0.3622327   0.3025637), wk =   0.0026991
        k(   25) = (  -0.6051275   0.3622327   0.4034183), wk =   0.0026991
        k(   26) = (  -0.7564093   0.3622327   0.5042729), wk =   0.0026991
        k(   27) = (  -0.9076912   0.3622327   0.6051275), wk =   0.0026991
        k(   28) = (   0.9076912   0.3622327  -0.6051275), wk =   0.0026991
        k(   29) = (   0.7564093   0.3622327  -0.5042729), wk =   0.0026991
        k(   30) = (   0.6051275   0.3622327  -0.4034183), wk =   0.0026991
        k(   31) = (   0.4538456   0.3622327  -0.3025637), wk =   0.0026991
        k(   32) = (   0.3025637   0.3622327  -0.2017092), wk =   0.0026991
        k(   33) = (   0.1512819   0.3622327  -0.1008546), wk =   0.0026991
        k(   34) = (   0.0000000   0.5433490   0.0000000), wk =   0.0026991
        k(   35) = (  -0.1512819   0.5433490   0.1008546), wk =   0.0026991
        k(   36) = (  -0.3025637   0.5433490   0.2017092), wk =   0.0026991
        k(   37) = (  -0.4538456   0.5433490   0.3025637), wk =   0.0026991
        k(   38) = (  -0.6051275   0.5433490   0.4034183), wk =   0.0026991
        k(   39) = (  -0.7564093   0.5433490   0.5042729), wk =   0.0026991
        k(   40) = (  -0.9076912   0.5433490   0.6051275), wk =   0.0026991
        k(   41) = (   0.9076912   0.5433490  -0.6051275), wk =   0.0026991
        k(   42) = (   0.7564093   0.5433490  -0.5042729), wk =   0.0026991
        k(   43) = (   0.6051275   0.5433490  -0.4034183), wk =   0.0026991
        k(   44) = (   0.4538456   0.5433490  -0.3025637), wk =   0.0026991
        k(   45) = (   0.3025637   0.5433490  -0.2017092), wk =   0.0026991
        k(   46) = (   0.1512819   0.5433490  -0.1008546), wk =   0.0026991
        k(   47) = (   0.0000000   0.7244653   0.0000000), wk =   0.0026991
        k(   48) = (  -0.1512819   0.7244653   0.1008546), wk =   0.0026991
        k(   49) = (  -0.3025637   0.7244653   0.2017092), wk =   0.0026991
        k(   50) = (  -0.4538456   0.7244653   0.3025637), wk =   0.0026991
        k(   51) = (  -0.6051275   0.7244653   0.4034183), wk =   0.0026991
        k(   52) = (  -0.7564093   0.7244653   0.5042729), wk =   0.0026991
        k(   53) = (  -0.9076912   0.7244653   0.6051275), wk =   0.0026991
        k(   54) = (   0.9076912   0.7244653  -0.6051275), wk =   0.0026991
        k(   55) = (   0.7564093   0.7244653  -0.5042729), wk =   0.0026991
        k(   56) = (   0.6051275   0.7244653  -0.4034183), wk =   0.0026991
        k(   57) = (   0.4538456   0.7244653  -0.3025637), wk =   0.0026991
        k(   58) = (   0.3025637   0.7244653  -0.2017092), wk =   0.0026991
        k(   59) = (   0.1512819   0.7244653  -0.1008546), wk =   0.0026991
        k(   60) = (   0.0000000   0.9055817   0.0000000), wk =   0.0026991
        k(   61) = (  -0.1512819   0.9055817   0.1008546), wk =   0.0026991
        k(   62) = (  -0.3025637   0.9055817   0.2017092), wk =   0.0026991
        k(   63) = (  -0.4538456   0.9055817   0.3025637), wk =   0.0026991
        k(   64) = (  -0.6051275   0.9055817   0.4034183), wk =   0.0026991
        k(   65) = (  -0.7564093   0.9055817   0.5042729), wk =   0.0026991
        k(   66) = (  -0.9076912   0.9055817   0.6051275), wk =   0.0026991
        k(   67) = (   0.9076912   0.9055817  -0.6051275), wk =   0.0026991
        k(   68) = (   0.7564093   0.9055817  -0.5042729), wk =   0.0026991
        k(   69) = (   0.6051275   0.9055817  -0.4034183), wk =   0.0026991
        k(   70) = (   0.4538456   0.9055817  -0.3025637), wk =   0.0026991
        k(   71) = (   0.3025637   0.9055817  -0.2017092), wk =   0.0026991
        k(   72) = (   0.1512819   0.9055817  -0.1008546), wk =   0.0026991
        k(   73) = (   0.0000000   1.0866980   0.0000000), wk =   0.0026991
        k(   74) = (  -0.1512819   1.0866980   0.1008546), wk =   0.0026991
        k(   75) = (  -0.3025637   1.0866980   0.2017092), wk =   0.0026991
        k(   76) = (  -0.4538456   1.0866980   0.3025637), wk =   0.0026991
        k(   77) = (  -0.6051275   1.0866980   0.4034183), wk =   0.0026991
        k(   78) = (  -0.7564093   1.0866980   0.5042729), wk =   0.0026991
        k(   79) = (  -0.9076912   1.0866980   0.6051275), wk =   0.0026991
        k(   80) = (   0.9076912   1.0866980  -0.6051275), wk =   0.0026991
        k(   81) = (   0.7564093   1.0866980  -0.5042729), wk =   0.0026991
        k(   82) = (   0.6051275   1.0866980  -0.4034183), wk =   0.0026991
        k(   83) = (   0.4538456   1.0866980  -0.3025637), wk =   0.0026991
        k(   84) = (   0.3025637   1.0866980  -0.2017092), wk =   0.0026991
        k(   85) = (   0.1512819   1.0866980  -0.1008546), wk =   0.0026991
        k(   86) = (   0.0000000   1.2678143   0.0000000), wk =   0.0026991
        k(   87) = (  -0.1512819   1.2678143   0.1008546), wk =   0.0026991
        k(   88) = (  -0.3025637   1.2678143   0.2017092), wk =   0.0026991
        k(   89) = (  -0.4538456   1.2678143   0.3025637), wk =   0.0026991
        k(   90) = (  -0.6051275   1.2678143   0.4034183), wk =   0.0026991
        k(   91) = (  -0.7564093   1.2678143   0.5042729), wk =   0.0026991
        k(   92) = (  -0.9076912   1.2678143   0.6051275), wk =   0.0026991
        k(   93) = (   0.9076912   1.2678143  -0.6051275), wk =   0.0026991
        k(   94) = (   0.7564093   1.2678143  -0.5042729), wk =   0.0026991
        k(   95) = (   0.6051275   1.2678143  -0.4034183), wk =   0.0026991
        k(   96) = (   0.4538456   1.2678143  -0.3025637), wk =   0.0026991
        k(   97) = (   0.3025637   1.2678143  -0.2017092), wk =   0.0026991
        k(   98) = (   0.1512819   1.2678143  -0.1008546), wk =   0.0026991
        k(   99) = (   0.0000000   1.4489307   0.0000000), wk =   0.0026991
        k(  100) = (  -0.1512819   1.4489307   0.1008546), wk =   0.0026991
        k(  101) = (  -0.3025637   1.4489307   0.2017092), wk =   0.0026991
        k(  102) = (  -0.4538456   1.4489307   0.3025637), wk =   0.0026991
        k(  103) = (  -0.6051275   1.4489307   0.4034183), wk =   0.0026991
        k(  104) = (  -0.7564093   1.4489307   0.5042729), wk =   0.0026991
        k(  105) = (  -0.9076912   1.4489307   0.6051275), wk =   0.0026991
        k(  106) = (   0.9076912   1.4489307  -0.6051275), wk =   0.0026991
        k(  107) = (   0.7564093   1.4489307  -0.5042729), wk =   0.0026991
        k(  108) = (   0.6051275   1.4489307  -0.4034183), wk =   0.0026991
        k(  109) = (   0.4538456   1.4489307  -0.3025637), wk =   0.0026991
        k(  110) = (   0.3025637   1.4489307  -0.2017092), wk =   0.0026991
        k(  111) = (   0.1512819   1.4489307  -0.1008546), wk =   0.0026991
        k(  112) = (   0.0000000   1.6300470   0.0000000), wk =   0.0026991
        k(  113) = (  -0.1512819   1.6300470   0.1008546), wk =   0.0026991
        k(  114) = (  -0.3025637   1.6300470   0.2017092), wk =   0.0026991
        k(  115) = (  -0.4538456   1.6300470   0.3025637), wk =   0.0026991
        k(  116) = (  -0.6051275   1.6300470   0.4034183), wk =   0.0026991
        k(  117) = (  -0.7564093   1.6300470   0.5042729), wk =   0.0026991
        k(  118) = (  -0.9076912   1.6300470   0.6051275), wk =   0.0026991
        k(  119) = (   0.9076912   1.6300470  -0.6051275), wk =   0.0026991
        k(  120) = (   0.7564093   1.6300470  -0.5042729), wk =   0.0026991
        k(  121) = (   0.6051275   1.6300470  -0.4034183), wk =   0.0026991
        k(  122) = (   0.4538456   1.6300470  -0.3025637), wk =   0.0026991
        k(  123) = (   0.3025637   1.6300470  -0.2017092), wk =   0.0026991
        k(  124) = (   0.1512819   1.6300470  -0.1008546), wk =   0.0026991
        k(  125) = (   0.0546296   0.0000000   0.1638887), wk =   0.0026991
        k(  126) = (  -0.0966523   0.0000000   0.2647433), wk =   0.0026991
        k(  127) = (  -0.2479342   0.0000000   0.3655979), wk =   0.0026991
        k(  128) = (  -0.3992160   0.0000000   0.4664524), wk =   0.0026991
        k(  129) = (  -0.5504979   0.0000000   0.5673070), wk =   0.0026991
        k(  130) = (  -0.7017798   0.0000000   0.6681616), wk =   0.0026991
        k(  131) = (  -0.8530616   0.0000000   0.7690162), wk =   0.0026991
        k(  132) = (   0.9623208   0.0000000  -0.4412388), wk =   0.0026991
        k(  133) = (   0.8110389   0.0000000  -0.3403842), wk =   0.0026991
        k(  134) = (   0.6597570   0.0000000  -0.2395296), wk =   0.0026991
        k(  135) = (   0.5084752   0.0000000  -0.1386750), wk =   0.0026991
        k(  136) = (   0.3571933   0.0000000  -0.0378205), wk =   0.0026991
        k(  137) = (   0.2059114   0.0000000   0.0630341), wk =   0.0026991
        k(  138) = (   0.0546296   0.1811163   0.1638887), wk =   0.0026991
        k(  139) = (  -0.0966523   0.1811163   0.2647433), wk =   0.0026991
        k(  140) = (  -0.2479342   0.1811163   0.3655979), wk =   0.0026991
        k(  141) = (  -0.3992160   0.1811163   0.4664524), wk =   0.0026991
        k(  142) = (  -0.5504979   0.1811163   0.5673070), wk =   0.0026991
        k(  143) = (  -0.7017798   0.1811163   0.6681616), wk =   0.0026991
        k(  144) = (  -0.8530616   0.1811163   0.7690162), wk =   0.0026991
        k(  145) = (   0.9623208   0.1811163  -0.4412388), wk =   0.0026991
        k(  146) = (   0.8110389   0.1811163  -0.3403842), wk =   0.0026991
        k(  147) = (   0.6597570   0.1811163  -0.2395296), wk =   0.0026991
        k(  148) = (   0.5084752   0.1811163  -0.1386750), wk =   0.0026991
        k(  149) = (   0.3571933   0.1811163  -0.0378205), wk =   0.0026991
        k(  150) = (   0.2059114   0.1811163   0.0630341), wk =   0.0026991
        k(  151) = (   0.0546296   0.3622327   0.1638887), wk =   0.0026991
        k(  152) = (  -0.0966523   0.3622327   0.2647433), wk =   0.0026991
        k(  153) = (  -0.2479342   0.3622327   0.3655979), wk =   0.0026991
        k(  154) = (  -0.3992160   0.3622327   0.4664524), wk =   0.0026991
        k(  155) = (  -0.5504979   0.3622327   0.5673070), wk =   0.0026991
        k(  156) = (  -0.7017798   0.3622327   0.6681616), wk =   0.0026991
        k(  157) = (  -0.8530616   0.3622327   0.7690162), wk =   0.0026991
        k(  158) = (   0.9623208   0.3622327  -0.4412388), wk =   0.0026991
        k(  159) = (   0.8110389   0.3622327  -0.3403842), wk =   0.0026991
        k(  160) = (   0.6597570   0.3622327  -0.2395296), wk =   0.0026991
        k(  161) = (   0.5084752   0.3622327  -0.1386750), wk =   0.0026991
        k(  162) = (   0.3571933   0.3622327  -0.0378205), wk =   0.0026991
        k(  163) = (   0.2059114   0.3622327   0.0630341), wk =   0.0026991
        k(  164) = (   0.0546296   0.5433490   0.1638887), wk =   0.0026991
        k(  165) = (  -0.0966523   0.5433490   0.2647433), wk =   0.0026991
        k(  166) = (  -0.2479342   0.5433490   0.3655979), wk =   0.0026991
        k(  167) = (  -0.3992160   0.5433490   0.4664524), wk =   0.0026991
        k(  168) = (  -0.5504979   0.5433490   0.5673070), wk =   0.0026991
        k(  169) = (  -0.7017798   0.5433490   0.6681616), wk =   0.0026991
        k(  170) = (  -0.8530616   0.5433490   0.7690162), wk =   0.0026991
        k(  171) = (   0.9623208   0.5433490  -0.4412388), wk =   0.0026991
        k(  172) = (   0.8110389   0.5433490  -0.3403842), wk =   0.0026991
        k(  173) = (   0.6597570   0.5433490  -0.2395296), wk =   0.0026991
        k(  174) = (   0.5084752   0.5433490  -0.1386750), wk =   0.0026991
        k(  175) = (   0.3571933   0.5433490  -0.0378205), wk =   0.0026991
        k(  176) = (   0.2059114   0.5433490   0.0630341), wk =   0.0026991
        k(  177) = (   0.0546296   0.7244653   0.1638887), wk =   0.0026991
        k(  178) = (  -0.0966523   0.7244653   0.2647433), wk =   0.0026991
        k(  179) = (  -0.2479342   0.7244653   0.3655979), wk =   0.0026991
        k(  180) = (  -0.3992160   0.7244653   0.4664524), wk =   0.0026991
        k(  181) = (  -0.5504979   0.7244653   0.5673070), wk =   0.0026991
        k(  182) = (  -0.7017798   0.7244653   0.6681616), wk =   0.0026991
        k(  183) = (  -0.8530616   0.7244653   0.7690162), wk =   0.0026991
        k(  184) = (   0.9623208   0.7244653  -0.4412388), wk =   0.0026991
        k(  185) = (   0.8110389   0.7244653  -0.3403842), wk =   0.0026991
        k(  186) = (   0.6597570   0.7244653  -0.2395296), wk =   0.0026991
        k(  187) = (   0.5084752   0.7244653  -0.1386750), wk =   0.0026991
        k(  188) = (   0.3571933   0.7244653  -0.0378205), wk =   0.0026991
        k(  189) = (   0.2059114   0.7244653   0.0630341), wk =   0.0026991
        k(  190) = (   0.0546296   0.9055817   0.1638887), wk =   0.0026991
        k(  191) = (  -0.0966523   0.9055817   0.2647433), wk =   0.0026991
        k(  192) = (  -0.2479342   0.9055817   0.3655979), wk =   0.0026991
        k(  193) = (  -0.3992160   0.9055817   0.4664524), wk =   0.0026991
        k(  194) = (  -0.5504979   0.9055817   0.5673070), wk =   0.0026991
        k(  195) = (  -0.7017798   0.9055817   0.6681616), wk =   0.0026991
        k(  196) = (  -0.8530616   0.9055817   0.7690162), wk =   0.0026991
        k(  197) = (   0.9623208   0.9055817  -0.4412388), wk =   0.0026991
        k(  198) = (   0.8110389   0.9055817  -0.3403842), wk =   0.0026991
        k(  199) = (   0.6597570   0.9055817  -0.2395296), wk =   0.0026991
        k(  200) = (   0.5084752   0.9055817  -0.1386750), wk =   0.0026991
        k(  201) = (   0.3571933   0.9055817  -0.0378205), wk =   0.0026991
        k(  202) = (   0.2059114   0.9055817   0.0630341), wk =   0.0026991
        k(  203) = (   0.0546296   1.0866980   0.1638887), wk =   0.0026991
        k(  204) = (  -0.0966523   1.0866980   0.2647433), wk =   0.0026991
        k(  205) = (  -0.2479342   1.0866980   0.3655979), wk =   0.0026991
        k(  206) = (  -0.3992160   1.0866980   0.4664524), wk =   0.0026991
        k(  207) = (  -0.5504979   1.0866980   0.5673070), wk =   0.0026991
        k(  208) = (  -0.7017798   1.0866980   0.6681616), wk =   0.0026991
        k(  209) = (  -0.8530616   1.0866980   0.7690162), wk =   0.0026991
        k(  210) = (   0.9623208   1.0866980  -0.4412388), wk =   0.0026991
        k(  211) = (   0.8110389   1.0866980  -0.3403842), wk =   0.0026991
        k(  212) = (   0.6597570   1.0866980  -0.2395296), wk =   0.0026991
        k(  213) = (   0.5084752   1.0866980  -0.1386750), wk =   0.0026991
        k(  214) = (   0.3571933   1.0866980  -0.0378205), wk =   0.0026991
        k(  215) = (   0.2059114   1.0866980   0.0630341), wk =   0.0026991
        k(  216) = (   0.0546296   1.2678143   0.1638887), wk =   0.0026991
        k(  217) = (  -0.0966523   1.2678143   0.2647433), wk =   0.0026991
        k(  218) = (  -0.2479342   1.2678143   0.3655979), wk =   0.0026991
        k(  219) = (  -0.3992160   1.2678143   0.4664524), wk =   0.0026991
        k(  220) = (  -0.5504979   1.2678143   0.5673070), wk =   0.0026991
        k(  221) = (  -0.7017798   1.2678143   0.6681616), wk =   0.0026991
        k(  222) = (  -0.8530616   1.2678143   0.7690162), wk =   0.0026991
        k(  223) = (   0.9623208   1.2678143  -0.4412388), wk =   0.0026991
        k(  224) = (   0.8110389   1.2678143  -0.3403842), wk =   0.0026991
        k(  225) = (   0.6597570   1.2678143  -0.2395296), wk =   0.0026991
        k(  226) = (   0.5084752   1.2678143  -0.1386750), wk =   0.0026991
        k(  227) = (   0.3571933   1.2678143  -0.0378205), wk =   0.0026991
        k(  228) = (   0.2059114   1.2678143   0.0630341), wk =   0.0026991
        k(  229) = (   0.0546296   1.4489307   0.1638887), wk =   0.0026991
        k(  230) = (  -0.0966523   1.4489307   0.2647433), wk =   0.0026991
        k(  231) = (  -0.2479342   1.4489307   0.3655979), wk =   0.0026991
        k(  232) = (  -0.3992160   1.4489307   0.4664524), wk =   0.0026991
        k(  233) = (  -0.5504979   1.4489307   0.5673070), wk =   0.0026991
        k(  234) = (  -0.7017798   1.4489307   0.6681616), wk =   0.0026991
        k(  235) = (  -0.8530616   1.4489307   0.7690162), wk =   0.0026991
        k(  236) = (   0.9623208   1.4489307  -0.4412388), wk =   0.0026991
        k(  237) = (   0.8110389   1.4489307  -0.3403842), wk =   0.0026991
        k(  238) = (   0.6597570   1.4489307  -0.2395296), wk =   0.0026991
        k(  239) = (   0.5084752   1.4489307  -0.1386750), wk =   0.0026991
        k(  240) = (   0.3571933   1.4489307  -0.0378205), wk =   0.0026991
        k(  241) = (   0.2059114   1.4489307   0.0630341), wk =   0.0026991
        k(  242) = (   0.0546296   1.6300470   0.1638887), wk =   0.0026991
        k(  243) = (  -0.0966523   1.6300470   0.2647433), wk =   0.0026991
        k(  244) = (  -0.2479342   1.6300470   0.3655979), wk =   0.0026991
        k(  245) = (  -0.3992160   1.6300470   0.4664524), wk =   0.0026991
        k(  246) = (  -0.5504979   1.6300470   0.5673070), wk =   0.0026991
        k(  247) = (  -0.7017798   1.6300470   0.6681616), wk =   0.0026991
        k(  248) = (  -0.8530616   1.6300470   0.7690162), wk =   0.0026991
        k(  249) = (   0.9623208   1.6300470  -0.4412388), wk =   0.0026991
        k(  250) = (   0.8110389   1.6300470  -0.3403842), wk =   0.0026991
        k(  251) = (   0.6597570   1.6300470  -0.2395296), wk =   0.0026991
        k(  252) = (   0.5084752   1.6300470  -0.1386750), wk =   0.0026991
        k(  253) = (   0.3571933   1.6300470  -0.0378205), wk =   0.0026991
        k(  254) = (   0.2059114   1.6300470   0.0630341), wk =   0.0026991
        k(  255) = (   0.0546296  -1.6300470   0.1638887), wk =   0.0026991
        k(  256) = (  -0.0966523  -1.6300470   0.2647433), wk =   0.0026991
        k(  257) = (  -0.2479342  -1.6300470   0.3655979), wk =   0.0026991
        k(  258) = (  -0.3992160  -1.6300470   0.4664524), wk =   0.0026991
        k(  259) = (  -0.5504979  -1.6300470   0.5673070), wk =   0.0026991
        k(  260) = (  -0.7017798  -1.6300470   0.6681616), wk =   0.0026991
        k(  261) = (  -0.8530616  -1.6300470   0.7690162), wk =   0.0026991
        k(  262) = (   0.9623208  -1.6300470  -0.4412388), wk =   0.0026991
        k(  263) = (   0.8110389  -1.6300470  -0.3403842), wk =   0.0026991
        k(  264) = (   0.6597570  -1.6300470  -0.2395296), wk =   0.0026991
        k(  265) = (   0.5084752  -1.6300470  -0.1386750), wk =   0.0026991
        k(  266) = (   0.3571933  -1.6300470  -0.0378205), wk =   0.0026991
        k(  267) = (   0.2059114  -1.6300470   0.0630341), wk =   0.0026991
        k(  268) = (   0.0546296  -1.4489307   0.1638887), wk =   0.0026991
        k(  269) = (  -0.0966523  -1.4489307   0.2647433), wk =   0.0026991
        k(  270) = (  -0.2479342  -1.4489307   0.3655979), wk =   0.0026991
        k(  271) = (  -0.3992160  -1.4489307   0.4664524), wk =   0.0026991
        k(  272) = (  -0.5504979  -1.4489307   0.5673070), wk =   0.0026991
        k(  273) = (  -0.7017798  -1.4489307   0.6681616), wk =   0.0026991
        k(  274) = (  -0.8530616  -1.4489307   0.7690162), wk =   0.0026991
        k(  275) = (   0.9623208  -1.4489307  -0.4412388), wk =   0.0026991
        k(  276) = (   0.8110389  -1.4489307  -0.3403842), wk =   0.0026991
        k(  277) = (   0.6597570  -1.4489307  -0.2395296), wk =   0.0026991
        k(  278) = (   0.5084752  -1.4489307  -0.1386750), wk =   0.0026991
        k(  279) = (   0.3571933  -1.4489307  -0.0378205), wk =   0.0026991
        k(  280) = (   0.2059114  -1.4489307   0.0630341), wk =   0.0026991
        k(  281) = (   0.0546296  -1.2678143   0.1638887), wk =   0.0026991
        k(  282) = (  -0.0966523  -1.2678143   0.2647433), wk =   0.0026991
        k(  283) = (  -0.2479342  -1.2678143   0.3655979), wk =   0.0026991
        k(  284) = (  -0.3992160  -1.2678143   0.4664524), wk =   0.0026991
        k(  285) = (  -0.5504979  -1.2678143   0.5673070), wk =   0.0026991
        k(  286) = (  -0.7017798  -1.2678143   0.6681616), wk =   0.0026991
        k(  287) = (  -0.8530616  -1.2678143   0.7690162), wk =   0.0026991
        k(  288) = (   0.9623208  -1.2678143  -0.4412388), wk =   0.0026991
        k(  289) = (   0.8110389  -1.2678143  -0.3403842), wk =   0.0026991
        k(  290) = (   0.6597570  -1.2678143  -0.2395296), wk =   0.0026991
        k(  291) = (   0.5084752  -1.2678143  -0.1386750), wk =   0.0026991
        k(  292) = (   0.3571933  -1.2678143  -0.0378205), wk =   0.0026991
        k(  293) = (   0.2059114  -1.2678143   0.0630341), wk =   0.0026991
        k(  294) = (   0.0546296  -1.0866980   0.1638887), wk =   0.0026991
        k(  295) = (  -0.0966523  -1.0866980   0.2647433), wk =   0.0026991
        k(  296) = (  -0.2479342  -1.0866980   0.3655979), wk =   0.0026991
        k(  297) = (  -0.3992160  -1.0866980   0.4664524), wk =   0.0026991
        k(  298) = (  -0.5504979  -1.0866980   0.5673070), wk =   0.0026991
        k(  299) = (  -0.7017798  -1.0866980   0.6681616), wk =   0.0026991
        k(  300) = (  -0.8530616  -1.0866980   0.7690162), wk =   0.0026991
        k(  301) = (   0.9623208  -1.0866980  -0.4412388), wk =   0.0026991
        k(  302) = (   0.8110389  -1.0866980  -0.3403842), wk =   0.0026991
        k(  303) = (   0.6597570  -1.0866980  -0.2395296), wk =   0.0026991
        k(  304) = (   0.5084752  -1.0866980  -0.1386750), wk =   0.0026991
        k(  305) = (   0.3571933  -1.0866980  -0.0378205), wk =   0.0026991
        k(  306) = (   0.2059114  -1.0866980   0.0630341), wk =   0.0026991
        k(  307) = (   0.0546296  -0.9055817   0.1638887), wk =   0.0026991
        k(  308) = (  -0.0966523  -0.9055817   0.2647433), wk =   0.0026991
        k(  309) = (  -0.2479342  -0.9055817   0.3655979), wk =   0.0026991
        k(  310) = (  -0.3992160  -0.9055817   0.4664524), wk =   0.0026991
        k(  311) = (  -0.5504979  -0.9055817   0.5673070), wk =   0.0026991
        k(  312) = (  -0.7017798  -0.9055817   0.6681616), wk =   0.0026991
        k(  313) = (  -0.8530616  -0.9055817   0.7690162), wk =   0.0026991
        k(  314) = (   0.9623208  -0.9055817  -0.4412388), wk =   0.0026991
        k(  315) = (   0.8110389  -0.9055817  -0.3403842), wk =   0.0026991
        k(  316) = (   0.6597570  -0.9055817  -0.2395296), wk =   0.0026991
        k(  317) = (   0.5084752  -0.9055817  -0.1386750), wk =   0.0026991
        k(  318) = (   0.3571933  -0.9055817  -0.0378205), wk =   0.0026991
        k(  319) = (   0.2059114  -0.9055817   0.0630341), wk =   0.0026991
        k(  320) = (   0.0546296  -0.7244653   0.1638887), wk =   0.0026991
        k(  321) = (  -0.0966523  -0.7244653   0.2647433), wk =   0.0026991
        k(  322) = (  -0.2479342  -0.7244653   0.3655979), wk =   0.0026991
        k(  323) = (  -0.3992160  -0.7244653   0.4664524), wk =   0.0026991
        k(  324) = (  -0.5504979  -0.7244653   0.5673070), wk =   0.0026991
        k(  325) = (  -0.7017798  -0.7244653   0.6681616), wk =   0.0026991
        k(  326) = (  -0.8530616  -0.7244653   0.7690162), wk =   0.0026991
        k(  327) = (   0.9623208  -0.7244653  -0.4412388), wk =   0.0026991
        k(  328) = (   0.8110389  -0.7244653  -0.3403842), wk =   0.0026991
        k(  329) = (   0.6597570  -0.7244653  -0.2395296), wk =   0.0026991
        k(  330) = (   0.5084752  -0.7244653  -0.1386750), wk =   0.0026991
        k(  331) = (   0.3571933  -0.7244653  -0.0378205), wk =   0.0026991
        k(  332) = (   0.2059114  -0.7244653   0.0630341), wk =   0.0026991
        k(  333) = (   0.0546296  -0.5433490   0.1638887), wk =   0.0026991
        k(  334) = (  -0.0966523  -0.5433490   0.2647433), wk =   0.0026991
        k(  335) = (  -0.2479342  -0.5433490   0.3655979), wk =   0.0026991
        k(  336) = (  -0.3992160  -0.5433490   0.4664524), wk =   0.0026991
        k(  337) = (  -0.5504979  -0.5433490   0.5673070), wk =   0.0026991
        k(  338) = (  -0.7017798  -0.5433490   0.6681616), wk =   0.0026991
        k(  339) = (  -0.8530616  -0.5433490   0.7690162), wk =   0.0026991
        k(  340) = (   0.9623208  -0.5433490  -0.4412388), wk =   0.0026991
        k(  341) = (   0.8110389  -0.5433490  -0.3403842), wk =   0.0026991
        k(  342) = (   0.6597570  -0.5433490  -0.2395296), wk =   0.0026991
        k(  343) = (   0.5084752  -0.5433490  -0.1386750), wk =   0.0026991
        k(  344) = (   0.3571933  -0.5433490  -0.0378205), wk =   0.0026991
        k(  345) = (   0.2059114  -0.5433490   0.0630341), wk =   0.0026991
        k(  346) = (   0.0546296  -0.3622327   0.1638887), wk =   0.0026991
        k(  347) = (  -0.0966523  -0.3622327   0.2647433), wk =   0.0026991
        k(  348) = (  -0.2479342  -0.3622327   0.3655979), wk =   0.0026991
        k(  349) = (  -0.3992160  -0.3622327   0.4664524), wk =   0.0026991
        k(  350) = (  -0.5504979  -0.3622327   0.5673070), wk =   0.0026991
        k(  351) = (  -0.7017798  -0.3622327   0.6681616), wk =   0.0026991
        k(  352) = (  -0.8530616  -0.3622327   0.7690162), wk =   0.0026991
        k(  353) = (   0.9623208  -0.3622327  -0.4412388), wk =   0.0026991
        k(  354) = (   0.8110389  -0.3622327  -0.3403842), wk =   0.0026991
        k(  355) = (   0.6597570  -0.3622327  -0.2395296), wk =   0.0026991
        k(  356) = (   0.5084752  -0.3622327  -0.1386750), wk =   0.0026991
        k(  357) = (   0.3571933  -0.3622327  -0.0378205), wk =   0.0026991
        k(  358) = (   0.2059114  -0.3622327   0.0630341), wk =   0.0026991
        k(  359) = (   0.0546296  -0.1811163   0.1638887), wk =   0.0026991
        k(  360) = (  -0.0966523  -0.1811163   0.2647433), wk =   0.0026991
        k(  361) = (  -0.2479342  -0.1811163   0.3655979), wk =   0.0026991
        k(  362) = (  -0.3992160  -0.1811163   0.4664524), wk =   0.0026991
        k(  363) = (  -0.5504979  -0.1811163   0.5673070), wk =   0.0026991
        k(  364) = (  -0.7017798  -0.1811163   0.6681616), wk =   0.0026991
        k(  365) = (  -0.8530616  -0.1811163   0.7690162), wk =   0.0026991
        k(  366) = (   0.9623208  -0.1811163  -0.4412388), wk =   0.0026991
        k(  367) = (   0.8110389  -0.1811163  -0.3403842), wk =   0.0026991
        k(  368) = (   0.6597570  -0.1811163  -0.2395296), wk =   0.0026991
        k(  369) = (   0.5084752  -0.1811163  -0.1386750), wk =   0.0026991
        k(  370) = (   0.3571933  -0.1811163  -0.0378205), wk =   0.0026991
        k(  371) = (   0.2059114  -0.1811163   0.0630341), wk =   0.0026991
        k(  372) = (   0.1092591   0.0000000   0.3277774), wk =   0.0026991
        k(  373) = (  -0.0420227   0.0000000   0.4286320), wk =   0.0026991
        k(  374) = (  -0.1933046   0.0000000   0.5294866), wk =   0.0026991
        k(  375) = (  -0.3445865   0.0000000   0.6303411), wk =   0.0026991
        k(  376) = (  -0.4958683   0.0000000   0.7311957), wk =   0.0026991
        k(  377) = (  -0.6471502   0.0000000   0.8320503), wk =   0.0026991
        k(  378) = (  -0.7984321   0.0000000   0.9329049), wk =   0.0026991
        k(  379) = (   1.0169503   0.0000000  -0.2773501), wk =   0.0026991
        k(  380) = (   0.8656685   0.0000000  -0.1764955), wk =   0.0026991
        k(  381) = (   0.7143866   0.0000000  -0.0756409), wk =   0.0026991
        k(  382) = (   0.5631047   0.0000000   0.0252137), wk =   0.0026991
        k(  383) = (   0.4118229   0.0000000   0.1260682), wk =   0.0026991
        k(  384) = (   0.2605410   0.0000000   0.2269228), wk =   0.0026991
        k(  385) = (   0.1092591   0.1811163   0.3277774), wk =   0.0026991
        k(  386) = (  -0.0420227   0.1811163   0.4286320), wk =   0.0026991
        k(  387) = (  -0.1933046   0.1811163   0.5294866), wk =   0.0026991
        k(  388) = (  -0.3445865   0.1811163   0.6303411), wk =   0.0026991
        k(  389) = (  -0.4958683   0.1811163   0.7311957), wk =   0.0026991
        k(  390) = (  -0.6471502   0.1811163   0.8320503), wk =   0.0026991
        k(  391) = (  -0.7984321   0.1811163   0.9329049), wk =   0.0026991
        k(  392) = (   1.0169503   0.1811163  -0.2773501), wk =   0.0026991
        k(  393) = (   0.8656685   0.1811163  -0.1764955), wk =   0.0026991
        k(  394) = (   0.7143866   0.1811163  -0.0756409), wk =   0.0026991
        k(  395) = (   0.5631047   0.1811163   0.0252137), wk =   0.0026991
        k(  396) = (   0.4118229   0.1811163   0.1260682), wk =   0.0026991
        k(  397) = (   0.2605410   0.1811163   0.2269228), wk =   0.0026991
        k(  398) = (   0.1092591   0.3622327   0.3277774), wk =   0.0026991
        k(  399) = (  -0.0420227   0.3622327   0.4286320), wk =   0.0026991
        k(  400) = (  -0.1933046   0.3622327   0.5294866), wk =   0.0026991
        k(  401) = (  -0.3445865   0.3622327   0.6303411), wk =   0.0026991
        k(  402) = (  -0.4958683   0.3622327   0.7311957), wk =   0.0026991
        k(  403) = (  -0.6471502   0.3622327   0.8320503), wk =   0.0026991
        k(  404) = (  -0.7984321   0.3622327   0.9329049), wk =   0.0026991
        k(  405) = (   1.0169503   0.3622327  -0.2773501), wk =   0.0026991
        k(  406) = (   0.8656685   0.3622327  -0.1764955), wk =   0.0026991
        k(  407) = (   0.7143866   0.3622327  -0.0756409), wk =   0.0026991
        k(  408) = (   0.5631047   0.3622327   0.0252137), wk =   0.0026991
        k(  409) = (   0.4118229   0.3622327   0.1260682), wk =   0.0026991
        k(  410) = (   0.2605410   0.3622327   0.2269228), wk =   0.0026991
        k(  411) = (   0.1092591   0.5433490   0.3277774), wk =   0.0026991
        k(  412) = (  -0.0420227   0.5433490   0.4286320), wk =   0.0026991
        k(  413) = (  -0.1933046   0.5433490   0.5294866), wk =   0.0026991
        k(  414) = (  -0.3445865   0.5433490   0.6303411), wk =   0.0026991
        k(  415) = (  -0.4958683   0.5433490   0.7311957), wk =   0.0026991
        k(  416) = (  -0.6471502   0.5433490   0.8320503), wk =   0.0026991
        k(  417) = (  -0.7984321   0.5433490   0.9329049), wk =   0.0026991
        k(  418) = (   1.0169503   0.5433490  -0.2773501), wk =   0.0026991
        k(  419) = (   0.8656685   0.5433490  -0.1764955), wk =   0.0026991
        k(  420) = (   0.7143866   0.5433490  -0.0756409), wk =   0.0026991
        k(  421) = (   0.5631047   0.5433490   0.0252137), wk =   0.0026991
        k(  422) = (   0.4118229   0.5433490   0.1260682), wk =   0.0026991
        k(  423) = (   0.2605410   0.5433490   0.2269228), wk =   0.0026991
        k(  424) = (   0.1092591   0.7244653   0.3277774), wk =   0.0026991
        k(  425) = (  -0.0420227   0.7244653   0.4286320), wk =   0.0026991
        k(  426) = (  -0.1933046   0.7244653   0.5294866), wk =   0.0026991
        k(  427) = (  -0.3445865   0.7244653   0.6303411), wk =   0.0026991
        k(  428) = (  -0.4958683   0.7244653   0.7311957), wk =   0.0026991
        k(  429) = (  -0.6471502   0.7244653   0.8320503), wk =   0.0026991
        k(  430) = (  -0.7984321   0.7244653   0.9329049), wk =   0.0026991
        k(  431) = (   1.0169503   0.7244653  -0.2773501), wk =   0.0026991
        k(  432) = (   0.8656685   0.7244653  -0.1764955), wk =   0.0026991
        k(  433) = (   0.7143866   0.7244653  -0.0756409), wk =   0.0026991
        k(  434) = (   0.5631047   0.7244653   0.0252137), wk =   0.0026991
        k(  435) = (   0.4118229   0.7244653   0.1260682), wk =   0.0026991
        k(  436) = (   0.2605410   0.7244653   0.2269228), wk =   0.0026991
        k(  437) = (   0.1092591   0.9055817   0.3277774), wk =   0.0026991
        k(  438) = (  -0.0420227   0.9055817   0.4286320), wk =   0.0026991
        k(  439) = (  -0.1933046   0.9055817   0.5294866), wk =   0.0026991
        k(  440) = (  -0.3445865   0.9055817   0.6303411), wk =   0.0026991
        k(  441) = (  -0.4958683   0.9055817   0.7311957), wk =   0.0026991
        k(  442) = (  -0.6471502   0.9055817   0.8320503), wk =   0.0026991
        k(  443) = (  -0.7984321   0.9055817   0.9329049), wk =   0.0026991
        k(  444) = (   1.0169503   0.9055817  -0.2773501), wk =   0.0026991
        k(  445) = (   0.8656685   0.9055817  -0.1764955), wk =   0.0026991
        k(  446) = (   0.7143866   0.9055817  -0.0756409), wk =   0.0026991
        k(  447) = (   0.5631047   0.9055817   0.0252137), wk =   0.0026991
        k(  448) = (   0.4118229   0.9055817   0.1260682), wk =   0.0026991
        k(  449) = (   0.2605410   0.9055817   0.2269228), wk =   0.0026991
        k(  450) = (   0.1092591   1.0866980   0.3277774), wk =   0.0026991
        k(  451) = (  -0.0420227   1.0866980   0.4286320), wk =   0.0026991
        k(  452) = (  -0.1933046   1.0866980   0.5294866), wk =   0.0026991
        k(  453) = (  -0.3445865   1.0866980   0.6303411), wk =   0.0026991
        k(  454) = (  -0.4958683   1.0866980   0.7311957), wk =   0.0026991
        k(  455) = (  -0.6471502   1.0866980   0.8320503), wk =   0.0026991
        k(  456) = (  -0.7984321   1.0866980   0.9329049), wk =   0.0026991
        k(  457) = (   1.0169503   1.0866980  -0.2773501), wk =   0.0026991
        k(  458) = (   0.8656685   1.0866980  -0.1764955), wk =   0.0026991
        k(  459) = (   0.7143866   1.0866980  -0.0756409), wk =   0.0026991
        k(  460) = (   0.5631047   1.0866980   0.0252137), wk =   0.0026991
        k(  461) = (   0.4118229   1.0866980   0.1260682), wk =   0.0026991
        k(  462) = (   0.2605410   1.0866980   0.2269228), wk =   0.0026991
        k(  463) = (   0.1092591   1.2678143   0.3277774), wk =   0.0026991
        k(  464) = (  -0.0420227   1.2678143   0.4286320), wk =   0.0026991
        k(  465) = (  -0.1933046   1.2678143   0.5294866), wk =   0.0026991
        k(  466) = (  -0.3445865   1.2678143   0.6303411), wk =   0.0026991
        k(  467) = (  -0.4958683   1.2678143   0.7311957), wk =   0.0026991
        k(  468) = (  -0.6471502   1.2678143   0.8320503), wk =   0.0026991
        k(  469) = (  -0.7984321   1.2678143   0.9329049), wk =   0.0026991
        k(  470) = (   1.0169503   1.2678143  -0.2773501), wk =   0.0026991
        k(  471) = (   0.8656685   1.2678143  -0.1764955), wk =   0.0026991
        k(  472) = (   0.7143866   1.2678143  -0.0756409), wk =   0.0026991
        k(  473) = (   0.5631047   1.2678143   0.0252137), wk =   0.0026991
        k(  474) = (   0.4118229   1.2678143   0.1260682), wk =   0.0026991
        k(  475) = (   0.2605410   1.2678143   0.2269228), wk =   0.0026991
        k(  476) = (   0.1092591   1.4489307   0.3277774), wk =   0.0026991
        k(  477) = (  -0.0420227   1.4489307   0.4286320), wk =   0.0026991
        k(  478) = (  -0.1933046   1.4489307   0.5294866), wk =   0.0026991
        k(  479) = (  -0.3445865   1.4489307   0.6303411), wk =   0.0026991
        k(  480) = (  -0.4958683   1.4489307   0.7311957), wk =   0.0026991
        k(  481) = (  -0.6471502   1.4489307   0.8320503), wk =   0.0026991
        k(  482) = (  -0.7984321   1.4489307   0.9329049), wk =   0.0026991
        k(  483) = (   1.0169503   1.4489307  -0.2773501), wk =   0.0026991
        k(  484) = (   0.8656685   1.4489307  -0.1764955), wk =   0.0026991
        k(  485) = (   0.7143866   1.4489307  -0.0756409), wk =   0.0026991
        k(  486) = (   0.5631047   1.4489307   0.0252137), wk =   0.0026991
        k(  487) = (   0.4118229   1.4489307   0.1260682), wk =   0.0026991
        k(  488) = (   0.2605410   1.4489307   0.2269228), wk =   0.0026991
        k(  489) = (   0.1092591   1.6300470   0.3277774), wk =   0.0026991
        k(  490) = (  -0.0420227   1.6300470   0.4286320), wk =   0.0026991
        k(  491) = (  -0.1933046   1.6300470   0.5294866), wk =   0.0026991
        k(  492) = (  -0.3445865   1.6300470   0.6303411), wk =   0.0026991
        k(  493) = (  -0.4958683   1.6300470   0.7311957), wk =   0.0026991
        k(  494) = (  -0.6471502   1.6300470   0.8320503), wk =   0.0026991
        k(  495) = (  -0.7984321   1.6300470   0.9329049), wk =   0.0026991
        k(  496) = (   1.0169503   1.6300470  -0.2773501), wk =   0.0026991
        k(  497) = (   0.8656685   1.6300470  -0.1764955), wk =   0.0026991
        k(  498) = (   0.7143866   1.6300470  -0.0756409), wk =   0.0026991
        k(  499) = (   0.5631047   1.6300470   0.0252137), wk =   0.0026991
        k(  500) = (   0.4118229   1.6300470   0.1260682), wk =   0.0026991
        k(  501) = (   0.2605410   1.6300470   0.2269228), wk =   0.0026991
        k(  502) = (   0.1092591  -1.6300470   0.3277774), wk =   0.0026991
        k(  503) = (  -0.0420227  -1.6300470   0.4286320), wk =   0.0026991
        k(  504) = (  -0.1933046  -1.6300470   0.5294866), wk =   0.0026991
        k(  505) = (  -0.3445865  -1.6300470   0.6303411), wk =   0.0026991
        k(  506) = (  -0.4958683  -1.6300470   0.7311957), wk =   0.0026991
        k(  507) = (  -0.6471502  -1.6300470   0.8320503), wk =   0.0026991
        k(  508) = (  -0.7984321  -1.6300470   0.9329049), wk =   0.0026991
        k(  509) = (   1.0169503  -1.6300470  -0.2773501), wk =   0.0026991
        k(  510) = (   0.8656685  -1.6300470  -0.1764955), wk =   0.0026991
        k(  511) = (   0.7143866  -1.6300470  -0.0756409), wk =   0.0026991
        k(  512) = (   0.5631047  -1.6300470   0.0252137), wk =   0.0026991
        k(  513) = (   0.4118229  -1.6300470   0.1260682), wk =   0.0026991
        k(  514) = (   0.2605410  -1.6300470   0.2269228), wk =   0.0026991
        k(  515) = (   0.1092591  -1.4489307   0.3277774), wk =   0.0026991
        k(  516) = (  -0.0420227  -1.4489307   0.4286320), wk =   0.0026991
        k(  517) = (  -0.1933046  -1.4489307   0.5294866), wk =   0.0026991
        k(  518) = (  -0.3445865  -1.4489307   0.6303411), wk =   0.0026991
        k(  519) = (  -0.4958683  -1.4489307   0.7311957), wk =   0.0026991
        k(  520) = (  -0.6471502  -1.4489307   0.8320503), wk =   0.0026991
        k(  521) = (  -0.7984321  -1.4489307   0.9329049), wk =   0.0026991
        k(  522) = (   1.0169503  -1.4489307  -0.2773501), wk =   0.0026991
        k(  523) = (   0.8656685  -1.4489307  -0.1764955), wk =   0.0026991
        k(  524) = (   0.7143866  -1.4489307  -0.0756409), wk =   0.0026991
        k(  525) = (   0.5631047  -1.4489307   0.0252137), wk =   0.0026991
        k(  526) = (   0.4118229  -1.4489307   0.1260682), wk =   0.0026991
        k(  527) = (   0.2605410  -1.4489307   0.2269228), wk =   0.0026991
        k(  528) = (   0.1092591  -1.2678143   0.3277774), wk =   0.0026991
        k(  529) = (  -0.0420227  -1.2678143   0.4286320), wk =   0.0026991
        k(  530) = (  -0.1933046  -1.2678143   0.5294866), wk =   0.0026991
        k(  531) = (  -0.3445865  -1.2678143   0.6303411), wk =   0.0026991
        k(  532) = (  -0.4958683  -1.2678143   0.7311957), wk =   0.0026991
        k(  533) = (  -0.6471502  -1.2678143   0.8320503), wk =   0.0026991
        k(  534) = (  -0.7984321  -1.2678143   0.9329049), wk =   0.0026991
        k(  535) = (   1.0169503  -1.2678143  -0.2773501), wk =   0.0026991
        k(  536) = (   0.8656685  -1.2678143  -0.1764955), wk =   0.0026991
        k(  537) = (   0.7143866  -1.2678143  -0.0756409), wk =   0.0026991
        k(  538) = (   0.5631047  -1.2678143   0.0252137), wk =   0.0026991
        k(  539) = (   0.4118229  -1.2678143   0.1260682), wk =   0.0026991
        k(  540) = (   0.2605410  -1.2678143   0.2269228), wk =   0.0026991
        k(  541) = (   0.1092591  -1.0866980   0.3277774), wk =   0.0026991
        k(  542) = (  -0.0420227  -1.0866980   0.4286320), wk =   0.0026991
        k(  543) = (  -0.1933046  -1.0866980   0.5294866), wk =   0.0026991
        k(  544) = (  -0.3445865  -1.0866980   0.6303411), wk =   0.0026991
        k(  545) = (  -0.4958683  -1.0866980   0.7311957), wk =   0.0026991
        k(  546) = (  -0.6471502  -1.0866980   0.8320503), wk =   0.0026991
        k(  547) = (  -0.7984321  -1.0866980   0.9329049), wk =   0.0026991
        k(  548) = (   1.0169503  -1.0866980  -0.2773501), wk =   0.0026991
        k(  549) = (   0.8656685  -1.0866980  -0.1764955), wk =   0.0026991
        k(  550) = (   0.7143866  -1.0866980  -0.0756409), wk =   0.0026991
        k(  551) = (   0.5631047  -1.0866980   0.0252137), wk =   0.0026991
        k(  552) = (   0.4118229  -1.0866980   0.1260682), wk =   0.0026991
        k(  553) = (   0.2605410  -1.0866980   0.2269228), wk =   0.0026991
        k(  554) = (   0.1092591  -0.9055817   0.3277774), wk =   0.0026991
        k(  555) = (  -0.0420227  -0.9055817   0.4286320), wk =   0.0026991
        k(  556) = (  -0.1933046  -0.9055817   0.5294866), wk =   0.0026991
        k(  557) = (  -0.3445865  -0.9055817   0.6303411), wk =   0.0026991
        k(  558) = (  -0.4958683  -0.9055817   0.7311957), wk =   0.0026991
        k(  559) = (  -0.6471502  -0.9055817   0.8320503), wk =   0.0026991
        k(  560) = (  -0.7984321  -0.9055817   0.9329049), wk =   0.0026991
        k(  561) = (   1.0169503  -0.9055817  -0.2773501), wk =   0.0026991
        k(  562) = (   0.8656685  -0.9055817  -0.1764955), wk =   0.0026991
        k(  563) = (   0.7143866  -0.9055817  -0.0756409), wk =   0.0026991
        k(  564) = (   0.5631047  -0.9055817   0.0252137), wk =   0.0026991
        k(  565) = (   0.4118229  -0.9055817   0.1260682), wk =   0.0026991
        k(  566) = (   0.2605410  -0.9055817   0.2269228), wk =   0.0026991
        k(  567) = (   0.1092591  -0.7244653   0.3277774), wk =   0.0026991
        k(  568) = (  -0.0420227  -0.7244653   0.4286320), wk =   0.0026991
        k(  569) = (  -0.1933046  -0.7244653   0.5294866), wk =   0.0026991
        k(  570) = (  -0.3445865  -0.7244653   0.6303411), wk =   0.0026991
        k(  571) = (  -0.4958683  -0.7244653   0.7311957), wk =   0.0026991
        k(  572) = (  -0.6471502  -0.7244653   0.8320503), wk =   0.0026991
        k(  573) = (  -0.7984321  -0.7244653   0.9329049), wk =   0.0026991
        k(  574) = (   1.0169503  -0.7244653  -0.2773501), wk =   0.0026991
        k(  575) = (   0.8656685  -0.7244653  -0.1764955), wk =   0.0026991
        k(  576) = (   0.7143866  -0.7244653  -0.0756409), wk =   0.0026991
        k(  577) = (   0.5631047  -0.7244653   0.0252137), wk =   0.0026991
        k(  578) = (   0.4118229  -0.7244653   0.1260682), wk =   0.0026991
        k(  579) = (   0.2605410  -0.7244653   0.2269228), wk =   0.0026991
        k(  580) = (   0.1092591  -0.5433490   0.3277774), wk =   0.0026991
        k(  581) = (  -0.0420227  -0.5433490   0.4286320), wk =   0.0026991
        k(  582) = (  -0.1933046  -0.5433490   0.5294866), wk =   0.0026991
        k(  583) = (  -0.3445865  -0.5433490   0.6303411), wk =   0.0026991
        k(  584) = (  -0.4958683  -0.5433490   0.7311957), wk =   0.0026991
        k(  585) = (  -0.6471502  -0.5433490   0.8320503), wk =   0.0026991
        k(  586) = (  -0.7984321  -0.5433490   0.9329049), wk =   0.0026991
        k(  587) = (   1.0169503  -0.5433490  -0.2773501), wk =   0.0026991
        k(  588) = (   0.8656685  -0.5433490  -0.1764955), wk =   0.0026991
        k(  589) = (   0.7143866  -0.5433490  -0.0756409), wk =   0.0026991
        k(  590) = (   0.5631047  -0.5433490   0.0252137), wk =   0.0026991
        k(  591) = (   0.4118229  -0.5433490   0.1260682), wk =   0.0026991
        k(  592) = (   0.2605410  -0.5433490   0.2269228), wk =   0.0026991
        k(  593) = (   0.1092591  -0.3622327   0.3277774), wk =   0.0026991
        k(  594) = (  -0.0420227  -0.3622327   0.4286320), wk =   0.0026991
        k(  595) = (  -0.1933046  -0.3622327   0.5294866), wk =   0.0026991
        k(  596) = (  -0.3445865  -0.3622327   0.6303411), wk =   0.0026991
        k(  597) = (  -0.4958683  -0.3622327   0.7311957), wk =   0.0026991
        k(  598) = (  -0.6471502  -0.3622327   0.8320503), wk =   0.0026991
        k(  599) = (  -0.7984321  -0.3622327   0.9329049), wk =   0.0026991
        k(  600) = (   1.0169503  -0.3622327  -0.2773501), wk =   0.0026991
        k(  601) = (   0.8656685  -0.3622327  -0.1764955), wk =   0.0026991
        k(  602) = (   0.7143866  -0.3622327  -0.0756409), wk =   0.0026991
        k(  603) = (   0.5631047  -0.3622327   0.0252137), wk =   0.0026991
        k(  604) = (   0.4118229  -0.3622327   0.1260682), wk =   0.0026991
        k(  605) = (   0.2605410  -0.3622327   0.2269228), wk =   0.0026991
        k(  606) = (   0.1092591  -0.1811163   0.3277774), wk =   0.0026991
        k(  607) = (  -0.0420227  -0.1811163   0.4286320), wk =   0.0026991
        k(  608) = (  -0.1933046  -0.1811163   0.5294866), wk =   0.0026991
        k(  609) = (  -0.3445865  -0.1811163   0.6303411), wk =   0.0026991
        k(  610) = (  -0.4958683  -0.1811163   0.7311957), wk =   0.0026991
        k(  611) = (  -0.6471502  -0.1811163   0.8320503), wk =   0.0026991
        k(  612) = (  -0.7984321  -0.1811163   0.9329049), wk =   0.0026991
        k(  613) = (   1.0169503  -0.1811163  -0.2773501), wk =   0.0026991
        k(  614) = (   0.8656685  -0.1811163  -0.1764955), wk =   0.0026991
        k(  615) = (   0.7143866  -0.1811163  -0.0756409), wk =   0.0026991
        k(  616) = (   0.5631047  -0.1811163   0.0252137), wk =   0.0026991
        k(  617) = (   0.4118229  -0.1811163   0.1260682), wk =   0.0026991
        k(  618) = (   0.2605410  -0.1811163   0.2269228), wk =   0.0026991
        k(  619) = (  -0.1638887   0.0000000  -0.4916661), wk =   0.0013495
        k(  620) = (  -0.3151706   0.0000000  -0.3908115), wk =   0.0026991
        k(  621) = (  -0.4664524   0.0000000  -0.2899569), wk =   0.0026991
        k(  622) = (  -0.6177343   0.0000000  -0.1891023), wk =   0.0026991
        k(  623) = (  -0.7690162   0.0000000  -0.0882478), wk =   0.0026991
        k(  624) = (  -0.9202980   0.0000000   0.0126068), wk =   0.0026991
        k(  625) = (  -1.0715799   0.0000000   0.1134614), wk =   0.0026991
        k(  626) = (  -0.1638887   0.1811163  -0.4916661), wk =   0.0026991
        k(  627) = (  -0.3151706   0.1811163  -0.3908115), wk =   0.0026991
        k(  628) = (  -0.4664524   0.1811163  -0.2899569), wk =   0.0026991
        k(  629) = (  -0.6177343   0.1811163  -0.1891023), wk =   0.0026991
        k(  630) = (  -0.7690162   0.1811163  -0.0882478), wk =   0.0026991
        k(  631) = (  -0.9202980   0.1811163   0.0126068), wk =   0.0026991
        k(  632) = (  -1.0715799   0.1811163   0.1134614), wk =   0.0026991
        k(  633) = (   0.7438025   0.1811163  -1.0967936), wk =   0.0026991
        k(  634) = (   0.5925207   0.1811163  -0.9959390), wk =   0.0026991
        k(  635) = (   0.4412388   0.1811163  -0.8950844), wk =   0.0026991
        k(  636) = (   0.2899569   0.1811163  -0.7942298), wk =   0.0026991
        k(  637) = (   0.1386751   0.1811163  -0.6933753), wk =   0.0026991
        k(  638) = (  -0.0126068   0.1811163  -0.5925207), wk =   0.0026991
        k(  639) = (  -0.1638887   0.3622327  -0.4916661), wk =   0.0026991
        k(  640) = (  -0.3151706   0.3622327  -0.3908115), wk =   0.0026991
        k(  641) = (  -0.4664524   0.3622327  -0.2899569), wk =   0.0026991
        k(  642) = (  -0.6177343   0.3622327  -0.1891023), wk =   0.0026991
        k(  643) = (  -0.7690162   0.3622327  -0.0882478), wk =   0.0026991
        k(  644) = (  -0.9202980   0.3622327   0.0126068), wk =   0.0026991
        k(  645) = (  -1.0715799   0.3622327   0.1134614), wk =   0.0026991
        k(  646) = (   0.7438025   0.3622327  -1.0967936), wk =   0.0026991
        k(  647) = (   0.5925207   0.3622327  -0.9959390), wk =   0.0026991
        k(  648) = (   0.4412388   0.3622327  -0.8950844), wk =   0.0026991
        k(  649) = (   0.2899569   0.3622327  -0.7942298), wk =   0.0026991
        k(  650) = (   0.1386751   0.3622327  -0.6933753), wk =   0.0026991
        k(  651) = (  -0.0126068   0.3622327  -0.5925207), wk =   0.0026991
        k(  652) = (  -0.1638887   0.5433490  -0.4916661), wk =   0.0026991
        k(  653) = (  -0.3151706   0.5433490  -0.3908115), wk =   0.0026991
        k(  654) = (  -0.4664524   0.5433490  -0.2899569), wk =   0.0026991
        k(  655) = (  -0.6177343   0.5433490  -0.1891023), wk =   0.0026991
        k(  656) = (  -0.7690162   0.5433490  -0.0882478), wk =   0.0026991
        k(  657) = (  -0.9202980   0.5433490   0.0126068), wk =   0.0026991
        k(  658) = (  -1.0715799   0.5433490   0.1134614), wk =   0.0026991
        k(  659) = (   0.7438025   0.5433490  -1.0967936), wk =   0.0026991
        k(  660) = (   0.5925207   0.5433490  -0.9959390), wk =   0.0026991
        k(  661) = (   0.4412388   0.5433490  -0.8950844), wk =   0.0026991
        k(  662) = (   0.2899569   0.5433490  -0.7942298), wk =   0.0026991
        k(  663) = (   0.1386751   0.5433490  -0.6933753), wk =   0.0026991
        k(  664) = (  -0.0126068   0.5433490  -0.5925207), wk =   0.0026991
        k(  665) = (  -0.1638887   0.7244653  -0.4916661), wk =   0.0026991
        k(  666) = (  -0.3151706   0.7244653  -0.3908115), wk =   0.0026991
        k(  667) = (  -0.4664524   0.7244653  -0.2899569), wk =   0.0026991
        k(  668) = (  -0.6177343   0.7244653  -0.1891023), wk =   0.0026991
        k(  669) = (  -0.7690162   0.7244653  -0.0882478), wk =   0.0026991
        k(  670) = (  -0.9202980   0.7244653   0.0126068), wk =   0.0026991
        k(  671) = (  -1.0715799   0.7244653   0.1134614), wk =   0.0026991
        k(  672) = (   0.7438025   0.7244653  -1.0967936), wk =   0.0026991
        k(  673) = (   0.5925207   0.7244653  -0.9959390), wk =   0.0026991
        k(  674) = (   0.4412388   0.7244653  -0.8950844), wk =   0.0026991
        k(  675) = (   0.2899569   0.7244653  -0.7942298), wk =   0.0026991
        k(  676) = (   0.1386751   0.7244653  -0.6933753), wk =   0.0026991
        k(  677) = (  -0.0126068   0.7244653  -0.5925207), wk =   0.0026991
        k(  678) = (  -0.1638887   0.9055817  -0.4916661), wk =   0.0026991
        k(  679) = (  -0.3151706   0.9055817  -0.3908115), wk =   0.0026991
        k(  680) = (  -0.4664524   0.9055817  -0.2899569), wk =   0.0026991
        k(  681) = (  -0.6177343   0.9055817  -0.1891023), wk =   0.0026991
        k(  682) = (  -0.7690162   0.9055817  -0.0882478), wk =   0.0026991
        k(  683) = (  -0.9202980   0.9055817   0.0126068), wk =   0.0026991
        k(  684) = (  -1.0715799   0.9055817   0.1134614), wk =   0.0026991
        k(  685) = (   0.7438025   0.9055817  -1.0967936), wk =   0.0026991
        k(  686) = (   0.5925207   0.9055817  -0.9959390), wk =   0.0026991
        k(  687) = (   0.4412388   0.9055817  -0.8950844), wk =   0.0026991
        k(  688) = (   0.2899569   0.9055817  -0.7942298), wk =   0.0026991
        k(  689) = (   0.1386751   0.9055817  -0.6933753), wk =   0.0026991
        k(  690) = (  -0.0126068   0.9055817  -0.5925207), wk =   0.0026991
        k(  691) = (  -0.1638887   1.0866980  -0.4916661), wk =   0.0026991
        k(  692) = (  -0.3151706   1.0866980  -0.3908115), wk =   0.0026991
        k(  693) = (  -0.4664524   1.0866980  -0.2899569), wk =   0.0026991
        k(  694) = (  -0.6177343   1.0866980  -0.1891023), wk =   0.0026991
        k(  695) = (  -0.7690162   1.0866980  -0.0882478), wk =   0.0026991
        k(  696) = (  -0.9202980   1.0866980   0.0126068), wk =   0.0026991
        k(  697) = (  -1.0715799   1.0866980   0.1134614), wk =   0.0026991
        k(  698) = (   0.7438025   1.0866980  -1.0967936), wk =   0.0026991
        k(  699) = (   0.5925207   1.0866980  -0.9959390), wk =   0.0026991
        k(  700) = (   0.4412388   1.0866980  -0.8950844), wk =   0.0026991
        k(  701) = (   0.2899569   1.0866980  -0.7942298), wk =   0.0026991
        k(  702) = (   0.1386751   1.0866980  -0.6933753), wk =   0.0026991
        k(  703) = (  -0.0126068   1.0866980  -0.5925207), wk =   0.0026991
        k(  704) = (  -0.1638887   1.2678143  -0.4916661), wk =   0.0026991
        k(  705) = (  -0.3151706   1.2678143  -0.3908115), wk =   0.0026991
        k(  706) = (  -0.4664524   1.2678143  -0.2899569), wk =   0.0026991
        k(  707) = (  -0.6177343   1.2678143  -0.1891023), wk =   0.0026991
        k(  708) = (  -0.7690162   1.2678143  -0.0882478), wk =   0.0026991
        k(  709) = (  -0.9202980   1.2678143   0.0126068), wk =   0.0026991
        k(  710) = (  -1.0715799   1.2678143   0.1134614), wk =   0.0026991
        k(  711) = (   0.7438025   1.2678143  -1.0967936), wk =   0.0026991
        k(  712) = (   0.5925207   1.2678143  -0.9959390), wk =   0.0026991
        k(  713) = (   0.4412388   1.2678143  -0.8950844), wk =   0.0026991
        k(  714) = (   0.2899569   1.2678143  -0.7942298), wk =   0.0026991
        k(  715) = (   0.1386751   1.2678143  -0.6933753), wk =   0.0026991
        k(  716) = (  -0.0126068   1.2678143  -0.5925207), wk =   0.0026991
        k(  717) = (  -0.1638887   1.4489307  -0.4916661), wk =   0.0026991
        k(  718) = (  -0.3151706   1.4489307  -0.3908115), wk =   0.0026991
        k(  719) = (  -0.4664524   1.4489307  -0.2899569), wk =   0.0026991
        k(  720) = (  -0.6177343   1.4489307  -0.1891023), wk =   0.0026991
        k(  721) = (  -0.7690162   1.4489307  -0.0882478), wk =   0.0026991
        k(  722) = (  -0.9202980   1.4489307   0.0126068), wk =   0.0026991
        k(  723) = (  -1.0715799   1.4489307   0.1134614), wk =   0.0026991
        k(  724) = (   0.7438025   1.4489307  -1.0967936), wk =   0.0026991
        k(  725) = (   0.5925207   1.4489307  -0.9959390), wk =   0.0026991
        k(  726) = (   0.4412388   1.4489307  -0.8950844), wk =   0.0026991
        k(  727) = (   0.2899569   1.4489307  -0.7942298), wk =   0.0026991
        k(  728) = (   0.1386751   1.4489307  -0.6933753), wk =   0.0026991
        k(  729) = (  -0.0126068   1.4489307  -0.5925207), wk =   0.0026991
        k(  730) = (  -0.1638887   1.6300470  -0.4916661), wk =   0.0026991
        k(  731) = (  -0.3151706   1.6300470  -0.3908115), wk =   0.0026991
        k(  732) = (  -0.4664524   1.6300470  -0.2899569), wk =   0.0026991
        k(  733) = (  -0.6177343   1.6300470  -0.1891023), wk =   0.0026991
        k(  734) = (  -0.7690162   1.6300470  -0.0882478), wk =   0.0026991
        k(  735) = (  -0.9202980   1.6300470   0.0126068), wk =   0.0026991
        k(  736) = (  -1.0715799   1.6300470   0.1134614), wk =   0.0026991
        k(  737) = (   0.7438025   1.6300470  -1.0967936), wk =   0.0026991
        k(  738) = (   0.5925207   1.6300470  -0.9959390), wk =   0.0026991
        k(  739) = (   0.4412388   1.6300470  -0.8950844), wk =   0.0026991
        k(  740) = (   0.2899569   1.6300470  -0.7942298), wk =   0.0026991
        k(  741) = (   0.1386751   1.6300470  -0.6933753), wk =   0.0026991
        k(  742) = (  -0.0126068   1.6300470  -0.5925207), wk =   0.0026991

                       cryst. coord.
        k(    1) = (   0.0000000   0.0000000   0.0000000), wk =   0.0013495
        k(    2) = (  -0.0000000   0.0000000   0.0769231), wk =   0.0026991
        k(    3) = (  -0.0000000   0.0000000   0.1538462), wk =   0.0026991
        k(    4) = (   0.0000000   0.0000000   0.2307692), wk =   0.0026991
        k(    5) = (  -0.0000000   0.0000000   0.3076923), wk =   0.0026991
        k(    6) = (   0.0000000   0.0000000   0.3846154), wk =   0.0026991
        k(    7) = (   0.0000000   0.0000000   0.4615385), wk =   0.0026991
        k(    8) = (   0.0000000   0.0526316   0.0000000), wk =   0.0026991
        k(    9) = (  -0.0000000   0.0526316   0.0769231), wk =   0.0026991
        k(   10) = (  -0.0000000   0.0526316   0.1538462), wk =   0.0026991
        k(   11) = (   0.0000000   0.0526316   0.2307692), wk =   0.0026991
        k(   12) = (  -0.0000000   0.0526316   0.3076923), wk =   0.0026991
        k(   13) = (   0.0000000   0.0526316   0.3846154), wk =   0.0026991
        k(   14) = (   0.0000000   0.0526316   0.4615385), wk =   0.0026991
        k(   15) = (  -0.0000000   0.0526316  -0.4615385), wk =   0.0026991
        k(   16) = (  -0.0000000   0.0526316  -0.3846154), wk =   0.0026991
        k(   17) = (   0.0000000   0.0526316  -0.3076923), wk =   0.0026991
        k(   18) = (  -0.0000000   0.0526316  -0.2307692), wk =   0.0026991
        k(   19) = (   0.0000000   0.0526316  -0.1538462), wk =   0.0026991
        k(   20) = (   0.0000000   0.0526316  -0.0769231), wk =   0.0026991
        k(   21) = (   0.0000000   0.1052632   0.0000000), wk =   0.0026991
        k(   22) = (  -0.0000000   0.1052632   0.0769231), wk =   0.0026991
        k(   23) = (  -0.0000000   0.1052632   0.1538462), wk =   0.0026991
        k(   24) = (   0.0000000   0.1052632   0.2307692), wk =   0.0026991
        k(   25) = (  -0.0000000   0.1052632   0.3076923), wk =   0.0026991
        k(   26) = (   0.0000000   0.1052632   0.3846154), wk =   0.0026991
        k(   27) = (   0.0000000   0.1052632   0.4615385), wk =   0.0026991
        k(   28) = (  -0.0000000   0.1052632  -0.4615385), wk =   0.0026991
        k(   29) = (  -0.0000000   0.1052632  -0.3846154), wk =   0.0026991
        k(   30) = (   0.0000000   0.1052632  -0.3076923), wk =   0.0026991
        k(   31) = (  -0.0000000   0.1052632  -0.2307692), wk =   0.0026991
        k(   32) = (   0.0000000   0.1052632  -0.1538462), wk =   0.0026991
        k(   33) = (   0.0000000   0.1052632  -0.0769231), wk =   0.0026991
        k(   34) = (   0.0000000   0.1578947   0.0000000), wk =   0.0026991
        k(   35) = (  -0.0000000   0.1578947   0.0769231), wk =   0.0026991
        k(   36) = (  -0.0000000   0.1578947   0.1538462), wk =   0.0026991
        k(   37) = (   0.0000000   0.1578947   0.2307692), wk =   0.0026991
        k(   38) = (  -0.0000000   0.1578947   0.3076923), wk =   0.0026991
        k(   39) = (   0.0000000   0.1578947   0.3846154), wk =   0.0026991
        k(   40) = (   0.0000000   0.1578947   0.4615385), wk =   0.0026991
        k(   41) = (  -0.0000000   0.1578947  -0.4615385), wk =   0.0026991
        k(   42) = (  -0.0000000   0.1578947  -0.3846154), wk =   0.0026991
        k(   43) = (   0.0000000   0.1578947  -0.3076923), wk =   0.0026991
        k(   44) = (  -0.0000000   0.1578947  -0.2307692), wk =   0.0026991
        k(   45) = (   0.0000000   0.1578947  -0.1538462), wk =   0.0026991
        k(   46) = (   0.0000000   0.1578947  -0.0769231), wk =   0.0026991
        k(   47) = (   0.0000000   0.2105263   0.0000000), wk =   0.0026991
        k(   48) = (  -0.0000000   0.2105263   0.0769231), wk =   0.0026991
        k(   49) = (  -0.0000000   0.2105263   0.1538462), wk =   0.0026991
        k(   50) = (   0.0000000   0.2105263   0.2307692), wk =   0.0026991
        k(   51) = (  -0.0000000   0.2105263   0.3076923), wk =   0.0026991
        k(   52) = (   0.0000000   0.2105263   0.3846154), wk =   0.0026991
        k(   53) = (   0.0000000   0.2105263   0.4615385), wk =   0.0026991
        k(   54) = (  -0.0000000   0.2105263  -0.4615385), wk =   0.0026991
        k(   55) = (  -0.0000000   0.2105263  -0.3846154), wk =   0.0026991
        k(   56) = (   0.0000000   0.2105263  -0.3076923), wk =   0.0026991
        k(   57) = (  -0.0000000   0.2105263  -0.2307692), wk =   0.0026991
        k(   58) = (   0.0000000   0.2105263  -0.1538462), wk =   0.0026991
        k(   59) = (   0.0000000   0.2105263  -0.0769231), wk =   0.0026991
        k(   60) = (   0.0000000   0.2631579   0.0000000), wk =   0.0026991
        k(   61) = (  -0.0000000   0.2631579   0.0769231), wk =   0.0026991
        k(   62) = (  -0.0000000   0.2631579   0.1538462), wk =   0.0026991
        k(   63) = (   0.0000000   0.2631579   0.2307692), wk =   0.0026991
        k(   64) = (  -0.0000000   0.2631579   0.3076923), wk =   0.0026991
        k(   65) = (   0.0000000   0.2631579   0.3846154), wk =   0.0026991
        k(   66) = (   0.0000000   0.2631579   0.4615385), wk =   0.0026991
        k(   67) = (  -0.0000000   0.2631579  -0.4615385), wk =   0.0026991
        k(   68) = (  -0.0000000   0.2631579  -0.3846154), wk =   0.0026991
        k(   69) = (   0.0000000   0.2631579  -0.3076923), wk =   0.0026991
        k(   70) = (  -0.0000000   0.2631579  -0.2307692), wk =   0.0026991
        k(   71) = (   0.0000000   0.2631579  -0.1538462), wk =   0.0026991
        k(   72) = (   0.0000000   0.2631579  -0.0769231), wk =   0.0026991
        k(   73) = (   0.0000000   0.3157895   0.0000000), wk =   0.0026991
        k(   74) = (  -0.0000000   0.3157895   0.0769231), wk =   0.0026991
        k(   75) = (  -0.0000000   0.3157895   0.1538462), wk =   0.0026991
        k(   76) = (   0.0000000   0.3157895   0.2307692), wk =   0.0026991
        k(   77) = (  -0.0000000   0.3157895   0.3076923), wk =   0.0026991
        k(   78) = (   0.0000000   0.3157895   0.3846154), wk =   0.0026991
        k(   79) = (   0.0000000   0.3157895   0.4615385), wk =   0.0026991
        k(   80) = (  -0.0000000   0.3157895  -0.4615385), wk =   0.0026991
        k(   81) = (  -0.0000000   0.3157895  -0.3846154), wk =   0.0026991
        k(   82) = (   0.0000000   0.3157895  -0.3076923), wk =   0.0026991
        k(   83) = (  -0.0000000   0.3157895  -0.2307692), wk =   0.0026991
        k(   84) = (   0.0000000   0.3157895  -0.1538462), wk =   0.0026991
        k(   85) = (   0.0000000   0.3157895  -0.0769231), wk =   0.0026991
        k(   86) = (   0.0000000   0.3684211   0.0000000), wk =   0.0026991
        k(   87) = (  -0.0000000   0.3684211   0.0769231), wk =   0.0026991
        k(   88) = (  -0.0000000   0.3684211   0.1538462), wk =   0.0026991
        k(   89) = (   0.0000000   0.3684211   0.2307692), wk =   0.0026991
        k(   90) = (  -0.0000000   0.3684211   0.3076923), wk =   0.0026991
        k(   91) = (   0.0000000   0.3684211   0.3846154), wk =   0.0026991
        k(   92) = (   0.0000000   0.3684211   0.4615385), wk =   0.0026991
        k(   93) = (  -0.0000000   0.3684211  -0.4615385), wk =   0.0026991
        k(   94) = (  -0.0000000   0.3684211  -0.3846154), wk =   0.0026991
        k(   95) = (   0.0000000   0.3684211  -0.3076923), wk =   0.0026991
        k(   96) = (  -0.0000000   0.3684211  -0.2307692), wk =   0.0026991
        k(   97) = (   0.0000000   0.3684211  -0.1538462), wk =   0.0026991
        k(   98) = (   0.0000000   0.3684211  -0.0769231), wk =   0.0026991
        k(   99) = (   0.0000000   0.4210526   0.0000000), wk =   0.0026991
        k(  100) = (  -0.0000000   0.4210526   0.0769231), wk =   0.0026991
        k(  101) = (  -0.0000000   0.4210526   0.1538462), wk =   0.0026991
        k(  102) = (   0.0000000   0.4210526   0.2307692), wk =   0.0026991
        k(  103) = (  -0.0000000   0.4210526   0.3076923), wk =   0.0026991
        k(  104) = (   0.0000000   0.4210526   0.3846154), wk =   0.0026991
        k(  105) = (   0.0000000   0.4210526   0.4615385), wk =   0.0026991
        k(  106) = (  -0.0000000   0.4210526  -0.4615385), wk =   0.0026991
        k(  107) = (  -0.0000000   0.4210526  -0.3846154), wk =   0.0026991
        k(  108) = (   0.0000000   0.4210526  -0.3076923), wk =   0.0026991
        k(  109) = (  -0.0000000   0.4210526  -0.2307692), wk =   0.0026991
        k(  110) = (   0.0000000   0.4210526  -0.1538462), wk =   0.0026991
        k(  111) = (   0.0000000   0.4210526  -0.0769231), wk =   0.0026991
        k(  112) = (   0.0000000   0.4736842   0.0000000), wk =   0.0026991
        k(  113) = (  -0.0000000   0.4736842   0.0769231), wk =   0.0026991
        k(  114) = (  -0.0000000   0.4736842   0.1538462), wk =   0.0026991
        k(  115) = (   0.0000000   0.4736842   0.2307692), wk =   0.0026991
        k(  116) = (  -0.0000000   0.4736842   0.3076923), wk =   0.0026991
        k(  117) = (   0.0000000   0.4736842   0.3846154), wk =   0.0026991
        k(  118) = (   0.0000000   0.4736842   0.4615385), wk =   0.0026991
        k(  119) = (  -0.0000000   0.4736842  -0.4615385), wk =   0.0026991
        k(  120) = (  -0.0000000   0.4736842  -0.3846154), wk =   0.0026991
        k(  121) = (   0.0000000   0.4736842  -0.3076923), wk =   0.0026991
        k(  122) = (  -0.0000000   0.4736842  -0.2307692), wk =   0.0026991
        k(  123) = (   0.0000000   0.4736842  -0.1538462), wk =   0.0026991
        k(  124) = (   0.0000000   0.4736842  -0.0769231), wk =   0.0026991
        k(  125) = (   0.1666667   0.0000000  -0.0000000), wk =   0.0026991
        k(  126) = (   0.1666667   0.0000000   0.0769231), wk =   0.0026991
        k(  127) = (   0.1666667   0.0000000   0.1538462), wk =   0.0026991
        k(  128) = (   0.1666667   0.0000000   0.2307692), wk =   0.0026991
        k(  129) = (   0.1666667   0.0000000   0.3076923), wk =   0.0026991
        k(  130) = (   0.1666667   0.0000000   0.3846154), wk =   0.0026991
        k(  131) = (   0.1666667   0.0000000   0.4615385), wk =   0.0026991
        k(  132) = (   0.1666667   0.0000000  -0.4615385), wk =   0.0026991
        k(  133) = (   0.1666667   0.0000000  -0.3846154), wk =   0.0026991
        k(  134) = (   0.1666667   0.0000000  -0.3076923), wk =   0.0026991
        k(  135) = (   0.1666667   0.0000000  -0.2307692), wk =   0.0026991
        k(  136) = (   0.1666667   0.0000000  -0.1538462), wk =   0.0026991
        k(  137) = (   0.1666667   0.0000000  -0.0769231), wk =   0.0026991
        k(  138) = (   0.1666667   0.0526316  -0.0000000), wk =   0.0026991
        k(  139) = (   0.1666667   0.0526316   0.0769231), wk =   0.0026991
        k(  140) = (   0.1666667   0.0526316   0.1538462), wk =   0.0026991
        k(  141) = (   0.1666667   0.0526316   0.2307692), wk =   0.0026991
        k(  142) = (   0.1666667   0.0526316   0.3076923), wk =   0.0026991
        k(  143) = (   0.1666667   0.0526316   0.3846154), wk =   0.0026991
        k(  144) = (   0.1666667   0.0526316   0.4615385), wk =   0.0026991
        k(  145) = (   0.1666667   0.0526316  -0.4615385), wk =   0.0026991
        k(  146) = (   0.1666667   0.0526316  -0.3846154), wk =   0.0026991
        k(  147) = (   0.1666667   0.0526316  -0.3076923), wk =   0.0026991
        k(  148) = (   0.1666667   0.0526316  -0.2307692), wk =   0.0026991
        k(  149) = (   0.1666667   0.0526316  -0.1538462), wk =   0.0026991
        k(  150) = (   0.1666667   0.0526316  -0.0769231), wk =   0.0026991
        k(  151) = (   0.1666667   0.1052632  -0.0000000), wk =   0.0026991
        k(  152) = (   0.1666667   0.1052632   0.0769231), wk =   0.0026991
        k(  153) = (   0.1666667   0.1052632   0.1538462), wk =   0.0026991
        k(  154) = (   0.1666667   0.1052632   0.2307692), wk =   0.0026991
        k(  155) = (   0.1666667   0.1052632   0.3076923), wk =   0.0026991
        k(  156) = (   0.1666667   0.1052632   0.3846154), wk =   0.0026991
        k(  157) = (   0.1666667   0.1052632   0.4615385), wk =   0.0026991
        k(  158) = (   0.1666667   0.1052632  -0.4615385), wk =   0.0026991
        k(  159) = (   0.1666667   0.1052632  -0.3846154), wk =   0.0026991
        k(  160) = (   0.1666667   0.1052632  -0.3076923), wk =   0.0026991
        k(  161) = (   0.1666667   0.1052632  -0.2307692), wk =   0.0026991
        k(  162) = (   0.1666667   0.1052632  -0.1538462), wk =   0.0026991
        k(  163) = (   0.1666667   0.1052632  -0.0769231), wk =   0.0026991
        k(  164) = (   0.1666667   0.1578947  -0.0000000), wk =   0.0026991
        k(  165) = (   0.1666667   0.1578947   0.0769231), wk =   0.0026991
        k(  166) = (   0.1666667   0.1578947   0.1538462), wk =   0.0026991
        k(  167) = (   0.1666667   0.1578947   0.2307692), wk =   0.0026991
        k(  168) = (   0.1666667   0.1578947   0.3076923), wk =   0.0026991
        k(  169) = (   0.1666667   0.1578947   0.3846154), wk =   0.0026991
        k(  170) = (   0.1666667   0.1578947   0.4615385), wk =   0.0026991
        k(  171) = (   0.1666667   0.1578947  -0.4615385), wk =   0.0026991
        k(  172) = (   0.1666667   0.1578947  -0.3846154), wk =   0.0026991
        k(  173) = (   0.1666667   0.1578947  -0.3076923), wk =   0.0026991
        k(  174) = (   0.1666667   0.1578947  -0.2307692), wk =   0.0026991
        k(  175) = (   0.1666667   0.1578947  -0.1538462), wk =   0.0026991
        k(  176) = (   0.1666667   0.1578947  -0.0769231), wk =   0.0026991
        k(  177) = (   0.1666667   0.2105263  -0.0000000), wk =   0.0026991
        k(  178) = (   0.1666667   0.2105263   0.0769231), wk =   0.0026991
        k(  179) = (   0.1666667   0.2105263   0.1538462), wk =   0.0026991
        k(  180) = (   0.1666667   0.2105263   0.2307692), wk =   0.0026991
        k(  181) = (   0.1666667   0.2105263   0.3076923), wk =   0.0026991
        k(  182) = (   0.1666667   0.2105263   0.3846154), wk =   0.0026991
[...]

          k =-0.0126 1.6300-0.5925 ( 11101 PWs)   bands (ev):

    -3.2494  -3.2375  -2.0643  -2.0202  -1.2872  -1.2627  -0.2072  -0.1783
     0.4527   0.5213   0.5856   0.7416   1.5701   1.6684   1.9300   2.0107
     2.5961   2.6837   2.9023   3.0709   3.3474   3.3657   3.4853   3.5061
     4.1725   4.2996   4.6471   4.6593   5.2080   5.2280   5.4141   5.5288
     7.0063   7.0894   7.4188   7.5464   7.6420   7.8051   8.2544   8.4065

     occupation numbers 
     1.0000   1.0000   1.0000   1.0000   1.0000   1.0000   1.0000   1.0000
     1.0000   1.0000   1.0000   1.0000   1.0000   1.0000   1.0000   1.0000
     1.0000   1.0000   1.0000   1.0000   1.0000   1.0000   1.0000   1.0000
     1.0000   1.0000   1.0000   1.0000   1.0000   1.0001   1.0003   1.0008
     0.6092   0.4930   0.1001   0.0181  -0.0161  -0.0354  -0.0094  -0.0039

     the Fermi energy is     7.0845 ev

!    total energy              =    -597.34883536 Ry
     Harris-Foulkes estimate   =    -597.34883536 Ry
     estimated scf accuracy    <          2.6E-13 Ry

     The total energy is the sum of the following terms:

     one-electron contribution =      50.34612790 Ry
     hartree contribution      =       6.74757718 Ry
     xc contribution           =     -78.18166846 Ry
     ewald contribution        =    -117.86686426 Ry
     one-center paw contrib.   =    -458.39535935 Ry
      -> PAW hartree energy AE =       1.36632272 Ry
      -> PAW hartree energy PS =      -1.36169333 Ry
      -> PAW xc energy AE      =     -36.56945584 Ry
      -> PAW xc energy PS      =       1.88697590 Ry
      -> total E_H with PAW    =       6.75220657 Ry
      -> total E_XC with PAW   =    -112.86414839 Ry
     smearing contrib. (-TS)   =       0.00135162 Ry

     convergence has been achieved in  15 iterations

     Forces acting on atoms (cartesian axes, Ry/au):

     atom    1 type  1   force =    -0.00000098    0.00000000   -0.00000153
     atom    2 type  2   force =    -0.00017123    0.00000002   -0.00087544
     atom    3 type  2   force =     0.00035303    0.00000003   -0.00145133
     atom    4 type  2   force =    -0.00034688   -0.00000007    0.00146599
     atom    5 type  2   force =     0.00015844   -0.00000005    0.00086753
     atom    6 type  3   force =    -0.00013369   -0.00000010   -0.00015023
     atom    7 type  3   force =    -0.00074605   -0.00000003    0.00079067
     atom    8 type  1   force =     0.00048565   -0.00000002   -0.00156593
     atom    9 type  1   force =    -0.00047254   -0.00000000    0.00154859
     atom   10 type  3   force =     0.00074914    0.00000005   -0.00078864
     atom   11 type  3   force =     0.00012505    0.00000003    0.00016028
     atom   12 type  1   force =    -0.00000085   -0.00000000   -0.00000143
     atom   13 type  2   force =    -0.00017118   -0.00000004   -0.00087546
     atom   14 type  2   force =     0.00035303   -0.00000001   -0.00145133
     atom   15 type  2   force =    -0.00034689    0.00000005    0.00146598
     atom   16 type  2   force =     0.00015851    0.00000007    0.00086755
     atom   17 type  3   force =    -0.00013386    0.00000011   -0.00015028
     atom   18 type  3   force =    -0.00074595    0.00000007    0.00079055
     atom   19 type  1   force =     0.00048562    0.00000006   -0.00156576
     atom   20 type  1   force =    -0.00047236   -0.00000003    0.00154855
     atom   21 type  3   force =     0.00074897   -0.00000008   -0.00078852
     atom   22 type  3   force =     0.00012502   -0.00000005    0.00016018
     The non-local contrib.  to forces
     atom    1 type  1   force =    -0.00000609    0.00000002   -0.00000592
     atom    2 type  2   force =    -0.00935507   -0.00000003    0.01145601
     atom    3 type  2   force =    -0.01696638    0.00000003    0.00382430
     atom    4 type  2   force =     0.01698899   -0.00000009   -0.00378867
     atom    5 type  2   force =     0.00931625   -0.00000011   -0.01147983
     atom    6 type  3   force =     0.02857238   -0.00000012   -0.04094696
     atom    7 type  3   force =    -0.01468916   -0.00000005    0.01555469
     atom    8 type  1   force =    -0.00020753   -0.00000024    0.01285278
     atom    9 type  1   force =     0.00023034   -0.00000006   -0.01287784
     atom   10 type  3   force =     0.01468034    0.00000015   -0.01557059
     atom   11 type  3   force =    -0.02858856    0.00000003    0.04096394
     atom   12 type  1   force =    -0.00000593   -0.00000003   -0.00000584
     atom   13 type  2   force =    -0.00935524   -0.00000003    0.01145576
     atom   14 type  2   force =    -0.01696625   -0.00000005    0.00382418
     atom   15 type  2   force =     0.01698897    0.00000014   -0.00378882
     atom   16 type  2   force =     0.00931619    0.00000016   -0.01147987
     atom   17 type  3   force =     0.02857229    0.00000016   -0.04094714
     atom   18 type  3   force =    -0.01468899    0.00000006    0.01555450
     atom   19 type  1   force =    -0.00020745    0.00000017    0.01285278
     atom   20 type  1   force =     0.00023057    0.00000012   -0.01287793
     atom   21 type  3   force =     0.01468011   -0.00000014   -0.01557034
     atom   22 type  3   force =    -0.02858866   -0.00000008    0.04096374
     The ionic contribution  to forces
     atom    1 type  1   force =     0.00003165   -0.00000016    0.00003141
     atom    2 type  2   force =     0.08208871    0.00000031   -0.10854837
     atom    3 type  2   force =    -0.09235978    0.00000028   -0.04220754
     atom    4 type  2   force =     0.09236592   -0.00000028    0.04222764
     atom    5 type  2   force =    -0.08214352   -0.00000031    0.10851757
     atom    6 type  3   force =    -0.30595478   -0.00000029    0.38340324
     atom    7 type  3   force =     0.46738142   -0.00000044   -0.31423618
     atom    8 type  1   force =    -0.25909307   -0.00000040    0.15732938
     atom    9 type  1   force =     0.25903392    0.00000040   -0.15739596
     atom   10 type  3   force =    -0.46736119    0.00000044    0.31420493
     atom   11 type  3   force =     0.30601073    0.00000029   -0.38332486
     atom   12 type  1   force =     0.00003236    0.00000016    0.00003198
     atom   13 type  2   force =     0.08208855   -0.00000031   -0.10854898
     atom   14 type  2   force =    -0.09235988   -0.00000028   -0.04220770
     atom   15 type  2   force =     0.09236577    0.00000028    0.04222724
     atom   16 type  2   force =    -0.08214338    0.00000031    0.10851766
     atom   17 type  3   force =    -0.30595567    0.00000029    0.38340272
     atom   18 type  3   force =     0.46738262    0.00000044   -0.31423728
     atom   19 type  1   force =    -0.25909391    0.00000040    0.15732960
     atom   20 type  1   force =     0.25903505   -0.00000040   -0.15739618
     atom   21 type  3   force =    -0.46736254   -0.00000044    0.31420538
     atom   22 type  3   force =     0.30601105   -0.00000029   -0.38332569
     The local contribution  to forces
     atom    1 type  1   force =    -0.00002792    0.00000014   -0.00002906
     atom    2 type  2   force =    -0.07381606   -0.00000027    0.09767219
     atom    3 type  2   force =     0.10764782   -0.00000028    0.03732027
     atom    4 type  2   force =    -0.10766962    0.00000030   -0.03736021
     atom    5 type  2   force =     0.07389063    0.00000037   -0.09763141
     atom    6 type  3   force =     0.28009163    0.00000030   -0.34652988
     atom    7 type  3   force =    -0.45477733    0.00000045    0.30100683
     atom    8 type  1   force =     0.25953144    0.00000059   -0.16982116
     atom    9 type  1   force =    -0.25948132   -0.00000035    0.16988968
     atom   10 type  3   force =     0.45476513   -0.00000053   -0.30096226
     atom   11 type  3   force =    -0.28013566   -0.00000029    0.34645775
     atom   12 type  1   force =    -0.00002865   -0.00000013   -0.00002956
     atom   13 type  2   force =    -0.07381569    0.00000029    0.09767303
     atom   14 type  2   force =     0.10764782    0.00000031    0.03732056
     atom   15 type  2   force =    -0.10766945   -0.00000035   -0.03735970
     atom   16 type  2   force =     0.07389060   -0.00000039   -0.09763145
     atom   17 type  3   force =     0.28009249   -0.00000032   -0.34652919
     atom   18 type  3   force =    -0.45477859   -0.00000043    0.30100805
     atom   19 type  1   force =     0.25953219   -0.00000049   -0.16982118
     atom   20 type  1   force =    -0.25948249    0.00000026    0.16988995
     atom   21 type  3   force =     0.45476653    0.00000049   -0.30096279
     atom   22 type  3   force =    -0.28013595    0.00000031    0.34645862
     The core correction contribution to forces
     atom    1 type  1   force =     0.00000057   -0.00000000    0.00000055
     atom    2 type  2   force =     0.00091030    0.00000000   -0.00145676
     atom    3 type  2   force =     0.00203058   -0.00000001   -0.00038986
     atom    4 type  2   force =    -0.00203302    0.00000001    0.00038575
     atom    5 type  2   force =    -0.00090567    0.00000001    0.00145972
     atom    6 type  3   force =    -0.00284362    0.00000001    0.00392174
     atom    7 type  3   force =     0.00133820    0.00000001   -0.00153615
     atom    8 type  1   force =     0.00025396    0.00000003   -0.00192847
     atom    9 type  1   force =    -0.00025627    0.00000000    0.00193126
     atom   10 type  3   force =    -0.00133597   -0.00000002    0.00153774
     atom   11 type  3   force =     0.00283759   -0.00000000   -0.00393787
     atom   12 type  1   force =     0.00000055    0.00000000    0.00000054
     atom   13 type  2   force =     0.00091032    0.00000000   -0.00145673
     atom   14 type  2   force =     0.00203057    0.00000001   -0.00038984
     atom   15 type  2   force =    -0.00203302   -0.00000002    0.00038577
     atom   16 type  2   force =    -0.00090566   -0.00000002    0.00145972
     atom   17 type  3   force =    -0.00284361   -0.00000002    0.00392176
     atom   18 type  3   force =     0.00133818   -0.00000001   -0.00153613
     atom   19 type  1   force =     0.00025396   -0.00000002   -0.00192847
     atom   20 type  1   force =    -0.00025630   -0.00000001    0.00193127
     atom   21 type  3   force =    -0.00133594    0.00000002    0.00153771
     atom   22 type  3   force =     0.00283760    0.00000001   -0.00393785
     The Hubbard contrib.    to forces
     atom    1 type  1   force =     0.00000000    0.00000000    0.00000000
     atom    2 type  2   force =     0.00000000    0.00000000    0.00000000
     atom    3 type  2   force =     0.00000000    0.00000000    0.00000000
     atom    4 type  2   force =     0.00000000    0.00000000    0.00000000
     atom    5 type  2   force =     0.00000000    0.00000000    0.00000000
     atom    6 type  3   force =     0.00000000    0.00000000    0.00000000
     atom    7 type  3   force =     0.00000000    0.00000000    0.00000000
     atom    8 type  1   force =     0.00000000    0.00000000    0.00000000
     atom    9 type  1   force =     0.00000000    0.00000000    0.00000000
     atom   10 type  3   force =     0.00000000    0.00000000    0.00000000
     atom   11 type  3   force =     0.00000000    0.00000000    0.00000000
     atom   12 type  1   force =     0.00000000    0.00000000    0.00000000
     atom   13 type  2   force =     0.00000000    0.00000000    0.00000000
     atom   14 type  2   force =     0.00000000    0.00000000    0.00000000
     atom   15 type  2   force =     0.00000000    0.00000000    0.00000000
     atom   16 type  2   force =     0.00000000    0.00000000    0.00000000
     atom   17 type  3   force =     0.00000000    0.00000000    0.00000000
     atom   18 type  3   force =     0.00000000    0.00000000    0.00000000
     atom   19 type  1   force =     0.00000000    0.00000000    0.00000000
     atom   20 type  1   force =     0.00000000    0.00000000    0.00000000
     atom   21 type  3   force =     0.00000000    0.00000000    0.00000000
     atom   22 type  3   force =     0.00000000    0.00000000    0.00000000
     The SCF correction term to forces
     atom    1 type  1   force =    -0.00000001   -0.00000000    0.00000001
     atom    2 type  2   force =     0.00000006   -0.00000000    0.00000001
     atom    3 type  2   force =    -0.00000002   -0.00000000    0.00000001
     atom    4 type  2   force =     0.00000003   -0.00000000   -0.00000000
     atom    5 type  2   force =    -0.00000007   -0.00000000   -0.00000001
     atom    6 type  3   force =    -0.00000012   -0.00000000    0.00000016
     atom    7 type  3   force =    -0.00000000   -0.00000000   -0.00000001
     atom    8 type  1   force =     0.00000003   -0.00000000    0.00000005
     atom    9 type  1   force =    -0.00000003    0.00000000   -0.00000002
     atom   10 type  3   force =     0.00000002    0.00000000    0.00000005
     atom   11 type  3   force =     0.00000013    0.00000000   -0.00000016
     atom   12 type  1   force =     0.00000000   -0.00000000   -0.00000002
     atom   13 type  2   force =     0.00000006   -0.00000000   -0.00000002
     atom   14 type  2   force =    -0.00000004    0.00000000   -0.00000001
     atom   15 type  2   force =     0.00000003    0.00000000    0.00000000
     atom   16 type  2   force =    -0.00000006    0.00000000    0.00000001
     atom   17 type  3   force =    -0.00000017    0.00000000    0.00000009
     atom   18 type  3   force =     0.00000001    0.00000000   -0.00000006
     atom   19 type  1   force =     0.00000002    0.00000000    0.00000003
     atom   20 type  1   force =    -0.00000001   -0.00000000   -0.00000004
     atom   21 type  3   force =    -0.00000002   -0.00000000    0.00000005
     atom   22 type  3   force =     0.00000016   -0.00000000   -0.00000013

     Total force =     0.005259     Total SCF correction =     0.000000


     Computing stress (Cartesian axis) and pressure

          total   stress  (Ry/bohr**3)                   (kbar)     P=   21.20
   0.00025737   0.00000000   0.00006758         37.86      0.00      9.94
   0.00000000  -0.00002571   0.00000000          0.00     -3.78      0.00
   0.00006758   0.00000000   0.00020069          9.94      0.00     29.52

     kinetic stress (kbar)   1557.90      0.00     16.54
                                0.00   1540.45     -0.00
                               16.54     -0.00   1533.61

     local   stress (kbar)     34.36      0.00     84.10
                                0.00    622.37      0.00
                               84.10      0.00   -132.07

     nonloc. stress (kbar)   1183.03     -0.00      4.94
                               -0.00   1162.35     -0.00
                                4.94     -0.00   1186.10

     hartree stress (kbar)    179.34     -0.00    -23.93
                               -0.00    -14.62      0.00
                              -23.93      0.00    217.52

     exc-cor stress (kbar)   1529.18     -0.00      0.15
                               -0.00   1528.60     -0.00
                                0.15     -0.00   1529.67

     corecor stress (kbar)  -2306.67      0.00     -0.97
                                0.00  -2303.67      0.00
                               -0.97      0.00  -2306.80

     ewald   stress (kbar)  -2139.29      0.00    -70.89
                                0.00  -2539.26      0.00
                              -70.89      0.00  -1998.50

     hubbard stress (kbar)      0.00      0.00      0.00
                                0.00      0.00      0.00
                                0.00      0.00      0.00

     london  stress (kbar)      0.00      0.00      0.00
                                0.00      0.00      0.00
                                0.00      0.00      0.00

     DFT-D3  stress (kbar)      0.00      0.00      0.00
                                0.00      0.00      0.00
                                0.00      0.00      0.00

     XDM     stress (kbar)      0.00      0.00      0.00
                                0.00      0.00      0.00
                                0.00      0.00      0.00

     dft-nl  stress (kbar)      0.00      0.00      0.00
                                0.00      0.00      0.00
                                0.00      0.00      0.00

     TS-vdW  stress (kbar)      0.00      0.00      0.00
                                0.00      0.00      0.00
                                0.00      0.00      0.00



     Writing output data file aiida.save/
 
     init_run     :     23.72s CPU     24.09s WALL (       1 calls)
     electrons    :    753.02s CPU    763.29s WALL (       1 calls)
     forces       :      9.10s CPU      9.18s WALL (       1 calls)
     stress       :     64.77s CPU     66.06s WALL (       1 calls)

     Called by init_run:
     wfcinit      :     21.30s CPU     21.60s WALL (       1 calls)
     wfcinit:atom :      0.16s CPU      0.17s WALL (     186 calls)
     wfcinit:wfcr :     19.87s CPU     20.13s WALL (     186 calls)
     potinit      :      0.81s CPU      0.84s WALL (       1 calls)
     hinit0       :      1.42s CPU      1.43s WALL (       1 calls)

     Called by electrons:
     c_bands      :    674.32s CPU    682.18s WALL (      16 calls)
     sum_band     :     73.83s CPU     75.35s WALL (      16 calls)
     v_of_rho     :      1.24s CPU      1.32s WALL (      16 calls)
     v_h          :      0.09s CPU      0.09s WALL (      16 calls)
     v_xc         :      1.27s CPU      1.35s WALL (      18 calls)
     newd         :      1.23s CPU      1.88s WALL (      16 calls)
     PAW_pot      :      1.93s CPU      2.02s WALL (      16 calls)
     mix_rho      :      0.48s CPU      0.52s WALL (      16 calls)

     Called by c_bands:
     init_us_2    :     21.37s CPU     21.63s WALL (    6510 calls)
     cegterg      :    529.39s CPU    535.45s WALL (    2976 calls)

     Called by sum_band:
     sum_band:bec :      0.46s CPU      0.46s WALL (    2976 calls)
     addusdens    :      1.24s CPU      1.97s WALL (      16 calls)

     Called by *egterg:
     h_psi        :    371.02s CPU    375.89s WALL (   15056 calls)
     s_psi        :     50.86s CPU     51.03s WALL (   15056 calls)
     g_psi        :      2.29s CPU      2.31s WALL (   11894 calls)
     cdiaghg      :     61.66s CPU     62.57s WALL (   14684 calls)
     cegterg:over :     24.22s CPU     24.34s WALL (   11894 calls)
     cegterg:upda :     21.29s CPU     21.46s WALL (   11894 calls)
     cegterg:last :      7.25s CPU      7.29s WALL (    3265 calls)
     cdiaghg:chol :      4.03s CPU      4.07s WALL (   14684 calls)
     cdiaghg:inve :      0.81s CPU      0.82s WALL (   14684 calls)
     cdiaghg:para :      8.11s CPU      8.17s WALL (   29368 calls)

     Called by h_psi:
     h_psi:pot    :    369.39s CPU    374.25s WALL (   15056 calls)
     h_psi:calbec :     49.75s CPU     50.25s WALL (   15056 calls)
     vloc_psi     :    268.01s CPU    272.28s WALL (   15056 calls)
     add_vuspsi   :     51.48s CPU     51.62s WALL (   15056 calls)

     General routines
     calbec       :    109.22s CPU    111.06s WALL (   18962 calls)
     fft          :      1.03s CPU      1.06s WALL (     233 calls)
     ffts         :      0.19s CPU      0.20s WALL (     248 calls)
     fftw         :    283.11s CPU    287.48s WALL (  835224 calls)
     interpolate  :      0.10s CPU      0.11s WALL (      16 calls)
 
     Parallel routines
     fft_scatt_xy :     34.58s CPU     35.16s WALL (  835705 calls)
     fft_scatt_yz :     95.88s CPU     97.52s WALL (  835705 calls)

     PAW routines
     PAW_pot      :      1.93s CPU      2.02s WALL (      16 calls)
 
     PWSCF        :  14m33.34s CPU  15m 0.77s WALL

 
   This run was terminated on:  14:27:21  22Feb2020            

=------------------------------------------------------------------------------=
   JOB DONE.
=------------------------------------------------------------------------------=
