
     Program PWSCF v.6.3 starts on 22Feb2020 at 14:12:19 

     This program is part of the open-source Quantum ESPRESSO suite
     for quantum simulation of materials; please cite
         "P. Giannozzi et al., J. Phys.:Condens. Matter 21 395502 (2009);
         "P. Giannozzi et al., J. Phys.:Condens. Matter 29 465901 (2017);
          URL http://www.quantum-espresso.org", 
     in publications or presentations arising from this work. More details at
     http://www.quantum-espresso.org/quote

 *** WARNING: using old-style file format, will disappear from next version ***

     Parallel version (MPI & OpenMP), running on      36 processor cores
     Number of MPI processes:                36
     Threads/MPI process:                     1

     MPI processes distributed on     1 nodes
     K-points division:     npool     =       4
     R & G space division:  proc/nbgrp/npool/nimage =       9
     Reading input from aiida.in
Warning: card &IONS ignored
Warning: card   !PRESS_CONV_THR = 0.05                 ! JUST FOR VOLUME RELAXATIONS ignored
Warning: card / ignored

     Current dimensions of program PWSCF are:
     Max number of different atomic species (ntypx) = 10
     Max number of k-points (npk) =  40000
     Max angular momentum in pseudopotentials (lmaxx) =  3
               file Mg.pbe-n-kjpaw_psl.0.3.0.UPF: wavefunction(s)  3S renormalized
               file Al.pbe-n-kjpaw_psl.1.0.0.UPF: wavefunction(s)  3S 3P renormalized

     Subspace diagonalization in iterative solution of the eigenvalue problem:
     one sub-group per band group will be used
     scalapack distributed-memory algorithm (size of sub-group:  2*  2 procs)

 
     Parallelization info
     --------------------
     sticks:   dense  smooth     PW     G-vecs:    dense   smooth      PW
     Min        9281    3715   1011               461025   116650   16609
     Max        9283    3716   1012               461025   116651   16610
     Sum       83539   33437   9101              4149225  1049857  149487
 


     bravais-lattice index     =            0
     lattice parameter (alat)  =      27.6424  a.u.
     unit-cell volume          =   30711.4097 (a.u.)^3
     number of atoms/cell      =          264
     number of atomic types    =            3
     number of electrons       =       804.00
     number of Kohn-Sham states=          482
     kinetic-energy cutoff     =      40.0000  Ry
     charge density cutoff     =     400.0000  Ry
     convergence threshold     =      1.0E-12
     mixing beta               =       0.4000
     number of iterations used =            8  local-TF  mixing
     Exchange-correlation      = SLA PW PBX PBC ( 1  4  3  4 0 0)

     celldm(1)=  27.642373  celldm(2)=   0.000000  celldm(3)=   0.000000
     celldm(4)=   0.000000  celldm(5)=   0.000000  celldm(6)=   0.000000

     crystal axes: (cart. coord. in units of alat)
               a(1) = (   0.554700   0.000000   0.832050 )  
               a(2) = (   0.000000   3.436801   0.000000 )  
               a(3) = (  -0.416025   0.000000   0.138675 )  

     reciprocal axes: (cart. coord. in units 2 pi/alat)
               b(1) = (  0.327777  0.000000  0.983332 )  
               b(2) = (  0.000000  0.290968  0.000000 )  
               b(3) = ( -1.966664  0.000000  1.311110 )  


     PseudoPot. # 1 for Mg read from file:
     /users/aglensk/Dropbox/Albert/scripts/dotfiles/scripts/potentials/quantum_espresso/pseudo_SSSPefV1.1_alalloy/Mg.pbe-n-kjpaw_psl.0.3.0.UPF
     MD5 check sum: 24ecedc7f3e3cbe212e682f4413594e4
     Pseudo is Projector augmented-wave + core cor, Zval =  2.0
     Generated using "atomic" code by A. Dal Corso v.5.0.99 svn rev. 10869
     Shape of augmentation charge: PSQ
     Using radial grid of 1129 points,  4 beta functions with: 
                l(1) =   0
                l(2) =   0
                l(3) =   1
                l(4) =   1
     Q(r) pseudized with 0 coefficients 


     PseudoPot. # 2 for Si read from file:
     /users/aglensk/Dropbox/Albert/scripts/dotfiles/scripts/potentials/quantum_espresso/pseudo_SSSPefV1.1_alalloy/Si.pbe-n-rrkjus_psl.1.0.0.UPF
     MD5 check sum: 0b0bb1205258b0d07b9f9672cf965d36
     Pseudo is Ultrasoft + core correction, Zval =  4.0
     Generated using "atomic" code by A. Dal Corso v.5.1
     Using radial grid of 1141 points,  6 beta functions with: 
                l(1) =   0
                l(2) =   0
                l(3) =   1
                l(4) =   1
                l(5) =   2
                l(6) =   2
     Q(r) pseudized with 0 coefficients 


     PseudoPot. # 3 for Al read from file:
     /users/aglensk/Dropbox/Albert/scripts/dotfiles/scripts/potentials/quantum_espresso/pseudo_SSSPefV1.1_alalloy/Al.pbe-n-kjpaw_psl.1.0.0.UPF
     MD5 check sum: cfc449ca30b5f3223ec38ddd88ac046d
     Pseudo is Projector augmented-wave + core cor, Zval =  3.0
     Generated using "atomic" code by A. Dal Corso v.5.1
     Shape of augmentation charge: PSQ
     Using radial grid of 1135 points,  6 beta functions with: 
                l(1) =   0
                l(2) =   0
                l(3) =   1
                l(4) =   1
                l(5) =   2
                l(6) =   2
     Q(r) pseudized with 0 coefficients 


     atomic species   valence    mass     pseudopotential
        Mg             2.00    24.30500     Mg( 1.00)
        Si             4.00    28.08500     Si( 1.00)
        Al             3.00    26.98154     Al( 1.00)

     No symmetry found


                                    s                        frac. trans.

      isym =  1     identity                                     

 cryst.   s( 1) = (     1          0          0      )
                  (     0          1          0      )
                  (     0          0          1      )

 cart.    s( 1) = (  1.0000000  0.0000000 -0.0000000 )
                  (  0.0000000  1.0000000  0.0000000 )
                  ( -0.0000000  0.0000000  1.0000000 )


   Cartesian axes

     site n.     atom                  positions (alat units)
         1           Mg  tau(   1) = (  -0.3974708   0.0142258   0.1396996  )
         2           Mg  tau(   2) = (  -0.1000413   0.1372626   0.1216307  )
         3           Mg  tau(   3) = (  -0.2833194   0.1411626   0.2549686  )
         4           Mg  tau(   4) = (   0.1698452   0.0002626   0.2997474  )
         5           Mg  tau(   5) = (  -0.0168718   3.4296035   0.4335895  )
         6           Si  tau(   6) = (  -0.2229422   3.4299268   0.1398789  )
         7           Si  tau(   7) = (   0.0178765   0.0001195   0.1910067  )
         8           Si  tau(   8) = (  -0.1301112   3.4070820   0.2745427  )
         9           Si  tau(   9) = (   0.0140266   0.1391920   0.2872202  )
        10           Si  tau(  10) = (  -0.1330754   0.1418870   0.3625390  )
        11           Si  tau(  11) = (   0.1127796   0.1412585   0.4152214  )
        12           Mg  tau(  12) = (  -0.1307290   0.1418614   0.5564434  )
        13           Mg  tau(  13) = (   0.1694270   3.4309128   0.5371223  )
        14           Mg  tau(  14) = (  -0.0134316   3.4294827   0.6710213  )
        15           Mg  tau(  15) = (   0.4474820   0.1292530   0.7161317  )
        16           Mg  tau(  16) = (   0.2667628   0.1312496   0.8434861  )
        17           Si  tau(  17) = (   0.0416092   0.1378656   0.5584177  )
        18           Si  tau(  18) = (   0.2913799   0.1384877   0.6114770  )
        19           Si  tau(  19) = (   0.1419593   0.1349274   0.6850718  )
        20           Si  tau(  20) = (   0.2949365   3.4180920   0.6964683  )
        21           Si  tau(  21) = (   0.1471589   3.4255823   0.7788276  )
        22           Si  tau(  22) = (   0.4018018   3.4018919   0.8254825  )
        23           Mg  tau(  23) = (  -0.4053236   0.2726390   0.1364997  )
        24           Mg  tau(  24) = (  -0.0996573   0.4284271   0.1126460  )
        25           Mg  tau(  25) = (  -0.2932380   0.4307483   0.2514928  )
        26           Mg  tau(  26) = (   0.1700103   0.2867041   0.3031456  )
        27           Mg  tau(  27) = (  -0.0223994   0.2861735   0.4401398  )
        28           Si  tau(  28) = (  -0.2330427   0.2868900   0.1401414  )
        29           Si  tau(  29) = (   0.0149999   0.2851124   0.1940384  )
        30           Si  tau(  30) = (  -0.1348093   0.2878092   0.2685932  )
        31           Si  tau(  31) = (   0.0114116   0.4307437   0.2870757  )
        32           Si  tau(  32) = (  -0.1380574   0.4335990   0.3613369  )
        33           Si  tau(  33) = (   0.1111262   0.4327659   0.4141176  )
        34           Mg  tau(  34) = (  -0.1319582   0.4318676   0.5558469  )
        35           Mg  tau(  35) = (   0.1757553   0.2856144   0.5339916  )
        36           Mg  tau(  36) = (  -0.0152411   0.2840974   0.6701573  )
        37           Mg  tau(  37) = (   0.4475232   0.4263260   0.7187470  )
        38           Mg  tau(  38) = (   0.2542023   0.4288474   0.8562038  )
        39           Si  tau(  39) = (   0.0411714   0.4306540   0.5579224  )
        40           Si  tau(  40) = (   0.2907875   0.4320642   0.6110049  )
        41           Si  tau(  41) = (   0.1410053   0.4294326   0.6847263  )
        42           Si  tau(  42) = (   0.2917086   0.2858974   0.7029324  )
        43           Si  tau(  43) = (   0.1420137   0.2818319   0.7761145  )
        44           Si  tau(  44) = (   0.3924055   0.2780688   0.8290649  )
        45           Mg  tau(  45) = (  -0.4095727   0.5771950   0.1382468  )
        46           Mg  tau(  46) = (  -0.1027989   0.7230477   0.1151754  )
        47           Mg  tau(  47) = (  -0.2947723   0.7243681   0.2523676  )
        48           Mg  tau(  48) = (   0.1671265   0.5788585   0.3025708  )
        49           Mg  tau(  49) = (  -0.0236984   0.5778991   0.4394295  )
        50           Si  tau(  50) = (  -0.2366805   0.5781680   0.1406066  )
        51           Si  tau(  51) = (   0.0125567   0.5769793   0.1936323  )
        52           Si  tau(  52) = (  -0.1367757   0.5771954   0.2668412  )
        53           Si  tau(  53) = (   0.0106192   0.7240477   0.2865988  )
        54           Si  tau(  54) = (  -0.1390010   0.7233077   0.3602312  )
        55           Si  tau(  55) = (   0.1101159   0.7260385   0.4136335  )
        56           Mg  tau(  56) = (  -0.1330314   0.7241082   0.5548226  )
        57           Mg  tau(  57) = (   0.1743651   0.5781504   0.5321979  )
        58           Mg  tau(  58) = (  -0.0165029   0.5772078   0.6688936  )
        59           Mg  tau(  59) = (   0.4451421   0.7222073   0.7182634  )
        60           Mg  tau(  60) = (   0.2531224   0.7235169   0.8550423  )
        61           Si  tau(  61) = (   0.0399814   0.7234831   0.5572921  )
        62           Si  tau(  62) = (   0.2891354   0.7232259   0.6106937  )
        63           Si  tau(  63) = (   0.1394332   0.7240583   0.6842307  )
        64           Si  tau(  64) = (   0.2878467   0.5772727   0.7036223  )
        65           Si  tau(  65) = (   0.1385210   0.5763158   0.7768373  )
        66           Si  tau(  66) = (   0.3883732   0.5733723   0.8293915  )
        67           Mg  tau(  67) = (  -0.4103380   0.8706015   0.1386679  )
        68           Mg  tau(  68) = (  -0.1031605   1.0163282   0.1160860  )
        69           Mg  tau(  69) = (  -0.2940235   1.0172879   0.2527100  )
        70           Mg  tau(  70) = (   0.1675343   0.8721617   0.3023426  )
        71           Mg  tau(  71) = (  -0.0243191   0.8708512   0.4390384  )
        72           Si  tau(  72) = (  -0.2373451   0.8708528   0.1411530  )
        73           Si  tau(  73) = (   0.0117436   0.8712415   0.1945477  )
        74           Si  tau(  74) = (  -0.1379268   0.8703084   0.2680998  )
        75           Si  tau(  75) = (   0.0102647   1.0171916   0.2875279  )
        76           Si  tau(  76) = (  -0.1390755   1.0179216   0.3607976  )
        77           Si  tau(  77) = (   0.1107603   1.0209871   0.4133648  )
        78           Mg  tau(  78) = (  -0.1324890   1.0173265   0.5543192  )
        79           Mg  tau(  79) = (   0.1743512   0.8713400   0.5314509  )
        80           Mg  tau(  80) = (  -0.0174352   0.8701561   0.6684300  )
        81           Mg  tau(  81) = (   0.4443225   1.0157263   0.7187369  )
        82           Mg  tau(  82) = (   0.2535413   1.0165976   0.8554048  )
        83           Si  tau(  83) = (   0.0404148   1.0163880   0.5566501  )
        84           Si  tau(  84) = (   0.2897290   1.0175373   0.6097092  )
        85           Si  tau(  85) = (   0.1403609   1.0174398   0.6828859  )
        86           Si  tau(  86) = (   0.2879789   0.8704464   0.7026256  )
        87           Si  tau(  87) = (   0.1383492   0.8712627   0.7761990  )
        88           Si  tau(  88) = (   0.3875308   0.8681769   0.8295732  )
        89           Mg  tau(  89) = (  -0.4096996   1.1629105   0.1399000  )
        90           Mg  tau(  90) = (  -0.1023389   1.3092127   0.1181587  )
        91           Mg  tau(  91) = (  -0.2931602   1.3105173   0.2541658  )
        92           Mg  tau(  92) = (   0.1696511   1.1683398   0.3029185  )
        93           Mg  tau(  93) = (  -0.0235174   1.1657709   0.4400126  )
        94           Si  tau(  94) = (  -0.2365877   1.1639199   0.1418969  )
        95           Si  tau(  95) = (   0.0129032   1.1625230   0.1951419  )
        96           Si  tau(  96) = (  -0.1369184   1.1650351   0.2688733  )
        97           Si  tau(  97) = (   0.0136339   1.3089901   0.2868061  )
        98           Si  tau(  98) = (  -0.1360362   1.3130486   0.3600114  )
        99           Si  tau(  99) = (   0.1142356   1.3170931   0.4130070  )
       100           Mg  tau( 100) = (  -0.1288036   1.3215808   0.5526357  )
       101           Mg  tau( 101) = (   0.1770361   1.1661877   0.5288062  )
       102           Mg  tau( 102) = (  -0.0162499   1.1639145   0.6673995  )
       103           Mg  tau( 103) = (   0.4465604   1.3079597   0.7190670  )
       104           Mg  tau( 104) = (   0.2543314   1.3085614   0.8560581  )
       105           Si  tau( 105) = (   0.0435476   1.3081587   0.5561773  )
       106           Si  tau( 106) = (   0.2915736   1.3097481   0.6100996  )
       107           Si  tau( 107) = (   0.1418064   1.3068673   0.6845666  )
       108           Si  tau( 108) = (   0.2885214   1.1638742   0.7029759  )
       109           Si  tau( 109) = (   0.1390203   1.1610615   0.7772988  )
       110           Si  tau( 110) = (   0.3881054   1.1618531   0.8301311  )
       111           Mg  tau( 111) = (  -0.4087987   1.4525349   0.1404064  )
       112           Mg  tau( 112) = (  -0.1083411   1.6008454   0.1203740  )
       113           Mg  tau( 113) = (  -0.2911013   1.6020666   0.2550461  )
       114           Mg  tau( 114) = (   0.1690391   1.4657934   0.3002233  )
       115           Mg  tau( 115) = (  -0.0115017   1.4636736   0.4279138  )
       116           Si  tau( 116) = (  -0.2364121   1.4569265   0.1425333  )
       117           Si  tau( 117) = (   0.0132061   1.4565904   0.1954002  )
       118           Si  tau( 118) = (  -0.1359974   1.4603691   0.2693293  )
       119           Si  tau( 119) = (   0.0162621   1.6145328   0.2800749  )
       120           Si  tau( 120) = (  -0.1310605   1.6063859   0.3634456  )
       121           Si  tau( 121) = (   0.1235192   1.6302335   0.4089986  )
       122           Mg  tau( 122) = (  -0.1210003   1.5810514   0.5558766  )
       123           Mg  tau( 123) = (   0.1764402   1.4580794   0.5375798  )
       124           Mg  tau( 124) = (  -0.0067145   1.4538095   0.6709223  )
       125           Mg  tau( 125) = (   0.4470148   1.5947377   0.7156790  )
       126           Mg  tau( 126) = (   0.2594218   1.6018907   0.8499843  )
       127           Si  tau( 127) = (   0.0538659   1.6023821   0.5557967  )
       128           Si  tau( 128) = (   0.2950686   1.5950916   0.6070135  )
       129           Si  tau( 129) = (   0.1472949   1.6257586   0.6900796  )
       130           Si  tau( 130) = (   0.2904362   1.4558636   0.7031568  )
       131           Si  tau( 131) = (   0.1434101   1.4526786   0.7785302  )
       132           Si  tau( 132) = (   0.3893424   1.4536195   0.8311329  )
       133           Al  tau( 133) = (  -0.2798011   2.0355843   0.1368609  )
       134           Al  tau( 134) = (   0.5518321   1.8973688   0.8296231  )
       135           Al  tau( 135) = (  -0.2804094   1.8973736   0.2749390  )
       136           Al  tau( 136) = (  -0.0023208   2.0342231   0.1375452  )
       137           Al  tau( 137) = (   0.1346529   2.0339355   0.2760282  )
       138           Al  tau( 138) = (  -0.0046789   1.8926733   0.2768076  )
       139           Al  tau( 139) = (   0.1282927   1.8974935   0.4136909  )
       140           Al  tau( 140) = (   0.1353941   2.0323717   0.5536084  )
       141           Al  tau( 141) = (   0.1344398   1.8955403   0.6931446  )
       142           Al  tau( 142) = (   0.2750751   1.8970828   0.8294412  )
       143           Al  tau( 143) = (   0.1358980   2.0347087   0.8305748  )
       144           Al  tau( 144) = (   0.4134639   2.0349878   0.8295587  )
       145           Al  tau( 145) = (  -0.1419914   1.8980382   0.1356090  )
       146           Al  tau( 146) = (  -0.1410945   2.0345972   0.2753365  )
       147           Al  tau( 147) = (  -0.0051421   2.0338547   0.4154768  )
       148           Al  tau( 148) = (  -0.1440251   1.8962522   0.4125399  )
       149           Al  tau( 149) = (  -0.0047330   1.8926988   0.5557627  )
       150           Al  tau( 150) = (   0.2730070   2.0325108   0.4152325  )
       151           Al  tau( 151) = (  -0.0027936   2.0332735   0.6917575  )
       152           Al  tau( 152) = (   0.2754053   1.8945417   0.5561584  )
       153           Al  tau( 153) = (   0.2744840   2.0337715   0.6919673  )
       154           Al  tau( 154) = (   0.4134646   1.8939222   0.6902348  )
       155           Al  tau( 155) = (  -0.2791904   2.3102819   0.1376743  )
       156           Al  tau( 156) = (   0.5524284   2.1726512   0.8309083  )
       157           Al  tau( 157) = (  -0.2796568   2.1725226   0.2762950  )
       158           Al  tau( 158) = (  -0.0018654   2.3104107   0.1377663  )
       159           Al  tau( 159) = (   0.1365883   2.3101343   0.2766604  )
       160           Al  tau( 160) = (  -0.0026065   2.1722968   0.2765608  )
       161           Al  tau( 161) = (   0.1357490   2.1716631   0.4153670  )
       162           Al  tau( 162) = (   0.1366025   2.3098221   0.5536562  )
       163           Al  tau( 163) = (   0.1362742   2.1720757   0.6920208  )
       164           Al  tau( 164) = (   0.2751129   2.1725072   0.8304473  )
       165           Al  tau( 165) = (   0.1367355   2.3102610   0.8309520  )
       166           Al  tau( 166) = (   0.4141400   2.3104193   0.8308519  )
       167           Al  tau( 167) = (  -0.1407637   2.1726092   0.1372071  )
       168           Al  tau( 168) = (  -0.1406406   2.3102502   0.2765046  )
       169           Al  tau( 169) = (  -0.0022330   2.3098797   0.4152776  )
       170           Al  tau( 170) = (  -0.1419309   2.1719855   0.4154947  )
       171           Al  tau( 171) = (  -0.0027749   2.1714642   0.5537449  )
       172           Al  tau( 172) = (   0.2752191   2.3099797   0.4151928  )
       173           Al  tau( 173) = (  -0.0020553   2.3099970   0.6921904  )
       174           Al  tau( 174) = (   0.2747173   2.1716707   0.5534296  )
       175           Al  tau( 175) = (   0.2753389   2.3103050   0.6921730  )
       176           Al  tau( 176) = (   0.4136499   2.1723992   0.6916661  )
       177           Al  tau( 177) = (  -0.2792658   2.5860083   0.1377414  )
       178           Al  tau( 178) = (   0.5529489   2.4481380   0.8311259  )
       179           Al  tau( 179) = (  -0.2792306   2.4481039   0.2764490  )
       180           Al  tau( 180) = (  -0.0019038   2.5859236   0.1377022  )
       181           Al  tau( 181) = (   0.1368887   2.5857655   0.2761946  )
       182           Al  tau( 182) = (  -0.0018452   2.4480785   0.2765415  )
       183           Al  tau( 183) = (   0.1368733   2.4479108   0.4152013  )
       184           Al  tau( 184) = (   0.1368948   2.5856965   0.5538375  )
       185           Al  tau( 185) = (   0.1369598   2.4480065   0.6924459  )
       186           Al  tau( 186) = (   0.2756724   2.4480849   0.8311100  )
       187           Al  tau( 187) = (   0.1368725   2.5859088   0.8312364  )
       188           Al  tau( 188) = (   0.4142033   2.5860170   0.8312680  )
       189           Al  tau( 189) = (  -0.1404997   2.4481357   0.1378018  )
       190           Al  tau( 190) = (  -0.1405943   2.5858814   0.2762448  )
       191           Al  tau( 191) = (  -0.0018074   2.5857533   0.4149287  )
       192           Al  tau( 192) = (  -0.1405350   2.4479841   0.4151316  )
       193           Al  tau( 193) = (  -0.0018044   2.4478987   0.5537800  )
       194           Al  tau( 194) = (   0.2755746   2.5857046   0.4150068  )
       195           Al  tau( 195) = (  -0.0017890   2.5857313   0.6924917  )
       196           Al  tau( 196) = (   0.2756136   2.4480088   0.5538127  )
       197           Al  tau( 197) = (   0.2755899   2.5858007   0.6926778  )
       198           Al  tau( 198) = (   0.4144131   2.4481247   0.6923642  )
       199           Al  tau( 199) = (  -0.2804879   2.8621578   0.1376936  )
       200           Al  tau( 200) = (   0.5523826   2.7238957   0.8312009  )
       201           Al  tau( 201) = (  -0.2795800   2.7238820   0.2760514  )
       202           Al  tau( 202) = (  -0.0029916   2.8619250   0.1372918  )
       203           Al  tau( 203) = (   0.1360479   2.8609976   0.2755634  )
       204           Al  tau( 204) = (  -0.0022095   2.7235516   0.2759395  )
       205           Al  tau( 205) = (   0.1366459   2.7232238   0.4146888  )
       206           Al  tau( 206) = (   0.1362058   2.8606277   0.5531146  )
       207           Al  tau( 207) = (   0.1365496   2.7235467   0.6925857  )
       208           Al  tau( 208) = (   0.2749412   2.7240112   0.8312984  )
       209           Al  tau( 209) = (   0.1350727   2.8615055   0.8315398  )
       210           Al  tau( 210) = (   0.4127646   2.8619193   0.8313609  )
       211           Al  tau( 211) = (  -0.1409946   2.7241195   0.1375475  )
       212           Al  tau( 212) = (  -0.1413558   2.8615379   0.2758730  )
       213           Al  tau( 213) = (  -0.0025126   2.8607579   0.4143022  )
       214           Al  tau( 214) = (  -0.1407616   2.7234886   0.4147091  )
       215           Al  tau( 215) = (  -0.0019822   2.7233647   0.5536231  )
       216           Al  tau( 216) = (   0.2747560   2.8605543   0.4148203  )
       217           Al  tau( 217) = (  -0.0026535   2.8608527   0.6922013  )
       218           Al  tau( 218) = (   0.2753289   2.7232502   0.5538112  )
       219           Al  tau( 219) = (   0.2744329   2.8610997   0.6925078  )
       220           Al  tau( 220) = (   0.4137808   2.7236747   0.6926755  )
       221           Al  tau( 221) = (  -0.2825379   3.1398330   0.1394126  )
       222           Al  tau( 222) = (   0.5497826   3.0007277   0.8311789  )
       223           Al  tau( 223) = (  -0.2805855   2.9997917   0.2757017  )
       224           Al  tau( 224) = (  -0.0023701   3.1382221   0.1399053  )
       225           Al  tau( 225) = (   0.1357565   3.1388505   0.2740270  )
       226           Al  tau( 226) = (  -0.0032260   2.9993021   0.2758896  )
       227           Al  tau( 227) = (   0.1356714   2.9978272   0.4134522  )
       228           Al  tau( 228) = (   0.1347163   3.1343623   0.5514207  )
       229           Al  tau( 229) = (   0.1357228   2.9982238   0.6911264  )
       230           Al  tau( 230) = (   0.2717662   2.9990682   0.8313455  )
       231           Al  tau( 231) = (   0.1328902   3.1363854   0.8283491  )
       232           Al  tau( 232) = (   0.4052184   3.1352675   0.8295769  )
       233           Al  tau( 233) = (  -0.1424195   3.0007389   0.1375145  )
       234           Al  tau( 234) = (  -0.1433343   3.1372248   0.2768846  )
       235           Al  tau( 235) = (  -0.0026900   3.1355664   0.4132035  )
       236           Al  tau( 236) = (  -0.1418248   2.9982468   0.4144054  )
       237           Al  tau( 237) = (  -0.0029833   2.9972554   0.5526935  )
       238           Al  tau( 238) = (   0.2739422   3.1349970   0.4134074  )
       239           Al  tau( 239) = (  -0.0036167   3.1350862   0.6908709  )
       240           Al  tau( 240) = (   0.2745252   2.9985620   0.5534415  )
       241           Al  tau( 241) = (   0.2721711   3.1396911   0.6926270  )
       242           Al  tau( 242) = (   0.4116083   2.9990504   0.6919249  )
       243           Al  tau( 243) = (  -0.2810743   1.7612120   0.1353341  )
       244           Al  tau( 244) = (   0.5383164   3.2640652   0.8306194  )
       245           Al  tau( 245) = (  -0.2892131   3.2940923   0.2695400  )
       246           Al  tau( 246) = (  -0.0012256   1.7611135   0.1358684  )
       247           Al  tau( 247) = (   0.1340136   1.7570945   0.2723980  )
       248           Al  tau( 248) = (  -0.0008739   3.2766806   0.2779951  )
       249           Al  tau( 249) = (   0.1365025   3.2741138   0.4136238  )
       250           Al  tau( 250) = (   0.1354447   1.7632451   0.5563467  )
       251           Al  tau( 251) = (   0.1333322   3.2743809   0.6851890  )
       252           Al  tau( 252) = (   0.2618070   3.2811257   0.8367858  )
       253           Al  tau( 253) = (   0.1347578   1.7594365   0.8271262  )
       254           Al  tau( 254) = (   0.4141631   1.7581587   0.8298258  )
       255           Al  tau( 255) = (  -0.1421955   3.2691392   0.1401230  )
       256           Al  tau( 256) = (  -0.1433327   1.7574157   0.2691332  )
       257           Al  tau( 257) = (  -0.0154937   1.7511633   0.4210390  )
       258           Al  tau( 258) = (  -0.1427401   3.2729723   0.4108889  )
       259           Al  tau( 259) = (  -0.0042372   3.2708484   0.5512542  )
       260           Al  tau( 260) = (   0.2613833   1.7683885   0.4148862  )
       261           Al  tau( 261) = (  -0.0119108   1.7377830   0.6858405  )
       262           Al  tau( 262) = (   0.2755906   3.2707043   0.5516622  )
       263           Al  tau( 263) = (   0.2769074   1.7556925   0.6943893  )
       264           Al  tau( 264) = (   0.4105998   3.2748537   0.6885529  )

   Crystallographic axes

     site n.     atom                  positions (cryst. coord.)
         1           Mg  tau(   1) = (  0.0070892  0.0041393  0.9648531  )
         2           Mg  tau(   2) = (  0.0868121  0.0399391  0.3562189  )
         3           Mg  tau(   3) = (  0.1578531  0.0410738  0.8914858  )
         4           Mg  tau(   4) = (  0.3504227  0.0000764  0.0589732  )
         5           Mg  tau(   5) = (  0.4208323  0.9979056  0.6016644  )
         6           Si  tau(   6) = (  0.0644720  0.9979997  0.6218489  )
         7           Si  tau(   7) = (  0.1936825  0.0000348  0.2152737  )
         8           Si  tau(   8) = (  0.2273192  0.9913526  0.6158406  )
         9           Si  tau(   9) = (  0.2870304  0.0405004  0.3489915  )
        10           Si  tau(  10) = (  0.3128772  0.0412846  0.7370430  )
        11           Si  tau(  11) = (  0.4452672  0.0411017  0.3226011  )
        12           Mg  tau(  12) = (  0.5043187  0.0412772  0.9866583  )
        13           Mg  tau(  13) = (  0.5837039  0.9982866  0.3710202  )
        14           Mg  tau(  14) = (  0.6554343  0.9978705  0.9061978  )
        15           Mg  tau(  15) = (  0.8508698  0.0376085  0.0588803  )
        16           Mg  tau(  16) = (  0.9168659  0.0381895  0.5812699  )
        17           Si  tau(  17) = (  0.5627487  0.0401145  0.6503155  )
        18           Si  tau(  18) = (  0.6967928  0.0402955  0.2286669  )
        19           Si  tau(  19) = (  0.7201842  0.0392596  0.6190179  )
        20           Si  tau(  20) = (  0.7815332  0.9945562  0.3331051  )
        21           Si  tau(  21) = (  0.8140816  0.9967356  0.7317161  )
        22           Si  tau(  22) = (  0.9434251  0.9898424  0.2920887  )
        23           Mg  tau(  23) = (  0.0013687  0.0793293  0.9761015  )
        24           Mg  tau(  24) = (  0.0781031  0.1246587  0.3436836  )
        25           Mg  tau(  25) = (  0.1511842  0.1253341  0.9064354  )
        26           Mg  tau(  26) = (  0.3538184  0.0834218  0.0631039  )
        27           Mg  tau(  27) = (  0.4254616  0.0832674  0.6211236  )
        28           Si  tau(  28) = (  0.0614194  0.0834759  0.6420575  )
        29           Si  tau(  29) = (  0.1957208  0.0829587  0.2249058  )
        30           Si  tau(  30) = (  0.2199289  0.0837433  0.6172797  )
        31           Si  tau(  31) = (  0.2860313  0.1253327  0.3539448  )
        32           Si  tau(  32) = (  0.3100621  0.1261635  0.7452648  )
        33           Si  tau(  33) = (  0.4436398  0.1259211  0.3244056  )
        34           Mg  tau(  34) = (  0.5033293  0.1256597  0.9882936  )
        35           Mg  tau(  35) = (  0.5826997  0.0831047  0.3544697  )
        36           Mg  tau(  36) = (  0.6539916  0.0826633  0.9086238  )
        37           Mg  tau(  37) = (  0.8534550  0.1240473  0.0622281  )
        38           Mg  tau(  38) = (  0.9252545  0.1247810  0.6226463  )
        39           Si  tau(  39) = (  0.5621181  0.1253066  0.6505272  )
        40           Si  tau(  40) = (  0.6961343  0.1257170  0.2292129  )
        41           Si  tau(  41) = (  0.7195318  0.1249513  0.6204411  )
        42           Si  tau(  42) = (  0.7868316  0.0831871  0.3479285  )
        43           Si  tau(  43) = (  0.8097273  0.0820041  0.7382779  )
        44           Si  tau(  44) = (  0.9438679  0.0809092  0.3152650  )
        45           Mg  tau(  45) = (  0.0016939  0.1679454  0.9867487  )
        46           Mg  tau(  46) = (  0.0795605  0.2103839  0.3531784  )
        47           Mg  tau(  47) = (  0.1515415  0.2107681  0.9105998  )
        48           Mg  tau(  48) = (  0.3523079  0.1684294  0.0680218  )
        49           Mg  tau(  49) = (  0.4243374  0.1681503  0.6227470  )
        50           Si  tau(  50) = (  0.0606845  0.1682285  0.6498218  )
        51           Si  tau(  51) = (  0.1945207  0.1678826  0.2291783  )
        52           Si  tau(  52) = (  0.2175616  0.1679455  0.6188501  )
        53           Si  tau(  53) = (  0.2853025  0.2106749  0.3548779  )
        54           Si  tau(  54) = (  0.3086655  0.2104596  0.7456708  )
        55           Si  tau(  55) = (  0.4428327  0.2112541  0.3257578  )
        56           Mg  tau(  56) = (  0.5019703  0.2106925  0.9890613  )
        57           Mg  tau(  57) = (  0.5804802  0.1682234  0.3548520  )
        58           Mg  tau(  58) = (  0.6523354  0.1679491  0.9094484  )
        59           Mg  tau(  59) = (  0.8521990  0.2101394  0.0662769  )
        60           Mg  tau(  60) = (  0.9237585  0.2105204  0.6232473  )
        61           Si  tau(  61) = (  0.5611083  0.2105106  0.6520410  )
        62           Si  tau(  62) = (  0.6952868  0.2104358  0.2320541  )
        63           Si  tau(  63) = (  0.7185292  0.2106780  0.6228832  )
        64           Si  tau(  64) = (  0.7862441  0.1679680  0.3564281  )
        65           Si  tau(  65) = (  0.8092932  0.1676896  0.7460946  )
        66           Si  tau(  66) = (  0.9428674  0.1668331  0.3236234  )
        67           Mg  tau(  67) = (  0.0018572  0.2533174  0.9888059  )
        68           Mg  tau(  68) = (  0.0803374  0.2957192  0.3550834  )
        69           Mg  tau(  69) = (  0.1521236  0.2959984  0.9095759  )
        70           Mg  tau(  70) = (  0.3522172  0.2537713  0.0669206  )
        71           Mg  tau(  71) = (  0.4237493  0.2533900  0.6234550  )
        72           Si  tau(  72) = (  0.0610039  0.2533905  0.6518451  )
        73           Si  tau(  73) = (  0.1951543  0.2535036  0.2319776  )
        74           Si  tau(  74) = (  0.2184219  0.2532321  0.6227639  )
        75           Si  tau(  75) = (  0.2860999  0.2959704  0.3567933  )
        76           Si  tau(  76) = (  0.3091981  0.2961828  0.7465600  )
        77           Si  tau(  77) = (  0.4427796  0.2970748  0.3241383  )
        78           Mg  tau(  78) = (  0.5016530  0.2960097  0.9873344  )
        79           Mg  tau(  79) = (  0.5797412  0.2535322  0.3539001  )
        80           Mg  tau(  80) = (  0.6515739  0.2531878  0.9106742  )
        81           Mg  tau(  81) = (  0.8523959  0.2955441  0.0685096  )
        82           Mg  tau(  82) = (  0.9242522  0.2957976  0.6228988  )
        83           Si  tau(  83) = (  0.5606191  0.2957366  0.6503469  )
        84           Si  tau(  84) = (  0.6945133  0.2960710  0.2295958  )
        85           Si  tau(  85) = (  0.7175108  0.2960426  0.6192955  )
        86           Si  tau(  86) = (  0.7853073  0.2532722  0.3548613  )
        87           Si  tau(  87) = (  0.8086092  0.2535098  0.7455954  )
        88           Si  tau(  88) = (  0.9427698  0.2526119  0.3255183  )
        89           Mg  tau(  89) = (  0.0032779  0.3383700  0.9891658  )
        90           Mg  tau(  90) = (  0.0826449  0.3809393  0.3561853  )
        91           Mg  tau(  91) = (  0.1538382  0.3813189  0.9097869  )
        92           Mg  tau(  92) = (  0.3534773  0.3399497  0.0635127  )
        93           Mg  tau(  93) = (  0.4249701  0.3392023  0.6231555  )
        94           Si  tau(  94) = (  0.0619837  0.3386637  0.6513310  )
        95           Si  tau(  95) = (  0.1961187  0.3382572  0.2304762  )
        96           Si  tau(  96) = (  0.2195130  0.3389882  0.6217948  )
        97           Si  tau(  97) = (  0.2864945  0.3808745  0.3492209  )
        98           Si  tau(  98) = (  0.3094213  0.3820554  0.7395519  )
        99           Si  tau(  99) = (  0.4435669  0.3832322  0.3168345  )
       100           Mg  tau( 100) = (  0.5012056  0.3845380  0.9778795  )
       101           Mg  tau( 101) = (  0.5780206  0.3393236  0.3451523  )
       102           Mg  tau( 102) = (  0.6509491  0.3386621  0.9069919  )
       103           Mg  tau( 103) = (  0.8534541  0.3805747  0.0645413  )
       104           Mg  tau( 104) = (  0.9251536  0.3807498  0.6222015  )
       105           Si  tau( 105) = (  0.5611809  0.3806326  0.6435658  )
       106           Si  tau( 106) = (  0.6955018  0.3810951  0.2264801  )
       107           Si  tau( 107) = (  0.7196373  0.3802568  0.6186563  )
       108           Si  tau( 108) = (  0.7858296  0.3386504  0.3542536  )
       109           Si  tau( 109) = (  0.8099107  0.3378320  0.7457177  )
       110           Si  tau( 110) = (  0.9435068  0.3380623  0.3251197  )
       111           Mg  tau( 111) = (  0.0040711  0.4226415  0.9880579  )
       112           Mg  tau( 112) = (  0.0828559  0.4657951  0.3708939  )
       113           Mg  tau( 113) = (  0.1553786  0.4661505  0.9068918  )
       114           Mg  tau( 114) = (  0.3506264  0.4264993  0.0611825  )
       115           Mg  tau( 115) = (  0.4170114  0.4258825  0.5836618  )
       116           Si  tau( 116) = (  0.0626671  0.4239193  0.6518199  )
       117           Si  tau( 117) = (  0.1964720  0.4238215  0.2302190  )
       118           Si  tau( 118) = (  0.2202634  0.4249210  0.6205814  )
       119           Si  tau( 119) = (  0.2807370  0.4697777  0.3352269  )
       120           Si  tau( 120) = (  0.3144291  0.4674073  0.7342689  )
       121           Si  tau( 121) = (  0.4426683  0.4743461  0.2933212  )
       122           Mg  tau( 122) = (  0.5069502  0.4600357  0.9667820  )
       123           Mg  tau( 123) = (  0.5864526  0.4242548  0.3578273  )
       124           Mg  tau( 124) = (  0.6575386  0.4230124  0.8928577  )
       125           Mg  tau( 125) = (  0.8502715  0.4640180  0.0592056  )
       126           Mg  tau( 126) = (  0.9208496  0.4660993  0.6042269  )
       127           Si  tau( 127) = (  0.5641888  0.4662423  0.6227743  )
       128           Si  tau( 128) = (  0.6936127  0.4641210  0.2155604  )
       129           Si  tau( 129) = (  0.7268574  0.4730441  0.6150903  )
       130           Si  tau( 130) = (  0.7866351  0.4236101  0.3507251  )
       131           Si  tau( 131) = (  0.8125604  0.4226833  0.7386989  )
       132           Si  tau( 132) = (  0.9448973  0.4229571  0.3240004  )
       133           Al  tau( 133) = (  0.0428673  0.5922903  0.7297144  )
       134           Al  tau( 134) = (  0.9966731  0.5520740  0.0024583  )
       135           Al  tau( 135) = (  0.1784445  0.5520754  0.9119461  )
       136           Al  tau( 136) = (  0.1344919  0.5918943  0.1849011  )
       137           Al  tau( 137) = (  0.3155636  0.5918106  0.0970862  )
       138           Al  tau( 138) = (  0.2706602  0.5507078  0.3721270  )
       139           Al  tau( 139) = (  0.4488471  0.5521103  0.2900855  )
       140           Al  tau( 140) = (  0.5887601  0.5913556  0.4595666  )
       141           Al  tau( 141) = (  0.7256577  0.5515420  0.6443906  )
       142           Al  tau( 142) = (  0.9057797  0.5519908  0.5465080  )
       143           Al  tau( 143) = (  0.8612752  0.5920356  0.8217088  )
       144           Al  tau( 144) = (  0.9512559  0.5921168  0.2744977  )
       145           Al  tau( 145) = (  0.0868072  0.5522688  0.4570477  )
       146           Al  tau( 146) = (  0.2244996  0.5920031  0.6384818  )
       147           Al  tau( 147) = (  0.4068662  0.5917871  0.5548484  )
       148           Al  tau( 148) = (  0.3584557  0.5517491  0.8241340  )
       149           Al  tau( 149) = (  0.5449480  0.5507152  0.7379739  )
       150           Al  tau( 150) = (  0.4977970  0.5913961  0.0075022  )
       151           Al  tau( 151) = (  0.6793117  0.5916180  0.9124639  )
       152           Al  tau( 152) = (  0.6371600  0.5512514  0.1875549  )
       153           Al  tau( 153) = (  0.7704034  0.5917629  0.3674271  )
       154           Al  tau( 154) = (  0.8142544  0.5510712  0.0918274  )
       155           Al  tau( 155) = (  0.0438673  0.6722186  0.7295799  )
       156           Al  tau( 156) = (  0.9981324  0.6321725  0.0029707  )
       157           Al  tau( 157) = (  0.1800246  0.6321350  0.9122441  )
       158           Al  tau( 158) = (  0.1348586  0.6722561  0.1842954  )
       159           Al  tau( 159) = (  0.3168197  0.6721757  0.0941087  )
       160           Al  tau( 160) = (  0.2710968  0.6320693  0.3677277  )
       161           Al  tau( 161) = (  0.4529392  0.6318850  0.2776190  )
       162           Al  tau( 162) = (  0.5892032  0.6720848  0.4572526  )
       163           Al  tau( 163) = (  0.7251539  0.6320050  0.6393096  )
       164           Al  tau( 164) = (  0.9067813  0.6321306  0.5477526  )
       165           Al  tau( 165) = (  0.8619206  0.6722125  0.8205561  )
       166           Al  tau( 166) = (  0.9527491  0.6722586  0.2748636  )
       167           Al  tau( 167) = (  0.0887810  0.6321602  0.4567285  )
       168           Al  tau( 168) = (  0.2257971  0.6722094  0.6391206  )
       169           Al  tau( 169) = (  0.4076239  0.6721016  0.5488659  )
       170           Al  tau( 170) = (  0.3620476  0.6319788  0.8238896  )
       171           Al  tau( 171) = (  0.5436057  0.6318271  0.7314777  )
       172           Al  tau( 172) = (  0.4984830  0.6721307  0.0030996  )
       173           Al  tau( 173) = (  0.6799794  0.6721357  0.9115795  )
       174           Al  tau( 174) = (  0.6342513  0.6318872  0.1853302  )
       175           Al  tau( 175) = (  0.7708858  0.6722253  0.3660154  )
       176           Al  tau( 176) = (  0.8157227  0.6320991  0.0933395  )
       177           Al  tau( 177) = (  0.0439086  0.7524462  0.7298161  )
       178           Al  tau( 178) = (  0.9985170  0.7123304  0.0022323  )
       179           Al  tau( 179) = (  0.1803157  0.7123204  0.9116077  )
       180           Al  tau( 180) = (  0.1347830  0.7524216  0.1842869  )
       181           Al  tau( 181) = (  0.3164600  0.7523756  0.0929072  )
       182           Al  tau( 182) = (  0.2713274  0.7123130  0.3662051  )
       183           Al  tau( 183) = (  0.4531447  0.7122643  0.2751906  )
       184           Al  tau( 184) = (  0.5894772  0.7523555  0.4569156  )
       185           Al  tau( 185) = (  0.7257967  0.7122921  0.6385184  )
       186           Al  tau( 186) = (  0.9076164  0.7123149  0.5475211  )
       187           Al  tau( 187) = (  0.8622452  0.7524173  0.8206598  )
       188           Al  tau( 188) = (  0.9531790  0.7524488  0.2752845  )
       189           Al  tau( 189) = (  0.0894523  0.7123297  0.4569890  )
       190           Al  tau( 190) = (  0.2255568  0.7524093  0.6386890  )
       191           Al  tau( 191) = (  0.4074203  0.7523720  0.5475715  )
       192           Al  tau( 192) = (  0.3621481  0.7122856  0.8206682  )
       193           Al  tau( 193) = (  0.5439582  0.7122607  0.7296149  )
       194           Al  tau( 194) = (  0.4984167  0.7523579  0.0021567  )
       195           Al  tau( 195) = (  0.6803630  0.7523656  0.9114508  )
       196           Al  tau( 196) = (  0.6349218  0.7122928  0.1840697  )
       197           Al  tau( 197) = (  0.7714645  0.7523858  0.3661836  )
       198           Al  tau( 198) = (  0.8166592  0.7123265  0.0927539  )
       199           Al  tau( 199) = (  0.0434609  0.8327970  0.7321569  )
       200           Al  tau( 200) = (  0.9984051  0.7925671  0.0034443  )
       201           Al  tau( 201) = (  0.1798102  0.7925631  0.9117737  )
       202           Al  tau( 202) = (  0.1340229  0.8327292  0.1858881  )
       203           Al  tau( 203) = (  0.3155638  0.8324594  0.0937331  )
       204           Al  tau( 204) = (  0.2706160  0.7924670  0.3661322  )
       205           Al  tau( 205) = (  0.4525663  0.7923716  0.2749657  )
       206           Al  tau( 206) = (  0.5885406  0.8323517  0.4573228  )
       207           Al  tau( 207) = (  0.7257997  0.7924655  0.6395085  )
       208           Al  tau( 208) = (  0.9075620  0.7926007  0.5492061  )
       209           Al  tau( 209) = (  0.8619536  0.8326072  0.8245971  )
       210           Al  tau( 210) = (  0.9527989  0.8327276  0.2782359  )
       211           Al  tau( 211) = (  0.0890400  0.7926322  0.4576289  )
       212           Al  tau( 212) = (  0.2249415  0.8326166  0.6396992  )
       213           Al  tau( 213) = (  0.4065732  0.8323896  0.5481371  )
       214           Al  tau( 214) = (  0.3616583  0.7924486  0.8205598  )
       215           Al  tau( 215) = (  0.5437457  0.7924126  0.7297588  )
       216           Al  tau( 216) = (  0.4979649  0.8323304  0.0035220  )
       217           Al  tau( 217) = (  0.6797940  0.8324172  0.9127701  )
       218           Al  tau( 218) = (  0.6348269  0.7923793  0.1846276  )
       219           Al  tau( 219) = (  0.7709182  0.8324891  0.3682362  )
       220           Al  tau( 220) = (  0.8167581  0.7925028  0.0944055  )
       221           Al  tau( 221) = (  0.0444794  0.9135916  0.7384425  )
       222           Al  tau( 222) = (  0.9975312  0.8731164  0.0085287  )
       223           Al  tau( 223) = (  0.1791368  0.8728441  0.9132927  )
       224           Al  tau( 224) = (  0.1367965  0.9131229  0.1880924  )
       225           Al  tau( 225) = (  0.3139575  0.9133058  0.0922919  )
       226           Al  tau( 226) = (  0.2702337  0.8727016  0.3680659  )
       227           Al  tau( 227) = (  0.4510309  0.8722725  0.2752610  )
       228           Al  tau( 228) = (  0.5863867  0.9119998  0.4580312  )
       229           Al  tau( 229) = (  0.7240937  0.8723878  0.6392214  )
       230           Al  tau( 230) = (  0.9065676  0.8726335  0.5555121  )
       231           Al  tau( 231) = (  0.8581008  0.9125885  0.8247061  )
       232           Al  tau( 232) = (  0.9485711  0.9122632  0.2907376  )
       233           Al  tau( 233) = (  0.0885405  0.8731197  0.4603879  )
       234           Al  tau( 234) = (  0.2252878  0.9128327  0.6449165  )
       235           Al  tau( 235) = (  0.4054346  0.9123502  0.5470454  )
       236           Al  tau( 236) = (  0.3610112  0.8723945  0.8222525  )
       237           Al  tau( 237) = (  0.5425035  0.8721061  0.7305089  )
       238           Al  tau( 238) = (  0.4963088  0.9121845  0.0032701  )
       239           Al  tau( 239) = (  0.6781701  0.9122104  0.9129201  )
       240           Al  tau( 240) = (  0.6342000  0.8724862  0.1857234  )
       241           Al  tau( 241) = (  0.7702940  0.9135503  0.3728408  )
       242           Al  tau( 242) = (  0.8153079  0.8726284  0.0976941  )
       243           Al  tau( 243) = (  0.0409486  0.5124567  0.7302167  )
       244           Al  tau( 244) = (  0.9932227  0.9497392  0.0303454  )
       245           Al  tau( 245) = (  0.1702499  0.9584762  0.9221815  )
       246           Al  tau( 246) = (  0.1332021  0.5124281  0.1805488  )
       247           Al  tau( 247) = (  0.3117844  0.5112587  0.0935838  )
       248           Al  tau( 248) = (  0.2730751  0.9534099  0.3662008  )
       249           Al  tau( 249) = (  0.4514720  0.9526631  0.2738515  )
       250           Al  tau( 250) = (  0.5914693  0.5130483  0.4630572  )
       251           Al  tau( 251) = (  0.7174717  0.9527408  0.6361382  )
       252           Al  tau( 252) = (  0.9086528  0.9547033  0.5822314  )
       253           Al  tau( 253) = (  0.8575104  0.5119401  0.8194297  )
       254           Al  tau( 254) = (  0.9517477  0.5115683  0.2734728  )
       255           Al  tau( 255) = (  0.0911790  0.9512156  0.4633675  )
       256           Al  tau( 256) = (  0.2176661  0.5113521  0.6347505  )
       257           Al  tau( 257) = (  0.4089427  0.5095329  0.5824993  )
       258           Al  tau( 258) = (  0.3572533  0.9523309  0.8194422  )
       259           Al  tau( 259) = (  0.5406771  0.9517129  0.7310878  )
       260           Al  tau( 260) = (  0.4936465  0.5145448  0.0299082  )
       261           Al  tau( 261) = (  0.6705050  0.5056396  0.9226367  )
       262           Al  tau( 262) = (  0.6327995  0.9516710  0.1812954  )
       263           Al  tau( 263) = (  0.7735793  0.5108507  0.3658365  )
       264           Al  tau( 264) = (  0.8116615  0.9528784  0.0952563  )

     number of k points=    80  Methfessel-Paxton smearing, width (Ry)=  0.0441
                       cart. coord. in units 2pi/alat
        k(    1) = (   0.0000000   0.0000000   0.0000000), wk =   0.0128205
        k(    2) = (  -0.1512819   0.0000000   0.1008546), wk =   0.0256410
        k(    3) = (  -0.3025637   0.0000000   0.2017092), wk =   0.0256410
        k(    4) = (  -0.4538456   0.0000000   0.3025637), wk =   0.0256410
        k(    5) = (  -0.6051275   0.0000000   0.4034183), wk =   0.0256410
        k(    6) = (  -0.7564093   0.0000000   0.5042729), wk =   0.0256410
        k(    7) = (  -0.9076912   0.0000000   0.6051275), wk =   0.0256410
        k(    8) = (   0.0000000  -0.1454841   0.0000000), wk =   0.0128205
        k(    9) = (  -0.1512819  -0.1454841   0.1008546), wk =   0.0256410
        k(   10) = (  -0.3025637  -0.1454841   0.2017092), wk =   0.0256410
        k(   11) = (  -0.4538456  -0.1454841   0.3025637), wk =   0.0256410
        k(   12) = (  -0.6051275  -0.1454841   0.4034183), wk =   0.0256410
        k(   13) = (  -0.7564093  -0.1454841   0.5042729), wk =   0.0256410
        k(   14) = (  -0.9076912  -0.1454841   0.6051275), wk =   0.0256410
        k(   15) = (   0.0546296   0.0000000   0.1638887), wk =   0.0256410
        k(   16) = (  -0.0966523   0.0000000   0.2647433), wk =   0.0256410
        k(   17) = (  -0.2479342   0.0000000   0.3655979), wk =   0.0256410
        k(   18) = (  -0.3992160   0.0000000   0.4664524), wk =   0.0256410
        k(   19) = (  -0.5504979   0.0000000   0.5673070), wk =   0.0256410
        k(   20) = (  -0.7017798   0.0000000   0.6681616), wk =   0.0256410
        k(   21) = (  -0.8530616   0.0000000   0.7690162), wk =   0.0256410
        k(   22) = (   0.9623207   0.0000000  -0.4412388), wk =   0.0256410
        k(   23) = (   0.8110389   0.0000000  -0.3403842), wk =   0.0256410
        k(   24) = (   0.6597570   0.0000000  -0.2395296), wk =   0.0256410
        k(   25) = (   0.5084751   0.0000000  -0.1386750), wk =   0.0256410
        k(   26) = (   0.3571933   0.0000000  -0.0378205), wk =   0.0256410
        k(   27) = (   0.2059114   0.0000000   0.0630341), wk =   0.0256410
        k(   28) = (   0.0546296  -0.1454841   0.1638887), wk =   0.0256410
        k(   29) = (  -0.0966523  -0.1454841   0.2647433), wk =   0.0256410
        k(   30) = (  -0.2479342  -0.1454841   0.3655979), wk =   0.0256410
        k(   31) = (  -0.3992160  -0.1454841   0.4664524), wk =   0.0256410
        k(   32) = (  -0.5504979  -0.1454841   0.5673070), wk =   0.0256410
        k(   33) = (  -0.7017798  -0.1454841   0.6681616), wk =   0.0256410
        k(   34) = (  -0.8530616  -0.1454841   0.7690162), wk =   0.0256410
        k(   35) = (   0.9623207  -0.1454841  -0.4412388), wk =   0.0256410
        k(   36) = (   0.8110389  -0.1454841  -0.3403842), wk =   0.0256410
        k(   37) = (   0.6597570  -0.1454841  -0.2395296), wk =   0.0256410
        k(   38) = (   0.5084751  -0.1454841  -0.1386750), wk =   0.0256410
        k(   39) = (   0.3571933  -0.1454841  -0.0378205), wk =   0.0256410
        k(   40) = (   0.2059114  -0.1454841   0.0630341), wk =   0.0256410
        k(   41) = (   0.1092591   0.0000000   0.3277774), wk =   0.0256410
        k(   42) = (  -0.0420227   0.0000000   0.4286320), wk =   0.0256410
        k(   43) = (  -0.1933046   0.0000000   0.5294866), wk =   0.0256410
        k(   44) = (  -0.3445865   0.0000000   0.6303411), wk =   0.0256410
        k(   45) = (  -0.4958683   0.0000000   0.7311957), wk =   0.0256410
        k(   46) = (  -0.6471502   0.0000000   0.8320503), wk =   0.0256410
        k(   47) = (  -0.7984321   0.0000000   0.9329049), wk =   0.0256410
        k(   48) = (   1.0169503   0.0000000  -0.2773501), wk =   0.0256410
        k(   49) = (   0.8656684   0.0000000  -0.1764955), wk =   0.0256410
        k(   50) = (   0.7143866   0.0000000  -0.0756409), wk =   0.0256410
        k(   51) = (   0.5631047   0.0000000   0.0252137), wk =   0.0256410
        k(   52) = (   0.4118228   0.0000000   0.1260682), wk =   0.0256410
        k(   53) = (   0.2605410   0.0000000   0.2269228), wk =   0.0256410
        k(   54) = (   0.1092591  -0.1454841   0.3277774), wk =   0.0256410
        k(   55) = (  -0.0420227  -0.1454841   0.4286320), wk =   0.0256410
        k(   56) = (  -0.1933046  -0.1454841   0.5294866), wk =   0.0256410
        k(   57) = (  -0.3445865  -0.1454841   0.6303411), wk =   0.0256410
        k(   58) = (  -0.4958683  -0.1454841   0.7311957), wk =   0.0256410
        k(   59) = (  -0.6471502  -0.1454841   0.8320503), wk =   0.0256410
        k(   60) = (  -0.7984321  -0.1454841   0.9329049), wk =   0.0256410
        k(   61) = (   1.0169503  -0.1454841  -0.2773501), wk =   0.0256410
        k(   62) = (   0.8656684  -0.1454841  -0.1764955), wk =   0.0256410
        k(   63) = (   0.7143866  -0.1454841  -0.0756409), wk =   0.0256410
        k(   64) = (   0.5631047  -0.1454841   0.0252137), wk =   0.0256410
        k(   65) = (   0.4118228  -0.1454841   0.1260682), wk =   0.0256410
        k(   66) = (   0.2605410  -0.1454841   0.2269228), wk =   0.0256410
        k(   67) = (  -0.1638887   0.0000000  -0.4916661), wk =   0.0128205
        k(   68) = (  -0.3151705   0.0000000  -0.3908115), wk =   0.0256410
        k(   69) = (  -0.4664524   0.0000000  -0.2899569), wk =   0.0256410
        k(   70) = (  -0.6177343   0.0000000  -0.1891024), wk =   0.0256410
        k(   71) = (  -0.7690161   0.0000000  -0.0882478), wk =   0.0256410
        k(   72) = (  -0.9202980   0.0000000   0.0126068), wk =   0.0256410
        k(   73) = (  -1.0715799   0.0000000   0.1134614), wk =   0.0256410
        k(   74) = (  -0.1638887  -0.1454841  -0.4916661), wk =   0.0128205
        k(   75) = (  -0.3151705  -0.1454841  -0.3908115), wk =   0.0256410
        k(   76) = (  -0.4664524  -0.1454841  -0.2899569), wk =   0.0256410
        k(   77) = (  -0.6177343  -0.1454841  -0.1891024), wk =   0.0256410
        k(   78) = (  -0.7690161  -0.1454841  -0.0882478), wk =   0.0256410
        k(   79) = (  -0.9202980  -0.1454841   0.0126068), wk =   0.0256410
        k(   80) = (  -1.0715799  -0.1454841   0.1134614), wk =   0.0256410

                       cryst. coord.
        k(    1) = (   0.0000000   0.0000000   0.0000000), wk =   0.0128205
        k(    2) = (  -0.0000000   0.0000000   0.0769231), wk =   0.0256410
        k(    3) = (  -0.0000000   0.0000000   0.1538462), wk =   0.0256410
        k(    4) = (  -0.0000000   0.0000000   0.2307692), wk =   0.0256410
        k(    5) = (  -0.0000000   0.0000000   0.3076923), wk =   0.0256410
        k(    6) = (  -0.0000000   0.0000000   0.3846154), wk =   0.0256410
        k(    7) = (  -0.0000000   0.0000000   0.4615385), wk =   0.0256410
        k(    8) = (   0.0000000  -0.5000000   0.0000000), wk =   0.0128205
        k(    9) = (  -0.0000000  -0.5000000   0.0769231), wk =   0.0256410
        k(   10) = (  -0.0000000  -0.5000000   0.1538462), wk =   0.0256410
        k(   11) = (  -0.0000000  -0.5000000   0.2307692), wk =   0.0256410
        k(   12) = (  -0.0000000  -0.5000000   0.3076923), wk =   0.0256410
        k(   13) = (  -0.0000000  -0.5000000   0.3846154), wk =   0.0256410
        k(   14) = (  -0.0000000  -0.5000000   0.4615385), wk =   0.0256410
        k(   15) = (   0.1666667   0.0000000   0.0000000), wk =   0.0256410
        k(   16) = (   0.1666667   0.0000000   0.0769231), wk =   0.0256410
        k(   17) = (   0.1666667   0.0000000   0.1538462), wk =   0.0256410
        k(   18) = (   0.1666667   0.0000000   0.2307692), wk =   0.0256410
        k(   19) = (   0.1666667   0.0000000   0.3076923), wk =   0.0256410
        k(   20) = (   0.1666667   0.0000000   0.3846154), wk =   0.0256410
        k(   21) = (   0.1666667   0.0000000   0.4615385), wk =   0.0256410
        k(   22) = (   0.1666667   0.0000000  -0.4615385), wk =   0.0256410
        k(   23) = (   0.1666667   0.0000000  -0.3846154), wk =   0.0256410
        k(   24) = (   0.1666667   0.0000000  -0.3076923), wk =   0.0256410
        k(   25) = (   0.1666667   0.0000000  -0.2307692), wk =   0.0256410
        k(   26) = (   0.1666667   0.0000000  -0.1538462), wk =   0.0256410
        k(   27) = (   0.1666667   0.0000000  -0.0769231), wk =   0.0256410
        k(   28) = (   0.1666667  -0.5000000   0.0000000), wk =   0.0256410
        k(   29) = (   0.1666667  -0.5000000   0.0769231), wk =   0.0256410
        k(   30) = (   0.1666667  -0.5000000   0.1538462), wk =   0.0256410
        k(   31) = (   0.1666667  -0.5000000   0.2307692), wk =   0.0256410
        k(   32) = (   0.1666667  -0.5000000   0.3076923), wk =   0.0256410
        k(   33) = (   0.1666667  -0.5000000   0.3846154), wk =   0.0256410
        k(   34) = (   0.1666667  -0.5000000   0.4615385), wk =   0.0256410
        k(   35) = (   0.1666667  -0.5000000  -0.4615385), wk =   0.0256410
        k(   36) = (   0.1666667  -0.5000000  -0.3846154), wk =   0.0256410
        k(   37) = (   0.1666667  -0.5000000  -0.3076923), wk =   0.0256410
        k(   38) = (   0.1666667  -0.5000000  -0.2307692), wk =   0.0256410
        k(   39) = (   0.1666667  -0.5000000  -0.1538462), wk =   0.0256410
        k(   40) = (   0.1666667  -0.5000000  -0.0769231), wk =   0.0256410
        k(   41) = (   0.3333333   0.0000000   0.0000000), wk =   0.0256410
        k(   42) = (   0.3333333   0.0000000   0.0769231), wk =   0.0256410
        k(   43) = (   0.3333333   0.0000000   0.1538462), wk =   0.0256410
        k(   44) = (   0.3333333   0.0000000   0.2307692), wk =   0.0256410
        k(   45) = (   0.3333333   0.0000000   0.3076923), wk =   0.0256410
        k(   46) = (   0.3333333   0.0000000   0.3846154), wk =   0.0256410
        k(   47) = (   0.3333333   0.0000000   0.4615385), wk =   0.0256410
        k(   48) = (   0.3333333   0.0000000  -0.4615385), wk =   0.0256410
        k(   49) = (   0.3333333   0.0000000  -0.3846154), wk =   0.0256410
        k(   50) = (   0.3333333   0.0000000  -0.3076923), wk =   0.0256410
        k(   51) = (   0.3333333   0.0000000  -0.2307692), wk =   0.0256410
        k(   52) = (   0.3333333   0.0000000  -0.1538462), wk =   0.0256410
        k(   53) = (   0.3333333   0.0000000  -0.0769231), wk =   0.0256410
        k(   54) = (   0.3333333  -0.5000000   0.0000000), wk =   0.0256410
        k(   55) = (   0.3333333  -0.5000000   0.0769231), wk =   0.0256410
        k(   56) = (   0.3333333  -0.5000000   0.1538462), wk =   0.0256410
        k(   57) = (   0.3333333  -0.5000000   0.2307692), wk =   0.0256410
        k(   58) = (   0.3333333  -0.5000000   0.3076923), wk =   0.0256410
        k(   59) = (   0.3333333  -0.5000000   0.3846154), wk =   0.0256410
        k(   60) = (   0.3333333  -0.5000000   0.4615385), wk =   0.0256410
        k(   61) = (   0.3333333  -0.5000000  -0.4615385), wk =   0.0256410
        k(   62) = (   0.3333333  -0.5000000  -0.3846154), wk =   0.0256410
        k(   63) = (   0.3333333  -0.5000000  -0.3076923), wk =   0.0256410
        k(   64) = (   0.3333333  -0.5000000  -0.2307692), wk =   0.0256410
        k(   65) = (   0.3333333  -0.5000000  -0.1538462), wk =   0.0256410
        k(   66) = (   0.3333333  -0.5000000  -0.0769231), wk =   0.0256410
        k(   67) = (  -0.5000000   0.0000000   0.0000000), wk =   0.0128205
        k(   68) = (  -0.5000000   0.0000000   0.0769231), wk =   0.0256410
        k(   69) = (  -0.5000000   0.0000000   0.1538462), wk =   0.0256410
        k(   70) = (  -0.5000000   0.0000000   0.2307692), wk =   0.0256410
        k(   71) = (  -0.5000000   0.0000000   0.3076923), wk =   0.0256410
        k(   72) = (  -0.5000000   0.0000000   0.3846154), wk =   0.0256410
        k(   73) = (  -0.5000000   0.0000000   0.4615385), wk =   0.0256410
        k(   74) = (  -0.5000000  -0.5000000   0.0000000), wk =   0.0128205
        k(   75) = (  -0.5000000  -0.5000000   0.0769231), wk =   0.0256410
        k(   76) = (  -0.5000000  -0.5000000   0.1538462), wk =   0.0256410
        k(   77) = (  -0.5000000  -0.5000000   0.2307692), wk =   0.0256410
        k(   78) = (  -0.5000000  -0.5000000   0.3076923), wk =   0.0256410
        k(   79) = (  -0.5000000  -0.5000000   0.3846154), wk =   0.0256410
        k(   80) = (  -0.5000000  -0.5000000   0.4615385), wk =   0.0256410

     Dense  grid:  4149225 G-vectors     FFT dimensions: ( 180, 625,  80)

     Smooth grid:  1049857 G-vectors     FFT dimensions: ( 120, 384,  50)

     Dynamical RAM for                 wfc:     107.21 MB

     Dynamical RAM for     wfc (w. buffer):    2251.41 MB

     Dynamical RAM for           str. fact:      21.10 MB

     Dynamical RAM for           local pot:       0.00 MB

     Dynamical RAM for          nlocal pot:     923.52 MB

     Dynamical RAM for                qrad:      21.15 MB

     Dynamical RAM for          rho,v,vnew:      44.28 MB

     Dynamical RAM for               rhoin:      14.76 MB

     Dynamical RAM for            rho*nmix:     112.55 MB

     Dynamical RAM for           G-vectors:      27.27 MB

     Dynamical RAM for          h,s,v(r/c):      42.54 MB

     Dynamical RAM for          <psi|beta>:      30.54 MB

     Dynamical RAM for                 psi:     428.84 MB

     Dynamical RAM for                hpsi:     428.84 MB

     Dynamical RAM for                spsi:     428.84 MB

     Dynamical RAM for      wfcinit/wfcrot:     495.30 MB

     Dynamical RAM for           addusdens:     564.53 MB

     Dynamical RAM for          addusforce:    1721.01 MB

     Dynamical RAM for         addusstress:     356.13 MB

     Estimated static dynamical RAM per process >       3.40 GB

     Estimated max dynamical RAM per process >       5.08 GB

     Estimated total dynamical RAM >     182.95 GB

     Initial potential from superposition of free atoms

     starting charge  803.60200, renormalised to  804.00000
     Starting wfcs are 1056 randomized atomic wfcs
