begin
comment 4 atoms, species Al4
lattice      7.4213119396     0.0000000000    -0.0000000000
lattice      0.0000000000     7.4213119396    -0.0000000000
lattice     -0.0000000000    -0.0000000000     7.4213119396
atom      0.0000000000     0.0000000000     0.0000000000   Al  0.0 0.0    5.26266013e-15  5.37416696e-15  5.61044751e-15
atom     -0.0000000000     3.7106559698     3.7106559698   Al  0.0 0.0    5.18925277e-15 -5.32958932e-15 -5.37509467e-15
atom      3.7106559698    -0.0000000000     3.7106559698   Al  0.0 0.0   -5.22325765e-15  5.33969190e-15 -5.44680369e-15
atom      3.7106559698     3.7106559698    -0.0000000000   Al  0.0 0.0   -5.25321433e-15 -5.32834428e-15  5.36506171e-15
energy -7.899999565777682e+01
charge 0.0000
end
begin
comment 4 atoms, species Al4
lattice      7.4786932175     0.0000000000    -0.0000000000
lattice      0.0000000000     7.4786932175    -0.0000000000
lattice     -0.0000000000    -0.0000000000     7.4786932175
atom      0.0000000000     0.0000000000     0.0000000000   Al  0.0 0.0   -4.79997785e-14 -4.78841154e-14 -4.80946302e-14
atom     -0.0000000000     3.7393466088     3.7393466088   Al  0.0 0.0   -4.80305448e-14  4.78834354e-14  4.78963721e-14
atom      3.7393466088    -0.0000000000     3.7393466088   Al  0.0 0.0    4.80443087e-14 -4.78621086e-14  4.79266374e-14
atom      3.7393466088     3.7393466088    -0.0000000000   Al  0.0 0.0    4.79668531e-14  4.78594134e-14 -4.79292757e-14
energy -7.900244396059304e+01
charge 0.0000
end
begin
comment 4 atoms, species Al4
lattice      7.5360744954     0.0000000000    -0.0000000000
lattice      0.0000000000     7.5360744954    -0.0000000000
lattice     -0.0000000000    -0.0000000000     7.5360744954
atom      0.0000000000     0.0000000000     0.0000000000   Al  0.0 0.0   -9.23399840e-14 -9.23352084e-14 -9.27771589e-14
atom     -0.0000000000     3.7680372477     3.7680372477   Al  0.0 0.0   -9.24355216e-14  9.23316452e-14  9.24236811e-14
atom      3.7680372477    -0.0000000000     3.7680372477   Al  0.0 0.0    9.23950396e-14 -9.22994678e-14  9.25032316e-14
atom      3.7680372477     3.7680372477    -0.0000000000   Al  0.0 0.0    9.23692660e-14  9.22563787e-14 -9.21919455e-14
energy -7.900414256880283e+01
charge 0.0000
end
begin
comment 4 atoms, species Al4
lattice      7.5934557733     0.0000000000    -0.0000000000
lattice      0.0000000000     7.5934557733    -0.0000000000
lattice     -0.0000000000    -0.0000000000     7.5934557733
atom      0.0000000000     0.0000000000     0.0000000000   Al  0.0 0.0   -1.28641544e-13 -1.28547609e-13 -1.28707241e-13
atom     -0.0000000000     3.7967278866     3.7967278866   Al  0.0 0.0   -1.28639924e-13  1.28572824e-13  1.28649024e-13
atom      3.7967278866    -0.0000000000     3.7967278866   Al  0.0 0.0    1.28645862e-13 -1.28614504e-13  1.28606979e-13
atom      3.7967278866     3.7967278866    -0.0000000000   Al  0.0 0.0    1.28628994e-13  1.28548523e-13 -1.28486782e-13
energy -7.900513467327779e+01
charge 0.0000
end
begin
comment 4 atoms, species Al4
lattice      7.6508370512     0.0000000000    -0.0000000000
lattice      0.0000000000     7.6508370512    -0.0000000000
lattice     -0.0000000000    -0.0000000000     7.6508370512
atom      0.0000000000     0.0000000000     0.0000000000   Al  0.0 0.0   -1.57215899e-13 -1.57272352e-13 -1.57408802e-13
atom     -0.0000000000     3.8254185256     3.8254185256   Al  0.0 0.0   -1.57213200e-13  1.57274602e-13  1.57180063e-13
atom      3.8254185256    -0.0000000000     3.8254185256   Al  0.0 0.0    1.57199841e-13 -1.57153392e-13  1.57232645e-13
atom      3.8254185256     3.8254185256    -0.0000000000   Al  0.0 0.0    1.57220217e-13  1.57182898e-13 -1.57156335e-13
energy -7.900545700618184e+01
charge 0.0000
end
begin
comment 4 atoms, species Al4
lattice      7.7082183291     0.0000000000    -0.0000000000
lattice      0.0000000000     7.7082183291    -0.0000000000
lattice     -0.0000000000    -0.0000000000     7.7082183291
atom      0.0000000000     0.0000000000     0.0000000000   Al  0.0 0.0   -1.78587697e-13 -1.78618321e-13 -1.78492332e-13
atom     -0.0000000000     3.8541091645     3.8541091645   Al  0.0 0.0   -1.78614550e-13  1.78684518e-13  1.78803268e-13
atom      3.8541091645    -0.0000000000     3.8541091645   Al  0.0 0.0    1.78626560e-13 -1.78618885e-13  1.78848692e-13
atom      3.8541091645     3.8541091645    -0.0000000000   Al  0.0 0.0    1.78610906e-13  1.78647172e-13 -1.78780773e-13
energy -7.900514862767908e+01
charge 0.0000
end
begin
comment 4 atoms, species Al4
lattice      7.7655996069     0.0000000000    -0.0000000000
lattice      0.0000000000     7.7655996069    -0.0000000000
lattice     -0.0000000000    -0.0000000000     7.7655996069
atom      0.0000000000     0.0000000000     0.0000000000   Al  0.0 0.0    1.80265406e-13  1.80322735e-13  1.80207212e-13
atom     -0.0000000000     3.8827998035     3.8827998035   Al  0.0 0.0    1.80281059e-13 -1.80310550e-13 -1.80214006e-13
atom      3.8827998035    -0.0000000000     3.8827998035   Al  0.0 0.0   -1.80252991e-13  1.80349610e-13 -1.80285760e-13
atom      3.8827998035     3.8827998035    -0.0000000000   Al  0.0 0.0   -1.80287941e-13 -1.80364594e-13  1.80174951e-13
energy -7.900425563291240e+01
charge 0.0000
end
begin
comment 4 atoms, species Al4
lattice      7.8229808848     0.0000000000    -0.0000000000
lattice      0.0000000000     7.8229808848    -0.0000000000
lattice     -0.0000000000    -0.0000000000     7.8229808848
atom      0.0000000000     0.0000000000     0.0000000000   Al  0.0 0.0    1.31623853e-13  1.31561047e-13  1.31784145e-13
atom     -0.0000000000     3.9114904424     3.9114904424   Al  0.0 0.0    1.31606580e-13 -1.31568365e-13 -1.31688167e-13
atom      3.9114904424    -0.0000000000     3.9114904424   Al  0.0 0.0   -1.31594571e-13  1.31616433e-13 -1.31656416e-13
atom      3.9114904424     3.9114904424    -0.0000000000   Al  0.0 0.0   -1.31596460e-13 -1.31565426e-13  1.31547832e-13
energy -7.900283138465113e+01
charge 0.0000
end
begin
comment 4 atoms, species Al4
lattice      7.8803621627     0.0000000000    -0.0000000000
lattice      0.0000000000     7.8803621627    -0.0000000000
lattice     -0.0000000000    -0.0000000000     7.8803621627
atom      0.0000000000     0.0000000000     0.0000000000   Al  0.0 0.0    9.08227186e-14  9.08633843e-14  9.08352088e-14
atom     -0.0000000000     3.9401810814     3.9401810814   Al  0.0 0.0    9.08270367e-14 -9.09072585e-14 -9.08441520e-14
atom      3.9401810814    -0.0000000000     3.9401810814   Al  0.0 0.0   -9.08364825e-14  9.09081230e-14 -9.08827328e-14
atom      3.9401810814     3.9401810814    -0.0000000000   Al  0.0 0.0   -9.08515958e-14 -9.08683874e-14  9.07788115e-14
energy -7.900093480360371e+01
charge 0.0000
end
