
     Program PWSCF v.6.3 starts on 22Feb2020 at 14:12:41 

     This program is part of the open-source Quantum ESPRESSO suite
     for quantum simulation of materials; please cite
         "P. Giannozzi et al., J. Phys.:Condens. Matter 21 395502 (2009);
         "P. Giannozzi et al., J. Phys.:Condens. Matter 29 465901 (2017);
          URL http://www.quantum-espresso.org", 
     in publications or presentations arising from this work. More details at
     http://www.quantum-espresso.org/quote

 *** WARNING: using old-style file format, will disappear from next version ***

     Parallel version (MPI & OpenMP), running on      36 processor cores
     Number of MPI processes:                36
     Threads/MPI process:                     1

     MPI processes distributed on     1 nodes
     K-points division:     npool     =       4
     R & G space division:  proc/nbgrp/npool/nimage =       9
     Reading input from aiida.in
Warning: card &IONS ignored
Warning: card   !PRESS_CONV_THR = 0.05                 ! JUST FOR VOLUME RELAXATIONS ignored
Warning: card / ignored

     Current dimensions of program PWSCF are:
     Max number of different atomic species (ntypx) = 10
     Max number of k-points (npk) =  40000
     Max angular momentum in pseudopotentials (lmaxx) =  3
               file Mg.pbe-n-kjpaw_psl.0.3.0.UPF: wavefunction(s)  3S renormalized
               file Al.pbe-n-kjpaw_psl.1.0.0.UPF: wavefunction(s)  3S 3P renormalized

     Subspace diagonalization in iterative solution of the eigenvalue problem:
     one sub-group per band group will be used
     scalapack distributed-memory algorithm (size of sub-group:  2*  2 procs)

     Found symmetry operation: I + (  0.5000 -0.5000 -0.0000)
     This is a supercell, fractional translations are disabled
 
     Parallelization info
     --------------------
     sticks:   dense  smooth     PW     G-vecs:    dense   smooth      PW
     Min         786     314     91                41433    10477    1640
     Max         787     315     92                41435    10481    1643
     Sum        7077    2831    827               372901    94313   14773
 


     bravais-lattice index     =            0
     lattice parameter (alat)  =      28.9756  a.u.
     unit-cell volume          =    2760.0949 (a.u.)^3
     number of atoms/cell      =           22
     number of atomic types    =            3
     number of electrons       =        64.00
     number of Kohn-Sham states=           38
     kinetic-energy cutoff     =      40.0000  Ry
     charge density cutoff     =     400.0000  Ry
     convergence threshold     =      1.0E-12
     mixing beta               =       0.4000
     number of iterations used =            8  local-TF  mixing
     Exchange-correlation      = SLA PW PBX PBC ( 1  4  3  4 0 0)

     celldm(1)=  28.975565  celldm(2)=   0.000000  celldm(3)=   0.000000
     celldm(4)=   0.000000  celldm(5)=   0.000000  celldm(6)=   0.000000

     crystal axes: (cart. coord. in units of alat)
               a(1) = (   0.961322   0.000000  -0.275428 )  
               a(2) = (   0.000000   0.264413   0.000000 )  
               a(3) = (   0.000000   0.000000   0.446352 )  

     reciprocal axes: (cart. coord. in units 2 pi/alat)
               b(1) = (  1.040235  0.000000  0.000000 )  
               b(2) = (  0.000000  3.781967  0.000000 )  
               b(3) = (  0.641893  0.000000  2.240385 )  


     PseudoPot. # 1 for Mg read from file:
     /users/aglensk/Dropbox/Albert/scripts/dotfiles/scripts/potentials/quantum_espresso/pseudo_SSSPefV1.1_alalloy/Mg.pbe-n-kjpaw_psl.0.3.0.UPF
     MD5 check sum: 24ecedc7f3e3cbe212e682f4413594e4
     Pseudo is Projector augmented-wave + core cor, Zval =  2.0
     Generated using "atomic" code by A. Dal Corso v.5.0.99 svn rev. 10869
     Shape of augmentation charge: PSQ
     Using radial grid of 1129 points,  4 beta functions with: 
                l(1) =   0
                l(2) =   0
                l(3) =   1
                l(4) =   1
     Q(r) pseudized with 0 coefficients 


     PseudoPot. # 2 for Si read from file:
     /users/aglensk/Dropbox/Albert/scripts/dotfiles/scripts/potentials/quantum_espresso/pseudo_SSSPefV1.1_alalloy/Si.pbe-n-rrkjus_psl.1.0.0.UPF
     MD5 check sum: 0b0bb1205258b0d07b9f9672cf965d36
     Pseudo is Ultrasoft + core correction, Zval =  4.0
     Generated using "atomic" code by A. Dal Corso v.5.1
     Using radial grid of 1141 points,  6 beta functions with: 
                l(1) =   0
                l(2) =   0
                l(3) =   1
                l(4) =   1
                l(5) =   2
                l(6) =   2
     Q(r) pseudized with 0 coefficients 


     PseudoPot. # 3 for Al read from file:
     /users/aglensk/Dropbox/Albert/scripts/dotfiles/scripts/potentials/quantum_espresso/pseudo_SSSPefV1.1_alalloy/Al.pbe-n-kjpaw_psl.1.0.0.UPF
     MD5 check sum: cfc449ca30b5f3223ec38ddd88ac046d
     Pseudo is Projector augmented-wave + core cor, Zval =  3.0
     Generated using "atomic" code by A. Dal Corso v.5.1
     Shape of augmentation charge: PSQ
     Using radial grid of 1135 points,  6 beta functions with: 
                l(1) =   0
                l(2) =   0
                l(3) =   1
                l(4) =   1
                l(5) =   2
                l(6) =   2
     Q(r) pseudized with 0 coefficients 


     atomic species   valence    mass     pseudopotential
        Mg             2.00    24.30500     Mg( 1.00)
        Si             4.00    28.08500     Si( 1.00)
        Al             3.00    26.98154     Al( 1.00)

     No symmetry found


                                    s                        frac. trans.

      isym =  1     identity                                     

 cryst.   s( 1) = (     1          0          0      )
                  (     0          1          0      )
                  (     0          0          1      )

 cart.    s( 1) = (  1.0000000  0.0000000  0.0000000 )
                  (  0.0000000  1.0000000  0.0000000 )
                  ( -0.0000000  0.0000000  1.0000000 )


   Cartesian axes

     site n.     atom                  positions (alat units)
         1           Mg  tau(   1) = (   0.0013563   0.0000000   0.4408610  )
         2           Mg  tau(   2) = (   0.0728469   0.1322064   0.1343391  )
         3           Mg  tau(   3) = (   0.1501763   0.1322064   0.3595955  )
         4           Mg  tau(   4) = (   0.3331996   0.0000000  -0.0619455  )
         5           Mg  tau(   5) = (   0.4105248   0.0000000   0.1633179  )
         6           Si  tau(   6) = (   0.0568907   0.0000000   0.2723534  )
         7           Si  tau(   7) = (   0.1798317   0.0000000   0.0427207  )
         8           Al  tau(   8) = (   0.2097467   0.0000000   0.2102519  )
         9           Al  tau(   9) = (   0.2736243   0.1322064   0.0873994  )
        10           Si  tau(  10) = (   0.3035423   0.1322064   0.2549297  )
        11           Si  tau(  11) = (   0.4264795   0.1322064   0.0253014  )
        12           Mg  tau(  12) = (   0.4820171   0.1322064   0.3031468  )
        13           Mg  tau(  13) = (   0.5535077   0.0000000  -0.0033750  )
        14           Mg  tau(  14) = (   0.6308371   0.0000000   0.2218813  )
        15           Mg  tau(  15) = (   0.8138604   0.1322064  -0.1996596  )
        16           Mg  tau(  16) = (   0.8911856   0.1322064   0.0256037  )
        17           Si  tau(  17) = (   0.5375515   0.1322064   0.1346393  )
        18           Si  tau(  18) = (   0.6604925   0.1322064  -0.0949935  )
        19           Al  tau(  19) = (   0.6904075   0.1322064   0.0725378  )
        20           Al  tau(  20) = (   0.7542851   0.0000000  -0.0503147  )
        21           Si  tau(  21) = (   0.7842031   0.0000000   0.1172155  )
        22           Si  tau(  22) = (   0.9071403   0.0000000  -0.1124128  )

   Crystallographic axes

     site n.     atom                  positions (cryst. coord.)
         1           Mg  tau(   1) = (  0.0014109  0.0000000  0.9885691  )
         2           Mg  tau(   2) = (  0.0757779  0.5000001  0.3477313  )
         3           Mg  tau(   3) = (  0.1562186  0.5000001  0.9020295  )
         4           Mg  tau(   4) = (  0.3466058  0.0000000  0.0750967  )
         5           Mg  tau(   5) = (  0.4270421  0.0000000  0.6294079  )
         6           Si  tau(   6) = (  0.0591796  0.0000000  0.6466944  )
         7           Si  tau(   7) = (  0.1870672  0.0000000  0.2111436  )
         8           Al  tau(   8) = (  0.2181858  0.0000000  0.6056803  )
         9           Al  tau(   9) = (  0.2846335  0.5000001  0.3714459  )
        10           Si  tau(  10) = (  0.3157552  0.5000001  0.7659823  )
        11           Si  tau(  11) = (  0.4436387  0.5000001  0.3304389  )
        12           Mg  tau(  12) = (  0.5014109  0.5000001  0.9885691  )
        13           Mg  tau(  13) = (  0.5757778  0.0000000  0.3477313  )
        14           Mg  tau(  14) = (  0.6562186  0.0000000  0.9020295  )
        15           Mg  tau(  15) = (  0.8466058  0.5000001  0.0750967  )
        16           Mg  tau(  16) = (  0.9270421  0.5000001  0.6294078  )
        17           Si  tau(  17) = (  0.5591796  0.5000001  0.6466945  )
        18           Si  tau(  18) = (  0.6870672  0.5000001  0.2111435  )
        19           Al  tau(  19) = (  0.7181857  0.5000001  0.6056803  )
        20           Al  tau(  20) = (  0.7846335  0.0000000  0.3714459  )
        21           Si  tau(  21) = (  0.8157552  0.0000000  0.7659822  )
        22           Si  tau(  22) = (  0.9436387  0.0000000  0.3304389  )

     number of k points=   782  Methfessel-Paxton smearing, width (Ry)=  0.0441
                       cart. coord. in units 2pi/alat
        k(    1) = (   0.0000000   0.0000000   0.0000000), wk =   0.0012821
        k(    2) = (   0.0493764   0.0000000   0.1723373), wk =   0.0025641
        k(    3) = (   0.0987527   0.0000000   0.3446747), wk =   0.0025641
        k(    4) = (   0.1481291   0.0000000   0.5170120), wk =   0.0025641
        k(    5) = (   0.1975055   0.0000000   0.6893493), wk =   0.0025641
        k(    6) = (   0.2468819   0.0000000   0.8616867), wk =   0.0025641
        k(    7) = (   0.2962582   0.0000000   1.0340240), wk =   0.0025641
        k(    8) = (   0.0000000   0.1890983   0.0000000), wk =   0.0025641
        k(    9) = (   0.0493764   0.1890983   0.1723373), wk =   0.0025641
        k(   10) = (   0.0987527   0.1890983   0.3446747), wk =   0.0025641
        k(   11) = (   0.1481291   0.1890983   0.5170120), wk =   0.0025641
        k(   12) = (   0.1975055   0.1890983   0.6893493), wk =   0.0025641
        k(   13) = (   0.2468819   0.1890983   0.8616867), wk =   0.0025641
        k(   14) = (   0.2962582   0.1890983   1.0340240), wk =   0.0025641
        k(   15) = (  -0.2962582   0.1890983  -1.0340240), wk =   0.0025641
        k(   16) = (  -0.2468819   0.1890983  -0.8616867), wk =   0.0025641
        k(   17) = (  -0.1975055   0.1890983  -0.6893493), wk =   0.0025641
        k(   18) = (  -0.1481291   0.1890983  -0.5170120), wk =   0.0025641
        k(   19) = (  -0.0987527   0.1890983  -0.3446747), wk =   0.0025641
        k(   20) = (  -0.0493764   0.1890983  -0.1723373), wk =   0.0025641
        k(   21) = (   0.0000000   0.3781967   0.0000000), wk =   0.0025641
        k(   22) = (   0.0493764   0.3781967   0.1723373), wk =   0.0025641
        k(   23) = (   0.0987527   0.3781967   0.3446747), wk =   0.0025641
        k(   24) = (   0.1481291   0.3781967   0.5170120), wk =   0.0025641
        k(   25) = (   0.1975055   0.3781967   0.6893493), wk =   0.0025641
        k(   26) = (   0.2468819   0.3781967   0.8616867), wk =   0.0025641
        k(   27) = (   0.2962582   0.3781967   1.0340240), wk =   0.0025641
        k(   28) = (  -0.2962582   0.3781967  -1.0340240), wk =   0.0025641
        k(   29) = (  -0.2468819   0.3781967  -0.8616867), wk =   0.0025641
        k(   30) = (  -0.1975055   0.3781967  -0.6893493), wk =   0.0025641
        k(   31) = (  -0.1481291   0.3781967  -0.5170120), wk =   0.0025641
        k(   32) = (  -0.0987527   0.3781967  -0.3446747), wk =   0.0025641
        k(   33) = (  -0.0493764   0.3781967  -0.1723373), wk =   0.0025641
        k(   34) = (   0.0000000   0.5672950   0.0000000), wk =   0.0025641
        k(   35) = (   0.0493764   0.5672950   0.1723373), wk =   0.0025641
        k(   36) = (   0.0987527   0.5672950   0.3446747), wk =   0.0025641
        k(   37) = (   0.1481291   0.5672950   0.5170120), wk =   0.0025641
        k(   38) = (   0.1975055   0.5672950   0.6893493), wk =   0.0025641
        k(   39) = (   0.2468819   0.5672950   0.8616867), wk =   0.0025641
        k(   40) = (   0.2962582   0.5672950   1.0340240), wk =   0.0025641
        k(   41) = (  -0.2962582   0.5672950  -1.0340240), wk =   0.0025641
        k(   42) = (  -0.2468819   0.5672950  -0.8616867), wk =   0.0025641
        k(   43) = (  -0.1975055   0.5672950  -0.6893493), wk =   0.0025641
        k(   44) = (  -0.1481291   0.5672950  -0.5170120), wk =   0.0025641
        k(   45) = (  -0.0987527   0.5672950  -0.3446747), wk =   0.0025641
        k(   46) = (  -0.0493764   0.5672950  -0.1723373), wk =   0.0025641
        k(   47) = (   0.0000000   0.7563934   0.0000000), wk =   0.0025641
        k(   48) = (   0.0493764   0.7563934   0.1723373), wk =   0.0025641
        k(   49) = (   0.0987527   0.7563934   0.3446747), wk =   0.0025641
        k(   50) = (   0.1481291   0.7563934   0.5170120), wk =   0.0025641
        k(   51) = (   0.1975055   0.7563934   0.6893493), wk =   0.0025641
        k(   52) = (   0.2468819   0.7563934   0.8616867), wk =   0.0025641
        k(   53) = (   0.2962582   0.7563934   1.0340240), wk =   0.0025641
        k(   54) = (  -0.2962582   0.7563934  -1.0340240), wk =   0.0025641
        k(   55) = (  -0.2468819   0.7563934  -0.8616867), wk =   0.0025641
        k(   56) = (  -0.1975055   0.7563934  -0.6893493), wk =   0.0025641
        k(   57) = (  -0.1481291   0.7563934  -0.5170120), wk =   0.0025641
        k(   58) = (  -0.0987527   0.7563934  -0.3446747), wk =   0.0025641
        k(   59) = (  -0.0493764   0.7563934  -0.1723373), wk =   0.0025641
        k(   60) = (   0.0000000   0.9454917   0.0000000), wk =   0.0025641
        k(   61) = (   0.0493764   0.9454917   0.1723373), wk =   0.0025641
        k(   62) = (   0.0987527   0.9454917   0.3446747), wk =   0.0025641
        k(   63) = (   0.1481291   0.9454917   0.5170120), wk =   0.0025641
        k(   64) = (   0.1975055   0.9454917   0.6893493), wk =   0.0025641
        k(   65) = (   0.2468819   0.9454917   0.8616867), wk =   0.0025641
        k(   66) = (   0.2962582   0.9454917   1.0340240), wk =   0.0025641
        k(   67) = (  -0.2962582   0.9454917  -1.0340240), wk =   0.0025641
        k(   68) = (  -0.2468819   0.9454917  -0.8616867), wk =   0.0025641
        k(   69) = (  -0.1975055   0.9454917  -0.6893493), wk =   0.0025641
        k(   70) = (  -0.1481291   0.9454917  -0.5170120), wk =   0.0025641
        k(   71) = (  -0.0987527   0.9454917  -0.3446747), wk =   0.0025641
        k(   72) = (  -0.0493764   0.9454917  -0.1723373), wk =   0.0025641
        k(   73) = (   0.0000000   1.1345900   0.0000000), wk =   0.0025641
        k(   74) = (   0.0493764   1.1345900   0.1723373), wk =   0.0025641
        k(   75) = (   0.0987527   1.1345900   0.3446747), wk =   0.0025641
        k(   76) = (   0.1481291   1.1345900   0.5170120), wk =   0.0025641
        k(   77) = (   0.1975055   1.1345900   0.6893493), wk =   0.0025641
        k(   78) = (   0.2468819   1.1345900   0.8616867), wk =   0.0025641
        k(   79) = (   0.2962582   1.1345900   1.0340240), wk =   0.0025641
        k(   80) = (  -0.2962582   1.1345900  -1.0340240), wk =   0.0025641
        k(   81) = (  -0.2468819   1.1345900  -0.8616867), wk =   0.0025641
        k(   82) = (  -0.1975055   1.1345900  -0.6893493), wk =   0.0025641
        k(   83) = (  -0.1481291   1.1345900  -0.5170120), wk =   0.0025641
        k(   84) = (  -0.0987527   1.1345900  -0.3446747), wk =   0.0025641
        k(   85) = (  -0.0493764   1.1345900  -0.1723373), wk =   0.0025641
        k(   86) = (   0.0000000   1.3236884   0.0000000), wk =   0.0025641
        k(   87) = (   0.0493764   1.3236884   0.1723373), wk =   0.0025641
        k(   88) = (   0.0987527   1.3236884   0.3446747), wk =   0.0025641
        k(   89) = (   0.1481291   1.3236884   0.5170120), wk =   0.0025641
        k(   90) = (   0.1975055   1.3236884   0.6893493), wk =   0.0025641
        k(   91) = (   0.2468819   1.3236884   0.8616867), wk =   0.0025641
        k(   92) = (   0.2962582   1.3236884   1.0340240), wk =   0.0025641
        k(   93) = (  -0.2962582   1.3236884  -1.0340240), wk =   0.0025641
        k(   94) = (  -0.2468819   1.3236884  -0.8616867), wk =   0.0025641
        k(   95) = (  -0.1975055   1.3236884  -0.6893493), wk =   0.0025641
        k(   96) = (  -0.1481291   1.3236884  -0.5170120), wk =   0.0025641
        k(   97) = (  -0.0987527   1.3236884  -0.3446747), wk =   0.0025641
        k(   98) = (  -0.0493764   1.3236884  -0.1723373), wk =   0.0025641
        k(   99) = (   0.0000000   1.5127867   0.0000000), wk =   0.0025641
        k(  100) = (   0.0493764   1.5127867   0.1723373), wk =   0.0025641
        k(  101) = (   0.0987527   1.5127867   0.3446747), wk =   0.0025641
        k(  102) = (   0.1481291   1.5127867   0.5170120), wk =   0.0025641
        k(  103) = (   0.1975055   1.5127867   0.6893493), wk =   0.0025641
        k(  104) = (   0.2468819   1.5127867   0.8616867), wk =   0.0025641
        k(  105) = (   0.2962582   1.5127867   1.0340240), wk =   0.0025641
        k(  106) = (  -0.2962582   1.5127867  -1.0340240), wk =   0.0025641
        k(  107) = (  -0.2468819   1.5127867  -0.8616867), wk =   0.0025641
        k(  108) = (  -0.1975055   1.5127867  -0.6893493), wk =   0.0025641
        k(  109) = (  -0.1481291   1.5127867  -0.5170120), wk =   0.0025641
        k(  110) = (  -0.0987527   1.5127867  -0.3446747), wk =   0.0025641
        k(  111) = (  -0.0493764   1.5127867  -0.1723373), wk =   0.0025641
        k(  112) = (   0.0000000   1.7018850   0.0000000), wk =   0.0025641
        k(  113) = (   0.0493764   1.7018850   0.1723373), wk =   0.0025641
        k(  114) = (   0.0987527   1.7018850   0.3446747), wk =   0.0025641
        k(  115) = (   0.1481291   1.7018850   0.5170120), wk =   0.0025641
        k(  116) = (   0.1975055   1.7018850   0.6893493), wk =   0.0025641
        k(  117) = (   0.2468819   1.7018850   0.8616867), wk =   0.0025641
        k(  118) = (   0.2962582   1.7018850   1.0340240), wk =   0.0025641
        k(  119) = (  -0.2962582   1.7018850  -1.0340240), wk =   0.0025641
        k(  120) = (  -0.2468819   1.7018850  -0.8616867), wk =   0.0025641
        k(  121) = (  -0.1975055   1.7018850  -0.6893493), wk =   0.0025641
        k(  122) = (  -0.1481291   1.7018850  -0.5170120), wk =   0.0025641
        k(  123) = (  -0.0987527   1.7018850  -0.3446747), wk =   0.0025641
        k(  124) = (  -0.0493764   1.7018850  -0.1723373), wk =   0.0025641
        k(  125) = (   0.0000000  -1.8909834   0.0000000), wk =   0.0012821
        k(  126) = (   0.0493764  -1.8909834   0.1723373), wk =   0.0025641
        k(  127) = (   0.0987527  -1.8909834   0.3446747), wk =   0.0025641
        k(  128) = (   0.1481291  -1.8909834   0.5170120), wk =   0.0025641
        k(  129) = (   0.1975055  -1.8909834   0.6893493), wk =   0.0025641
        k(  130) = (   0.2468819  -1.8909834   0.8616867), wk =   0.0025641
        k(  131) = (   0.2962582  -1.8909834   1.0340240), wk =   0.0025641
        k(  132) = (   0.1733724   0.0000000   0.0000000), wk =   0.0025641
        k(  133) = (   0.2227488   0.0000000   0.1723373), wk =   0.0025641
        k(  134) = (   0.2721252   0.0000000   0.3446747), wk =   0.0025641
        k(  135) = (   0.3215016   0.0000000   0.5170120), wk =   0.0025641
        k(  136) = (   0.3708779   0.0000000   0.6893493), wk =   0.0025641
        k(  137) = (   0.4202543   0.0000000   0.8616867), wk =   0.0025641
        k(  138) = (   0.4696307   0.0000000   1.0340240), wk =   0.0025641
        k(  139) = (  -0.1228858   0.0000000  -1.0340240), wk =   0.0025641
        k(  140) = (  -0.0735094   0.0000000  -0.8616867), wk =   0.0025641
        k(  141) = (  -0.0241331   0.0000000  -0.6893493), wk =   0.0025641
        k(  142) = (   0.0252433   0.0000000  -0.5170120), wk =   0.0025641
        k(  143) = (   0.0746197   0.0000000  -0.3446747), wk =   0.0025641
        k(  144) = (   0.1239961   0.0000000  -0.1723373), wk =   0.0025641
        k(  145) = (   0.1733724   0.1890983   0.0000000), wk =   0.0025641
        k(  146) = (   0.2227488   0.1890983   0.1723373), wk =   0.0025641
        k(  147) = (   0.2721252   0.1890983   0.3446747), wk =   0.0025641
        k(  148) = (   0.3215016   0.1890983   0.5170120), wk =   0.0025641
        k(  149) = (   0.3708779   0.1890983   0.6893493), wk =   0.0025641
        k(  150) = (   0.4202543   0.1890983   0.8616867), wk =   0.0025641
        k(  151) = (   0.4696307   0.1890983   1.0340240), wk =   0.0025641
        k(  152) = (  -0.1228858   0.1890983  -1.0340240), wk =   0.0025641
        k(  153) = (  -0.0735094   0.1890983  -0.8616867), wk =   0.0025641
        k(  154) = (  -0.0241331   0.1890983  -0.6893493), wk =   0.0025641
        k(  155) = (   0.0252433   0.1890983  -0.5170120), wk =   0.0025641
        k(  156) = (   0.0746197   0.1890983  -0.3446747), wk =   0.0025641
        k(  157) = (   0.1239961   0.1890983  -0.1723373), wk =   0.0025641
        k(  158) = (   0.1733724   0.3781967   0.0000000), wk =   0.0025641
        k(  159) = (   0.2227488   0.3781967   0.1723373), wk =   0.0025641
        k(  160) = (   0.2721252   0.3781967   0.3446747), wk =   0.0025641
        k(  161) = (   0.3215016   0.3781967   0.5170120), wk =   0.0025641
        k(  162) = (   0.3708779   0.3781967   0.6893493), wk =   0.0025641
        k(  163) = (   0.4202543   0.3781967   0.8616867), wk =   0.0025641
        k(  164) = (   0.4696307   0.3781967   1.0340240), wk =   0.0025641
        k(  165) = (  -0.1228858   0.3781967  -1.0340240), wk =   0.0025641
        k(  166) = (  -0.0735094   0.3781967  -0.8616867), wk =   0.0025641
        k(  167) = (  -0.0241331   0.3781967  -0.6893493), wk =   0.0025641
        k(  168) = (   0.0252433   0.3781967  -0.5170120), wk =   0.0025641
        k(  169) = (   0.0746197   0.3781967  -0.3446747), wk =   0.0025641
        k(  170) = (   0.1239961   0.3781967  -0.1723373), wk =   0.0025641
        k(  171) = (   0.1733724   0.5672950   0.0000000), wk =   0.0025641
        k(  172) = (   0.2227488   0.5672950   0.1723373), wk =   0.0025641
        k(  173) = (   0.2721252   0.5672950   0.3446747), wk =   0.0025641
        k(  174) = (   0.3215016   0.5672950   0.5170120), wk =   0.0025641
        k(  175) = (   0.3708779   0.5672950   0.6893493), wk =   0.0025641
        k(  176) = (   0.4202543   0.5672950   0.8616867), wk =   0.0025641
        k(  177) = (   0.4696307   0.5672950   1.0340240), wk =   0.0025641
        k(  178) = (  -0.1228858   0.5672950  -1.0340240), wk =   0.0025641
        k(  179) = (  -0.0735094   0.5672950  -0.8616867), wk =   0.0025641
        k(  180) = (  -0.0241331   0.5672950  -0.6893493), wk =   0.0025641
        k(  181) = (   0.0252433   0.5672950  -0.5170120), wk =   0.0025641
        k(  182) = (   0.0746197   0.5672950  -0.3446747), wk =   0.0025641
        k(  183) = (   0.1239961   0.5672950  -0.1723373), wk =   0.0025641
        k(  184) = (   0.1733724   0.7563934   0.0000000), wk =   0.0025641
        k(  185) = (   0.2227488   0.7563934   0.1723373), wk =   0.0025641
        k(  186) = (   0.2721252   0.7563934   0.3446747), wk =   0.0025641
        k(  187) = (   0.3215016   0.7563934   0.5170120), wk =   0.0025641
        k(  188) = (   0.3708779   0.7563934   0.6893493), wk =   0.0025641
        k(  189) = (   0.4202543   0.7563934   0.8616867), wk =   0.0025641
        k(  190) = (   0.4696307   0.7563934   1.0340240), wk =   0.0025641
        k(  191) = (  -0.1228858   0.7563934  -1.0340240), wk =   0.0025641
        k(  192) = (  -0.0735094   0.7563934  -0.8616867), wk =   0.0025641
        k(  193) = (  -0.0241331   0.7563934  -0.6893493), wk =   0.0025641
        k(  194) = (   0.0252433   0.7563934  -0.5170120), wk =   0.0025641
        k(  195) = (   0.0746197   0.7563934  -0.3446747), wk =   0.0025641
        k(  196) = (   0.1239961   0.7563934  -0.1723373), wk =   0.0025641
        k(  197) = (   0.1733724   0.9454917   0.0000000), wk =   0.0025641
        k(  198) = (   0.2227488   0.9454917   0.1723373), wk =   0.0025641
        k(  199) = (   0.2721252   0.9454917   0.3446747), wk =   0.0025641
        k(  200) = (   0.3215016   0.9454917   0.5170120), wk =   0.0025641
        k(  201) = (   0.3708779   0.9454917   0.6893493), wk =   0.0025641
        k(  202) = (   0.4202543   0.9454917   0.8616867), wk =   0.0025641
        k(  203) = (   0.4696307   0.9454917   1.0340240), wk =   0.0025641
        k(  204) = (  -0.1228858   0.9454917  -1.0340240), wk =   0.0025641
        k(  205) = (  -0.0735094   0.9454917  -0.8616867), wk =   0.0025641
        k(  206) = (  -0.0241331   0.9454917  -0.6893493), wk =   0.0025641
        k(  207) = (   0.0252433   0.9454917  -0.5170120), wk =   0.0025641
        k(  208) = (   0.0746197   0.9454917  -0.3446747), wk =   0.0025641
        k(  209) = (   0.1239961   0.9454917  -0.1723373), wk =   0.0025641
        k(  210) = (   0.1733724   1.1345900   0.0000000), wk =   0.0025641
        k(  211) = (   0.2227488   1.1345900   0.1723373), wk =   0.0025641
        k(  212) = (   0.2721252   1.1345900   0.3446747), wk =   0.0025641
        k(  213) = (   0.3215016   1.1345900   0.5170120), wk =   0.0025641
        k(  214) = (   0.3708779   1.1345900   0.6893493), wk =   0.0025641
        k(  215) = (   0.4202543   1.1345900   0.8616867), wk =   0.0025641
        k(  216) = (   0.4696307   1.1345900   1.0340240), wk =   0.0025641
        k(  217) = (  -0.1228858   1.1345900  -1.0340240), wk =   0.0025641
        k(  218) = (  -0.0735094   1.1345900  -0.8616867), wk =   0.0025641
        k(  219) = (  -0.0241331   1.1345900  -0.6893493), wk =   0.0025641
        k(  220) = (   0.0252433   1.1345900  -0.5170120), wk =   0.0025641
        k(  221) = (   0.0746197   1.1345900  -0.3446747), wk =   0.0025641
        k(  222) = (   0.1239961   1.1345900  -0.1723373), wk =   0.0025641
        k(  223) = (   0.1733724   1.3236884   0.0000000), wk =   0.0025641
        k(  224) = (   0.2227488   1.3236884   0.1723373), wk =   0.0025641
        k(  225) = (   0.2721252   1.3236884   0.3446747), wk =   0.0025641
        k(  226) = (   0.3215016   1.3236884   0.5170120), wk =   0.0025641
        k(  227) = (   0.3708779   1.3236884   0.6893493), wk =   0.0025641
        k(  228) = (   0.4202543   1.3236884   0.8616867), wk =   0.0025641
        k(  229) = (   0.4696307   1.3236884   1.0340240), wk =   0.0025641
        k(  230) = (  -0.1228858   1.3236884  -1.0340240), wk =   0.0025641
        k(  231) = (  -0.0735094   1.3236884  -0.8616867), wk =   0.0025641
        k(  232) = (  -0.0241331   1.3236884  -0.6893493), wk =   0.0025641
        k(  233) = (   0.0252433   1.3236884  -0.5170120), wk =   0.0025641
        k(  234) = (   0.0746197   1.3236884  -0.3446747), wk =   0.0025641
        k(  235) = (   0.1239961   1.3236884  -0.1723373), wk =   0.0025641
        k(  236) = (   0.1733724   1.5127867   0.0000000), wk =   0.0025641
        k(  237) = (   0.2227488   1.5127867   0.1723373), wk =   0.0025641
        k(  238) = (   0.2721252   1.5127867   0.3446747), wk =   0.0025641
        k(  239) = (   0.3215016   1.5127867   0.5170120), wk =   0.0025641
        k(  240) = (   0.3708779   1.5127867   0.6893493), wk =   0.0025641
        k(  241) = (   0.4202543   1.5127867   0.8616867), wk =   0.0025641
        k(  242) = (   0.4696307   1.5127867   1.0340240), wk =   0.0025641
        k(  243) = (  -0.1228858   1.5127867  -1.0340240), wk =   0.0025641
        k(  244) = (  -0.0735094   1.5127867  -0.8616867), wk =   0.0025641
        k(  245) = (  -0.0241331   1.5127867  -0.6893493), wk =   0.0025641
        k(  246) = (   0.0252433   1.5127867  -0.5170120), wk =   0.0025641
        k(  247) = (   0.0746197   1.5127867  -0.3446747), wk =   0.0025641
        k(  248) = (   0.1239961   1.5127867  -0.1723373), wk =   0.0025641
        k(  249) = (   0.1733724   1.7018850   0.0000000), wk =   0.0025641
        k(  250) = (   0.2227488   1.7018850   0.1723373), wk =   0.0025641
        k(  251) = (   0.2721252   1.7018850   0.3446747), wk =   0.0025641
        k(  252) = (   0.3215016   1.7018850   0.5170120), wk =   0.0025641
        k(  253) = (   0.3708779   1.7018850   0.6893493), wk =   0.0025641
        k(  254) = (   0.4202543   1.7018850   0.8616867), wk =   0.0025641
        k(  255) = (   0.4696307   1.7018850   1.0340240), wk =   0.0025641
        k(  256) = (  -0.1228858   1.7018850  -1.0340240), wk =   0.0025641
        k(  257) = (  -0.0735094   1.7018850  -0.8616867), wk =   0.0025641
        k(  258) = (  -0.0241331   1.7018850  -0.6893493), wk =   0.0025641
        k(  259) = (   0.0252433   1.7018850  -0.5170120), wk =   0.0025641
        k(  260) = (   0.0746197   1.7018850  -0.3446747), wk =   0.0025641
        k(  261) = (   0.1239961   1.7018850  -0.1723373), wk =   0.0025641
        k(  262) = (   0.1733724  -1.8909834   0.0000000), wk =   0.0025641
        k(  263) = (   0.2227488  -1.8909834   0.1723373), wk =   0.0025641
        k(  264) = (   0.2721252  -1.8909834   0.3446747), wk =   0.0025641
        k(  265) = (   0.3215016  -1.8909834   0.5170120), wk =   0.0025641
        k(  266) = (   0.3708779  -1.8909834   0.6893493), wk =   0.0025641
        k(  267) = (   0.4202543  -1.8909834   0.8616867), wk =   0.0025641
        k(  268) = (   0.4696307  -1.8909834   1.0340240), wk =   0.0025641
        k(  269) = (  -0.1228858  -1.8909834  -1.0340240), wk =   0.0025641
        k(  270) = (  -0.0735094  -1.8909834  -0.8616867), wk =   0.0025641
        k(  271) = (  -0.0241331  -1.8909834  -0.6893493), wk =   0.0025641
        k(  272) = (   0.0252433  -1.8909834  -0.5170120), wk =   0.0025641
        k(  273) = (   0.0746197  -1.8909834  -0.3446747), wk =   0.0025641
        k(  274) = (   0.1239961  -1.8909834  -0.1723373), wk =   0.0025641
        k(  275) = (   0.1733724  -1.7018850   0.0000000), wk =   0.0025641
        k(  276) = (   0.2227488  -1.7018850   0.1723373), wk =   0.0025641
        k(  277) = (   0.2721252  -1.7018850   0.3446747), wk =   0.0025641
        k(  278) = (   0.3215016  -1.7018850   0.5170120), wk =   0.0025641
        k(  279) = (   0.3708779  -1.7018850   0.6893493), wk =   0.0025641
        k(  280) = (   0.4202543  -1.7018850   0.8616867), wk =   0.0025641
        k(  281) = (   0.4696307  -1.7018850   1.0340240), wk =   0.0025641
        k(  282) = (  -0.1228858  -1.7018850  -1.0340240), wk =   0.0025641
        k(  283) = (  -0.0735094  -1.7018850  -0.8616867), wk =   0.0025641
        k(  284) = (  -0.0241331  -1.7018850  -0.6893493), wk =   0.0025641
        k(  285) = (   0.0252433  -1.7018850  -0.5170120), wk =   0.0025641
        k(  286) = (   0.0746197  -1.7018850  -0.3446747), wk =   0.0025641
        k(  287) = (   0.1239961  -1.7018850  -0.1723373), wk =   0.0025641
        k(  288) = (   0.1733724  -1.5127867   0.0000000), wk =   0.0025641
        k(  289) = (   0.2227488  -1.5127867   0.1723373), wk =   0.0025641
        k(  290) = (   0.2721252  -1.5127867   0.3446747), wk =   0.0025641
        k(  291) = (   0.3215016  -1.5127867   0.5170120), wk =   0.0025641
        k(  292) = (   0.3708779  -1.5127867   0.6893493), wk =   0.0025641
        k(  293) = (   0.4202543  -1.5127867   0.8616867), wk =   0.0025641
        k(  294) = (   0.4696307  -1.5127867   1.0340240), wk =   0.0025641
        k(  295) = (  -0.1228858  -1.5127867  -1.0340240), wk =   0.0025641
        k(  296) = (  -0.0735094  -1.5127867  -0.8616867), wk =   0.0025641
        k(  297) = (  -0.0241331  -1.5127867  -0.6893493), wk =   0.0025641
        k(  298) = (   0.0252433  -1.5127867  -0.5170120), wk =   0.0025641
        k(  299) = (   0.0746197  -1.5127867  -0.3446747), wk =   0.0025641
        k(  300) = (   0.1239961  -1.5127867  -0.1723373), wk =   0.0025641
        k(  301) = (   0.1733724  -1.3236884   0.0000000), wk =   0.0025641
        k(  302) = (   0.2227488  -1.3236884   0.1723373), wk =   0.0025641
        k(  303) = (   0.2721252  -1.3236884   0.3446747), wk =   0.0025641
        k(  304) = (   0.3215016  -1.3236884   0.5170120), wk =   0.0025641
        k(  305) = (   0.3708779  -1.3236884   0.6893493), wk =   0.0025641
        k(  306) = (   0.4202543  -1.3236884   0.8616867), wk =   0.0025641
        k(  307) = (   0.4696307  -1.3236884   1.0340240), wk =   0.0025641
        k(  308) = (  -0.1228858  -1.3236884  -1.0340240), wk =   0.0025641
        k(  309) = (  -0.0735094  -1.3236884  -0.8616867), wk =   0.0025641
        k(  310) = (  -0.0241331  -1.3236884  -0.6893493), wk =   0.0025641
        k(  311) = (   0.0252433  -1.3236884  -0.5170120), wk =   0.0025641
        k(  312) = (   0.0746197  -1.3236884  -0.3446747), wk =   0.0025641
        k(  313) = (   0.1239961  -1.3236884  -0.1723373), wk =   0.0025641
        k(  314) = (   0.1733724  -1.1345900   0.0000000), wk =   0.0025641
        k(  315) = (   0.2227488  -1.1345900   0.1723373), wk =   0.0025641
        k(  316) = (   0.2721252  -1.1345900   0.3446747), wk =   0.0025641
        k(  317) = (   0.3215016  -1.1345900   0.5170120), wk =   0.0025641
        k(  318) = (   0.3708779  -1.1345900   0.6893493), wk =   0.0025641
        k(  319) = (   0.4202543  -1.1345900   0.8616867), wk =   0.0025641
        k(  320) = (   0.4696307  -1.1345900   1.0340240), wk =   0.0025641
        k(  321) = (  -0.1228858  -1.1345900  -1.0340240), wk =   0.0025641
        k(  322) = (  -0.0735094  -1.1345900  -0.8616867), wk =   0.0025641
        k(  323) = (  -0.0241331  -1.1345900  -0.6893493), wk =   0.0025641
        k(  324) = (   0.0252433  -1.1345900  -0.5170120), wk =   0.0025641
        k(  325) = (   0.0746197  -1.1345900  -0.3446747), wk =   0.0025641
        k(  326) = (   0.1239961  -1.1345900  -0.1723373), wk =   0.0025641
        k(  327) = (   0.1733724  -0.9454917   0.0000000), wk =   0.0025641
        k(  328) = (   0.2227488  -0.9454917   0.1723373), wk =   0.0025641
        k(  329) = (   0.2721252  -0.9454917   0.3446747), wk =   0.0025641
        k(  330) = (   0.3215016  -0.9454917   0.5170120), wk =   0.0025641
        k(  331) = (   0.3708779  -0.9454917   0.6893493), wk =   0.0025641
        k(  332) = (   0.4202543  -0.9454917   0.8616867), wk =   0.0025641
        k(  333) = (   0.4696307  -0.9454917   1.0340240), wk =   0.0025641
        k(  334) = (  -0.1228858  -0.9454917  -1.0340240), wk =   0.0025641
        k(  335) = (  -0.0735094  -0.9454917  -0.8616867), wk =   0.0025641
        k(  336) = (  -0.0241331  -0.9454917  -0.6893493), wk =   0.0025641
        k(  337) = (   0.0252433  -0.9454917  -0.5170120), wk =   0.0025641
        k(  338) = (   0.0746197  -0.9454917  -0.3446747), wk =   0.0025641
        k(  339) = (   0.1239961  -0.9454917  -0.1723373), wk =   0.0025641
        k(  340) = (   0.1733724  -0.7563934   0.0000000), wk =   0.0025641
        k(  341) = (   0.2227488  -0.7563934   0.1723373), wk =   0.0025641
        k(  342) = (   0.2721252  -0.7563934   0.3446747), wk =   0.0025641
        k(  343) = (   0.3215016  -0.7563934   0.5170120), wk =   0.0025641
        k(  344) = (   0.3708779  -0.7563934   0.6893493), wk =   0.0025641
        k(  345) = (   0.4202543  -0.7563934   0.8616867), wk =   0.0025641
        k(  346) = (   0.4696307  -0.7563934   1.0340240), wk =   0.0025641
        k(  347) = (  -0.1228858  -0.7563934  -1.0340240), wk =   0.0025641
        k(  348) = (  -0.0735094  -0.7563934  -0.8616867), wk =   0.0025641
        k(  349) = (  -0.0241331  -0.7563934  -0.6893493), wk =   0.0025641
        k(  350) = (   0.0252433  -0.7563934  -0.5170120), wk =   0.0025641
        k(  351) = (   0.0746197  -0.7563934  -0.3446747), wk =   0.0025641
        k(  352) = (   0.1239961  -0.7563934  -0.1723373), wk =   0.0025641
        k(  353) = (   0.1733724  -0.5672950   0.0000000), wk =   0.0025641
        k(  354) = (   0.2227488  -0.5672950   0.1723373), wk =   0.0025641
        k(  355) = (   0.2721252  -0.5672950   0.3446747), wk =   0.0025641
        k(  356) = (   0.3215016  -0.5672950   0.5170120), wk =   0.0025641
        k(  357) = (   0.3708779  -0.5672950   0.6893493), wk =   0.0025641
        k(  358) = (   0.4202543  -0.5672950   0.8616867), wk =   0.0025641
        k(  359) = (   0.4696307  -0.5672950   1.0340240), wk =   0.0025641
        k(  360) = (  -0.1228858  -0.5672950  -1.0340240), wk =   0.0025641
        k(  361) = (  -0.0735094  -0.5672950  -0.8616867), wk =   0.0025641
        k(  362) = (  -0.0241331  -0.5672950  -0.6893493), wk =   0.0025641
        k(  363) = (   0.0252433  -0.5672950  -0.5170120), wk =   0.0025641
        k(  364) = (   0.0746197  -0.5672950  -0.3446747), wk =   0.0025641
        k(  365) = (   0.1239961  -0.5672950  -0.1723373), wk =   0.0025641
        k(  366) = (   0.1733724  -0.3781967   0.0000000), wk =   0.0025641
        k(  367) = (   0.2227488  -0.3781967   0.1723373), wk =   0.0025641
        k(  368) = (   0.2721252  -0.3781967   0.3446747), wk =   0.0025641
        k(  369) = (   0.3215016  -0.3781967   0.5170120), wk =   0.0025641
        k(  370) = (   0.3708779  -0.3781967   0.6893493), wk =   0.0025641
        k(  371) = (   0.4202543  -0.3781967   0.8616867), wk =   0.0025641
        k(  372) = (   0.4696307  -0.3781967   1.0340240), wk =   0.0025641
        k(  373) = (  -0.1228858  -0.3781967  -1.0340240), wk =   0.0025641
        k(  374) = (  -0.0735094  -0.3781967  -0.8616867), wk =   0.0025641
        k(  375) = (  -0.0241331  -0.3781967  -0.6893493), wk =   0.0025641
        k(  376) = (   0.0252433  -0.3781967  -0.5170120), wk =   0.0025641
        k(  377) = (   0.0746197  -0.3781967  -0.3446747), wk =   0.0025641
        k(  378) = (   0.1239961  -0.3781967  -0.1723373), wk =   0.0025641
        k(  379) = (   0.1733724  -0.1890983   0.0000000), wk =   0.0025641
        k(  380) = (   0.2227488  -0.1890983   0.1723373), wk =   0.0025641
        k(  381) = (   0.2721252  -0.1890983   0.3446747), wk =   0.0025641
        k(  382) = (   0.3215016  -0.1890983   0.5170120), wk =   0.0025641
        k(  383) = (   0.3708779  -0.1890983   0.6893493), wk =   0.0025641
        k(  384) = (   0.4202543  -0.1890983   0.8616867), wk =   0.0025641
        k(  385) = (   0.4696307  -0.1890983   1.0340240), wk =   0.0025641
        k(  386) = (  -0.1228858  -0.1890983  -1.0340240), wk =   0.0025641
        k(  387) = (  -0.0735094  -0.1890983  -0.8616867), wk =   0.0025641
        k(  388) = (  -0.0241331  -0.1890983  -0.6893493), wk =   0.0025641
        k(  389) = (   0.0252433  -0.1890983  -0.5170120), wk =   0.0025641
        k(  390) = (   0.0746197  -0.1890983  -0.3446747), wk =   0.0025641
        k(  391) = (   0.1239961  -0.1890983  -0.1723373), wk =   0.0025641
        k(  392) = (   0.3467449   0.0000000   0.0000000), wk =   0.0025641
        k(  393) = (   0.3961212   0.0000000   0.1723373), wk =   0.0025641
        k(  394) = (   0.4454976   0.0000000   0.3446747), wk =   0.0025641
        k(  395) = (   0.4948740   0.0000000   0.5170120), wk =   0.0025641
        k(  396) = (   0.5442504   0.0000000   0.6893493), wk =   0.0025641
        k(  397) = (   0.5936267   0.0000000   0.8616867), wk =   0.0025641
        k(  398) = (   0.6430031   0.0000000   1.0340240), wk =   0.0025641
        k(  399) = (   0.0504866   0.0000000  -1.0340240), wk =   0.0025641
        k(  400) = (   0.0998630   0.0000000  -0.8616867), wk =   0.0025641
        k(  401) = (   0.1492394   0.0000000  -0.6893493), wk =   0.0025641
        k(  402) = (   0.1986157   0.0000000  -0.5170120), wk =   0.0025641
        k(  403) = (   0.2479921   0.0000000  -0.3446747), wk =   0.0025641
        k(  404) = (   0.2973685   0.0000000  -0.1723373), wk =   0.0025641
        k(  405) = (   0.3467449   0.1890983   0.0000000), wk =   0.0025641
        k(  406) = (   0.3961212   0.1890983   0.1723373), wk =   0.0025641
        k(  407) = (   0.4454976   0.1890983   0.3446747), wk =   0.0025641
        k(  408) = (   0.4948740   0.1890983   0.5170120), wk =   0.0025641
        k(  409) = (   0.5442504   0.1890983   0.6893493), wk =   0.0025641
        k(  410) = (   0.5936267   0.1890983   0.8616867), wk =   0.0025641
        k(  411) = (   0.6430031   0.1890983   1.0340240), wk =   0.0025641
        k(  412) = (   0.0504866   0.1890983  -1.0340240), wk =   0.0025641
        k(  413) = (   0.0998630   0.1890983  -0.8616867), wk =   0.0025641
        k(  414) = (   0.1492394   0.1890983  -0.6893493), wk =   0.0025641
        k(  415) = (   0.1986157   0.1890983  -0.5170120), wk =   0.0025641
        k(  416) = (   0.2479921   0.1890983  -0.3446747), wk =   0.0025641
        k(  417) = (   0.2973685   0.1890983  -0.1723373), wk =   0.0025641
        k(  418) = (   0.3467449   0.3781967   0.0000000), wk =   0.0025641
        k(  419) = (   0.3961212   0.3781967   0.1723373), wk =   0.0025641
        k(  420) = (   0.4454976   0.3781967   0.3446747), wk =   0.0025641
        k(  421) = (   0.4948740   0.3781967   0.5170120), wk =   0.0025641
        k(  422) = (   0.5442504   0.3781967   0.6893493), wk =   0.0025641
        k(  423) = (   0.5936267   0.3781967   0.8616867), wk =   0.0025641
        k(  424) = (   0.6430031   0.3781967   1.0340240), wk =   0.0025641
        k(  425) = (   0.0504866   0.3781967  -1.0340240), wk =   0.0025641
        k(  426) = (   0.0998630   0.3781967  -0.8616867), wk =   0.0025641
        k(  427) = (   0.1492394   0.3781967  -0.6893493), wk =   0.0025641
        k(  428) = (   0.1986157   0.3781967  -0.5170120), wk =   0.0025641
        k(  429) = (   0.2479921   0.3781967  -0.3446747), wk =   0.0025641
        k(  430) = (   0.2973685   0.3781967  -0.1723373), wk =   0.0025641
        k(  431) = (   0.3467449   0.5672950   0.0000000), wk =   0.0025641
        k(  432) = (   0.3961212   0.5672950   0.1723373), wk =   0.0025641
        k(  433) = (   0.4454976   0.5672950   0.3446747), wk =   0.0025641
        k(  434) = (   0.4948740   0.5672950   0.5170120), wk =   0.0025641
        k(  435) = (   0.5442504   0.5672950   0.6893493), wk =   0.0025641
        k(  436) = (   0.5936267   0.5672950   0.8616867), wk =   0.0025641
        k(  437) = (   0.6430031   0.5672950   1.0340240), wk =   0.0025641
        k(  438) = (   0.0504866   0.5672950  -1.0340240), wk =   0.0025641
        k(  439) = (   0.0998630   0.5672950  -0.8616867), wk =   0.0025641
        k(  440) = (   0.1492394   0.5672950  -0.6893493), wk =   0.0025641
        k(  441) = (   0.1986157   0.5672950  -0.5170120), wk =   0.0025641
        k(  442) = (   0.2479921   0.5672950  -0.3446747), wk =   0.0025641
        k(  443) = (   0.2973685   0.5672950  -0.1723373), wk =   0.0025641
        k(  444) = (   0.3467449   0.7563934   0.0000000), wk =   0.0025641
        k(  445) = (   0.3961212   0.7563934   0.1723373), wk =   0.0025641
        k(  446) = (   0.4454976   0.7563934   0.3446747), wk =   0.0025641
        k(  447) = (   0.4948740   0.7563934   0.5170120), wk =   0.0025641
        k(  448) = (   0.5442504   0.7563934   0.6893493), wk =   0.0025641
        k(  449) = (   0.5936267   0.7563934   0.8616867), wk =   0.0025641
        k(  450) = (   0.6430031   0.7563934   1.0340240), wk =   0.0025641
        k(  451) = (   0.0504866   0.7563934  -1.0340240), wk =   0.0025641
        k(  452) = (   0.0998630   0.7563934  -0.8616867), wk =   0.0025641
        k(  453) = (   0.1492394   0.7563934  -0.6893493), wk =   0.0025641
        k(  454) = (   0.1986157   0.7563934  -0.5170120), wk =   0.0025641
        k(  455) = (   0.2479921   0.7563934  -0.3446747), wk =   0.0025641
        k(  456) = (   0.2973685   0.7563934  -0.1723373), wk =   0.0025641
        k(  457) = (   0.3467449   0.9454917   0.0000000), wk =   0.0025641
        k(  458) = (   0.3961212   0.9454917   0.1723373), wk =   0.0025641
        k(  459) = (   0.4454976   0.9454917   0.3446747), wk =   0.0025641
        k(  460) = (   0.4948740   0.9454917   0.5170120), wk =   0.0025641
        k(  461) = (   0.5442504   0.9454917   0.6893493), wk =   0.0025641
        k(  462) = (   0.5936267   0.9454917   0.8616867), wk =   0.0025641
        k(  463) = (   0.6430031   0.9454917   1.0340240), wk =   0.0025641
        k(  464) = (   0.0504866   0.9454917  -1.0340240), wk =   0.0025641
        k(  465) = (   0.0998630   0.9454917  -0.8616867), wk =   0.0025641
        k(  466) = (   0.1492394   0.9454917  -0.6893493), wk =   0.0025641
        k(  467) = (   0.1986157   0.9454917  -0.5170120), wk =   0.0025641
        k(  468) = (   0.2479921   0.9454917  -0.3446747), wk =   0.0025641
        k(  469) = (   0.2973685   0.9454917  -0.1723373), wk =   0.0025641
        k(  470) = (   0.3467449   1.1345900   0.0000000), wk =   0.0025641
        k(  471) = (   0.3961212   1.1345900   0.1723373), wk =   0.0025641
        k(  472) = (   0.4454976   1.1345900   0.3446747), wk =   0.0025641
        k(  473) = (   0.4948740   1.1345900   0.5170120), wk =   0.0025641
        k(  474) = (   0.5442504   1.1345900   0.6893493), wk =   0.0025641
        k(  475) = (   0.5936267   1.1345900   0.8616867), wk =   0.0025641
        k(  476) = (   0.6430031   1.1345900   1.0340240), wk =   0.0025641
        k(  477) = (   0.0504866   1.1345900  -1.0340240), wk =   0.0025641
        k(  478) = (   0.0998630   1.1345900  -0.8616867), wk =   0.0025641
        k(  479) = (   0.1492394   1.1345900  -0.6893493), wk =   0.0025641
        k(  480) = (   0.1986157   1.1345900  -0.5170120), wk =   0.0025641
        k(  481) = (   0.2479921   1.1345900  -0.3446747), wk =   0.0025641
        k(  482) = (   0.2973685   1.1345900  -0.1723373), wk =   0.0025641
        k(  483) = (   0.3467449   1.3236884   0.0000000), wk =   0.0025641
        k(  484) = (   0.3961212   1.3236884   0.1723373), wk =   0.0025641
        k(  485) = (   0.4454976   1.3236884   0.3446747), wk =   0.0025641
        k(  486) = (   0.4948740   1.3236884   0.5170120), wk =   0.0025641
        k(  487) = (   0.5442504   1.3236884   0.6893493), wk =   0.0025641
        k(  488) = (   0.5936267   1.3236884   0.8616867), wk =   0.0025641
        k(  489) = (   0.6430031   1.3236884   1.0340240), wk =   0.0025641
        k(  490) = (   0.0504866   1.3236884  -1.0340240), wk =   0.0025641
        k(  491) = (   0.0998630   1.3236884  -0.8616867), wk =   0.0025641
        k(  492) = (   0.1492394   1.3236884  -0.6893493), wk =   0.0025641
        k(  493) = (   0.1986157   1.3236884  -0.5170120), wk =   0.0025641
        k(  494) = (   0.2479921   1.3236884  -0.3446747), wk =   0.0025641
        k(  495) = (   0.2973685   1.3236884  -0.1723373), wk =   0.0025641
        k(  496) = (   0.3467449   1.5127867   0.0000000), wk =   0.0025641
        k(  497) = (   0.3961212   1.5127867   0.1723373), wk =   0.0025641
        k(  498) = (   0.4454976   1.5127867   0.3446747), wk =   0.0025641
        k(  499) = (   0.4948740   1.5127867   0.5170120), wk =   0.0025641
        k(  500) = (   0.5442504   1.5127867   0.6893493), wk =   0.0025641
        k(  501) = (   0.5936267   1.5127867   0.8616867), wk =   0.0025641
        k(  502) = (   0.6430031   1.5127867   1.0340240), wk =   0.0025641
        k(  503) = (   0.0504866   1.5127867  -1.0340240), wk =   0.0025641
        k(  504) = (   0.0998630   1.5127867  -0.8616867), wk =   0.0025641
        k(  505) = (   0.1492394   1.5127867  -0.6893493), wk =   0.0025641
        k(  506) = (   0.1986157   1.5127867  -0.5170120), wk =   0.0025641
        k(  507) = (   0.2479921   1.5127867  -0.3446747), wk =   0.0025641
        k(  508) = (   0.2973685   1.5127867  -0.1723373), wk =   0.0025641
        k(  509) = (   0.3467449   1.7018850   0.0000000), wk =   0.0025641
        k(  510) = (   0.3961212   1.7018850   0.1723373), wk =   0.0025641
        k(  511) = (   0.4454976   1.7018850   0.3446747), wk =   0.0025641
        k(  512) = (   0.4948740   1.7018850   0.5170120), wk =   0.0025641
        k(  513) = (   0.5442504   1.7018850   0.6893493), wk =   0.0025641
        k(  514) = (   0.5936267   1.7018850   0.8616867), wk =   0.0025641
        k(  515) = (   0.6430031   1.7018850   1.0340240), wk =   0.0025641
        k(  516) = (   0.0504866   1.7018850  -1.0340240), wk =   0.0025641
        k(  517) = (   0.0998630   1.7018850  -0.8616867), wk =   0.0025641
        k(  518) = (   0.1492394   1.7018850  -0.6893493), wk =   0.0025641
        k(  519) = (   0.1986157   1.7018850  -0.5170120), wk =   0.0025641
        k(  520) = (   0.2479921   1.7018850  -0.3446747), wk =   0.0025641
        k(  521) = (   0.2973685   1.7018850  -0.1723373), wk =   0.0025641
        k(  522) = (   0.3467449  -1.8909834   0.0000000), wk =   0.0025641
        k(  523) = (   0.3961212  -1.8909834   0.1723373), wk =   0.0025641
        k(  524) = (   0.4454976  -1.8909834   0.3446747), wk =   0.0025641
        k(  525) = (   0.4948740  -1.8909834   0.5170120), wk =   0.0025641
        k(  526) = (   0.5442504  -1.8909834   0.6893493), wk =   0.0025641
        k(  527) = (   0.5936267  -1.8909834   0.8616867), wk =   0.0025641
        k(  528) = (   0.6430031  -1.8909834   1.0340240), wk =   0.0025641
        k(  529) = (   0.0504866  -1.8909834  -1.0340240), wk =   0.0025641
        k(  530) = (   0.0998630  -1.8909834  -0.8616867), wk =   0.0025641
        k(  531) = (   0.1492394  -1.8909834  -0.6893493), wk =   0.0025641
        k(  532) = (   0.1986157  -1.8909834  -0.5170120), wk =   0.0025641
        k(  533) = (   0.2479921  -1.8909834  -0.3446747), wk =   0.0025641
        k(  534) = (   0.2973685  -1.8909834  -0.1723373), wk =   0.0025641
        k(  535) = (   0.3467449  -1.7018850   0.0000000), wk =   0.0025641
        k(  536) = (   0.3961212  -1.7018850   0.1723373), wk =   0.0025641
        k(  537) = (   0.4454976  -1.7018850   0.3446747), wk =   0.0025641
        k(  538) = (   0.4948740  -1.7018850   0.5170120), wk =   0.0025641
        k(  539) = (   0.5442504  -1.7018850   0.6893493), wk =   0.0025641
        k(  540) = (   0.5936267  -1.7018850   0.8616867), wk =   0.0025641
        k(  541) = (   0.6430031  -1.7018850   1.0340240), wk =   0.0025641
        k(  542) = (   0.0504866  -1.7018850  -1.0340240), wk =   0.0025641
        k(  543) = (   0.0998630  -1.7018850  -0.8616867), wk =   0.0025641
        k(  544) = (   0.1492394  -1.7018850  -0.6893493), wk =   0.0025641
        k(  545) = (   0.1986157  -1.7018850  -0.5170120), wk =   0.0025641
        k(  546) = (   0.2479921  -1.7018850  -0.3446747), wk =   0.0025641
        k(  547) = (   0.2973685  -1.7018850  -0.1723373), wk =   0.0025641
        k(  548) = (   0.3467449  -1.5127867   0.0000000), wk =   0.0025641
        k(  549) = (   0.3961212  -1.5127867   0.1723373), wk =   0.0025641
        k(  550) = (   0.4454976  -1.5127867   0.3446747), wk =   0.0025641
        k(  551) = (   0.4948740  -1.5127867   0.5170120), wk =   0.0025641
        k(  552) = (   0.5442504  -1.5127867   0.6893493), wk =   0.0025641
        k(  553) = (   0.5936267  -1.5127867   0.8616867), wk =   0.0025641
        k(  554) = (   0.6430031  -1.5127867   1.0340240), wk =   0.0025641
        k(  555) = (   0.0504866  -1.5127867  -1.0340240), wk =   0.0025641
        k(  556) = (   0.0998630  -1.5127867  -0.8616867), wk =   0.0025641
        k(  557) = (   0.1492394  -1.5127867  -0.6893493), wk =   0.0025641
        k(  558) = (   0.1986157  -1.5127867  -0.5170120), wk =   0.0025641
        k(  559) = (   0.2479921  -1.5127867  -0.3446747), wk =   0.0025641
        k(  560) = (   0.2973685  -1.5127867  -0.1723373), wk =   0.0025641
        k(  561) = (   0.3467449  -1.3236884   0.0000000), wk =   0.0025641
        k(  562) = (   0.3961212  -1.3236884   0.1723373), wk =   0.0025641
        k(  563) = (   0.4454976  -1.3236884   0.3446747), wk =   0.0025641
        k(  564) = (   0.4948740  -1.3236884   0.5170120), wk =   0.0025641
        k(  565) = (   0.5442504  -1.3236884   0.6893493), wk =   0.0025641
        k(  566) = (   0.5936267  -1.3236884   0.8616867), wk =   0.0025641
        k(  567) = (   0.6430031  -1.3236884   1.0340240), wk =   0.0025641
        k(  568) = (   0.0504866  -1.3236884  -1.0340240), wk =   0.0025641
        k(  569) = (   0.0998630  -1.3236884  -0.8616867), wk =   0.0025641
        k(  570) = (   0.1492394  -1.3236884  -0.6893493), wk =   0.0025641
        k(  571) = (   0.1986157  -1.3236884  -0.5170120), wk =   0.0025641
        k(  572) = (   0.2479921  -1.3236884  -0.3446747), wk =   0.0025641
        k(  573) = (   0.2973685  -1.3236884  -0.1723373), wk =   0.0025641
        k(  574) = (   0.3467449  -1.1345900   0.0000000), wk =   0.0025641
        k(  575) = (   0.3961212  -1.1345900   0.1723373), wk =   0.0025641
        k(  576) = (   0.4454976  -1.1345900   0.3446747), wk =   0.0025641
        k(  577) = (   0.4948740  -1.1345900   0.5170120), wk =   0.0025641
        k(  578) = (   0.5442504  -1.1345900   0.6893493), wk =   0.0025641
        k(  579) = (   0.5936267  -1.1345900   0.8616867), wk =   0.0025641
        k(  580) = (   0.6430031  -1.1345900   1.0340240), wk =   0.0025641
        k(  581) = (   0.0504866  -1.1345900  -1.0340240), wk =   0.0025641
        k(  582) = (   0.0998630  -1.1345900  -0.8616867), wk =   0.0025641
        k(  583) = (   0.1492394  -1.1345900  -0.6893493), wk =   0.0025641
        k(  584) = (   0.1986157  -1.1345900  -0.5170120), wk =   0.0025641
        k(  585) = (   0.2479921  -1.1345900  -0.3446747), wk =   0.0025641
        k(  586) = (   0.2973685  -1.1345900  -0.1723373), wk =   0.0025641
        k(  587) = (   0.3467449  -0.9454917   0.0000000), wk =   0.0025641
        k(  588) = (   0.3961212  -0.9454917   0.1723373), wk =   0.0025641
        k(  589) = (   0.4454976  -0.9454917   0.3446747), wk =   0.0025641
        k(  590) = (   0.4948740  -0.9454917   0.5170120), wk =   0.0025641
        k(  591) = (   0.5442504  -0.9454917   0.6893493), wk =   0.0025641
        k(  592) = (   0.5936267  -0.9454917   0.8616867), wk =   0.0025641
        k(  593) = (   0.6430031  -0.9454917   1.0340240), wk =   0.0025641
        k(  594) = (   0.0504866  -0.9454917  -1.0340240), wk =   0.0025641
        k(  595) = (   0.0998630  -0.9454917  -0.8616867), wk =   0.0025641
        k(  596) = (   0.1492394  -0.9454917  -0.6893493), wk =   0.0025641
        k(  597) = (   0.1986157  -0.9454917  -0.5170120), wk =   0.0025641
        k(  598) = (   0.2479921  -0.9454917  -0.3446747), wk =   0.0025641
        k(  599) = (   0.2973685  -0.9454917  -0.1723373), wk =   0.0025641
        k(  600) = (   0.3467449  -0.7563934   0.0000000), wk =   0.0025641
        k(  601) = (   0.3961212  -0.7563934   0.1723373), wk =   0.0025641
        k(  602) = (   0.4454976  -0.7563934   0.3446747), wk =   0.0025641
        k(  603) = (   0.4948740  -0.7563934   0.5170120), wk =   0.0025641
        k(  604) = (   0.5442504  -0.7563934   0.6893493), wk =   0.0025641
        k(  605) = (   0.5936267  -0.7563934   0.8616867), wk =   0.0025641
        k(  606) = (   0.6430031  -0.7563934   1.0340240), wk =   0.0025641
        k(  607) = (   0.0504866  -0.7563934  -1.0340240), wk =   0.0025641
        k(  608) = (   0.0998630  -0.7563934  -0.8616867), wk =   0.0025641
        k(  609) = (   0.1492394  -0.7563934  -0.6893493), wk =   0.0025641
        k(  610) = (   0.1986157  -0.7563934  -0.5170120), wk =   0.0025641
        k(  611) = (   0.2479921  -0.7563934  -0.3446747), wk =   0.0025641
        k(  612) = (   0.2973685  -0.7563934  -0.1723373), wk =   0.0025641
        k(  613) = (   0.3467449  -0.5672950   0.0000000), wk =   0.0025641
        k(  614) = (   0.3961212  -0.5672950   0.1723373), wk =   0.0025641
        k(  615) = (   0.4454976  -0.5672950   0.3446747), wk =   0.0025641
        k(  616) = (   0.4948740  -0.5672950   0.5170120), wk =   0.0025641
        k(  617) = (   0.5442504  -0.5672950   0.6893493), wk =   0.0025641
        k(  618) = (   0.5936267  -0.5672950   0.8616867), wk =   0.0025641
        k(  619) = (   0.6430031  -0.5672950   1.0340240), wk =   0.0025641
        k(  620) = (   0.0504866  -0.5672950  -1.0340240), wk =   0.0025641
        k(  621) = (   0.0998630  -0.5672950  -0.8616867), wk =   0.0025641
        k(  622) = (   0.1492394  -0.5672950  -0.6893493), wk =   0.0025641
        k(  623) = (   0.1986157  -0.5672950  -0.5170120), wk =   0.0025641
        k(  624) = (   0.2479921  -0.5672950  -0.3446747), wk =   0.0025641
        k(  625) = (   0.2973685  -0.5672950  -0.1723373), wk =   0.0025641
        k(  626) = (   0.3467449  -0.3781967   0.0000000), wk =   0.0025641
        k(  627) = (   0.3961212  -0.3781967   0.1723373), wk =   0.0025641
        k(  628) = (   0.4454976  -0.3781967   0.3446747), wk =   0.0025641
        k(  629) = (   0.4948740  -0.3781967   0.5170120), wk =   0.0025641
        k(  630) = (   0.5442504  -0.3781967   0.6893493), wk =   0.0025641
        k(  631) = (   0.5936267  -0.3781967   0.8616867), wk =   0.0025641
        k(  632) = (   0.6430031  -0.3781967   1.0340240), wk =   0.0025641
        k(  633) = (   0.0504866  -0.3781967  -1.0340240), wk =   0.0025641
        k(  634) = (   0.0998630  -0.3781967  -0.8616867), wk =   0.0025641
        k(  635) = (   0.1492394  -0.3781967  -0.6893493), wk =   0.0025641
        k(  636) = (   0.1986157  -0.3781967  -0.5170120), wk =   0.0025641
        k(  637) = (   0.2479921  -0.3781967  -0.3446747), wk =   0.0025641
        k(  638) = (   0.2973685  -0.3781967  -0.1723373), wk =   0.0025641
        k(  639) = (   0.3467449  -0.1890983   0.0000000), wk =   0.0025641
        k(  640) = (   0.3961212  -0.1890983   0.1723373), wk =   0.0025641
        k(  641) = (   0.4454976  -0.1890983   0.3446747), wk =   0.0025641
        k(  642) = (   0.4948740  -0.1890983   0.5170120), wk =   0.0025641
        k(  643) = (   0.5442504  -0.1890983   0.6893493), wk =   0.0025641
        k(  644) = (   0.5936267  -0.1890983   0.8616867), wk =   0.0025641
        k(  645) = (   0.6430031  -0.1890983   1.0340240), wk =   0.0025641
        k(  646) = (   0.0504866  -0.1890983  -1.0340240), wk =   0.0025641
        k(  647) = (   0.0998630  -0.1890983  -0.8616867), wk =   0.0025641
        k(  648) = (   0.1492394  -0.1890983  -0.6893493), wk =   0.0025641
        k(  649) = (   0.1986157  -0.1890983  -0.5170120), wk =   0.0025641
        k(  650) = (   0.2479921  -0.1890983  -0.3446747), wk =   0.0025641
        k(  651) = (   0.2973685  -0.1890983  -0.1723373), wk =   0.0025641
        k(  652) = (  -0.5201173   0.0000000   0.0000000), wk =   0.0012821
        k(  653) = (  -0.4707409   0.0000000   0.1723373), wk =   0.0025641
        k(  654) = (  -0.4213645   0.0000000   0.3446747), wk =   0.0025641
        k(  655) = (  -0.3719882   0.0000000   0.5170120), wk =   0.0025641
        k(  656) = (  -0.3226118   0.0000000   0.6893493), wk =   0.0025641
        k(  657) = (  -0.2732354   0.0000000   0.8616867), wk =   0.0025641
        k(  658) = (  -0.2238590   0.0000000   1.0340240), wk =   0.0025641
        k(  659) = (  -0.5201173   0.1890983   0.0000000), wk =   0.0025641
        k(  660) = (  -0.4707409   0.1890983   0.1723373), wk =   0.0025641
        k(  661) = (  -0.4213645   0.1890983   0.3446747), wk =   0.0025641
        k(  662) = (  -0.3719882   0.1890983   0.5170120), wk =   0.0025641
        k(  663) = (  -0.3226118   0.1890983   0.6893493), wk =   0.0025641
        k(  664) = (  -0.2732354   0.1890983   0.8616867), wk =   0.0025641
        k(  665) = (  -0.2238590   0.1890983   1.0340240), wk =   0.0025641
        k(  666) = (  -0.8163755   0.1890983  -1.0340240), wk =   0.0025641
        k(  667) = (  -0.7669992   0.1890983  -0.8616867), wk =   0.0025641
        k(  668) = (  -0.7176228   0.1890983  -0.6893493), wk =   0.0025641
        k(  669) = (  -0.6682464   0.1890983  -0.5170120), wk =   0.0025641
        k(  670) = (  -0.6188700   0.1890983  -0.3446747), wk =   0.0025641
        k(  671) = (  -0.5694937   0.1890983  -0.1723373), wk =   0.0025641
        k(  672) = (  -0.5201173   0.3781967   0.0000000), wk =   0.0025641
        k(  673) = (  -0.4707409   0.3781967   0.1723373), wk =   0.0025641
        k(  674) = (  -0.4213645   0.3781967   0.3446747), wk =   0.0025641
        k(  675) = (  -0.3719882   0.3781967   0.5170120), wk =   0.0025641
        k(  676) = (  -0.3226118   0.3781967   0.6893493), wk =   0.0025641
        k(  677) = (  -0.2732354   0.3781967   0.8616867), wk =   0.0025641
        k(  678) = (  -0.2238590   0.3781967   1.0340240), wk =   0.0025641
        k(  679) = (  -0.8163755   0.3781967  -1.0340240), wk =   0.0025641
        k(  680) = (  -0.7669992   0.3781967  -0.8616867), wk =   0.0025641
        k(  681) = (  -0.7176228   0.3781967  -0.6893493), wk =   0.0025641
        k(  682) = (  -0.6682464   0.3781967  -0.5170120), wk =   0.0025641
        k(  683) = (  -0.6188700   0.3781967  -0.3446747), wk =   0.0025641
        k(  684) = (  -0.5694937   0.3781967  -0.1723373), wk =   0.0025641
        k(  685) = (  -0.5201173   0.5672950   0.0000000), wk =   0.0025641
        k(  686) = (  -0.4707409   0.5672950   0.1723373), wk =   0.0025641
        k(  687) = (  -0.4213645   0.5672950   0.3446747), wk =   0.0025641
        k(  688) = (  -0.3719882   0.5672950   0.5170120), wk =   0.0025641
        k(  689) = (  -0.3226118   0.5672950   0.6893493), wk =   0.0025641
        k(  690) = (  -0.2732354   0.5672950   0.8616867), wk =   0.0025641
        k(  691) = (  -0.2238590   0.5672950   1.0340240), wk =   0.0025641
        k(  692) = (  -0.8163755   0.5672950  -1.0340240), wk =   0.0025641
        k(  693) = (  -0.7669992   0.5672950  -0.8616867), wk =   0.0025641
        k(  694) = (  -0.7176228   0.5672950  -0.6893493), wk =   0.0025641
        k(  695) = (  -0.6682464   0.5672950  -0.5170120), wk =   0.0025641
        k(  696) = (  -0.6188700   0.5672950  -0.3446747), wk =   0.0025641
        k(  697) = (  -0.5694937   0.5672950  -0.1723373), wk =   0.0025641
        k(  698) = (  -0.5201173   0.7563934   0.0000000), wk =   0.0025641
        k(  699) = (  -0.4707409   0.7563934   0.1723373), wk =   0.0025641
        k(  700) = (  -0.4213645   0.7563934   0.3446747), wk =   0.0025641
        k(  701) = (  -0.3719882   0.7563934   0.5170120), wk =   0.0025641
        k(  702) = (  -0.3226118   0.7563934   0.6893493), wk =   0.0025641
        k(  703) = (  -0.2732354   0.7563934   0.8616867), wk =   0.0025641
        k(  704) = (  -0.2238590   0.7563934   1.0340240), wk =   0.0025641
        k(  705) = (  -0.8163755   0.7563934  -1.0340240), wk =   0.0025641
        k(  706) = (  -0.7669992   0.7563934  -0.8616867), wk =   0.0025641
        k(  707) = (  -0.7176228   0.7563934  -0.6893493), wk =   0.0025641
        k(  708) = (  -0.6682464   0.7563934  -0.5170120), wk =   0.0025641
        k(  709) = (  -0.6188700   0.7563934  -0.3446747), wk =   0.0025641
        k(  710) = (  -0.5694937   0.7563934  -0.1723373), wk =   0.0025641
        k(  711) = (  -0.5201173   0.9454917   0.0000000), wk =   0.0025641
        k(  712) = (  -0.4707409   0.9454917   0.1723373), wk =   0.0025641
        k(  713) = (  -0.4213645   0.9454917   0.3446747), wk =   0.0025641
        k(  714) = (  -0.3719882   0.9454917   0.5170120), wk =   0.0025641
        k(  715) = (  -0.3226118   0.9454917   0.6893493), wk =   0.0025641
        k(  716) = (  -0.2732354   0.9454917   0.8616867), wk =   0.0025641
        k(  717) = (  -0.2238590   0.9454917   1.0340240), wk =   0.0025641
        k(  718) = (  -0.8163755   0.9454917  -1.0340240), wk =   0.0025641
        k(  719) = (  -0.7669992   0.9454917  -0.8616867), wk =   0.0025641
        k(  720) = (  -0.7176228   0.9454917  -0.6893493), wk =   0.0025641
        k(  721) = (  -0.6682464   0.9454917  -0.5170120), wk =   0.0025641
        k(  722) = (  -0.6188700   0.9454917  -0.3446747), wk =   0.0025641
        k(  723) = (  -0.5694937   0.9454917  -0.1723373), wk =   0.0025641
        k(  724) = (  -0.5201173   1.1345900   0.0000000), wk =   0.0025641
        k(  725) = (  -0.4707409   1.1345900   0.1723373), wk =   0.0025641
        k(  726) = (  -0.4213645   1.1345900   0.3446747), wk =   0.0025641
        k(  727) = (  -0.3719882   1.1345900   0.5170120), wk =   0.0025641
        k(  728) = (  -0.3226118   1.1345900   0.6893493), wk =   0.0025641
        k(  729) = (  -0.2732354   1.1345900   0.8616867), wk =   0.0025641
        k(  730) = (  -0.2238590   1.1345900   1.0340240), wk =   0.0025641
        k(  731) = (  -0.8163755   1.1345900  -1.0340240), wk =   0.0025641
        k(  732) = (  -0.7669992   1.1345900  -0.8616867), wk =   0.0025641
        k(  733) = (  -0.7176228   1.1345900  -0.6893493), wk =   0.0025641
        k(  734) = (  -0.6682464   1.1345900  -0.5170120), wk =   0.0025641
        k(  735) = (  -0.6188700   1.1345900  -0.3446747), wk =   0.0025641
        k(  736) = (  -0.5694937   1.1345900  -0.1723373), wk =   0.0025641
        k(  737) = (  -0.5201173   1.3236884   0.0000000), wk =   0.0025641
        k(  738) = (  -0.4707409   1.3236884   0.1723373), wk =   0.0025641
        k(  739) = (  -0.4213645   1.3236884   0.3446747), wk =   0.0025641
        k(  740) = (  -0.3719882   1.3236884   0.5170120), wk =   0.0025641
        k(  741) = (  -0.3226118   1.3236884   0.6893493), wk =   0.0025641
        k(  742) = (  -0.2732354   1.3236884   0.8616867), wk =   0.0025641
        k(  743) = (  -0.2238590   1.3236884   1.0340240), wk =   0.0025641
        k(  744) = (  -0.8163755   1.3236884  -1.0340240), wk =   0.0025641
        k(  745) = (  -0.7669992   1.3236884  -0.8616867), wk =   0.0025641
        k(  746) = (  -0.7176228   1.3236884  -0.6893493), wk =   0.0025641
        k(  747) = (  -0.6682464   1.3236884  -0.5170120), wk =   0.0025641
        k(  748) = (  -0.6188700   1.3236884  -0.3446747), wk =   0.0025641
        k(  749) = (  -0.5694937   1.3236884  -0.1723373), wk =   0.0025641
        k(  750) = (  -0.5201173   1.5127867   0.0000000), wk =   0.0025641
        k(  751) = (  -0.4707409   1.5127867   0.1723373), wk =   0.0025641
        k(  752) = (  -0.4213645   1.5127867   0.3446747), wk =   0.0025641
        k(  753) = (  -0.3719882   1.5127867   0.5170120), wk =   0.0025641
        k(  754) = (  -0.3226118   1.5127867   0.6893493), wk =   0.0025641
        k(  755) = (  -0.2732354   1.5127867   0.8616867), wk =   0.0025641
        k(  756) = (  -0.2238590   1.5127867   1.0340240), wk =   0.0025641
        k(  757) = (  -0.8163755   1.5127867  -1.0340240), wk =   0.0025641
        k(  758) = (  -0.7669992   1.5127867  -0.8616867), wk =   0.0025641
        k(  759) = (  -0.7176228   1.5127867  -0.6893493), wk =   0.0025641
        k(  760) = (  -0.6682464   1.5127867  -0.5170120), wk =   0.0025641
        k(  761) = (  -0.6188700   1.5127867  -0.3446747), wk =   0.0025641
        k(  762) = (  -0.5694937   1.5127867  -0.1723373), wk =   0.0025641
        k(  763) = (  -0.5201173   1.7018850   0.0000000), wk =   0.0025641
        k(  764) = (  -0.4707409   1.7018850   0.1723373), wk =   0.0025641
        k(  765) = (  -0.4213645   1.7018850   0.3446747), wk =   0.0025641
        k(  766) = (  -0.3719882   1.7018850   0.5170120), wk =   0.0025641
        k(  767) = (  -0.3226118   1.7018850   0.6893493), wk =   0.0025641
        k(  768) = (  -0.2732354   1.7018850   0.8616867), wk =   0.0025641
        k(  769) = (  -0.2238590   1.7018850   1.0340240), wk =   0.0025641
        k(  770) = (  -0.8163755   1.7018850  -1.0340240), wk =   0.0025641
        k(  771) = (  -0.7669992   1.7018850  -0.8616867), wk =   0.0025641
        k(  772) = (  -0.7176228   1.7018850  -0.6893493), wk =   0.0025641
        k(  773) = (  -0.6682464   1.7018850  -0.5170120), wk =   0.0025641
        k(  774) = (  -0.6188700   1.7018850  -0.3446747), wk =   0.0025641
        k(  775) = (  -0.5694937   1.7018850  -0.1723373), wk =   0.0025641
        k(  776) = (  -0.5201173  -1.8909834   0.0000000), wk =   0.0012821
        k(  777) = (  -0.4707409  -1.8909834   0.1723373), wk =   0.0025641
        k(  778) = (  -0.4213645  -1.8909834   0.3446747), wk =   0.0025641
        k(  779) = (  -0.3719882  -1.8909834   0.5170120), wk =   0.0025641
        k(  780) = (  -0.3226118  -1.8909834   0.6893493), wk =   0.0025641
        k(  781) = (  -0.2732354  -1.8909834   0.8616867), wk =   0.0025641
        k(  782) = (  -0.2238590  -1.8909834   1.0340240), wk =   0.0025641

                       cryst. coord.
        k(    1) = (   0.0000000   0.0000000   0.0000000), wk =   0.0012821
        k(    2) = (  -0.0000000   0.0000000   0.0769231), wk =   0.0025641
        k(    3) = (  -0.0000000   0.0000000   0.1538462), wk =   0.0025641
        k(    4) = (   0.0000000   0.0000000   0.2307692), wk =   0.0025641
        k(    5) = (  -0.0000000   0.0000000   0.3076923), wk =   0.0025641
        k(    6) = (  -0.0000000   0.0000000   0.3846154), wk =   0.0025641
        k(    7) = (   0.0000000   0.0000000   0.4615385), wk =   0.0025641
        k(    8) = (   0.0000000   0.0500000   0.0000000), wk =   0.0025641
        k(    9) = (  -0.0000000   0.0500000   0.0769231), wk =   0.0025641
        k(   10) = (  -0.0000000   0.0500000   0.1538462), wk =   0.0025641
        k(   11) = (   0.0000000   0.0500000   0.2307692), wk =   0.0025641
        k(   12) = (  -0.0000000   0.0500000   0.3076923), wk =   0.0025641
        k(   13) = (  -0.0000000   0.0500000   0.3846154), wk =   0.0025641
        k(   14) = (   0.0000000   0.0500000   0.4615385), wk =   0.0025641
        k(   15) = (  -0.0000000   0.0500000  -0.4615385), wk =   0.0025641
        k(   16) = (   0.0000000   0.0500000  -0.3846154), wk =   0.0025641
        k(   17) = (   0.0000000   0.0500000  -0.3076923), wk =   0.0025641
        k(   18) = (  -0.0000000   0.0500000  -0.2307692), wk =   0.0025641
        k(   19) = (   0.0000000   0.0500000  -0.1538462), wk =   0.0025641
        k(   20) = (   0.0000000   0.0500000  -0.0769231), wk =   0.0025641
        k(   21) = (   0.0000000   0.1000000   0.0000000), wk =   0.0025641
        k(   22) = (  -0.0000000   0.1000000   0.0769231), wk =   0.0025641
        k(   23) = (  -0.0000000   0.1000000   0.1538462), wk =   0.0025641
        k(   24) = (   0.0000000   0.1000000   0.2307692), wk =   0.0025641
        k(   25) = (  -0.0000000   0.1000000   0.3076923), wk =   0.0025641
        k(   26) = (  -0.0000000   0.1000000   0.3846154), wk =   0.0025641
        k(   27) = (   0.0000000   0.1000000   0.4615385), wk =   0.0025641
        k(   28) = (  -0.0000000   0.1000000  -0.4615385), wk =   0.0025641
        k(   29) = (   0.0000000   0.1000000  -0.3846154), wk =   0.0025641
        k(   30) = (   0.0000000   0.1000000  -0.3076923), wk =   0.0025641
        k(   31) = (  -0.0000000   0.1000000  -0.2307692), wk =   0.0025641
        k(   32) = (   0.0000000   0.1000000  -0.1538462), wk =   0.0025641
        k(   33) = (   0.0000000   0.1000000  -0.0769231), wk =   0.0025641
        k(   34) = (   0.0000000   0.1500000   0.0000000), wk =   0.0025641
        k(   35) = (  -0.0000000   0.1500000   0.0769231), wk =   0.0025641
        k(   36) = (  -0.0000000   0.1500000   0.1538462), wk =   0.0025641
        k(   37) = (   0.0000000   0.1500000   0.2307692), wk =   0.0025641
        k(   38) = (  -0.0000000   0.1500000   0.3076923), wk =   0.0025641
        k(   39) = (  -0.0000000   0.1500000   0.3846154), wk =   0.0025641
        k(   40) = (   0.0000000   0.1500000   0.4615385), wk =   0.0025641
        k(   41) = (  -0.0000000   0.1500000  -0.4615385), wk =   0.0025641
        k(   42) = (   0.0000000   0.1500000  -0.3846154), wk =   0.0025641
        k(   43) = (   0.0000000   0.1500000  -0.3076923), wk =   0.0025641
        k(   44) = (  -0.0000000   0.1500000  -0.2307692), wk =   0.0025641
        k(   45) = (   0.0000000   0.1500000  -0.1538462), wk =   0.0025641
        k(   46) = (   0.0000000   0.1500000  -0.0769231), wk =   0.0025641
        k(   47) = (   0.0000000   0.2000000   0.0000000), wk =   0.0025641
        k(   48) = (  -0.0000000   0.2000000   0.0769231), wk =   0.0025641
        k(   49) = (  -0.0000000   0.2000000   0.1538462), wk =   0.0025641
        k(   50) = (   0.0000000   0.2000000   0.2307692), wk =   0.0025641
        k(   51) = (  -0.0000000   0.2000000   0.3076923), wk =   0.0025641
        k(   52) = (  -0.0000000   0.2000000   0.3846154), wk =   0.0025641
        k(   53) = (   0.0000000   0.2000000   0.4615385), wk =   0.0025641
        k(   54) = (  -0.0000000   0.2000000  -0.4615385), wk =   0.0025641
        k(   55) = (   0.0000000   0.2000000  -0.3846154), wk =   0.0025641
        k(   56) = (   0.0000000   0.2000000  -0.3076923), wk =   0.0025641
        k(   57) = (  -0.0000000   0.2000000  -0.2307692), wk =   0.0025641
        k(   58) = (   0.0000000   0.2000000  -0.1538462), wk =   0.0025641
        k(   59) = (   0.0000000   0.2000000  -0.0769231), wk =   0.0025641
        k(   60) = (   0.0000000   0.2500000   0.0000000), wk =   0.0025641
        k(   61) = (  -0.0000000   0.2500000   0.0769231), wk =   0.0025641
        k(   62) = (  -0.0000000   0.2500000   0.1538462), wk =   0.0025641
        k(   63) = (   0.0000000   0.2500000   0.2307692), wk =   0.0025641
        k(   64) = (  -0.0000000   0.2500000   0.3076923), wk =   0.0025641
        k(   65) = (  -0.0000000   0.2500000   0.3846154), wk =   0.0025641
        k(   66) = (   0.0000000   0.2500000   0.4615385), wk =   0.0025641
        k(   67) = (  -0.0000000   0.2500000  -0.4615385), wk =   0.0025641
        k(   68) = (   0.0000000   0.2500000  -0.3846154), wk =   0.0025641
        k(   69) = (   0.0000000   0.2500000  -0.3076923), wk =   0.0025641
        k(   70) = (  -0.0000000   0.2500000  -0.2307692), wk =   0.0025641
        k(   71) = (   0.0000000   0.2500000  -0.1538462), wk =   0.0025641
        k(   72) = (   0.0000000   0.2500000  -0.0769231), wk =   0.0025641
        k(   73) = (   0.0000000   0.3000000   0.0000000), wk =   0.0025641
        k(   74) = (  -0.0000000   0.3000000   0.0769231), wk =   0.0025641
        k(   75) = (  -0.0000000   0.3000000   0.1538462), wk =   0.0025641
        k(   76) = (   0.0000000   0.3000000   0.2307692), wk =   0.0025641
        k(   77) = (  -0.0000000   0.3000000   0.3076923), wk =   0.0025641
        k(   78) = (  -0.0000000   0.3000000   0.3846154), wk =   0.0025641
        k(   79) = (   0.0000000   0.3000000   0.4615385), wk =   0.0025641
        k(   80) = (  -0.0000000   0.3000000  -0.4615385), wk =   0.0025641
        k(   81) = (   0.0000000   0.3000000  -0.3846154), wk =   0.0025641
        k(   82) = (   0.0000000   0.3000000  -0.3076923), wk =   0.0025641
        k(   83) = (  -0.0000000   0.3000000  -0.2307692), wk =   0.0025641
        k(   84) = (   0.0000000   0.3000000  -0.1538462), wk =   0.0025641
        k(   85) = (   0.0000000   0.3000000  -0.0769231), wk =   0.0025641
        k(   86) = (   0.0000000   0.3500000   0.0000000), wk =   0.0025641
        k(   87) = (  -0.0000000   0.3500000   0.0769231), wk =   0.0025641
        k(   88) = (  -0.0000000   0.3500000   0.1538462), wk =   0.0025641
        k(   89) = (   0.0000000   0.3500000   0.2307692), wk =   0.0025641
        k(   90) = (  -0.0000000   0.3500000   0.3076923), wk =   0.0025641
        k(   91) = (  -0.0000000   0.3500000   0.3846154), wk =   0.0025641
        k(   92) = (   0.0000000   0.3500000   0.4615385), wk =   0.0025641
        k(   93) = (  -0.0000000   0.3500000  -0.4615385), wk =   0.0025641
        k(   94) = (   0.0000000   0.3500000  -0.3846154), wk =   0.0025641
        k(   95) = (   0.0000000   0.3500000  -0.3076923), wk =   0.0025641
        k(   96) = (  -0.0000000   0.3500000  -0.2307692), wk =   0.0025641
        k(   97) = (   0.0000000   0.3500000  -0.1538462), wk =   0.0025641
        k(   98) = (   0.0000000   0.3500000  -0.0769231), wk =   0.0025641
        k(   99) = (   0.0000000   0.4000000   0.0000000), wk =   0.0025641
        k(  100) = (  -0.0000000   0.4000000   0.0769231), wk =   0.0025641
        k(  101) = (  -0.0000000   0.4000000   0.1538462), wk =   0.0025641
        k(  102) = (   0.0000000   0.4000000   0.2307692), wk =   0.0025641
        k(  103) = (  -0.0000000   0.4000000   0.3076923), wk =   0.0025641
        k(  104) = (  -0.0000000   0.4000000   0.3846154), wk =   0.0025641
        k(  105) = (   0.0000000   0.4000000   0.4615385), wk =   0.0025641
        k(  106) = (  -0.0000000   0.4000000  -0.4615385), wk =   0.0025641
        k(  107) = (   0.0000000   0.4000000  -0.3846154), wk =   0.0025641
        k(  108) = (   0.0000000   0.4000000  -0.3076923), wk =   0.0025641
        k(  109) = (  -0.0000000   0.4000000  -0.2307692), wk =   0.0025641
        k(  110) = (   0.0000000   0.4000000  -0.1538462), wk =   0.0025641
        k(  111) = (   0.0000000   0.4000000  -0.0769231), wk =   0.0025641
        k(  112) = (   0.0000000   0.4500000   0.0000000), wk =   0.0025641
        k(  113) = (  -0.0000000   0.4500000   0.0769231), wk =   0.0025641
        k(  114) = (  -0.0000000   0.4500000   0.1538462), wk =   0.0025641
        k(  115) = (   0.0000000   0.4500000   0.2307692), wk =   0.0025641
        k(  116) = (  -0.0000000   0.4500000   0.3076923), wk =   0.0025641
        k(  117) = (  -0.0000000   0.4500000   0.3846154), wk =   0.0025641
        k(  118) = (   0.0000000   0.4500000   0.4615385), wk =   0.0025641
        k(  119) = (  -0.0000000   0.4500000  -0.4615385), wk =   0.0025641
        k(  120) = (   0.0000000   0.4500000  -0.3846154), wk =   0.0025641
        k(  121) = (   0.0000000   0.4500000  -0.3076923), wk =   0.0025641
        k(  122) = (  -0.0000000   0.4500000  -0.2307692), wk =   0.0025641
        k(  123) = (   0.0000000   0.4500000  -0.1538462), wk =   0.0025641
        k(  124) = (   0.0000000   0.4500000  -0.0769231), wk =   0.0025641
        k(  125) = (   0.0000000  -0.5000000   0.0000000), wk =   0.0012821
        k(  126) = (  -0.0000000  -0.5000000   0.0769231), wk =   0.0025641
        k(  127) = (  -0.0000000  -0.5000000   0.1538462), wk =   0.0025641
        k(  128) = (   0.0000000  -0.5000000   0.2307692), wk =   0.0025641
        k(  129) = (  -0.0000000  -0.5000000   0.3076923), wk =   0.0025641
        k(  130) = (  -0.0000000  -0.5000000   0.3846154), wk =   0.0025641
        k(  131) = (   0.0000000  -0.5000000   0.4615385), wk =   0.0025641
        k(  132) = (   0.1666667   0.0000000   0.0000000), wk =   0.0025641
        k(  133) = (   0.1666667   0.0000000   0.0769231), wk =   0.0025641
        k(  134) = (   0.1666667   0.0000000   0.1538462), wk =   0.0025641
        k(  135) = (   0.1666667   0.0000000   0.2307692), wk =   0.0025641
        k(  136) = (   0.1666667   0.0000000   0.3076923), wk =   0.0025641
        k(  137) = (   0.1666667   0.0000000   0.3846154), wk =   0.0025641
        k(  138) = (   0.1666667   0.0000000   0.4615385), wk =   0.0025641
        k(  139) = (   0.1666667   0.0000000  -0.4615385), wk =   0.0025641
        k(  140) = (   0.1666667   0.0000000  -0.3846154), wk =   0.0025641
        k(  141) = (   0.1666667   0.0000000  -0.3076923), wk =   0.0025641
        k(  142) = (   0.1666667   0.0000000  -0.2307692), wk =   0.0025641
[...]
     0.8248   0.8248   0.2017   0.2017   0.1001   0.1001

          k =-0.2239-1.8910 1.0340 ( 11806 PWs)   bands (ev):

    -3.1535  -3.1535  -2.1764  -2.1764  -1.9624  -1.9624  -1.1695  -1.1695
     0.0081   0.0081   0.7575   0.7575   0.8597   0.8597   1.9993   1.9993
     2.0901   2.0901   2.7319   2.7319   3.4907   3.4907   3.8064   3.8064
     4.2412   4.2412   4.6264   4.6264   4.8768   4.8768   5.5766   5.5766
     6.1374   6.1374   6.4843   6.4843   6.7784   6.7784

     occupation numbers 
     1.0000   1.0000   1.0000   1.0000   1.0000   1.0000   1.0000   1.0000
     1.0000   1.0000   1.0000   1.0000   1.0000   1.0000   1.0000   1.0000
     1.0000   1.0000   1.0000   1.0000   1.0000   1.0000   1.0000   1.0000
     1.0000   1.0000   1.0002   1.0002   1.0013   1.0013   1.0343   1.0343
     0.7976   0.7976   0.3363   0.3363   0.0445   0.0445

     the Fermi energy is     6.3657 ev

!    total energy              =    -585.64446708 Ry
     Harris-Foulkes estimate   =    -585.64446708 Ry
     estimated scf accuracy    <          7.7E-13 Ry

     The total energy is the sum of the following terms:

     one-electron contribution =      41.72889985 Ry
     hartree contribution      =       8.29179778 Ry
     xc contribution           =     -75.85001731 Ry
     ewald contribution        =    -108.22210929 Ry
     one-center paw contrib.   =    -451.58930950 Ry
      -> PAW hartree energy AE =       0.84219397 Ry
      -> PAW hartree energy PS =      -0.84027942 Ry
      -> PAW xc energy AE      =     -32.63603574 Ry
      -> PAW xc energy PS      =       1.33782487 Ry
      -> total E_H with PAW    =       8.29371233 Ry
      -> total E_XC with PAW   =    -107.14822818 Ry
     smearing contrib. (-TS)   =      -0.00372860 Ry

     convergence has been achieved in  17 iterations

     Forces acting on atoms (cartesian axes, Ry/au):

     atom    1 type  1   force =     0.00000130    0.00000001   -0.00000139
     atom    2 type  1   force =    -0.00083018   -0.00000005    0.00015743
     atom    3 type  1   force =    -0.00126077   -0.00000004   -0.00048403
     atom    4 type  1   force =     0.00125844    0.00000004    0.00048606
     atom    5 type  1   force =     0.00083098    0.00000005   -0.00016042
     atom    6 type  2   force =    -0.00052836    0.00000001   -0.00058089
     atom    7 type  2   force =     0.00019443    0.00000019    0.00026554
     atom    8 type  3   force =    -0.00057385    0.00000004   -0.00044117
     atom    9 type  3   force =     0.00057428   -0.00000011    0.00044297
     atom   10 type  2   force =    -0.00019471   -0.00000010   -0.00026358
     atom   11 type  2   force =     0.00052879   -0.00000004    0.00057939
     atom   12 type  1   force =     0.00000119   -0.00000001   -0.00000128
     atom   13 type  1   force =    -0.00083041    0.00000005    0.00015744
     atom   14 type  1   force =    -0.00126075    0.00000001   -0.00048406
     atom   15 type  1   force =     0.00125819   -0.00000001    0.00048601
     atom   16 type  1   force =     0.00083089   -0.00000004   -0.00016041
     atom   17 type  2   force =    -0.00052834   -0.00000002   -0.00058110
     atom   18 type  2   force =     0.00019454    0.00000008    0.00026553
     atom   19 type  3   force =    -0.00057349    0.00000002   -0.00044095
     atom   20 type  3   force =     0.00057412    0.00000005    0.00044270
     atom   21 type  2   force =    -0.00019501   -0.00000018   -0.00026340
     atom   22 type  2   force =     0.00052872    0.00000004    0.00057961
     The non-local contrib.  to forces
     atom    1 type  1   force =     0.00000107   -0.00000001   -0.00000357
     atom    2 type  1   force =     0.01386803   -0.00000002   -0.00084650
     atom    3 type  1   force =     0.00756541   -0.00000005    0.01111145
     atom    4 type  1   force =    -0.00757727    0.00000016   -0.01110572
     atom    5 type  1   force =    -0.01386715    0.00000008    0.00083431
     atom    6 type  2   force =    -0.02252187   -0.00000005   -0.05436188
     atom    7 type  2   force =     0.01649958    0.00000004    0.02121315
     atom    8 type  3   force =     0.00599468    0.00000017   -0.01093719
     atom    9 type  3   force =    -0.00599565   -0.00000005    0.01094140
     atom   10 type  2   force =    -0.01650627   -0.00000004   -0.02120630
     atom   11 type  2   force =     0.02253772   -0.00000009    0.05435517
     atom   12 type  1   force =     0.00000131    0.00000001   -0.00000347
     atom   13 type  1   force =     0.01386858    0.00000009   -0.00084656
     atom   14 type  1   force =     0.00756547   -0.00000003    0.01111171
     atom   15 type  1   force =    -0.00757699   -0.00000007   -0.01110532
     atom   16 type  1   force =    -0.01386735   -0.00000015    0.00083430
     atom   17 type  2   force =    -0.02252190    0.00000001   -0.05436200
     atom   18 type  2   force =     0.01649935   -0.00000015    0.02121324
     atom   19 type  3   force =     0.00599448   -0.00000008   -0.01093707
     atom   20 type  3   force =    -0.00599603   -0.00000005    0.01094071
     atom   21 type  2   force =    -0.01650633    0.00000016   -0.02120657
     atom   22 type  2   force =     0.02253809    0.00000014    0.05435540
     The ionic contribution  to forces
     atom    1 type  1   force =     0.00001144    0.00000007    0.00000199
     atom    2 type  1   force =    -0.16014667   -0.00000025   -0.31413577
     atom    3 type  1   force =    -0.15595512   -0.00000021    0.17880937
     atom    4 type  1   force =     0.15595201    0.00000021   -0.17880119
     atom    5 type  1   force =     0.16017240    0.00000025    0.31412101
     atom    6 type  2   force =     0.14435210    0.00000024    0.85415211
     atom    7 type  2   force =    -0.62556586    0.00000037   -0.77780176
     atom    8 type  3   force =    -0.05431818    0.00000035    0.33524088
     atom    9 type  3   force =     0.05426664   -0.00000035   -0.33524025
     atom   10 type  2   force =     0.62552242   -0.00000037    0.77781467
     atom   11 type  2   force =    -0.14429219   -0.00000024   -0.85416119
     atom   12 type  1   force =     0.00001138   -0.00000007    0.00000255
     atom   13 type  1   force =    -0.16014655    0.00000025   -0.31413583
     atom   14 type  1   force =    -0.15595487    0.00000021    0.17880935
     atom   15 type  1   force =     0.15595206   -0.00000021   -0.17880163
     atom   16 type  1   force =     0.16017274   -0.00000025    0.31412126
     atom   17 type  2   force =     0.14435170   -0.00000024    0.85415155
     atom   18 type  2   force =    -0.62556540   -0.00000037   -0.77780069
     atom   19 type  3   force =    -0.05431800   -0.00000035    0.33524013
     atom   20 type  3   force =     0.05426618    0.00000035   -0.33524030
     atom   21 type  2   force =     0.62552332    0.00000037    0.77781506
     atom   22 type  2   force =    -0.14429154    0.00000024   -0.85416132
     The local contribution  to forces
     atom    1 type  1   force =    -0.00001140   -0.00000005   -0.00000018
     atom    2 type  1   force =     0.14716230    0.00000021    0.31457674
     atom    3 type  1   force =     0.14783952    0.00000021   -0.18883590
     atom    4 type  1   force =    -0.14782877   -0.00000031    0.18882462
     atom    5 type  1   force =    -0.14718851   -0.00000028   -0.31455425
     atom    6 type  2   force =    -0.12449658   -0.00000017   -0.80574013
     atom    7 type  2   force =     0.61085886   -0.00000022    0.75889009
     atom    8 type  3   force =     0.04837475   -0.00000047   -0.32568801
     atom    9 type  3   force =    -0.04832260    0.00000029    0.32568541
     atom   10 type  2   force =    -0.61081655    0.00000031   -0.75890526
     atom   11 type  2   force =     0.12443524    0.00000028    0.80575266
     atom   12 type  1   force =    -0.00001161    0.00000005   -0.00000072
     atom   13 type  1   force =     0.14716150   -0.00000028    0.31457686
     atom   14 type  1   force =     0.14783925   -0.00000017   -0.18883613
     atom   15 type  1   force =    -0.14782937    0.00000026    0.18882464
     atom   16 type  1   force =    -0.14718883    0.00000034   -0.31455448
     atom   17 type  2   force =    -0.12449602    0.00000021   -0.80573968
     atom   18 type  2   force =     0.61085875    0.00000059    0.75888894
     atom   19 type  3   force =     0.04837514    0.00000043   -0.32568716
     atom   20 type  3   force =    -0.04832199   -0.00000025    0.32568581
     atom   21 type  2   force =    -0.61081774   -0.00000069   -0.75890525
     atom   22 type  2   force =     0.12443407   -0.00000032    0.80575280
     The core correction contribution to forces
     atom    1 type  1   force =    -0.00000015   -0.00000000    0.00000034
     atom    2 type  1   force =    -0.00171417    0.00000000    0.00056293
     atom    3 type  1   force =    -0.00071092    0.00000001   -0.00156896
     atom    4 type  1   force =     0.00071221   -0.00000002    0.00156831
     atom    5 type  1   force =     0.00171396   -0.00000001   -0.00056150
     atom    6 type  2   force =     0.00213754    0.00000001    0.00536896
     atom    7 type  2   force =    -0.00159853   -0.00000000   -0.00203591
     atom    8 type  3   force =    -0.00062538   -0.00000002    0.00094306
     atom    9 type  3   force =     0.00062555    0.00000001   -0.00094355
     atom   10 type  2   force =     0.00160547    0.00000001    0.00203324
     atom   11 type  2   force =    -0.00215214    0.00000001   -0.00536725
     atom   12 type  1   force =    -0.00000017   -0.00000000    0.00000033
     atom   13 type  1   force =    -0.00171423   -0.00000001    0.00056293
     atom   14 type  1   force =    -0.00071092    0.00000000   -0.00156899
     atom   15 type  1   force =     0.00071218    0.00000001    0.00156827
     atom   16 type  1   force =     0.00171398    0.00000002   -0.00056151
     atom   17 type  2   force =     0.00213755   -0.00000000    0.00536897
     atom   18 type  2   force =    -0.00159850    0.00000002   -0.00203592
     atom   19 type  3   force =    -0.00062536    0.00000001    0.00094305
     atom   20 type  3   force =     0.00062559    0.00000000   -0.00094348
     atom   21 type  2   force =     0.00160547   -0.00000002    0.00203327
     atom   22 type  2   force =    -0.00215218   -0.00000001   -0.00536728
     The Hubbard contrib.    to forces
     atom    1 type  1   force =     0.00000000    0.00000000    0.00000000
     atom    2 type  1   force =     0.00000000    0.00000000    0.00000000
     atom    3 type  1   force =     0.00000000    0.00000000    0.00000000
     atom    4 type  1   force =     0.00000000    0.00000000    0.00000000
     atom    5 type  1   force =     0.00000000    0.00000000    0.00000000
     atom    6 type  2   force =     0.00000000    0.00000000    0.00000000
     atom    7 type  2   force =     0.00000000    0.00000000    0.00000000
     atom    8 type  3   force =     0.00000000    0.00000000    0.00000000
     atom    9 type  3   force =     0.00000000    0.00000000    0.00000000
     atom   10 type  2   force =     0.00000000    0.00000000    0.00000000
     atom   11 type  2   force =     0.00000000    0.00000000    0.00000000
     atom   12 type  1   force =     0.00000000    0.00000000    0.00000000
     atom   13 type  1   force =     0.00000000    0.00000000    0.00000000
     atom   14 type  1   force =     0.00000000    0.00000000    0.00000000
     atom   15 type  1   force =     0.00000000    0.00000000    0.00000000
     atom   16 type  1   force =     0.00000000    0.00000000    0.00000000
     atom   17 type  2   force =     0.00000000    0.00000000    0.00000000
     atom   18 type  2   force =     0.00000000    0.00000000    0.00000000
     atom   19 type  3   force =     0.00000000    0.00000000    0.00000000
     atom   20 type  3   force =     0.00000000    0.00000000    0.00000000
     atom   21 type  2   force =     0.00000000    0.00000000    0.00000000
     atom   22 type  2   force =     0.00000000    0.00000000    0.00000000
     The SCF correction term to forces
     atom    1 type  1   force =     0.00000003    0.00000000   -0.00000000
     atom    2 type  1   force =     0.00000002   -0.00000000    0.00000001
     atom    3 type  1   force =     0.00000004    0.00000000   -0.00000002
     atom    4 type  1   force =    -0.00000004   -0.00000000    0.00000002
     atom    5 type  1   force =    -0.00000003    0.00000000   -0.00000001
     atom    6 type  2   force =     0.00000014   -0.00000000    0.00000003
     atom    7 type  2   force =     0.00000008    0.00000000   -0.00000006
     atom    8 type  3   force =    -0.00000004    0.00000001    0.00000007
     atom    9 type  3   force =     0.00000003   -0.00000001   -0.00000006
     atom   10 type  2   force =    -0.00000008    0.00000000    0.00000005
     atom   11 type  2   force =    -0.00000015    0.00000000   -0.00000002
     atom   12 type  1   force =    -0.00000003   -0.00000000    0.00000000
     atom   13 type  1   force =    -0.00000003   -0.00000000    0.00000001
     atom   14 type  1   force =     0.00000001   -0.00000000   -0.00000002
     atom   15 type  1   force =    -0.00000001   -0.00000000    0.00000002
     atom   16 type  1   force =     0.00000004    0.00000000   -0.00000001
     atom   17 type  2   force =     0.00000004    0.00000000    0.00000001
     atom   18 type  2   force =     0.00000003    0.00000000   -0.00000006
     atom   19 type  3   force =    -0.00000006    0.00000001    0.00000007
     atom   20 type  3   force =     0.00000005   -0.00000000   -0.00000007
     atom   21 type  2   force =    -0.00000003   -0.00000000    0.00000007
     atom   22 type  2   force =    -0.00000002    0.00000000   -0.00000003

     Total force =     0.003891     Total SCF correction =     0.000000


     Computing stress (Cartesian axis) and pressure

          total   stress  (Ry/bohr**3)                   (kbar)     P=   -3.88
  -0.00001738  -0.00000000  -0.00000522         -2.56     -0.00     -0.77
  -0.00000000  -0.00001462  -0.00000000         -0.00     -2.15     -0.00
  -0.00000522  -0.00000000  -0.00004709         -0.77     -0.00     -6.93

     kinetic stress (kbar)   1351.53     -0.00    -14.88
                               -0.00   1369.61     -0.00
                              -14.88     -0.00   1352.11

     local   stress (kbar)    -95.83     -0.00    -55.88
                               -0.00     56.14      0.00
                              -55.88      0.00    153.01

     nonloc. stress (kbar)   1077.62      0.00     -0.15
                                0.00   1065.29     -0.00
                               -0.15     -0.00   1072.30

     hartree stress (kbar)    181.95     -0.00      2.63
                               -0.00    167.72      0.00
                                2.63      0.00     92.26

     exc-cor stress (kbar)   1445.75      0.00      0.09
                                0.00   1445.09     -0.00
                                0.09     -0.00   1445.31

     corecor stress (kbar)  -2142.04     -0.00      0.28
                               -0.00  -2140.36      0.00
                                0.28      0.00  -2141.17

     ewald   stress (kbar)  -1821.54      0.00     67.15
                                0.00  -1965.64      0.00
                               67.15      0.00  -1980.75

     hubbard stress (kbar)      0.00      0.00      0.00
                                0.00      0.00      0.00
                                0.00      0.00      0.00

     london  stress (kbar)      0.00      0.00      0.00
                                0.00      0.00      0.00
                                0.00      0.00      0.00

     DFT-D3  stress (kbar)      0.00      0.00      0.00
                                0.00      0.00      0.00
                                0.00      0.00      0.00

     XDM     stress (kbar)      0.00      0.00      0.00
                                0.00      0.00      0.00
                                0.00      0.00      0.00

     dft-nl  stress (kbar)      0.00      0.00      0.00
                                0.00      0.00      0.00
                                0.00      0.00      0.00

     TS-vdW  stress (kbar)      0.00      0.00      0.00
                                0.00      0.00      0.00
                                0.00      0.00      0.00



     Writing output data file aiida.save/
 
     init_run     :     25.11s CPU     25.63s WALL (       1 calls)
     electrons    :    792.98s CPU    806.02s WALL (       1 calls)
     forces       :     10.11s CPU     10.21s WALL (       1 calls)
     stress       :     65.46s CPU     66.90s WALL (       1 calls)

     Called by init_run:
     wfcinit      :     22.47s CPU     22.92s WALL (       1 calls)
     wfcinit:atom :      0.16s CPU      0.18s WALL (     196 calls)
     wfcinit:wfcr :     20.99s CPU     21.34s WALL (     196 calls)
     potinit      :      0.91s CPU      0.92s WALL (       1 calls)
     hinit0       :      1.54s CPU      1.55s WALL (       1 calls)

     Called by electrons:
     c_bands      :    708.20s CPU    718.42s WALL (      17 calls)
     sum_band     :     78.68s CPU     80.53s WALL (      17 calls)
     v_of_rho     :      1.68s CPU      1.75s WALL (      18 calls)
     v_h          :      0.11s CPU      0.11s WALL (      18 calls)
     v_xc         :      1.71s CPU      1.80s WALL (      20 calls)
     newd         :      1.49s CPU      2.29s WALL (      18 calls)
     PAW_pot      :      2.29s CPU      2.30s WALL (      18 calls)
     mix_rho      :      0.59s CPU      0.65s WALL (      17 calls)

     Called by c_bands:
     init_us_2    :     24.09s CPU     24.53s WALL (    7252 calls)
     cegterg      :    571.54s CPU    579.02s WALL (    3332 calls)

     Called by sum_band:
     sum_band:bec :      0.46s CPU      0.46s WALL (    3332 calls)
     addusdens    :      1.47s CPU      2.23s WALL (      17 calls)

     Called by *egterg:
     h_psi        :    392.02s CPU    398.11s WALL (   15707 calls)
     s_psi        :     56.36s CPU     56.53s WALL (   15707 calls)
     g_psi        :      2.69s CPU      2.71s WALL (   12179 calls)
     cdiaghg      :     60.44s CPU     61.42s WALL (   15511 calls)
     cegterg:over :     33.08s CPU     33.36s WALL (   12179 calls)
     cegterg:upda :     23.37s CPU     23.58s WALL (   12179 calls)
     cegterg:last :      9.32s CPU      9.36s WALL (    3820 calls)
     cdiaghg:chol :      3.97s CPU      3.99s WALL (   15511 calls)
     cdiaghg:inve :      0.83s CPU      0.84s WALL (   15511 calls)
     cdiaghg:para :      7.91s CPU      7.98s WALL (   31022 calls)

     Called by h_psi:
     h_psi:pot    :    390.26s CPU    396.35s WALL (   15707 calls)
     h_psi:calbec :     57.18s CPU     57.81s WALL (   15707 calls)
     vloc_psi     :    275.51s CPU    280.83s WALL (   15707 calls)
     add_vuspsi   :     57.42s CPU     57.58s WALL (   15707 calls)

     General routines
     calbec       :    119.17s CPU    121.36s WALL (   20019 calls)
     fft          :      1.46s CPU      1.52s WALL (     258 calls)
     ffts         :      0.20s CPU      0.23s WALL (     285 calls)
     fftw         :    292.31s CPU    297.86s WALL (  905474 calls)
     interpolate  :      0.14s CPU      0.16s WALL (      18 calls)
 
     Parallel routines
     fft_scatt_xy :     35.57s CPU     36.28s WALL (  906017 calls)
     fft_scatt_yz :    119.00s CPU    121.41s WALL (  906017 calls)

     PAW routines
     PAW_pot      :      2.29s CPU      2.30s WALL (      18 calls)
 
     PWSCF        :  15m17.49s CPU  15m53.70s WALL

 
   This run was terminated on:  14:28:35  22Feb2020            

=------------------------------------------------------------------------------=
   JOB DONE.
=------------------------------------------------------------------------------=
