begin
comment 107 atoms, species Al107
lattice     22.9082299521    -0.0000000000    -0.0000000000
lattice     -0.0000000000    22.9082299521    -0.0000000000
lattice     -0.0000000000    -0.0000000000    22.9082299521
atom     -0.0094396597    -0.0094396597    -0.0124218351   Al  0.0 0.0    3.43821552e-07  3.43821564e-07  4.78356240e-07
atom     -0.0106128448     3.8105891833     3.8180383253   Al  0.0 0.0    2.27626880e-07  2.34993938e-07  1.63474578e-12
atom      3.8105891833    -0.0106128448     3.8180383253   Al  0.0 0.0    2.34993934e-07  2.27626875e-07  1.64249242e-12
atom      3.8130851045     3.8130851045    -0.0049532208   Al  0.0 0.0    8.35111968e-08  8.35111858e-08  8.35078873e-08
atom     -0.0094396597    -0.0094396597     7.6484984858   Al  0.0 0.0    3.43821553e-07  3.43821566e-07 -4.78357740e-07
atom     -0.0094396597     3.8056164902    11.4635546358   Al  0.0 0.0    3.43821495e-07  4.78359481e-07 -3.43823113e-07
atom      3.8056164902    -0.0094396597    11.4635546358   Al  0.0 0.0    4.78359478e-07  3.43821492e-07 -3.43823105e-07
atom      3.8130851045     3.8130851045     7.6410298715   Al  0.0 0.0    8.35112015e-08  8.35111897e-08 -8.35095119e-08
atom     -0.0738396022    -0.0738396022    15.2721533014   Al  0.0 0.0    1.09610223e-06  1.09610224e-06 -1.55550610e-14
atom     -0.0094396597     3.8056164902    19.0807519670   Al  0.0 0.0    3.43821484e-07  4.78359475e-07  3.43823085e-07
atom      3.8056164902    -0.0094396597    19.0807519670   Al  0.0 0.0    4.78359472e-07  3.43821480e-07  3.43823093e-07
atom      3.7897829264     3.7897829264    15.2721533014   Al  0.0 0.0    8.36841857e-07  8.36841845e-07 -1.16784228e-13
atom     -0.0106128448     7.6360766507    -0.0074491420   Al  0.0 0.0    2.27626883e-07  7.61757909e-14  2.34990650e-07
atom     -0.0106128448    11.4615641181     3.8180383253   Al  0.0 0.0    2.27626872e-07 -2.34992216e-07  1.65590572e-12
atom      3.8101098715     7.6360766507     3.8180383253   Al  0.0 0.0   -2.49486256e-07  6.86590930e-14  1.62733463e-12
atom      3.8130851045    11.4590681969    -0.0049532208   Al  0.0 0.0    8.35111990e-08 -8.35095043e-08  8.35079086e-08
atom     -0.0106128448     7.6360766507     7.6435257927   Al  0.0 0.0    2.27626875e-07  7.51432300e-14 -2.34992168e-07
atom     -0.0094396597    11.4665368112    11.4635546358   Al  0.0 0.0    3.43821533e-07 -4.78357779e-07 -3.43823130e-07
atom      3.8105891833     7.6360766507    11.4647278209   Al  0.0 0.0    2.34993935e-07  6.14460100e-14 -2.27628458e-07
atom      3.8130851045    11.4590681969     7.6410298715   Al  0.0 0.0    8.35112023e-08 -8.35095084e-08 -8.35094913e-08
atom     -0.0103202195     7.6360766507    15.2721533014   Al  0.0 0.0    2.68630217e-08  6.56164658e-14 -5.02805092e-14
atom     -0.0094396597    11.4665368112    19.0807519670   Al  0.0 0.0    3.43821523e-07 -4.78357772e-07  3.43823142e-07
atom      3.8105891833     7.6360766507    19.0795787819   Al  0.0 0.0    2.34993924e-07  6.15358801e-14  2.27628395e-07
atom      3.7897829264    11.4823703750    15.2721533014   Al  0.0 0.0    8.36841927e-07 -8.36840162e-07 -9.39040140e-14
atom     -0.0094396597    15.2815929612    -0.0124218351   Al  0.0 0.0    3.43821533e-07 -3.43823276e-07  4.78356204e-07
atom     -0.0103202195    19.0901916268     3.8180383253   Al  0.0 0.0    2.68630081e-08 -6.73023608e-14  1.67264090e-12
atom      3.8105891833    15.2827661463     3.8180383253   Al  0.0 0.0    2.34993940e-07 -2.27628591e-07  1.62187289e-12
atom      3.7897829264    19.0901916268    -0.0282553989   Al  0.0 0.0    8.36841951e-07 -8.47014574e-14  8.36838574e-07
atom     -0.0094396597    15.2815929612     7.6484984858   Al  0.0 0.0    3.43821534e-07 -3.43823275e-07 -4.78357745e-07
atom     -0.0738396022    19.0901916268    11.5279545783   Al  0.0 0.0    1.09610211e-06 -7.90355575e-14 -1.09610372e-06
atom      3.8056164902    15.2815929612    11.4635546358   Al  0.0 0.0    4.78359464e-07 -3.43823234e-07 -3.43823107e-07
atom      3.7897829264    19.0901916268     7.6643320496   Al  0.0 0.0    8.36841913e-07 -8.68264314e-14 -8.36840134e-07
atom     -0.0738396022    15.3459929036    15.2721533014   Al  0.0 0.0    1.09610212e-06 -1.09610383e-06 -4.28865122e-14
atom     -0.0738396022    19.0901916268    19.0163520246   Al  0.0 0.0    1.09610212e-06 -6.96580148e-14  1.09610372e-06
atom      3.8056164902    15.2815929612    19.0807519670   Al  0.0 0.0    4.78359456e-07 -3.43823223e-07  3.43823049e-07
atom      3.7957491976    19.0901916268    15.2721533014   Al  0.0 0.0    5.93879093e-07 -8.57103300e-14 -7.89342235e-14
atom      7.6360766507    -0.0106128448    -0.0074491420   Al  0.0 0.0    6.89575803e-14  2.27626886e-07  2.34990654e-07
atom      7.6360766507     3.8101098715     3.8180383253   Al  0.0 0.0    7.64149046e-14 -2.49486259e-07  1.62228027e-12
atom     11.4615641181    -0.0106128448     3.8180383253   Al  0.0 0.0   -2.34992224e-07  2.27626875e-07  1.65871656e-12
atom     11.4590681969     3.8130851045    -0.0049532208   Al  0.0 0.0   -8.35094966e-08  8.35111940e-08  8.35079045e-08
atom      7.6360766507    -0.0106128448     7.6435257927   Al  0.0 0.0    6.77873805e-14  2.27626878e-07 -2.34992163e-07
atom      7.6360766507     3.8105891833    11.4647278209   Al  0.0 0.0    6.88215607e-14  2.34993930e-07 -2.27628462e-07
atom     11.4665368112    -0.0094396597    11.4635546358   Al  0.0 0.0   -4.78357787e-07  3.43821536e-07 -3.43823125e-07
atom     11.4590681969     3.8130851045     7.6410298715   Al  0.0 0.0   -8.35095010e-08  8.35111984e-08 -8.35094946e-08
atom      7.6360766507    -0.0103202195    15.2721533014   Al  0.0 0.0    5.91425842e-14  2.68630259e-08 -4.62014658e-14
atom      7.6360766507     3.8105891833    19.0795787819   Al  0.0 0.0    6.90115563e-14  2.34993920e-07  2.27628391e-07
atom     11.4665368112    -0.0094396597    19.0807519670   Al  0.0 0.0   -4.78357779e-07  3.43821526e-07  3.43823147e-07
atom     11.4823703750     3.7897829264    15.2721533014   Al  0.0 0.0   -8.36840157e-07  8.36841921e-07 -9.79565739e-14
atom      7.6360766507     7.6360766507    -0.0079284539   Al  0.0 0.0    7.64494492e-14  7.75397714e-14 -2.49489517e-07
atom      7.6360766507    11.4620434299     3.8180383253   Al  0.0 0.0    7.60694582e-14  2.49487951e-07  1.64412273e-12
atom     11.4620434299     7.6360766507     3.8180383253   Al  0.0 0.0    2.49487951e-07  7.60710269e-14  1.64429775e-12
atom     11.4590681969    11.4590681969    -0.0049532208   Al  0.0 0.0   -8.35094974e-08 -8.35094970e-08  8.35079250e-08
atom      7.6360766507     7.6360766507     7.6440051046   Al  0.0 0.0    7.67322835e-14  7.75020209e-14  2.49487980e-07
atom      7.6360766507    11.4615641181    11.4647278209   Al  0.0 0.0    6.89036043e-14 -2.34992222e-07 -2.27628432e-07
atom     11.4615641181     7.6360766507    11.4647278209   Al  0.0 0.0   -2.34992224e-07  6.95002710e-14 -2.27628432e-07
atom     11.4590681969    11.4590681969     7.6410298715   Al  0.0 0.0   -8.35095017e-08 -8.35095015e-08 -8.35094738e-08
atom      7.6360766507     7.6360766507    15.2721533014   Al  0.0 0.0    8.19053435e-14  8.21616640e-14 -8.11815527e-14
atom      7.6360766507    11.4615641181    19.0795787819   Al  0.0 0.0    6.71547818e-14 -2.34992212e-07  2.27628404e-07
atom     11.4615641181     7.6360766507    19.0795787819   Al  0.0 0.0   -2.34992212e-07  6.79362700e-14  2.27628405e-07
atom     11.4823703750    11.4823703750    15.2721533014   Al  0.0 0.0   -8.36840227e-07 -8.36840226e-07 -7.61128801e-14
atom      7.6360766507    15.2827661463    -0.0074491420   Al  0.0 0.0    6.81652126e-14 -2.27628586e-07  2.34990636e-07
atom      7.6360766507    19.0901916268     3.8180383253   Al  0.0 0.0    8.14605812e-14 -8.56078416e-14  1.61071541e-12
atom     11.4615641181    15.2827661463     3.8180383253   Al  0.0 0.0   -2.34992229e-07 -2.27628575e-07  1.63872075e-12
atom     11.4823703750    19.0901916268    -0.0282553989   Al  0.0 0.0   -8.36840251e-07 -7.71473168e-14  8.36838660e-07
atom      7.6360766507    15.2827661463     7.6435257927   Al  0.0 0.0    6.82558922e-14 -2.27628578e-07 -2.34992189e-07
atom      7.6360766507    19.0901916268    11.4644351955   Al  0.0 0.0    5.85833928e-14 -7.62083795e-14 -2.68645999e-08
atom     11.4665368112    15.2815929612    11.4635546358   Al  0.0 0.0   -4.78357773e-07 -3.43823264e-07 -3.43823129e-07
atom     11.4823703750    19.0901916268     7.6643320496   Al  0.0 0.0   -8.36840214e-07 -7.87286281e-14 -8.36840187e-07
atom      7.6360766507    15.2824735209    15.2721533014   Al  0.0 0.0    5.82314693e-14 -2.68647397e-08 -6.82359111e-14
atom      7.6360766507    19.0901916268    19.0798714073   Al  0.0 0.0    5.91058805e-14 -7.55486066e-14  2.68645679e-08
atom     11.4665368112    15.2815929612    19.0807519670   Al  0.0 0.0   -4.78357763e-07 -3.43823253e-07  3.43823103e-07
atom     11.4764041038    19.0901916268    15.2721533014   Al  0.0 0.0   -5.93877386e-07 -7.69070519e-14 -6.21491883e-14
atom     15.2815929612    -0.0094396597    -0.0124218351   Al  0.0 0.0   -3.43823285e-07  3.43821535e-07  4.78356208e-07
atom     15.2827661463     3.8105891833     3.8180383253   Al  0.0 0.0   -2.27628585e-07  2.34993935e-07  1.61844146e-12
atom     19.0901916268    -0.0103202195     3.8180383253   Al  0.0 0.0   -7.51493023e-14  2.68630113e-08  1.67667792e-12
atom     19.0901916268     3.7897829264    -0.0282553989   Al  0.0 0.0   -7.63613714e-14  8.36841946e-07  8.36838571e-07
atom     15.2815929612    -0.0094396597     7.6484984858   Al  0.0 0.0   -3.43823283e-07  3.43821536e-07 -4.78357741e-07
atom     15.2815929612     3.8056164902    11.4635546358   Al  0.0 0.0   -3.43823227e-07  4.78359459e-07 -3.43823111e-07
atom     19.0901916268    -0.0738396022    11.5279545783   Al  0.0 0.0   -8.48508940e-14  1.09610212e-06 -1.09610371e-06
atom     19.0901916268     3.7897829264     7.6643320496   Al  0.0 0.0   -7.77228106e-14  8.36841907e-07 -8.36840138e-07
atom     15.3459929036    -0.0738396022    15.2721533014   Al  0.0 0.0   -1.09610384e-06  1.09610212e-06 -3.73680838e-14
atom     15.2815929612     3.8056164902    19.0807519670   Al  0.0 0.0   -3.43823217e-07  4.78359451e-07  3.43823045e-07
atom     19.0901916268    -0.0738396022    19.0163520246   Al  0.0 0.0   -7.75001216e-14  1.09610212e-06  1.09610372e-06
atom     19.0901916268     3.7957491976    15.2721533014   Al  0.0 0.0   -7.65292747e-14  5.93879088e-07 -8.31681168e-14
atom     15.2827661463     7.6360766507    -0.0074491420   Al  0.0 0.0   -2.27628588e-07  6.87450202e-14  2.34990636e-07
atom     15.2827661463    11.4615641181     3.8180383253   Al  0.0 0.0   -2.27628577e-07 -2.34992228e-07  1.63838580e-12
atom     19.0901916268     7.6360766507     3.8180383253   Al  0.0 0.0   -8.53148894e-14  8.06464252e-14  1.61081082e-12
atom     19.0901916268    11.4823703750    -0.0282553989   Al  0.0 0.0   -7.82476091e-14 -8.36840251e-07  8.36838661e-07
atom     15.2827661463     7.6360766507     7.6435257927   Al  0.0 0.0   -2.27628579e-07  6.80580786e-14 -2.34992189e-07
atom     15.2815929612    11.4665368112    11.4635546358   Al  0.0 0.0   -3.43823264e-07 -4.78357773e-07 -3.43823128e-07
atom     19.0901916268     7.6360766507    11.4644351955   Al  0.0 0.0   -7.59653309e-14  5.75740031e-14 -2.68645996e-08
atom     19.0901916268    11.4823703750     7.6643320496   Al  0.0 0.0   -7.81622638e-14 -8.36840215e-07 -8.36840187e-07
atom     15.2824735209     7.6360766507    15.2721533014   Al  0.0 0.0   -2.68647400e-08  5.89324236e-14 -6.73387617e-14
atom     15.2815929612    11.4665368112    19.0807519670   Al  0.0 0.0   -3.43823254e-07 -4.78357763e-07  3.43823103e-07
atom     19.0901916268     7.6360766507    19.0798714073   Al  0.0 0.0   -7.64904373e-14  5.83387690e-14  2.68645682e-08
atom     19.0901916268    11.4764041038    15.2721533014   Al  0.0 0.0   -7.78903808e-14 -5.93877385e-07 -6.28090015e-14
atom     15.2815929612    15.2815929612    -0.0124218351   Al  0.0 0.0   -3.43823264e-07 -3.43823264e-07  4.78356171e-07
atom     15.2824735209    19.0901916268     3.8180383253   Al  0.0 0.0   -2.68647261e-08 -7.61798644e-14  1.65537120e-12
atom     19.0901916268    15.2824735209     3.8180383253   Al  0.0 0.0   -7.61812307e-14 -2.68647259e-08  1.65501822e-12
atom     19.0901916268    19.0901916268    -0.0222891277   Al  0.0 0.0   -7.59145724e-14 -7.65607272e-14  5.93875771e-07
atom     15.2815929612    15.2815929612     7.6484984858   Al  0.0 0.0   -3.43823265e-07 -3.43823263e-07 -4.78357746e-07
atom     15.3459929036    19.0901916268    11.5279545783   Al  0.0 0.0   -1.09610371e-06 -8.85012994e-14 -1.09610361e-06
atom     19.0901916268    15.3459929036    11.5279545783   Al  0.0 0.0   -8.78533554e-14 -1.09610371e-06 -1.09610361e-06
atom     19.0901916268    19.0901916268     7.6583657784   Al  0.0 0.0   -7.77436799e-14 -7.80974135e-14 -5.93877336e-07
atom     15.3459929036    15.3459929036    15.2721533014   Al  0.0 0.0   -1.09610372e-06 -1.09610372e-06 -6.45908248e-14
atom     15.3459929036    19.0901916268    19.0163520246   Al  0.0 0.0   -1.09610374e-06 -8.01546066e-14  1.09610359e-06
atom     19.0901916268    15.3459929036    19.0163520246   Al  0.0 0.0   -8.18579711e-14 -1.09610374e-06  1.09610359e-06
energy -2.113373198785202e+03
charge 0.0000
end
