begin
comment 108 atoms, species Al107Mg
lattice     22.9427234994    -0.0000000000     0.0000000000
lattice     -0.0000000000    22.9427234994     0.0000000000
lattice      0.0000000000     0.0000000000    22.9427234994
atom      0.0000000000     0.0000000000    -0.0000000000   Mg  0.0 0.0    1.23233364e-12  6.19518191e-13  8.32922568e-13
atom      0.0000000000     3.8676980111     3.8676980111   Al  0.0 0.0    1.04597502e-12 -1.33056439e-06 -1.33056392e-06
atom      3.8676980111    -0.0000000000     3.8676980111   Al  0.0 0.0   -1.33056474e-06 -1.10024095e-12 -1.33056532e-06
atom      3.8676980111     3.8676980111    -0.0000000000   Al  0.0 0.0   -1.33056454e-06 -1.33056429e-06 -4.54298847e-13
atom      0.0000000000     0.0000000000     7.6480352783   Al  0.0 0.0    1.38384752e-12 -1.99034292e-12 -5.95523580e-07
atom      0.0000000000     3.8219957194    11.4713617497   Al  0.0 0.0    1.39701334e-12 -4.46668395e-07  5.17764038e-13
atom      3.8219957194     0.0000000000    11.4713617497   Al  0.0 0.0   -4.46669291e-07 -1.12966790e-12 -1.00736186e-12
atom      3.8305456431     3.8305456431     7.6616172669   Al  0.0 0.0    6.13622948e-07  6.13623720e-07  3.17670012e-07
atom      0.0000000000     0.0000000000    15.2946882211   Al  0.0 0.0    1.59839780e-12 -2.02063317e-12  5.95523290e-07
atom     -0.0000000000     3.8676980111    19.0750254883   Al  0.0 0.0   -1.21966116e-12 -1.33056339e-06  1.33056469e-06
atom      3.8676980111     0.0000000000    19.0750254883   Al  0.0 0.0   -1.33056428e-06 -1.46298038e-12  1.33056315e-06
atom      3.8305456431     3.8305456431    15.2811062325   Al  0.0 0.0    6.13623733e-07  6.13623203e-07 -3.17669227e-07
atom      0.0000000000     7.6480352783    -0.0000000000   Al  0.0 0.0    1.36252916e-12 -5.95524101e-07 -9.60746491e-13
atom      0.0000000000    11.4713617497     3.8219957194   Al  0.0 0.0    1.41793876e-12 -2.31233732e-13 -4.46667964e-07
atom      3.8305456430     7.6616172669     3.8305456431   Al  0.0 0.0    6.13622950e-07  3.17669576e-07  6.13623656e-07
atom      3.8219957194    11.4713617497     0.0000000000   Al  0.0 0.0   -4.46669019e-07  8.99944368e-14 -9.12229029e-13
atom      0.0000000000     7.6573879849     7.6573879849   Al  0.0 0.0    1.41831227e-12  5.10330926e-07  5.10331265e-07
atom     -0.0000000000    11.4713617497    11.4713617497   Al  0.0 0.0   -1.40115222e-12  2.87744227e-13 -9.74110178e-14
atom      3.8255515563     7.6505683151    11.4713617497   Al  0.0 0.0    1.11218240e-06  8.79664006e-07 -3.02472596e-13
atom      3.8255515563    11.4713617497     7.6505683151   Al  0.0 0.0    1.11218240e-06 -4.40854241e-13  8.79664169e-07
atom     -0.0000000000     7.6573879849    15.2853355145   Al  0.0 0.0   -1.39922852e-12  5.10331450e-07 -5.10331376e-07
atom     -0.0000000000    11.4713617497    19.1207277800   Al  0.0 0.0   -1.34691066e-12  5.21557665e-13  4.46669067e-07
atom      3.8305456431     7.6616172669    19.1121778563   Al  0.0 0.0    6.13623433e-07  3.17669249e-07 -6.13622573e-07
atom      3.8255515563    11.4713617497    15.2921551843   Al  0.0 0.0    1.11218311e-06 -1.74818782e-13 -8.79664239e-07
atom      0.0000000000    15.2946882211     0.0000000000   Al  0.0 0.0    1.27734531e-12  5.95523055e-07 -9.73572909e-13
atom     -0.0000000000    19.0750254883     3.8676980111   Al  0.0 0.0   -1.53823399e-12  1.33056538e-06 -1.33056406e-06
atom      3.8305456430    15.2811062325     3.8305456431   Al  0.0 0.0    6.13623748e-07 -3.17669886e-07  6.13623379e-07
atom      3.8676980111    19.0750254883     0.0000000000   Al  0.0 0.0   -1.33056420e-06  1.33056420e-06 -9.54556187e-13
atom     -0.0000000000    15.2853355145     7.6573879849   Al  0.0 0.0   -1.38942864e-12 -5.10330919e-07  5.10331069e-07
atom     -0.0000000000    19.1207277800    11.4713617497   Al  0.0 0.0   -1.33882506e-12  4.46670023e-07 -3.31418205e-13
atom      3.8255515563    15.2921551843    11.4713617497   Al  0.0 0.0    1.11218313e-06 -8.79664607e-07  2.11040020e-13
atom      3.8305456430    19.1121778563     7.6616172669   Al  0.0 0.0    6.13623145e-07 -6.13622691e-07  3.17669804e-07
atom     -0.0000000000    15.2853355145    15.2853355145   Al  0.0 0.0   -1.50037091e-12 -5.10330889e-07 -5.10331319e-07
atom     -0.0000000000    19.0750254883    19.0750254883   Al  0.0 0.0   -5.84417598e-13  1.33056464e-06  1.33056326e-06
atom      3.8305456431    15.2811062325    19.1121778564   Al  0.0 0.0    6.13623465e-07 -3.17669622e-07 -6.13622524e-07
atom      3.8305456430    19.1121778564    15.2811062325   Al  0.0 0.0    6.13623141e-07 -6.13622691e-07 -3.17669062e-07
atom      7.6480352783     0.0000000000     0.0000000000   Al  0.0 0.0   -5.95523949e-07  1.28384855e-12  2.54288624e-12
atom      7.6616172669     3.8305456430     3.8305456431   Al  0.0 0.0    3.17670221e-07  6.13622978e-07  6.13622846e-07
atom     11.4713617497     0.0000000000     3.8219957194   Al  0.0 0.0    3.10340063e-13  1.82587939e-12 -4.46668368e-07
atom     11.4713617497     3.8219957194     0.0000000000   Al  0.0 0.0   -1.27086579e-14 -4.46668820e-07  2.03892719e-12
atom      7.6573879849     0.0000000000     7.6573879849   Al  0.0 0.0    5.10331522e-07  1.23808147e-12  5.10332412e-07
atom      7.6505683151     3.8255515563    11.4713617497   Al  0.0 0.0    8.79664380e-07  1.11218242e-06 -1.31368185e-13
atom     11.4713617497    -0.0000000000    11.4713617497   Al  0.0 0.0    1.50928370e-14 -1.38126053e-12 -1.05772846e-12
atom     11.4713617497     3.8255515563     7.6505683151   Al  0.0 0.0   -3.92593813e-13  1.11218211e-06  8.79664223e-07
atom      7.6573879849     0.0000000000    15.2853355145   Al  0.0 0.0    5.10331101e-07  1.26175322e-12 -5.10329662e-07
atom      7.6616172669     3.8305456431    19.1121778563   Al  0.0 0.0    3.17669114e-07  6.13623341e-07 -6.13623862e-07
atom     11.4713617497     0.0000000000    19.1207277800   Al  0.0 0.0   -3.10619005e-13 -1.74317930e-12  4.46667155e-07
atom     11.4713617497     3.8255515563    15.2921551843   Al  0.0 0.0   -3.86881221e-13  1.11218273e-06 -8.79663978e-07
atom      7.6573879849     7.6573879849     0.0000000000   Al  0.0 0.0    5.10331146e-07  5.10331143e-07  1.22899292e-12
atom      7.6505683151    11.4713617497     3.8255515563   Al  0.0 0.0    8.79664401e-07  5.96581372e-14  1.11218243e-06
atom     11.4713617497     7.6505683151     3.8255515563   Al  0.0 0.0   -3.91674889e-13  8.79664062e-07  1.11218241e-06
atom     11.4713617497    11.4713617497     0.0000000000   Al  0.0 0.0    2.33051211e-14 -1.38152471e-15 -1.35264284e-12
atom      7.6503979113     7.6503979113     7.6503979114   Al  0.0 0.0    5.23152566e-07  5.23152584e-07  5.23152551e-07
atom      7.6477795371    11.4713617497    11.4713617497   Al  0.0 0.0    3.86316219e-07  8.59256036e-14  6.66404667e-14
atom     11.4713617497     7.6477795371    11.4713617497   Al  0.0 0.0    3.26007964e-14  3.86316262e-07 -2.10509248e-14
atom     11.4713617497    11.4713617497     7.6477795371   Al  0.0 0.0    3.86434898e-14  1.38925815e-14  3.86316244e-07
atom      7.6503979113     7.6503979114    15.2923255881   Al  0.0 0.0    5.23152629e-07  5.23152519e-07 -5.23152662e-07
atom      7.6505683151    11.4713617497    19.1171719431   Al  0.0 0.0    8.79664440e-07  7.86565490e-15 -1.11218243e-06
atom     11.4713617497     7.6505683151    19.1171719431   Al  0.0 0.0    3.73266403e-13  8.79664859e-07 -1.11218241e-06
atom     11.4713617497    11.4713617497    15.2949439623   Al  0.0 0.0   -1.15938132e-14  6.51336157e-15 -3.86316188e-07
atom      7.6573879849    15.2853355145     0.0000000000   Al  0.0 0.0    5.10331122e-07 -5.10331163e-07  1.25359725e-12
atom      7.6616172669    19.1121778563     3.8305456431   Al  0.0 0.0    3.17669074e-07 -6.13623676e-07  6.13622831e-07
atom     11.4713617497    15.2921551843     3.8255515563   Al  0.0 0.0   -4.03381474e-13 -8.79664478e-07  1.11218275e-06
atom     11.4713617497    19.1207277800     0.0000000000   Al  0.0 0.0   -2.01888968e-14  4.46668115e-07 -1.86454727e-12
atom      7.6503979113    15.2923255880     7.6503979114   Al  0.0 0.0    5.23152632e-07 -5.23152600e-07  5.23152512e-07
atom      7.6505683151    19.1171719431    11.4713617497   Al  0.0 0.0    8.79664450e-07 -1.11218245e-06 -5.63811644e-13
atom     11.4713617497    15.2949439623    11.4713617497   Al  0.0 0.0   -7.31729457e-15 -3.86316172e-07  1.25609145e-14
atom     11.4713617497    19.1171719431     7.6505683151   Al  0.0 0.0    3.55184953e-13 -1.11218211e-06  8.79664703e-07
atom      7.6503979113    15.2923255881    15.2923255881   Al  0.0 0.0    5.23152563e-07 -5.23152678e-07 -5.23152723e-07
atom      7.6616172669    19.1121778564    19.1121778564   Al  0.0 0.0    3.17669541e-07 -6.13623278e-07 -6.13623790e-07
atom     11.4713617497    15.2921551843    19.1171719431   Al  0.0 0.0    3.88663399e-13 -8.79664295e-07 -1.11218202e-06
atom     11.4713617497    19.1171719431    15.2921551843   Al  0.0 0.0    4.14208047e-13 -1.11218203e-06 -8.79664185e-07
atom     15.2946882211     0.0000000000     0.0000000000   Al  0.0 0.0    5.95524217e-07  1.35340513e-12  2.48912942e-12
atom     15.2811062325     3.8305456430     3.8305456431   Al  0.0 0.0   -3.17669824e-07  6.13622648e-07  6.13622811e-07
atom     19.0750254883    -0.0000000000     3.8676980111   Al  0.0 0.0    1.33056362e-06 -1.54308401e-12 -1.33056569e-06
atom     19.0750254883     3.8676980111     0.0000000000   Al  0.0 0.0    1.33056371e-06 -1.33056451e-06  7.18951204e-13
atom     15.2853355145    -0.0000000000     7.6573879849   Al  0.0 0.0   -5.10331548e-07 -1.41828083e-12  5.10330462e-07
atom     15.2921551843     3.8255515563    11.4713617497   Al  0.0 0.0   -8.79664381e-07  1.11218306e-06  4.25519137e-13
atom     19.1207277800    -0.0000000000    11.4713617497   Al  0.0 0.0    4.46668596e-07 -1.75958526e-12 -6.23428798e-13
atom     19.1121778563     3.8305456430     7.6616172669   Al  0.0 0.0   -6.13623970e-07  6.13624278e-07  3.17669663e-07
atom     15.2853355145    -0.0000000000    15.2853355145   Al  0.0 0.0   -5.10331590e-07 -1.40918490e-12 -5.10331964e-07
atom     15.2811062325     3.8305456431    19.1121778563   Al  0.0 0.0   -3.17668972e-07  6.13623950e-07 -6.13623138e-07
atom     19.0750254883     0.0000000000    19.0750254883   Al  0.0 0.0    1.33056456e-06  1.25984224e-12  1.33056479e-06
atom     19.1121778563     3.8305456431    15.2811062325   Al  0.0 0.0   -6.13623366e-07  6.13624411e-07 -3.17668704e-07
atom     15.2853355145     7.6573879849     0.0000000000   Al  0.0 0.0   -5.10331201e-07  5.10331159e-07 -1.30743068e-12
atom     15.2921551843    11.4713617497     3.8255515563   Al  0.0 0.0   -8.79664423e-07 -1.30448138e-14  1.11218307e-06
atom     19.1121778563     7.6616172669     3.8305456431   Al  0.0 0.0   -6.13623978e-07  3.17669334e-07  6.13623507e-07
atom     19.1207277800    11.4713617497     0.0000000000   Al  0.0 0.0    4.46668328e-07  2.74815871e-13 -1.87220416e-12
atom     15.2923255880     7.6503979113     7.6503979114   Al  0.0 0.0   -5.23152579e-07  5.23152631e-07  5.23152635e-07
atom     15.2949439623    11.4713617497    11.4713617497   Al  0.0 0.0   -3.86316225e-07  1.25789404e-14 -1.25619531e-14
atom     19.1171719431     7.6505683151    11.4713617497   Al  0.0 0.0   -1.11218244e-06  8.79664832e-07  2.74473064e-13
atom     19.1171719431    11.4713617497     7.6505683151   Al  0.0 0.0   -1.11218245e-06  4.90208965e-13  8.79664688e-07
atom     15.2923255880     7.6503979114    15.2923255881   Al  0.0 0.0   -5.23152597e-07  5.23152565e-07 -5.23152608e-07
atom     15.2921551843    11.4713617497    19.1171719431   Al  0.0 0.0   -8.79664404e-07 -8.42532787e-15 -1.11218168e-06
atom     19.1121778563     7.6616172669    19.1121778564   Al  0.0 0.0   -6.13623120e-07  3.17669651e-07 -6.13623460e-07
atom     19.1171719431    11.4713617497    15.2921551843   Al  0.0 0.0   -1.11218169e-06  2.31421220e-14 -8.79664417e-07
atom     15.2853355145    15.2853355145     0.0000000000   Al  0.0 0.0   -5.10331218e-07 -5.10331212e-07 -1.36902666e-12
atom     15.2811062325    19.1121778563     3.8305456431   Al  0.0 0.0   -3.17668607e-07 -6.13622682e-07  6.13623487e-07
atom     19.1121778563    15.2811062325     3.8305456431   Al  0.0 0.0   -6.13623350e-07 -3.17668553e-07  6.13623917e-07
atom     19.0750254883    19.0750254883     0.0000000000   Al  0.0 0.0    1.33056403e-06  1.33056428e-06  1.45380415e-12
atom     15.2923255880    15.2923255880     7.6503979114   Al  0.0 0.0   -5.23152612e-07 -5.23152604e-07  5.23152582e-07
atom     15.2921551843    19.1171719431    11.4713617497   Al  0.0 0.0   -8.79664408e-07 -1.11218168e-06  8.02565968e-14
atom     19.1171719431    15.2921551843    11.4713617497   Al  0.0 0.0   -1.11218171e-06 -8.79664482e-07  5.84476964e-14
atom     19.1121778563    19.1121778563     7.6616172669   Al  0.0 0.0   -6.13622809e-07 -6.13622911e-07  3.17669414e-07
atom     15.2923255880    15.2923255881    15.2923255881   Al  0.0 0.0   -5.23152570e-07 -5.23152537e-07 -5.23152571e-07
atom     15.2811062325    19.1121778563    19.1121778564   Al  0.0 0.0   -3.17670245e-07 -6.13623981e-07 -6.13623837e-07
atom     19.1121778563    15.2811062325    19.1121778564   Al  0.0 0.0   -6.13623106e-07 -3.17669908e-07 -6.13623383e-07
atom     19.1121778563    19.1121778563    15.2811062326   Al  0.0 0.0   -6.13622818e-07 -6.13623547e-07 -3.17670068e-07
energy -2.130202806671558e+03
charge 0.0000
end
