begin
comment 108 atoms, species Al107Si
lattice     22.9103356030    -0.0000000000    -0.0000000000
lattice     -0.0000000000    22.9103356030    -0.0000000000
lattice     -0.0000000000    -0.0000000000    22.9103356030
atom      0.0000000000     0.0000000000     0.0000000000   Si  0.0 0.0   -1.07039808e-13 -1.39864774e-13 -1.32354688e-13
atom     -0.0000000000     3.7946241754     3.7946241754   Al  0.0 0.0    4.42687413e-13 -4.38786028e-07 -4.38786040e-07
atom      3.7946241754    -0.0000000000     3.7946241754   Al  0.0 0.0   -4.38786040e-07  4.32953437e-13 -4.38786048e-07
atom      3.7946241754     3.7946241754    -0.0000000000   Al  0.0 0.0   -4.38786039e-07 -4.38786052e-07  4.36639570e-13
atom     -0.0000000000    -0.0000000000     7.6246847943   Al  0.0 0.0    4.58701014e-13  4.69163992e-13 -1.56254723e-06
atom     -0.0000000000     3.8143617245    11.4551678015   Al  0.0 0.0    4.58718286e-13 -4.30063257e-07 -7.27222514e-16
atom      3.8143617245    -0.0000000000    11.4551678015   Al  0.0 0.0   -4.30063265e-07  4.49843012e-13 -2.35238997e-15
atom      3.8165352115     3.8165352115     7.6312293607   Al  0.0 0.0   -9.64338552e-07 -9.64338565e-07 -3.10460181e-07
atom     -0.0000000000    -0.0000000000    15.2856508087   Al  0.0 0.0    4.58459201e-13  4.68739200e-13  1.56254732e-06
atom     -0.0000000000     3.7946241754    19.1157114276   Al  0.0 0.0    4.42691732e-13 -4.38786276e-07  4.38785767e-07
atom      3.7946241754    -0.0000000000    19.1157114276   Al  0.0 0.0   -4.38786290e-07  4.32049360e-13  4.38785770e-07
atom      3.8165352115     3.8165352115    15.2791062423   Al  0.0 0.0   -9.64338535e-07 -9.64338546e-07  3.10460136e-07
atom     -0.0000000000     7.6246847943    -0.0000000000   Al  0.0 0.0    4.58275683e-13 -1.56254723e-06  4.64507127e-13
atom     -0.0000000000    11.4551678015     3.8143617245   Al  0.0 0.0    4.59119867e-13  8.39817665e-15 -4.30063266e-07
atom      3.8165352115     7.6312293607     3.8165352115   Al  0.0 0.0   -9.64338553e-07 -3.10460186e-07 -9.64338562e-07
atom      3.8143617245    11.4551678015    -0.0000000000   Al  0.0 0.0   -4.30063267e-07 -1.12943244e-14  4.56701982e-13
atom     -0.0000000000     7.6270792037     7.6270792037   Al  0.0 0.0    4.60972324e-13 -6.90429947e-07 -6.90429949e-07
atom     -0.0000000000    11.4551678015    11.4551678015   Al  0.0 0.0    4.62634785e-13 -1.95241317e-17 -5.24368208e-15
atom      3.8161089224     7.6347722808    11.4551678015   Al  0.0 0.0   -1.10161048e-06 -6.11465976e-07  8.69170815e-16
atom      3.8161089224    11.4551678015     7.6347722808   Al  0.0 0.0   -1.10161048e-06 -3.55648716e-15 -6.11465968e-07
atom     -0.0000000000     7.6270792037    15.2832563994   Al  0.0 0.0    4.60950733e-13 -6.90429950e-07  6.90429963e-07
atom     -0.0000000000    11.4551678015    19.0959738785   Al  0.0 0.0    4.58020916e-13  6.79740026e-15  4.30062805e-07
atom      3.8165352115     7.6312293607    19.0938003916   Al  0.0 0.0   -9.64338547e-07 -3.10460168e-07  9.64338076e-07
atom      3.8161089224    11.4551678015    15.2755633222   Al  0.0 0.0   -1.10161048e-06 -6.01752294e-15  6.11465975e-07
atom     -0.0000000000    15.2856508087    -0.0000000000   Al  0.0 0.0    4.58813284e-13  1.56254732e-06  4.65030497e-13
atom     -0.0000000000    19.1157114276     3.7946241754   Al  0.0 0.0    4.44200901e-13  4.38785775e-07 -4.38786284e-07
atom      3.8165352115    15.2791062423     3.8165352115   Al  0.0 0.0   -9.64338536e-07  3.10460134e-07 -9.64338543e-07
atom      3.7946241754    19.1157114276    -0.0000000000   Al  0.0 0.0   -4.38786292e-07  4.38785765e-07  4.40018530e-13
atom     -0.0000000000    15.2832563994     7.6270792037   Al  0.0 0.0    4.61704238e-13  6.90429968e-07 -6.90429955e-07
atom     -0.0000000000    19.0959738785    11.4551678015   Al  0.0 0.0    4.59307704e-13  4.30062813e-07  1.83840535e-15
atom      3.8161089224    15.2755633222    11.4551678015   Al  0.0 0.0   -1.10161048e-06  6.11465969e-07 -2.33276949e-16
atom      3.8165352115    19.0938003916     7.6312293607   Al  0.0 0.0   -9.64338547e-07  9.64338072e-07 -3.10460161e-07
atom     -0.0000000000    15.2832563994    15.2832563994   Al  0.0 0.0    4.59862577e-13  6.90429971e-07  6.90429968e-07
atom     -0.0000000000    19.1157114276    19.1157114276   Al  0.0 0.0    4.42730594e-13  4.38786023e-07  4.38786016e-07
atom      3.8165352115    15.2791062423    19.0938003916   Al  0.0 0.0   -9.64338529e-07  3.10460118e-07  9.64338059e-07
atom      3.8165352115    19.0938003916    15.2791062423   Al  0.0 0.0   -9.64338530e-07  9.64338055e-07  3.10460122e-07
atom      7.6246847943    -0.0000000000    -0.0000000000   Al  0.0 0.0   -1.56254724e-06  4.59606602e-13  4.64219594e-13
atom      7.6312293607     3.8165352115     3.8165352115   Al  0.0 0.0   -3.10460173e-07 -9.64338555e-07 -9.64338560e-07
atom     11.4551678015    -0.0000000000     3.8143617245   Al  0.0 0.0   -1.85991180e-15  4.59739879e-13 -4.30063266e-07
atom     11.4551678015     3.8143617245    -0.0000000000   Al  0.0 0.0   -2.25427396e-15 -4.30063267e-07  4.57264344e-13
atom      7.6270792037    -0.0000000000     7.6270792037   Al  0.0 0.0   -6.90429955e-07  4.62312616e-13 -6.90429951e-07
atom      7.6347722808     3.8161089224    11.4551678015   Al  0.0 0.0   -6.11465962e-07 -1.10161048e-06  2.98743273e-15
atom     11.4551678015    -0.0000000000    11.4551678015   Al  0.0 0.0   -9.37148203e-15  4.64079617e-13 -5.74743209e-15
atom     11.4551678015     3.8161089224     7.6347722808   Al  0.0 0.0    4.85713168e-15 -1.10161048e-06 -6.11465967e-07
atom      7.6270792037    -0.0000000000    15.2832563994   Al  0.0 0.0   -6.90429955e-07  4.63201687e-13  6.90429962e-07
atom      7.6312293607     3.8165352115    19.0938003916   Al  0.0 0.0   -3.10460153e-07 -9.64338548e-07  9.64338076e-07
atom     11.4551678015    -0.0000000000    19.0959738785   Al  0.0 0.0   -2.72639530e-15  4.60370417e-13  4.30062804e-07
atom     11.4551678015     3.8161089224    15.2755633222   Al  0.0 0.0    3.86562628e-15 -1.10161048e-06  6.11465976e-07
atom      7.6270792037     7.6270792037    -0.0000000000   Al  0.0 0.0   -6.90429953e-07 -6.90429958e-07  4.62113354e-13
atom      7.6347722808    11.4551678015     3.8161089224   Al  0.0 0.0   -6.11465962e-07  6.45621553e-15 -1.10161048e-06
atom     11.4551678015     7.6347722808     3.8161089224   Al  0.0 0.0    4.06145795e-15 -6.11465967e-07 -1.10161048e-06
atom     11.4551678015    11.4551678015    -0.0000000000   Al  0.0 0.0   -9.98916989e-15 -9.88867543e-15  4.63394803e-13
atom      7.6371663533     7.6371663533     7.6371663533   Al  0.0 0.0   -4.81879593e-07 -4.81879596e-07 -4.81879593e-07
atom      7.6371965270    11.4551678015    11.4551678015   Al  0.0 0.0   -8.19223468e-07  2.60564725e-15  3.10093232e-15
atom     11.4551678015     7.6371965270    11.4551678015   Al  0.0 0.0    2.20222085e-15 -8.19223473e-07  3.77308780e-15
atom     11.4551678015    11.4551678015     7.6371965270   Al  0.0 0.0    2.68827475e-15  2.29816847e-15 -8.19223469e-07
atom      7.6371663533     7.6371663533    15.2731692498   Al  0.0 0.0   -4.81879590e-07 -4.81879594e-07  4.81879604e-07
atom      7.6347722808    11.4551678015    19.0942266807   Al  0.0 0.0   -6.11465960e-07  4.79668331e-15  1.10161001e-06
atom     11.4551678015     7.6347722808    19.0942266807   Al  0.0 0.0    4.00926991e-15 -6.11465965e-07  1.10161001e-06
atom     11.4551678015    11.4551678015    15.2731390761   Al  0.0 0.0    2.26301133e-15  2.25734595e-15  8.19223476e-07
atom      7.6270792037    15.2832563994    -0.0000000000   Al  0.0 0.0   -6.90429956e-07  6.90429960e-07  4.63285308e-13
atom      7.6312293607    19.0938003916     3.8165352115   Al  0.0 0.0   -3.10460155e-07  9.64338082e-07 -9.64338552e-07
atom     11.4551678015    15.2755633222     3.8161089224   Al  0.0 0.0    4.44387792e-15  6.11465980e-07 -1.10161048e-06
atom     11.4551678015    19.0959738785    -0.0000000000   Al  0.0 0.0   -2.70520972e-15  4.30062802e-07  4.60703303e-13
atom      7.6371663533    15.2731692498     7.6371663533   Al  0.0 0.0   -4.81879591e-07  4.81879604e-07 -4.81879592e-07
atom      7.6347722808    19.0942266807    11.4551678015   Al  0.0 0.0   -6.11465961e-07  1.10161002e-06  5.25442370e-15
atom     11.4551678015    15.2731390761    11.4551678015   Al  0.0 0.0    3.18404432e-15  8.19223476e-07  3.14040181e-15
atom     11.4551678015    19.0942266807     7.6347722808   Al  0.0 0.0    5.23027453e-15  1.10161001e-06 -6.11465962e-07
atom      7.6371663533    15.2731692498    15.2731692498   Al  0.0 0.0   -4.81879588e-07  4.81879601e-07  4.81879602e-07
atom      7.6312293607    19.0938003916    19.0938003916   Al  0.0 0.0   -3.10460136e-07  9.64338077e-07  9.64338075e-07
atom     11.4551678015    15.2755633222    19.0942266807   Al  0.0 0.0    4.19859073e-15  6.11465977e-07  1.10161001e-06
atom     11.4551678015    19.0942266807    15.2755633222   Al  0.0 0.0    4.80170508e-15  1.10161001e-06  6.11465977e-07
atom     15.2856508087    -0.0000000000    -0.0000000000   Al  0.0 0.0    1.56254731e-06  4.59794500e-13  4.63688516e-13
atom     15.2791062423     3.8165352115     3.8165352115   Al  0.0 0.0    3.10460144e-07 -9.64338538e-07 -9.64338543e-07
atom     19.1157114276    -0.0000000000     3.7946241754   Al  0.0 0.0    4.38785756e-07  4.42029063e-13 -4.38786279e-07
atom     19.1157114276     3.7946241754    -0.0000000000   Al  0.0 0.0    4.38785757e-07 -4.38786280e-07  4.40247013e-13
atom     15.2832563994    -0.0000000000     7.6270792037   Al  0.0 0.0    6.90429958e-07  4.61185132e-13 -6.90429954e-07
atom     15.2755633222     3.8161089224    11.4551678015   Al  0.0 0.0    6.11465977e-07 -1.10161048e-06  2.20833772e-15
atom     19.0959738785    -0.0000000000    11.4551678015   Al  0.0 0.0    4.30062798e-07  4.59337655e-13  1.10311592e-15
atom     19.0938003916     3.8165352115     7.6312293607   Al  0.0 0.0    9.64338078e-07 -9.64338550e-07 -3.10460161e-07
atom     15.2832563994    -0.0000000000    15.2832563994   Al  0.0 0.0    6.90429960e-07  4.62289035e-13  6.90429965e-07
atom     15.2791062423     3.8165352115    19.0938003916   Al  0.0 0.0    3.10460126e-07 -9.64338532e-07  9.64338060e-07
atom     19.1157114276    -0.0000000000    19.1157114276   Al  0.0 0.0    4.38786005e-07  4.41644219e-13  4.38786009e-07
atom     19.0938003916     3.8165352115    15.2791062423   Al  0.0 0.0    9.64338062e-07 -9.64338532e-07  3.10460124e-07
atom     15.2832563994     7.6270792037    -0.0000000000   Al  0.0 0.0    6.90429957e-07 -6.90429961e-07  4.62255742e-13
atom     15.2755633222    11.4551678015     3.8161089224   Al  0.0 0.0    6.11465977e-07  5.88392707e-15 -1.10161048e-06
atom     19.0938003916     7.6312293607     3.8165352115   Al  0.0 0.0    9.64338080e-07 -3.10460161e-07 -9.64338552e-07
atom     19.0959738785    11.4551678015    -0.0000000000   Al  0.0 0.0    4.30062800e-07 -3.13982114e-15  4.60388301e-13
atom     15.2731692498     7.6371663533     7.6371663533   Al  0.0 0.0    4.81879602e-07 -4.81879594e-07 -4.81879591e-07
atom     15.2731390761    11.4551678015    11.4551678015   Al  0.0 0.0    8.19223474e-07  2.61071903e-15  3.63620728e-15
atom     19.0942266807     7.6347722808    11.4551678015   Al  0.0 0.0    1.10161001e-06 -6.11465965e-07  5.64234725e-15
atom     19.0942266807    11.4551678015     7.6347722808   Al  0.0 0.0    1.10161001e-06  4.91922881e-15 -6.11465963e-07
atom     15.2731692498     7.6371663533    15.2731692498   Al  0.0 0.0    4.81879600e-07 -4.81879593e-07  4.81879602e-07
atom     15.2755633222    11.4551678015    19.0942266807   Al  0.0 0.0    6.11465976e-07  5.11392936e-15  1.10161001e-06
atom     19.0938003916     7.6312293607    19.0938003916   Al  0.0 0.0    9.64338073e-07 -3.10460143e-07  9.64338075e-07
atom     19.0942266807    11.4551678015    15.2755633222   Al  0.0 0.0    1.10161001e-06  5.16405430e-15  6.11465977e-07
atom     15.2832563994    15.2832563994    -0.0000000000   Al  0.0 0.0    6.90429960e-07  6.90429962e-07  4.63468509e-13
atom     15.2791062423    19.0938003916     3.8165352115   Al  0.0 0.0    3.10460127e-07  9.64338065e-07 -9.64338533e-07
atom     19.0938003916    15.2791062423     3.8165352115   Al  0.0 0.0    9.64338062e-07  3.10460127e-07 -9.64338533e-07
atom     19.1157114276    19.1157114276    -0.0000000000   Al  0.0 0.0    4.38786008e-07  4.38786009e-07  4.43255024e-13
atom     15.2731692498    15.2731692498     7.6371663533   Al  0.0 0.0    4.81879599e-07  4.81879602e-07 -4.81879591e-07
atom     15.2755633222    19.0942266807    11.4551678015   Al  0.0 0.0    6.11465975e-07  1.10161001e-06  5.21905618e-15
atom     19.0942266807    15.2755633222    11.4551678015   Al  0.0 0.0    1.10161001e-06  6.11465977e-07  5.61042441e-15
atom     19.0938003916    19.0938003916     7.6312293607   Al  0.0 0.0    9.64338073e-07  9.64338076e-07 -3.10460141e-07
atom     15.2731692498    15.2731692498    15.2731692498   Al  0.0 0.0    4.81879599e-07  4.81879599e-07  4.81879600e-07
atom     15.2791062423    19.0938003916    19.0938003916   Al  0.0 0.0    3.10460110e-07  9.64338058e-07  9.64338056e-07
atom     19.0938003916    15.2791062423    19.0938003916   Al  0.0 0.0    9.64338055e-07  3.10460110e-07  9.64338055e-07
atom     19.0938003916    19.0938003916    15.2791062423   Al  0.0 0.0    9.64338055e-07  9.64338057e-07  3.10460111e-07
energy -2.119092756377912e+03
charge 0.0000
end
