
     Program PWSCF v.6.3 starts on 26Feb2020 at 23: 4:30 

     This program is part of the open-source Quantum ESPRESSO suite
     for quantum simulation of materials; please cite
         "P. Giannozzi et al., J. Phys.:Condens. Matter 21 395502 (2009);
         "P. Giannozzi et al., J. Phys.:Condens. Matter 29 465901 (2017);
          URL http://www.quantum-espresso.org", 
     in publications or presentations arising from this work. More details at
     http://www.quantum-espresso.org/quote

 *** WARNING: using old-style file format, will disappear from next version ***

     Parallel version (MPI & OpenMP), running on     288 processor cores
     Number of MPI processes:               288
     Threads/MPI process:                     1

     MPI processes distributed on     8 nodes
     K-points division:     npool     =      36
     R & G space division:  proc/nbgrp/npool/nimage =       8
     Reading input from aiida.in
Warning: card &IONS ignored
Warning: card   !PRESS_CONV_THR = 0.05                 ! JUST FOR VOLUME RELAXATIONS ignored
Warning: card / ignored

     Current dimensions of program PWSCF are:
     Max number of different atomic species (ntypx) = 10
     Max number of k-points (npk) =  40000
     Max angular momentum in pseudopotentials (lmaxx) =  3
               file Al.pbe-n-kjpaw_psl.1.0.0.UPF: wavefunction(s)  3S 3P renormalized
               file Mg.pbe-n-kjpaw_psl.0.3.0.UPF: wavefunction(s)  3S renormalized

     Subspace diagonalization in iterative solution of the eigenvalue problem:
     one sub-group per band group will be used
     scalapack distributed-memory algorithm (size of sub-group:  2*  2 procs)

 
     Parallelization info
     --------------------
     sticks:   dense  smooth     PW     G-vecs:    dense   smooth      PW
     Min        3740    1497    390               486920   123201   16474
     Max        3741    1498    391               486925   123204   16481
     Sum       29921   11977   3125              3895379   985619  131827
 


     bravais-lattice index     =            0
     lattice parameter (alat)  =      30.6665  a.u.
     unit-cell volume          =   28839.7502 (a.u.)^3
     number of atoms/cell      =          255
     number of atomic types    =            2
     number of electrons       =       764.00
     number of Kohn-Sham states=          458
     kinetic-energy cutoff     =      40.0000  Ry
     charge density cutoff     =     400.0000  Ry
     convergence threshold     =      1.0E-12
     mixing beta               =       0.4000
     number of iterations used =            8  local-TF  mixing
     Exchange-correlation      = SLA PW PBX PBC ( 1  4  3  4 0 0)

     celldm(1)=  30.666473  celldm(2)=   0.000000  celldm(3)=   0.000000
     celldm(4)=   0.000000  celldm(5)=   0.000000  celldm(6)=   0.000000

     crystal axes: (cart. coord. in units of alat)
               a(1) = (   1.000000   0.000000   0.000000 )  
               a(2) = (   0.000000   1.000000   0.000000 )  
               a(3) = (   0.000000   0.000000   1.000000 )  

     reciprocal axes: (cart. coord. in units 2 pi/alat)
               b(1) = (  1.000000  0.000000  0.000000 )  
               b(2) = (  0.000000  1.000000  0.000000 )  
               b(3) = (  0.000000  0.000000  1.000000 )  


     PseudoPot. # 1 for Al read from file:
     /users/aglensk/Dropbox/Albert/scripts/dotfiles/scripts/potentials/quantum_espresso/pseudo_SSSPefV1.1_alalloy/Al.pbe-n-kjpaw_psl.1.0.0.UPF
     MD5 check sum: cfc449ca30b5f3223ec38ddd88ac046d
     Pseudo is Projector augmented-wave + core cor, Zval =  3.0
     Generated using "atomic" code by A. Dal Corso v.5.1
     Shape of augmentation charge: PSQ
     Using radial grid of 1135 points,  6 beta functions with: 
                l(1) =   0
                l(2) =   0
                l(3) =   1
                l(4) =   1
                l(5) =   2
                l(6) =   2
     Q(r) pseudized with 0 coefficients 


     PseudoPot. # 2 for Mg read from file:
     /users/aglensk/Dropbox/Albert/scripts/dotfiles/scripts/potentials/quantum_espresso/pseudo_SSSPefV1.1_alalloy/Mg.pbe-n-kjpaw_psl.0.3.0.UPF
     MD5 check sum: 24ecedc7f3e3cbe212e682f4413594e4
     Pseudo is Projector augmented-wave + core cor, Zval =  2.0
     Generated using "atomic" code by A. Dal Corso v.5.0.99 svn rev. 10869
     Shape of augmentation charge: PSQ
     Using radial grid of 1129 points,  4 beta functions with: 
                l(1) =   0
                l(2) =   0
                l(3) =   1
                l(4) =   1
     Q(r) pseudized with 0 coefficients 


     atomic species   valence    mass     pseudopotential
        Al             3.00    26.98154     Al( 1.00)
        Mg             2.00    24.30500     Mg( 1.00)

     No symmetry found


                                    s                        frac. trans.

      isym =  1     identity                                     

 cryst.   s( 1) = (     1          0          0      )
                  (     0          1          0      )
                  (     0          0          1      )

 cart.    s( 1) = (  1.0000000  0.0000000  0.0000000 )
                  (  0.0000000  1.0000000  0.0000000 )
                  (  0.0000000  0.0000000  1.0000000 )


   Cartesian axes

     site n.     atom                  positions (alat units)
         1           Al  tau(   1) = (   0.1232894   0.9995883   0.1232894  )
         2           Al  tau(   2) = (   0.1245615   0.1215596   0.0000000  )
         3           Al  tau(   3) = (   0.0000000   0.1215596   0.1245615  )
         4           Al  tau(   4) = (   0.0000000   0.9998722   0.2498461  )
         5           Al  tau(   5) = (   0.1251262   0.1249419   0.2504726  )
         6           Al  tau(   6) = (   0.1249788   0.9999802   0.3750484  )
         7           Al  tau(   7) = (   0.0000000   0.1249879   0.3751357  )
         8           Al  tau(   8) = (   0.0000000   0.9999747   0.5000000  )
         9           Al  tau(   9) = (   0.1250095   0.1250124   0.5000000  )
        10           Al  tau(  10) = (   0.1249788   0.9999802   0.6249516  )
        11           Al  tau(  11) = (   0.0000000   0.1249879   0.6248643  )
        12           Al  tau(  12) = (   0.0000000   0.9998722   0.7501539  )
        13           Al  tau(  13) = (   0.1251262   0.1249419   0.7495274  )
        14           Al  tau(  14) = (   0.1232894   0.9995883   0.8767106  )
        15           Al  tau(  15) = (   0.0000000   0.1215596   0.8754385  )
        16           Mg  tau(  16) = (   0.0000000   0.2496598   0.0000000  )
        17           Al  tau(  17) = (   0.1264760   0.3764935   0.0000000  )
        18           Al  tau(  18) = (   0.1266126   0.2502551   0.1266126  )
        19           Al  tau(  19) = (   0.0000000   0.3764935   0.1264760  )
        20           Al  tau(  20) = (   0.0000000   0.2495992   0.2497309  )
        21           Al  tau(  21) = (   0.1250429   0.3750499   0.2503026  )
        22           Al  tau(  22) = (   0.1249613   0.2500047   0.3750432  )
        23           Al  tau(  23) = (   0.0000000   0.3750049   0.3750988  )
        24           Al  tau(  24) = (   0.0000000   0.2500158   0.5000000  )
        25           Al  tau(  25) = (   0.1250139   0.3750254   0.5000000  )
        26           Al  tau(  26) = (   0.1249613   0.2500047   0.6249568  )
        27           Al  tau(  27) = (   0.0000000   0.3750049   0.6249012  )
        28           Al  tau(  28) = (   0.0000000   0.2495992   0.7502691  )
        29           Al  tau(  29) = (   0.1250429   0.3750499   0.7496974  )
        30           Al  tau(  30) = (   0.1266126   0.2502551   0.8733874  )
        31           Al  tau(  31) = (   0.0000000   0.3764935   0.8735240  )
        32           Al  tau(  32) = (   0.0000000   0.5001364   0.0000000  )
        33           Al  tau(  33) = (   0.1249871   0.6250328   0.0000000  )
        34           Al  tau(  34) = (   0.1251139   0.5003020   0.1251139  )
        35           Al  tau(  35) = (   0.0000000   0.6250328   0.1249871  )
        36           Al  tau(  36) = (   0.0000000   0.5001415   0.2501505  )
        37           Al  tau(  37) = (   0.1249525   0.6250417   0.2500158  )
        38           Al  tau(  38) = (   0.1250097   0.5000223   0.3750305  )
        39           Al  tau(  39) = (   0.0000000   0.6250086   0.3750101  )
        40           Al  tau(  40) = (   0.0000000   0.5000236   0.5000000  )
        41           Al  tau(  41) = (   0.1250123   0.6249776   0.5000000  )
        42           Al  tau(  42) = (   0.1250097   0.5000223   0.6249696  )
        43           Al  tau(  43) = (   0.0000000   0.6250086   0.6249899  )
        44           Al  tau(  44) = (   0.0000000   0.5001415   0.7498495  )
        45           Al  tau(  45) = (   0.1249525   0.6250417   0.7499842  )
        46           Al  tau(  46) = (   0.1251139   0.5003020   0.8748861  )
        47           Al  tau(  47) = (   0.0000000   0.6250328   0.8750129  )
        48           Al  tau(  48) = (   0.0000000   0.7503058   0.0000000  )
        49           Al  tau(  49) = (   0.1230597   0.8769149   0.0000000  )
        50           Al  tau(  50) = (   0.1250402   0.7498076   0.1250402  )
        51           Al  tau(  51) = (   0.0000000   0.8769149   0.1230597  )
        52           Al  tau(  52) = (   0.0000000   0.7503931   0.2496220  )
        53           Al  tau(  53) = (   0.1250070   0.8749741   0.2501955  )
        54           Al  tau(  54) = (   0.1249718   0.7499909   0.3749672  )
        55           Al  tau(  55) = (   0.0000000   0.8749974   0.3750760  )
        56           Al  tau(  56) = (   0.0000000   0.7499858   0.5000000  )
        57           Al  tau(  57) = (   0.1250208   0.8749855   0.5000000  )
        58           Al  tau(  58) = (   0.1249718   0.7499909   0.6250328  )
        59           Al  tau(  59) = (   0.0000000   0.8749974   0.6249240  )
        60           Al  tau(  60) = (   0.0000000   0.7503931   0.7503780  )
        61           Al  tau(  61) = (   0.1250070   0.8749741   0.7498045  )
        62           Al  tau(  62) = (   0.1250402   0.7498076   0.8749598  )
        63           Al  tau(  63) = (   0.0000000   0.8769149   0.8769403  )
        64           Al  tau(  64) = (   0.2498461   0.9998722   0.0000000  )
        65           Al  tau(  65) = (   0.3751357   0.1249879   0.0000000  )
        66           Al  tau(  66) = (   0.3750484   0.9999802   0.1249788  )
        67           Al  tau(  67) = (   0.2504726   0.1249419   0.1251262  )
        68           Al  tau(  68) = (   0.2496228   0.9999964   0.2496228  )
        69           Al  tau(  69) = (   0.3749566   0.1249695   0.2500220  )
        70           Al  tau(  70) = (   0.3749927   0.0000097   0.3749927  )
        71           Al  tau(  71) = (   0.2500220   0.1249695   0.3749566  )
        72           Al  tau(  72) = (   0.2500239   0.9999897   0.5000000  )
        73           Al  tau(  73) = (   0.3750218   0.1250072   0.5000000  )
        74           Al  tau(  74) = (   0.3749927   0.0000097   0.6250073  )
        75           Al  tau(  75) = (   0.2500220   0.1249695   0.6250434  )
        76           Al  tau(  76) = (   0.2496228   0.9999964   0.7503772  )
        77           Al  tau(  77) = (   0.3749566   0.1249695   0.7499780  )
        78           Al  tau(  78) = (   0.3750484   0.9999802   0.8750212  )
        79           Al  tau(  79) = (   0.2504726   0.1249419   0.8748738  )
        80           Al  tau(  80) = (   0.2497309   0.2495992   0.0000000  )
        81           Al  tau(  81) = (   0.3750988   0.3750049   0.0000000  )
        82           Al  tau(  82) = (   0.3750432   0.2500047   0.1249613  )
        83           Al  tau(  83) = (   0.2503026   0.3750499   0.1250429  )
        84           Al  tau(  84) = (   0.2502657   0.2501155   0.2502657  )
        85           Al  tau(  85) = (   0.3749903   0.3749850   0.2499937  )
        86           Al  tau(  86) = (   0.3750049   0.2499809   0.3750049  )
        87           Al  tau(  87) = (   0.2499937   0.3749850   0.3749903  )
        88           Al  tau(  88) = (   0.2500343   0.2500104   0.5000000  )
        89           Al  tau(  89) = (   0.3749916   0.3749952   0.5000000  )
        90           Al  tau(  90) = (   0.3750049   0.2499809   0.6249951  )
        91           Al  tau(  91) = (   0.2499937   0.3749850   0.6250097  )
        92           Al  tau(  92) = (   0.2502657   0.2501155   0.7497343  )
        93           Al  tau(  93) = (   0.3749903   0.3749850   0.7500063  )
        94           Al  tau(  94) = (   0.3750432   0.2500047   0.8750387  )
        95           Al  tau(  95) = (   0.2503026   0.3750499   0.8749571  )
        96           Al  tau(  96) = (   0.2501505   0.5001415   0.0000000  )
        97           Al  tau(  97) = (   0.3750101   0.6250086   0.0000000  )
        98           Al  tau(  98) = (   0.3750305   0.5000223   0.1250097  )
        99           Al  tau(  99) = (   0.2500158   0.6250417   0.1249525  )
       100           Al  tau( 100) = (   0.2500162   0.5000056   0.2500162  )
       101           Al  tau( 101) = (   0.3749913   0.6249963   0.2499715  )
       102           Al  tau( 102) = (   0.3749816   0.4999904   0.3749816  )
       103           Al  tau( 103) = (   0.2499715   0.6249963   0.3749913  )
       104           Al  tau( 104) = (   0.2500576   0.5000161   0.5000000  )
       105           Al  tau( 105) = (   0.3750002   0.6250176   0.5000000  )
       106           Al  tau( 106) = (   0.3749816   0.4999904   0.6250184  )
       107           Al  tau( 107) = (   0.2499715   0.6249963   0.6250087  )
       108           Al  tau( 108) = (   0.2500162   0.5000056   0.7499838  )
       109           Al  tau( 109) = (   0.3749913   0.6249963   0.7500285  )
       110           Al  tau( 110) = (   0.3750305   0.5000223   0.8749903  )
       111           Al  tau( 111) = (   0.2500158   0.6250417   0.8750475  )
       112           Al  tau( 112) = (   0.2496220   0.7503931   0.0000000  )
       113           Al  tau( 113) = (   0.3750760   0.8749974   0.0000000  )
       114           Al  tau( 114) = (   0.3749672   0.7499909   0.1249718  )
       115           Al  tau( 115) = (   0.2501955   0.8749741   0.1250070  )
       116           Al  tau( 116) = (   0.2501291   0.7498850   0.2501291  )
       117           Al  tau( 117) = (   0.3749448   0.8750490   0.2499879  )
       118           Al  tau( 118) = (   0.3750027   0.7500197   0.3750027  )
       119           Al  tau( 119) = (   0.2499879   0.8750490   0.3749448  )
       120           Al  tau( 120) = (   0.2500295   0.7499851   0.5000000  )
       121           Al  tau( 121) = (   0.3750310   0.8749801   0.5000000  )
       122           Al  tau( 122) = (   0.3750027   0.7500197   0.6249974  )
       123           Al  tau( 123) = (   0.2499879   0.8750490   0.6250552  )
       124           Al  tau( 124) = (   0.2501291   0.7498850   0.7498709  )
       125           Al  tau( 125) = (   0.3749448   0.8750490   0.7500121  )
       126           Al  tau( 126) = (   0.3749672   0.7499909   0.8750283  )
       127           Al  tau( 127) = (   0.2501955   0.8749741   0.8749930  )
       128           Al  tau( 128) = (   0.5000000   0.9999747   0.0000000  )
       129           Al  tau( 129) = (   0.6248643   0.1249879   0.0000000  )
       130           Al  tau( 130) = (   0.6249516   0.9999802   0.1249788  )
       131           Al  tau( 131) = (   0.5000000   0.1250124   0.1250095  )
       132           Al  tau( 132) = (   0.5000000   0.9999897   0.2500239  )
       133           Al  tau( 133) = (   0.6250434   0.1249695   0.2500220  )
       134           Al  tau( 134) = (   0.6250073   0.0000097   0.3749927  )
       135           Al  tau( 135) = (   0.5000000   0.1250072   0.3750218  )
       136           Al  tau( 136) = (   0.5000000   0.9999860   0.5000000  )
       137           Al  tau( 137) = (   0.6249782   0.1250072   0.5000000  )
       138           Al  tau( 138) = (   0.6250073   0.0000097   0.6250073  )
       139           Al  tau( 139) = (   0.5000000   0.1250072   0.6249782  )
       140           Al  tau( 140) = (   0.5000000   0.9999897   0.7499761  )
       141           Al  tau( 141) = (   0.6250434   0.1249695   0.7499780  )
       142           Al  tau( 142) = (   0.6249516   0.9999802   0.8750212  )
       143           Al  tau( 143) = (   0.5000000   0.1250124   0.8749905  )
       144           Al  tau( 144) = (   0.5000000   0.2500158   0.0000000  )
       145           Al  tau( 145) = (   0.6249012   0.3750049   0.0000000  )
       146           Al  tau( 146) = (   0.6249568   0.2500047   0.1249613  )
       147           Al  tau( 147) = (   0.5000000   0.3750254   0.1250139  )
       148           Al  tau( 148) = (   0.5000000   0.2500104   0.2500343  )
       149           Al  tau( 149) = (   0.6250097   0.3749850   0.2499937  )
       150           Al  tau( 150) = (   0.6249951   0.2499809   0.3750049  )
       151           Al  tau( 151) = (   0.5000000   0.3749952   0.3749916  )
       152           Al  tau( 152) = (   0.5000000   0.2500409   0.5000000  )
       153           Al  tau( 153) = (   0.6250084   0.3749952   0.5000000  )
       154           Al  tau( 154) = (   0.6249951   0.2499809   0.6249951  )
       155           Al  tau( 155) = (   0.5000000   0.3749952   0.6250084  )
       156           Al  tau( 156) = (   0.5000000   0.2500104   0.7499657  )
       157           Al  tau( 157) = (   0.6250097   0.3749850   0.7500063  )
       158           Al  tau( 158) = (   0.6249568   0.2500047   0.8750387  )
       159           Al  tau( 159) = (   0.5000000   0.3750254   0.8749861  )
       160           Al  tau( 160) = (   0.5000000   0.5000236   0.0000000  )
       161           Al  tau( 161) = (   0.6249899   0.6250086   0.0000000  )
       162           Al  tau( 162) = (   0.6249696   0.5000223   0.1250097  )
       163           Al  tau( 163) = (   0.5000000   0.6249776   0.1250123  )
       164           Al  tau( 164) = (   0.5000000   0.5000161   0.2500576  )
       165           Al  tau( 165) = (   0.6250087   0.6249963   0.2499715  )
       166           Al  tau( 166) = (   0.6250184   0.4999904   0.3749816  )
       167           Al  tau( 167) = (   0.5000000   0.6250176   0.3750002  )
       168           Al  tau( 168) = (   0.5000000   0.5000168   0.5000000  )
       169           Al  tau( 169) = (   0.6249998   0.6250176   0.5000000  )
       170           Al  tau( 170) = (   0.6250184   0.4999904   0.6250184  )
       171           Al  tau( 171) = (   0.5000000   0.6250176   0.6249998  )
       172           Al  tau( 172) = (   0.5000000   0.5000161   0.7499424  )
       173           Al  tau( 173) = (   0.6250087   0.6249963   0.7500285  )
       174           Al  tau( 174) = (   0.6249696   0.5000223   0.8749903  )
       175           Al  tau( 175) = (   0.5000000   0.6249776   0.8749877  )
       176           Al  tau( 176) = (   0.5000000   0.7499858   0.0000000  )
       177           Al  tau( 177) = (   0.6249240   0.8749974   0.0000000  )
       178           Al  tau( 178) = (   0.6250328   0.7499909   0.1249718  )
       179           Al  tau( 179) = (   0.5000000   0.8749855   0.1250208  )
       180           Al  tau( 180) = (   0.5000000   0.7499851   0.2500295  )
       181           Al  tau( 181) = (   0.6250552   0.8750490   0.2499879  )
       182           Al  tau( 182) = (   0.6249974   0.7500197   0.3750027  )
       183           Al  tau( 183) = (   0.5000000   0.8749801   0.3750310  )
       184           Al  tau( 184) = (   0.5000000   0.7499550   0.5000000  )
       185           Al  tau( 185) = (   0.6249690   0.8749801   0.5000000  )
       186           Al  tau( 186) = (   0.6249974   0.7500197   0.6249974  )
       187           Al  tau( 187) = (   0.5000000   0.8749801   0.6249690  )
       188           Al  tau( 188) = (   0.5000000   0.7499851   0.7499705  )
       189           Al  tau( 189) = (   0.6250552   0.8750490   0.7500121  )
       190           Al  tau( 190) = (   0.6250328   0.7499909   0.8750283  )
       191           Al  tau( 191) = (   0.5000000   0.8749855   0.8749792  )
       192           Al  tau( 192) = (   0.7501539   0.9998722   0.0000000  )
       193           Al  tau( 193) = (   0.8754385   0.1215596   0.0000000  )
       194           Al  tau( 194) = (   0.8767106   0.9995883   0.1232894  )
       195           Al  tau( 195) = (   0.7495274   0.1249419   0.1251262  )
       196           Al  tau( 196) = (   0.7503772   0.9999964   0.2496228  )
       197           Al  tau( 197) = (   0.8748738   0.1249419   0.2504726  )
       198           Al  tau( 198) = (   0.8750212   0.9999802   0.3750484  )
       199           Al  tau( 199) = (   0.7499780   0.1249695   0.3749566  )
       200           Al  tau( 200) = (   0.7499761   0.9999897   0.5000000  )
       201           Al  tau( 201) = (   0.8749905   0.1250124   0.5000000  )
       202           Al  tau( 202) = (   0.8750212   0.9999802   0.6249516  )
       203           Al  tau( 203) = (   0.7499780   0.1249695   0.6250434  )
       204           Al  tau( 204) = (   0.7503772   0.9999964   0.7503772  )
       205           Al  tau( 205) = (   0.8748738   0.1249419   0.7495274  )
       206           Al  tau( 206) = (   0.8767106   0.9995883   0.8767106  )
       207           Al  tau( 207) = (   0.7495274   0.1249419   0.8748738  )
       208           Al  tau( 208) = (   0.7502691   0.2495992   0.0000000  )
       209           Al  tau( 209) = (   0.8735240   0.3764935   0.0000000  )
       210           Al  tau( 210) = (   0.8733874   0.2502551   0.1266126  )
       211           Al  tau( 211) = (   0.7496974   0.3750499   0.1250429  )
       212           Al  tau( 212) = (   0.7497343   0.2501155   0.2502657  )
       213           Al  tau( 213) = (   0.8749571   0.3750499   0.2503026  )
       214           Al  tau( 214) = (   0.8750387   0.2500047   0.3750432  )
       215           Al  tau( 215) = (   0.7500063   0.3749850   0.3749903  )
       216           Al  tau( 216) = (   0.7499657   0.2500104   0.5000000  )
       217           Al  tau( 217) = (   0.8749861   0.3750254   0.5000000  )
       218           Al  tau( 218) = (   0.8750387   0.2500047   0.6249568  )
       219           Al  tau( 219) = (   0.7500063   0.3749850   0.6250097  )
       220           Al  tau( 220) = (   0.7497343   0.2501155   0.7497343  )
       221           Al  tau( 221) = (   0.8749571   0.3750499   0.7496974  )
       222           Al  tau( 222) = (   0.8733874   0.2502551   0.8733874  )
       223           Al  tau( 223) = (   0.7496974   0.3750499   0.8749571  )
       224           Al  tau( 224) = (   0.7498495   0.5001415   0.0000000  )
       225           Al  tau( 225) = (   0.8750129   0.6250328   0.0000000  )
       226           Al  tau( 226) = (   0.8748861   0.5003020   0.1251139  )
       227           Al  tau( 227) = (   0.7499842   0.6250417   0.1249525  )
       228           Al  tau( 228) = (   0.7499838   0.5000056   0.2500162  )
       229           Al  tau( 229) = (   0.8750475   0.6250417   0.2500158  )
       230           Al  tau( 230) = (   0.8749903   0.5000223   0.3750305  )
       231           Al  tau( 231) = (   0.7500285   0.6249963   0.3749913  )
       232           Al  tau( 232) = (   0.7499424   0.5000161   0.5000000  )
       233           Al  tau( 233) = (   0.8749877   0.6249776   0.5000000  )
       234           Al  tau( 234) = (   0.8749903   0.5000223   0.6249696  )
       235           Al  tau( 235) = (   0.7500285   0.6249963   0.6250087  )
       236           Al  tau( 236) = (   0.7499838   0.5000056   0.7499838  )
       237           Al  tau( 237) = (   0.8750475   0.6250417   0.7499842  )
       238           Al  tau( 238) = (   0.8748861   0.5003020   0.8748861  )
       239           Al  tau( 239) = (   0.7499842   0.6250417   0.8750475  )
       240           Al  tau( 240) = (   0.7503780   0.7503931   0.0000000  )
       241           Al  tau( 241) = (   0.8769403   0.8769149   0.0000000  )
       242           Al  tau( 242) = (   0.8749598   0.7498076   0.1250402  )
       243           Al  tau( 243) = (   0.7498045   0.8749741   0.1250070  )
       244           Al  tau( 244) = (   0.7498709   0.7498850   0.2501291  )
       245           Al  tau( 245) = (   0.8749930   0.8749741   0.2501955  )
       246           Al  tau( 246) = (   0.8750283   0.7499909   0.3749672  )
       247           Al  tau( 247) = (   0.7500121   0.8750490   0.3749448  )
       248           Al  tau( 248) = (   0.7499705   0.7499851   0.5000000  )
       249           Al  tau( 249) = (   0.8749792   0.8749855   0.5000000  )
       250           Al  tau( 250) = (   0.8750283   0.7499909   0.6250328  )
       251           Al  tau( 251) = (   0.7500121   0.8750490   0.6250552  )
       252           Al  tau( 252) = (   0.7498709   0.7498850   0.7498709  )
       253           Al  tau( 253) = (   0.8749930   0.8749741   0.7498045  )
       254           Al  tau( 254) = (   0.8749598   0.7498076   0.8749598  )
       255           Al  tau( 255) = (   0.7498045   0.8749741   0.8749930  )

   Crystallographic axes

     site n.     atom                  positions (cryst. coord.)
         1           Al  tau(   1) = (  0.1232894  0.9995883  0.1232894  )
         2           Al  tau(   2) = (  0.1245615  0.1215596  0.0000000  )
         3           Al  tau(   3) = (  0.0000000  0.1215596  0.1245615  )
         4           Al  tau(   4) = (  0.0000000  0.9998722  0.2498461  )
         5           Al  tau(   5) = (  0.1251262  0.1249419  0.2504726  )
         6           Al  tau(   6) = (  0.1249788  0.9999802  0.3750484  )
         7           Al  tau(   7) = (  0.0000000  0.1249879  0.3751357  )
         8           Al  tau(   8) = (  0.0000000  0.9999747  0.5000000  )
         9           Al  tau(   9) = (  0.1250095  0.1250124  0.5000000  )
        10           Al  tau(  10) = (  0.1249788  0.9999802  0.6249516  )
        11           Al  tau(  11) = (  0.0000000  0.1249879  0.6248643  )
        12           Al  tau(  12) = (  0.0000000  0.9998722  0.7501539  )
        13           Al  tau(  13) = (  0.1251262  0.1249419  0.7495274  )
        14           Al  tau(  14) = (  0.1232894  0.9995883  0.8767106  )
        15           Al  tau(  15) = (  0.0000000  0.1215596  0.8754385  )
        16           Mg  tau(  16) = (  0.0000000  0.2496598  0.0000000  )
        17           Al  tau(  17) = (  0.1264760  0.3764935  0.0000000  )
        18           Al  tau(  18) = (  0.1266126  0.2502551  0.1266126  )
        19           Al  tau(  19) = (  0.0000000  0.3764935  0.1264760  )
        20           Al  tau(  20) = (  0.0000000  0.2495992  0.2497309  )
        21           Al  tau(  21) = (  0.1250429  0.3750499  0.2503026  )
        22           Al  tau(  22) = (  0.1249613  0.2500047  0.3750432  )
        23           Al  tau(  23) = (  0.0000000  0.3750049  0.3750988  )
        24           Al  tau(  24) = (  0.0000000  0.2500158  0.5000000  )
        25           Al  tau(  25) = (  0.1250139  0.3750254  0.5000000  )
        26           Al  tau(  26) = (  0.1249613  0.2500047  0.6249568  )
        27           Al  tau(  27) = (  0.0000000  0.3750049  0.6249012  )
        28           Al  tau(  28) = (  0.0000000  0.2495992  0.7502691  )
        29           Al  tau(  29) = (  0.1250429  0.3750499  0.7496974  )
        30           Al  tau(  30) = (  0.1266126  0.2502551  0.8733874  )
        31           Al  tau(  31) = (  0.0000000  0.3764935  0.8735240  )
        32           Al  tau(  32) = (  0.0000000  0.5001364  0.0000000  )
        33           Al  tau(  33) = (  0.1249871  0.6250328  0.0000000  )
        34           Al  tau(  34) = (  0.1251139  0.5003020  0.1251139  )
        35           Al  tau(  35) = (  0.0000000  0.6250328  0.1249871  )
        36           Al  tau(  36) = (  0.0000000  0.5001415  0.2501505  )
        37           Al  tau(  37) = (  0.1249525  0.6250417  0.2500158  )
        38           Al  tau(  38) = (  0.1250097  0.5000223  0.3750305  )
        39           Al  tau(  39) = (  0.0000000  0.6250086  0.3750101  )
        40           Al  tau(  40) = (  0.0000000  0.5000236  0.5000000  )
        41           Al  tau(  41) = (  0.1250123  0.6249776  0.5000000  )
        42           Al  tau(  42) = (  0.1250097  0.5000223  0.6249696  )
        43           Al  tau(  43) = (  0.0000000  0.6250086  0.6249899  )
        44           Al  tau(  44) = (  0.0000000  0.5001415  0.7498495  )
        45           Al  tau(  45) = (  0.1249525  0.6250417  0.7499842  )
        46           Al  tau(  46) = (  0.1251139  0.5003020  0.8748861  )
        47           Al  tau(  47) = (  0.0000000  0.6250328  0.8750129  )
        48           Al  tau(  48) = (  0.0000000  0.7503058  0.0000000  )
        49           Al  tau(  49) = (  0.1230597  0.8769149  0.0000000  )
        50           Al  tau(  50) = (  0.1250402  0.7498076  0.1250402  )
        51           Al  tau(  51) = (  0.0000000  0.8769149  0.1230597  )
        52           Al  tau(  52) = (  0.0000000  0.7503931  0.2496220  )
        53           Al  tau(  53) = (  0.1250070  0.8749741  0.2501955  )
        54           Al  tau(  54) = (  0.1249718  0.7499909  0.3749672  )
        55           Al  tau(  55) = (  0.0000000  0.8749974  0.3750760  )
        56           Al  tau(  56) = (  0.0000000  0.7499858  0.5000000  )
        57           Al  tau(  57) = (  0.1250208  0.8749855  0.5000000  )
        58           Al  tau(  58) = (  0.1249718  0.7499909  0.6250328  )
        59           Al  tau(  59) = (  0.0000000  0.8749974  0.6249240  )
        60           Al  tau(  60) = (  0.0000000  0.7503931  0.7503780  )
        61           Al  tau(  61) = (  0.1250070  0.8749741  0.7498045  )
        62           Al  tau(  62) = (  0.1250402  0.7498076  0.8749598  )
        63           Al  tau(  63) = (  0.0000000  0.8769149  0.8769403  )
        64           Al  tau(  64) = (  0.2498461  0.9998722  0.0000000  )
        65           Al  tau(  65) = (  0.3751357  0.1249879  0.0000000  )
        66           Al  tau(  66) = (  0.3750484  0.9999802  0.1249788  )
        67           Al  tau(  67) = (  0.2504726  0.1249419  0.1251262  )
        68           Al  tau(  68) = (  0.2496228  0.9999964  0.2496228  )
        69           Al  tau(  69) = (  0.3749566  0.1249695  0.2500220  )
        70           Al  tau(  70) = (  0.3749927  0.0000097  0.3749927  )
        71           Al  tau(  71) = (  0.2500220  0.1249695  0.3749566  )
        72           Al  tau(  72) = (  0.2500239  0.9999897  0.5000000  )
        73           Al  tau(  73) = (  0.3750218  0.1250072  0.5000000  )
        74           Al  tau(  74) = (  0.3749927  0.0000097  0.6250073  )
        75           Al  tau(  75) = (  0.2500220  0.1249695  0.6250434  )
        76           Al  tau(  76) = (  0.2496228  0.9999964  0.7503772  )
        77           Al  tau(  77) = (  0.3749566  0.1249695  0.7499780  )
        78           Al  tau(  78) = (  0.3750484  0.9999802  0.8750212  )
        79           Al  tau(  79) = (  0.2504726  0.1249419  0.8748738  )
        80           Al  tau(  80) = (  0.2497309  0.2495992  0.0000000  )
        81           Al  tau(  81) = (  0.3750988  0.3750049  0.0000000  )
        82           Al  tau(  82) = (  0.3750432  0.2500047  0.1249613  )
        83           Al  tau(  83) = (  0.2503026  0.3750499  0.1250429  )
        84           Al  tau(  84) = (  0.2502657  0.2501155  0.2502657  )
        85           Al  tau(  85) = (  0.3749903  0.3749850  0.2499937  )
        86           Al  tau(  86) = (  0.3750049  0.2499809  0.3750049  )
        87           Al  tau(  87) = (  0.2499937  0.3749850  0.3749903  )
        88           Al  tau(  88) = (  0.2500343  0.2500104  0.5000000  )
        89           Al  tau(  89) = (  0.3749916  0.3749952  0.5000000  )
        90           Al  tau(  90) = (  0.3750049  0.2499809  0.6249951  )
        91           Al  tau(  91) = (  0.2499937  0.3749850  0.6250097  )
        92           Al  tau(  92) = (  0.2502657  0.2501155  0.7497343  )
        93           Al  tau(  93) = (  0.3749903  0.3749850  0.7500063  )
        94           Al  tau(  94) = (  0.3750432  0.2500047  0.8750387  )
        95           Al  tau(  95) = (  0.2503026  0.3750499  0.8749571  )
        96           Al  tau(  96) = (  0.2501505  0.5001415  0.0000000  )
        97           Al  tau(  97) = (  0.3750101  0.6250086  0.0000000  )
        98           Al  tau(  98) = (  0.3750305  0.5000223  0.1250097  )
        99           Al  tau(  99) = (  0.2500158  0.6250417  0.1249525  )
       100           Al  tau( 100) = (  0.2500162  0.5000056  0.2500162  )
       101           Al  tau( 101) = (  0.3749913  0.6249963  0.2499715  )
       102           Al  tau( 102) = (  0.3749816  0.4999904  0.3749816  )
       103           Al  tau( 103) = (  0.2499715  0.6249963  0.3749913  )
       104           Al  tau( 104) = (  0.2500576  0.5000161  0.5000000  )
       105           Al  tau( 105) = (  0.3750002  0.6250176  0.5000000  )
       106           Al  tau( 106) = (  0.3749816  0.4999904  0.6250184  )
       107           Al  tau( 107) = (  0.2499715  0.6249963  0.6250087  )
       108           Al  tau( 108) = (  0.2500162  0.5000056  0.7499838  )
       109           Al  tau( 109) = (  0.3749913  0.6249963  0.7500285  )
       110           Al  tau( 110) = (  0.3750305  0.5000223  0.8749903  )
       111           Al  tau( 111) = (  0.2500158  0.6250417  0.8750475  )
       112           Al  tau( 112) = (  0.2496220  0.7503931  0.0000000  )
       113           Al  tau( 113) = (  0.3750760  0.8749974  0.0000000  )
       114           Al  tau( 114) = (  0.3749672  0.7499909  0.1249718  )
       115           Al  tau( 115) = (  0.2501955  0.8749741  0.1250070  )
       116           Al  tau( 116) = (  0.2501291  0.7498850  0.2501291  )
       117           Al  tau( 117) = (  0.3749448  0.8750490  0.2499879  )
       118           Al  tau( 118) = (  0.3750027  0.7500197  0.3750027  )
       119           Al  tau( 119) = (  0.2499879  0.8750490  0.3749448  )
       120           Al  tau( 120) = (  0.2500295  0.7499851  0.5000000  )
       121           Al  tau( 121) = (  0.3750310  0.8749801  0.5000000  )
       122           Al  tau( 122) = (  0.3750027  0.7500197  0.6249974  )
       123           Al  tau( 123) = (  0.2499879  0.8750490  0.6250552  )
       124           Al  tau( 124) = (  0.2501291  0.7498850  0.7498709  )
       125           Al  tau( 125) = (  0.3749448  0.8750490  0.7500121  )
       126           Al  tau( 126) = (  0.3749672  0.7499909  0.8750283  )
       127           Al  tau( 127) = (  0.2501955  0.8749741  0.8749930  )
       128           Al  tau( 128) = (  0.5000000  0.9999747  0.0000000  )
       129           Al  tau( 129) = (  0.6248643  0.1249879  0.0000000  )
       130           Al  tau( 130) = (  0.6249516  0.9999802  0.1249788  )
       131           Al  tau( 131) = (  0.5000000  0.1250124  0.1250095  )
       132           Al  tau( 132) = (  0.5000000  0.9999897  0.2500239  )
       133           Al  tau( 133) = (  0.6250434  0.1249695  0.2500220  )
       134           Al  tau( 134) = (  0.6250073  0.0000097  0.3749927  )
       135           Al  tau( 135) = (  0.5000000  0.1250072  0.3750218  )
       136           Al  tau( 136) = (  0.5000000  0.9999860  0.5000000  )
       137           Al  tau( 137) = (  0.6249782  0.1250072  0.5000000  )
       138           Al  tau( 138) = (  0.6250073  0.0000097  0.6250073  )
       139           Al  tau( 139) = (  0.5000000  0.1250072  0.6249782  )
       140           Al  tau( 140) = (  0.5000000  0.9999897  0.7499761  )
       141           Al  tau( 141) = (  0.6250434  0.1249695  0.7499780  )
       142           Al  tau( 142) = (  0.6249516  0.9999802  0.8750212  )
       143           Al  tau( 143) = (  0.5000000  0.1250124  0.8749905  )
       144           Al  tau( 144) = (  0.5000000  0.2500158  0.0000000  )
       145           Al  tau( 145) = (  0.6249012  0.3750049  0.0000000  )
       146           Al  tau( 146) = (  0.6249568  0.2500047  0.1249613  )
       147           Al  tau( 147) = (  0.5000000  0.3750254  0.1250139  )
       148           Al  tau( 148) = (  0.5000000  0.2500104  0.2500343  )
       149           Al  tau( 149) = (  0.6250097  0.3749850  0.2499937  )
       150           Al  tau( 150) = (  0.6249951  0.2499809  0.3750049  )
       151           Al  tau( 151) = (  0.5000000  0.3749952  0.3749916  )
       152           Al  tau( 152) = (  0.5000000  0.2500409  0.5000000  )
       153           Al  tau( 153) = (  0.6250084  0.3749952  0.5000000  )
       154           Al  tau( 154) = (  0.6249951  0.2499809  0.6249951  )
       155           Al  tau( 155) = (  0.5000000  0.3749952  0.6250084  )
       156           Al  tau( 156) = (  0.5000000  0.2500104  0.7499657  )
       157           Al  tau( 157) = (  0.6250097  0.3749850  0.7500063  )
       158           Al  tau( 158) = (  0.6249568  0.2500047  0.8750387  )
       159           Al  tau( 159) = (  0.5000000  0.3750254  0.8749861  )
       160           Al  tau( 160) = (  0.5000000  0.5000236  0.0000000  )
       161           Al  tau( 161) = (  0.6249899  0.6250086  0.0000000  )
       162           Al  tau( 162) = (  0.6249696  0.5000223  0.1250097  )
       163           Al  tau( 163) = (  0.5000000  0.6249776  0.1250123  )
       164           Al  tau( 164) = (  0.5000000  0.5000161  0.2500576  )
       165           Al  tau( 165) = (  0.6250087  0.6249963  0.2499715  )
       166           Al  tau( 166) = (  0.6250184  0.4999904  0.3749816  )
       167           Al  tau( 167) = (  0.5000000  0.6250176  0.3750002  )
       168           Al  tau( 168) = (  0.5000000  0.5000168  0.5000000  )
       169           Al  tau( 169) = (  0.6249998  0.6250176  0.5000000  )
       170           Al  tau( 170) = (  0.6250184  0.4999904  0.6250184  )
       171           Al  tau( 171) = (  0.5000000  0.6250176  0.6249998  )
       172           Al  tau( 172) = (  0.5000000  0.5000161  0.7499424  )
       173           Al  tau( 173) = (  0.6250087  0.6249963  0.7500285  )
       174           Al  tau( 174) = (  0.6249696  0.5000223  0.8749903  )
       175           Al  tau( 175) = (  0.5000000  0.6249776  0.8749877  )
       176           Al  tau( 176) = (  0.5000000  0.7499858  0.0000000  )
       177           Al  tau( 177) = (  0.6249240  0.8749974  0.0000000  )
       178           Al  tau( 178) = (  0.6250328  0.7499909  0.1249718  )
       179           Al  tau( 179) = (  0.5000000  0.8749855  0.1250208  )
       180           Al  tau( 180) = (  0.5000000  0.7499851  0.2500295  )
       181           Al  tau( 181) = (  0.6250552  0.8750490  0.2499879  )
       182           Al  tau( 182) = (  0.6249974  0.7500197  0.3750027  )
       183           Al  tau( 183) = (  0.5000000  0.8749801  0.3750310  )
       184           Al  tau( 184) = (  0.5000000  0.7499550  0.5000000  )
       185           Al  tau( 185) = (  0.6249690  0.8749801  0.5000000  )
       186           Al  tau( 186) = (  0.6249974  0.7500197  0.6249974  )
       187           Al  tau( 187) = (  0.5000000  0.8749801  0.6249690  )
       188           Al  tau( 188) = (  0.5000000  0.7499851  0.7499705  )
       189           Al  tau( 189) = (  0.6250552  0.8750490  0.7500121  )
       190           Al  tau( 190) = (  0.6250328  0.7499909  0.8750283  )
       191           Al  tau( 191) = (  0.5000000  0.8749855  0.8749792  )
       192           Al  tau( 192) = (  0.7501539  0.9998722  0.0000000  )
       193           Al  tau( 193) = (  0.8754385  0.1215596  0.0000000  )
       194           Al  tau( 194) = (  0.8767106  0.9995883  0.1232894  )
       195           Al  tau( 195) = (  0.7495274  0.1249419  0.1251262  )
       196           Al  tau( 196) = (  0.7503772  0.9999964  0.2496228  )
       197           Al  tau( 197) = (  0.8748738  0.1249419  0.2504726  )
       198           Al  tau( 198) = (  0.8750212  0.9999802  0.3750484  )
       199           Al  tau( 199) = (  0.7499780  0.1249695  0.3749566  )
       200           Al  tau( 200) = (  0.7499761  0.9999897  0.5000000  )
       201           Al  tau( 201) = (  0.8749905  0.1250124  0.5000000  )
       202           Al  tau( 202) = (  0.8750212  0.9999802  0.6249516  )
       203           Al  tau( 203) = (  0.7499780  0.1249695  0.6250434  )
       204           Al  tau( 204) = (  0.7503772  0.9999964  0.7503772  )
       205           Al  tau( 205) = (  0.8748738  0.1249419  0.7495274  )
       206           Al  tau( 206) = (  0.8767106  0.9995883  0.8767106  )
       207           Al  tau( 207) = (  0.7495274  0.1249419  0.8748738  )
       208           Al  tau( 208) = (  0.7502691  0.2495992  0.0000000  )
       209           Al  tau( 209) = (  0.8735240  0.3764935  0.0000000  )
       210           Al  tau( 210) = (  0.8733874  0.2502551  0.1266126  )
       211           Al  tau( 211) = (  0.7496974  0.3750499  0.1250429  )
       212           Al  tau( 212) = (  0.7497343  0.2501155  0.2502657  )
       213           Al  tau( 213) = (  0.8749571  0.3750499  0.2503026  )
       214           Al  tau( 214) = (  0.8750387  0.2500047  0.3750432  )
       215           Al  tau( 215) = (  0.7500063  0.3749850  0.3749903  )
       216           Al  tau( 216) = (  0.7499657  0.2500104  0.5000000  )
       217           Al  tau( 217) = (  0.8749861  0.3750254  0.5000000  )
       218           Al  tau( 218) = (  0.8750387  0.2500047  0.6249568  )
       219           Al  tau( 219) = (  0.7500063  0.3749850  0.6250097  )
       220           Al  tau( 220) = (  0.7497343  0.2501155  0.7497343  )
       221           Al  tau( 221) = (  0.8749571  0.3750499  0.7496974  )
       222           Al  tau( 222) = (  0.8733874  0.2502551  0.8733874  )
       223           Al  tau( 223) = (  0.7496974  0.3750499  0.8749571  )
       224           Al  tau( 224) = (  0.7498495  0.5001415  0.0000000  )
       225           Al  tau( 225) = (  0.8750129  0.6250328  0.0000000  )
       226           Al  tau( 226) = (  0.8748861  0.5003020  0.1251139  )
       227           Al  tau( 227) = (  0.7499842  0.6250417  0.1249525  )
       228           Al  tau( 228) = (  0.7499838  0.5000056  0.2500162  )
       229           Al  tau( 229) = (  0.8750475  0.6250417  0.2500158  )
       230           Al  tau( 230) = (  0.8749903  0.5000223  0.3750305  )
       231           Al  tau( 231) = (  0.7500285  0.6249963  0.3749913  )
       232           Al  tau( 232) = (  0.7499424  0.5000161  0.5000000  )
       233           Al  tau( 233) = (  0.8749877  0.6249776  0.5000000  )
       234           Al  tau( 234) = (  0.8749903  0.5000223  0.6249696  )
       235           Al  tau( 235) = (  0.7500285  0.6249963  0.6250087  )
       236           Al  tau( 236) = (  0.7499838  0.5000056  0.7499838  )
       237           Al  tau( 237) = (  0.8750475  0.6250417  0.7499842  )
       238           Al  tau( 238) = (  0.8748861  0.5003020  0.8748861  )
       239           Al  tau( 239) = (  0.7499842  0.6250417  0.8750475  )
       240           Al  tau( 240) = (  0.7503780  0.7503931  0.0000000  )
       241           Al  tau( 241) = (  0.8769403  0.8769149  0.0000000  )
       242           Al  tau( 242) = (  0.8749598  0.7498076  0.1250402  )
       243           Al  tau( 243) = (  0.7498045  0.8749741  0.1250070  )
       244           Al  tau( 244) = (  0.7498709  0.7498850  0.2501291  )
       245           Al  tau( 245) = (  0.8749930  0.8749741  0.2501955  )
       246           Al  tau( 246) = (  0.8750283  0.7499909  0.3749672  )
       247           Al  tau( 247) = (  0.7500121  0.8750490  0.3749448  )
       248           Al  tau( 248) = (  0.7499705  0.7499851  0.5000000  )
       249           Al  tau( 249) = (  0.8749792  0.8749855  0.5000000  )
       250           Al  tau( 250) = (  0.8750283  0.7499909  0.6250328  )
       251           Al  tau( 251) = (  0.7500121  0.8750490  0.6250552  )
       252           Al  tau( 252) = (  0.7498709  0.7498850  0.7498709  )
       253           Al  tau( 253) = (  0.8749930  0.8749741  0.7498045  )
       254           Al  tau( 254) = (  0.8749598  0.7498076  0.8749598  )
       255           Al  tau( 255) = (  0.7498045  0.8749741  0.8749930  )

     number of k points=    63  Methfessel-Paxton smearing, width (Ry)=  0.0441
                       cart. coord. in units 2pi/alat
        k(    1) = (   0.0000000   0.0000000   0.0000000), wk =   0.0160000
        k(    2) = (   0.0000000   0.0000000   0.2000000), wk =   0.0320000
        k(    3) = (   0.0000000   0.0000000   0.4000000), wk =   0.0320000
        k(    4) = (   0.0000000   0.2000000   0.0000000), wk =   0.0320000
        k(    5) = (   0.0000000   0.2000000   0.2000000), wk =   0.0320000
        k(    6) = (   0.0000000   0.2000000   0.4000000), wk =   0.0320000
        k(    7) = (   0.0000000   0.2000000  -0.4000000), wk =   0.0320000
        k(    8) = (   0.0000000   0.2000000  -0.2000000), wk =   0.0320000
        k(    9) = (   0.0000000   0.4000000   0.0000000), wk =   0.0320000
        k(   10) = (   0.0000000   0.4000000   0.2000000), wk =   0.0320000
        k(   11) = (   0.0000000   0.4000000   0.4000000), wk =   0.0320000
        k(   12) = (   0.0000000   0.4000000  -0.4000000), wk =   0.0320000
        k(   13) = (   0.0000000   0.4000000  -0.2000000), wk =   0.0320000
        k(   14) = (   0.2000000   0.0000000   0.0000000), wk =   0.0320000
        k(   15) = (   0.2000000   0.0000000   0.2000000), wk =   0.0320000
        k(   16) = (   0.2000000   0.0000000   0.4000000), wk =   0.0320000
        k(   17) = (   0.2000000   0.0000000  -0.4000000), wk =   0.0320000
        k(   18) = (   0.2000000   0.0000000  -0.2000000), wk =   0.0320000
        k(   19) = (   0.2000000   0.2000000   0.0000000), wk =   0.0320000
        k(   20) = (   0.2000000   0.2000000   0.2000000), wk =   0.0320000
        k(   21) = (   0.2000000   0.2000000   0.4000000), wk =   0.0320000
        k(   22) = (   0.2000000   0.2000000  -0.4000000), wk =   0.0320000
        k(   23) = (   0.2000000   0.2000000  -0.2000000), wk =   0.0320000
        k(   24) = (   0.2000000   0.4000000   0.0000000), wk =   0.0320000
        k(   25) = (   0.2000000   0.4000000   0.2000000), wk =   0.0320000
        k(   26) = (   0.2000000   0.4000000   0.4000000), wk =   0.0320000
        k(   27) = (   0.2000000   0.4000000  -0.4000000), wk =   0.0320000
        k(   28) = (   0.2000000   0.4000000  -0.2000000), wk =   0.0320000
        k(   29) = (   0.2000000  -0.4000000   0.0000000), wk =   0.0320000
        k(   30) = (   0.2000000  -0.4000000   0.2000000), wk =   0.0320000
        k(   31) = (   0.2000000  -0.4000000   0.4000000), wk =   0.0320000
        k(   32) = (   0.2000000  -0.4000000  -0.4000000), wk =   0.0320000
        k(   33) = (   0.2000000  -0.4000000  -0.2000000), wk =   0.0320000
        k(   34) = (   0.2000000  -0.2000000   0.0000000), wk =   0.0320000
        k(   35) = (   0.2000000  -0.2000000   0.2000000), wk =   0.0320000
        k(   36) = (   0.2000000  -0.2000000   0.4000000), wk =   0.0320000
        k(   37) = (   0.2000000  -0.2000000  -0.4000000), wk =   0.0320000
        k(   38) = (   0.2000000  -0.2000000  -0.2000000), wk =   0.0320000
        k(   39) = (   0.4000000   0.0000000   0.0000000), wk =   0.0320000
        k(   40) = (   0.4000000   0.0000000   0.2000000), wk =   0.0320000
        k(   41) = (   0.4000000   0.0000000   0.4000000), wk =   0.0320000
        k(   42) = (   0.4000000   0.0000000  -0.4000000), wk =   0.0320000
        k(   43) = (   0.4000000   0.0000000  -0.2000000), wk =   0.0320000
        k(   44) = (   0.4000000   0.2000000   0.0000000), wk =   0.0320000
        k(   45) = (   0.4000000   0.2000000   0.2000000), wk =   0.0320000
        k(   46) = (   0.4000000   0.2000000   0.4000000), wk =   0.0320000
        k(   47) = (   0.4000000   0.2000000  -0.4000000), wk =   0.0320000
        k(   48) = (   0.4000000   0.2000000  -0.2000000), wk =   0.0320000
        k(   49) = (   0.4000000   0.4000000   0.0000000), wk =   0.0320000
        k(   50) = (   0.4000000   0.4000000   0.2000000), wk =   0.0320000
        k(   51) = (   0.4000000   0.4000000   0.4000000), wk =   0.0320000
        k(   52) = (   0.4000000   0.4000000  -0.4000000), wk =   0.0320000
        k(   53) = (   0.4000000   0.4000000  -0.2000000), wk =   0.0320000
        k(   54) = (   0.4000000  -0.4000000   0.0000000), wk =   0.0320000
        k(   55) = (   0.4000000  -0.4000000   0.2000000), wk =   0.0320000
        k(   56) = (   0.4000000  -0.4000000   0.4000000), wk =   0.0320000
        k(   57) = (   0.4000000  -0.4000000  -0.4000000), wk =   0.0320000
        k(   58) = (   0.4000000  -0.4000000  -0.2000000), wk =   0.0320000
        k(   59) = (   0.4000000  -0.2000000   0.0000000), wk =   0.0320000
        k(   60) = (   0.4000000  -0.2000000   0.2000000), wk =   0.0320000
        k(   61) = (   0.4000000  -0.2000000   0.4000000), wk =   0.0320000
        k(   62) = (   0.4000000  -0.2000000  -0.4000000), wk =   0.0320000
        k(   63) = (   0.4000000  -0.2000000  -0.2000000), wk =   0.0320000

                       cryst. coord.
        k(    1) = (   0.0000000   0.0000000   0.0000000), wk =   0.0160000
        k(    2) = (   0.0000000   0.0000000   0.2000000), wk =   0.0320000
        k(    3) = (   0.0000000   0.0000000   0.4000000), wk =   0.0320000
        k(    4) = (   0.0000000   0.2000000   0.0000000), wk =   0.0320000
        k(    5) = (   0.0000000   0.2000000   0.2000000), wk =   0.0320000
        k(    6) = (   0.0000000   0.2000000   0.4000000), wk =   0.0320000
        k(    7) = (   0.0000000   0.2000000  -0.4000000), wk =   0.0320000
        k(    8) = (   0.0000000   0.2000000  -0.2000000), wk =   0.0320000
        k(    9) = (   0.0000000   0.4000000   0.0000000), wk =   0.0320000
        k(   10) = (   0.0000000   0.4000000   0.2000000), wk =   0.0320000
        k(   11) = (   0.0000000   0.4000000   0.4000000), wk =   0.0320000
        k(   12) = (   0.0000000   0.4000000  -0.4000000), wk =   0.0320000
        k(   13) = (   0.0000000   0.4000000  -0.2000000), wk =   0.0320000
        k(   14) = (   0.2000000   0.0000000   0.0000000), wk =   0.0320000
        k(   15) = (   0.2000000   0.0000000   0.2000000), wk =   0.0320000
        k(   16) = (   0.2000000   0.0000000   0.4000000), wk =   0.0320000
        k(   17) = (   0.2000000   0.0000000  -0.4000000), wk =   0.0320000
        k(   18) = (   0.2000000   0.0000000  -0.2000000), wk =   0.0320000
        k(   19) = (   0.2000000   0.2000000   0.0000000), wk =   0.0320000
        k(   20) = (   0.2000000   0.2000000   0.2000000), wk =   0.0320000
        k(   21) = (   0.2000000   0.2000000   0.4000000), wk =   0.0320000
        k(   22) = (   0.2000000   0.2000000  -0.4000000), wk =   0.0320000
        k(   23) = (   0.2000000   0.2000000  -0.2000000), wk =   0.0320000
        k(   24) = (   0.2000000   0.4000000   0.0000000), wk =   0.0320000
        k(   25) = (   0.2000000   0.4000000   0.2000000), wk =   0.0320000
        k(   26) = (   0.2000000   0.4000000   0.4000000), wk =   0.0320000
        k(   27) = (   0.2000000   0.4000000  -0.4000000), wk =   0.0320000
        k(   28) = (   0.2000000   0.4000000  -0.2000000), wk =   0.0320000
        k(   29) = (   0.2000000  -0.4000000   0.0000000), wk =   0.0320000
        k(   30) = (   0.2000000  -0.4000000   0.2000000), wk =   0.0320000
        k(   31) = (   0.2000000  -0.4000000   0.4000000), wk =   0.0320000
        k(   32) = (   0.2000000  -0.4000000  -0.4000000), wk =   0.0320000
        k(   33) = (   0.2000000  -0.4000000  -0.2000000), wk =   0.0320000
        k(   34) = (   0.2000000  -0.2000000   0.0000000), wk =   0.0320000
        k(   35) = (   0.2000000  -0.2000000   0.2000000), wk =   0.0320000
        k(   36) = (   0.2000000  -0.2000000   0.4000000), wk =   0.0320000
        k(   37) = (   0.2000000  -0.2000000  -0.4000000), wk =   0.0320000
        k(   38) = (   0.2000000  -0.2000000  -0.2000000), wk =   0.0320000
        k(   39) = (   0.4000000   0.0000000   0.0000000), wk =   0.0320000
        k(   40) = (   0.4000000   0.0000000   0.2000000), wk =   0.0320000
        k(   41) = (   0.4000000   0.0000000   0.4000000), wk =   0.0320000
        k(   42) = (   0.4000000   0.0000000  -0.4000000), wk =   0.0320000
        k(   43) = (   0.4000000   0.0000000  -0.2000000), wk =   0.0320000
        k(   44) = (   0.4000000   0.2000000   0.0000000), wk =   0.0320000
        k(   45) = (   0.4000000   0.2000000   0.2000000), wk =   0.0320000
        k(   46) = (   0.4000000   0.2000000   0.4000000), wk =   0.0320000
        k(   47) = (   0.4000000   0.2000000  -0.4000000), wk =   0.0320000
        k(   48) = (   0.4000000   0.2000000  -0.2000000), wk =   0.0320000
        k(   49) = (   0.4000000   0.4000000   0.0000000), wk =   0.0320000
        k(   50) = (   0.4000000   0.4000000   0.2000000), wk =   0.0320000
        k(   51) = (   0.4000000   0.4000000   0.4000000), wk =   0.0320000
        k(   52) = (   0.4000000   0.4000000  -0.4000000), wk =   0.0320000
        k(   53) = (   0.4000000   0.4000000  -0.2000000), wk =   0.0320000
        k(   54) = (   0.4000000  -0.4000000   0.0000000), wk =   0.0320000
        k(   55) = (   0.4000000  -0.4000000   0.2000000), wk =   0.0320000
        k(   56) = (   0.4000000  -0.4000000   0.4000000), wk =   0.0320000
        k(   57) = (   0.4000000  -0.4000000  -0.4000000), wk =   0.0320000
        k(   58) = (   0.4000000  -0.4000000  -0.2000000), wk =   0.0320000
        k(   59) = (   0.4000000  -0.2000000   0.0000000), wk =   0.0320000
        k(   60) = (   0.4000000  -0.2000000   0.2000000), wk =   0.0320000
        k(   61) = (   0.4000000  -0.2000000   0.4000000), wk =   0.0320000
        k(   62) = (   0.4000000  -0.2000000  -0.4000000), wk =   0.0320000
        k(   63) = (   0.4000000  -0.2000000  -0.2000000), wk =   0.0320000

     Dense  grid:  3895379 G-vectors     FFT dimensions: ( 200, 200, 200)

     Smooth grid:   985619 G-vectors     FFT dimensions: ( 125, 125, 125)

     Dynamical RAM for                 wfc:     107.62 MB

     Dynamical RAM for     wfc (w. buffer):     322.87 MB

     Dynamical RAM for           str. fact:      14.86 MB

     Dynamical RAM for           local pot:       0.00 MB

     Dynamical RAM for          nlocal pot:    1076.23 MB

     Dynamical RAM for                qrad:      15.65 MB

     Dynamical RAM for          rho,v,vnew:      45.18 MB

     Dynamical RAM for               rhoin:      15.06 MB

     Dynamical RAM for            rho*nmix:     118.88 MB

     Dynamical RAM for           G-vectors:      28.80 MB

     Dynamical RAM for          h,s,v(r/c):      38.41 MB

     Dynamical RAM for          <psi|beta>:      32.01 MB

     Dynamical RAM for                 psi:     430.49 MB

     Dynamical RAM for                hpsi:     430.49 MB

     Dynamical RAM for                spsi:     430.49 MB

     Dynamical RAM for      wfcinit/wfcrot:     503.19 MB

     Dynamical RAM for           addusdens:      98.03 MB

     Dynamical RAM for          addusforce:     200.56 MB

     Dynamical RAM for         addusstress:      45.09 MB

     Estimated static dynamical RAM per process >       1.66 GB

     Estimated max dynamical RAM per process >       2.99 GB

     Estimated total dynamical RAM >     860.58 GB

     Initial potential from superposition of free atoms

     starting charge  763.41736, renormalised to  764.00000
     Starting wfcs are 1020 randomized atomic wfcs
     Checking if some PAW data can be deallocated... 
       PAW data deallocated on    2 nodes for type:  1
       PAW data deallocated on  286 nodes for type:  2

     total cpu time spent up to now is      204.3 secs

     Self-consistent Calculation

     iteration #  1     ecut=    40.00 Ry     beta= 0.40
     Davidson diagonalization with overlap
     ethr =  1.00E-02,  avg # of iterations =  3.0

     Threshold (ethr) on eigenvalues was too large:
     Diagonalizing with lowered threshold

     Davidson diagonalization with overlap
     ethr =  2.00E-04,  avg # of iterations =  8.6

     total cpu time spent up to now is      978.3 secs

     total energy              =  -10067.44571642 Ry
     Harris-Foulkes estimate   =  -10067.61823909 Ry
     estimated scf accuracy    <       1.57757425 Ry

     iteration #  2     ecut=    40.00 Ry     beta= 0.40
     Davidson diagonalization with overlap
     ethr =  2.06E-04,  avg # of iterations =  1.1

     total cpu time spent up to now is     1206.5 secs

     total energy              =  -10067.22815029 Ry
     Harris-Foulkes estimate   =  -10067.45381990 Ry
     estimated scf accuracy    <       0.82433113 Ry

     iteration #  3     ecut=    40.00 Ry     beta= 0.40
     Davidson diagonalization with overlap
     ethr =  1.08E-04,  avg # of iterations =  1.0

     total cpu time spent up to now is     1432.8 secs

     total energy              =  -10067.25100516 Ry
     Harris-Foulkes estimate   =  -10067.25283475 Ry
     estimated scf accuracy    <       0.00505811 Ry

     iteration #  4     ecut=    40.00 Ry     beta= 0.40
     Davidson diagonalization with overlap
     c_bands:  4 eigenvalues not converged
     ethr =  6.62E-07,  avg # of iterations = 20.6

     total cpu time spent up to now is     2153.8 secs

     total energy              =  -10067.25597910 Ry
     Harris-Foulkes estimate   =  -10067.25589963 Ry
     estimated scf accuracy    <       0.01377644 Ry

     iteration #  5     ecut=    40.00 Ry     beta= 0.40
     Davidson diagonalization with overlap
     c_bands:  1 eigenvalues not converged
     ethr =  6.62E-07,  avg # of iterations =  9.0

     total cpu time spent up to now is     2442.5 secs

     total energy              =  -10067.24888126 Ry
     Harris-Foulkes estimate   =  -10067.25599349 Ry
     estimated scf accuracy    <       0.01704675 Ry

     iteration #  6     ecut=    40.00 Ry     beta= 0.40
     Davidson diagonalization with overlap
     ethr =  6.62E-07,  avg # of iterations =  8.7

     total cpu time spent up to now is     2980.6 secs

     total energy              =  -10067.25159812 Ry
     Harris-Foulkes estimate   =  -10067.26205745 Ry
     estimated scf accuracy    <       0.12293360 Ry

     iteration #  7     ecut=    40.00 Ry     beta= 0.40
     Davidson diagonalization with overlap
     ethr =  6.62E-07,  avg # of iterations =  4.0

     total cpu time spent up to now is     3289.9 secs

     total energy              =  -10067.25408196 Ry
     Harris-Foulkes estimate   =  -10067.25478307 Ry
     estimated scf accuracy    <       0.01367403 Ry

     iteration #  8     ecut=    40.00 Ry     beta= 0.40
     Davidson diagonalization with overlap
     ethr =  6.62E-07,  avg # of iterations =  1.0

     total cpu time spent up to now is     3517.4 secs

     total energy              =  -10067.25348066 Ry
     Harris-Foulkes estimate   =  -10067.25420464 Ry
     estimated scf accuracy    <       0.00601049 Ry

     iteration #  9     ecut=    40.00 Ry     beta= 0.40
     Davidson diagonalization with overlap
     ethr =  6.62E-07,  avg # of iterations =  3.0

     total cpu time spent up to now is     3764.1 secs

     total energy              =  -10067.25389936 Ry
     Harris-Foulkes estimate   =  -10067.25390010 Ry
     estimated scf accuracy    <       0.00001024 Ry

     iteration # 10     ecut=    40.00 Ry     beta= 0.40
     Davidson diagonalization with overlap
     ethr =  1.34E-09,  avg # of iterations =  5.8

     total cpu time spent up to now is     4255.4 secs

     total energy              =  -10067.25397681 Ry
     Harris-Foulkes estimate   =  -10067.25396868 Ry
     estimated scf accuracy    <       0.00031184 Ry

     iteration # 11     ecut=    40.00 Ry     beta= 0.40
     Davidson diagonalization with overlap
     ethr =  1.34E-09,  avg # of iterations =  2.0

     total cpu time spent up to now is     4497.5 secs

     total energy              =  -10067.25393587 Ry
     Harris-Foulkes estimate   =  -10067.25397758 Ry
     estimated scf accuracy    <       0.00045400 Ry

     iteration # 12     ecut=    40.00 Ry     beta= 0.40
     Davidson diagonalization with overlap
     ethr =  1.34E-09,  avg # of iterations =  4.1

     total cpu time spent up to now is     4839.6 secs

     total energy              =  -10067.25394385 Ry
     Harris-Foulkes estimate   =  -10067.25394925 Ry
     estimated scf accuracy    <       0.00004172 Ry

     iteration # 13     ecut=    40.00 Ry     beta= 0.40
     Davidson diagonalization with overlap
     ethr =  1.34E-09,  avg # of iterations =  2.9

     total cpu time spent up to now is     5110.7 secs

     total energy              =  -10067.25394564 Ry
     Harris-Foulkes estimate   =  -10067.25394587 Ry
     estimated scf accuracy    <       0.00000320 Ry

     iteration # 14     ecut=    40.00 Ry     beta= 0.40
     Davidson diagonalization with overlap
     ethr =  4.18E-10,  avg # of iterations =  2.0

     total cpu time spent up to now is     5341.6 secs

     total energy              =  -10067.25394560 Ry
     Harris-Foulkes estimate   =  -10067.25394573 Ry
     estimated scf accuracy    <       0.00000091 Ry

     iteration # 15     ecut=    40.00 Ry     beta= 0.40
     Davidson diagonalization with overlap
     ethr =  1.20E-10,  avg # of iterations =  4.5

     total cpu time spent up to now is     5666.5 secs

     total energy              =  -10067.25394583 Ry
     Harris-Foulkes estimate   =  -10067.25394584 Ry
     estimated scf accuracy    <       0.00000135 Ry

     iteration # 16     ecut=    40.00 Ry     beta= 0.40
     Davidson diagonalization with overlap
     ethr =  1.20E-10,  avg # of iterations =  1.0

     total cpu time spent up to now is     5893.4 secs

     total energy              =  -10067.25394575 Ry
     Harris-Foulkes estimate   =  -10067.25394582 Ry
     estimated scf accuracy    <       0.00000124 Ry

     iteration # 17     ecut=    40.00 Ry     beta= 0.40
     Davidson diagonalization with overlap
     ethr =  1.20E-10,  avg # of iterations =  1.0

     total cpu time spent up to now is     6120.4 secs

     total energy              =  -10067.25394568 Ry
     Harris-Foulkes estimate   =  -10067.25394576 Ry
     estimated scf accuracy    <       0.00000061 Ry

     iteration # 18     ecut=    40.00 Ry     beta= 0.40
     Davidson diagonalization with overlap
     ethr =  8.01E-11,  avg # of iterations =  1.4

     total cpu time spent up to now is     6348.6 secs

     total energy              =  -10067.25394570 Ry
     Harris-Foulkes estimate   =  -10067.25394570 Ry
     estimated scf accuracy    <       0.00000008 Ry

     iteration # 19     ecut=    40.00 Ry     beta= 0.40
     Davidson diagonalization with overlap
     ethr =  1.04E-11,  avg # of iterations =  4.2

     total cpu time spent up to now is     6656.6 secs

     total energy              =  -10067.25394571 Ry
     Harris-Foulkes estimate   =  -10067.25394571 Ry
     estimated scf accuracy    <       0.00000002 Ry

     iteration # 20     ecut=    40.00 Ry     beta= 0.40
     Davidson diagonalization with overlap
     ethr =  2.11E-12,  avg # of iterations =  2.0

     total cpu time spent up to now is     6897.2 secs

     total energy              =  -10067.25394570 Ry
     Harris-Foulkes estimate   =  -10067.25394570 Ry
     estimated scf accuracy    <          2.2E-09 Ry

     iteration # 21     ecut=    40.00 Ry     beta= 0.40
     Davidson diagonalization with overlap
     ethr =  2.89E-13,  avg # of iterations =  4.2

     total cpu time spent up to now is     7162.9 secs

     total energy              =  -10067.25394570 Ry
     Harris-Foulkes estimate   =  -10067.25394570 Ry
     estimated scf accuracy    <          7.2E-10 Ry

     iteration # 22     ecut=    40.00 Ry     beta= 0.40
     Davidson diagonalization with overlap
     ethr =  1.00E-13,  avg # of iterations =  3.1

     total cpu time spent up to now is     7409.1 secs

     total energy              =  -10067.25394570 Ry
     Harris-Foulkes estimate   =  -10067.25394570 Ry
     estimated scf accuracy    <          2.1E-10 Ry

     iteration # 23     ecut=    40.00 Ry     beta= 0.40
     Davidson diagonalization with overlap
     ethr =  1.00E-13,  avg # of iterations =  1.0

     total cpu time spent up to now is     7635.8 secs

     total energy              =  -10067.25394570 Ry
     Harris-Foulkes estimate   =  -10067.25394570 Ry
     estimated scf accuracy    <          5.9E-11 Ry

     iteration # 24     ecut=    40.00 Ry     beta= 0.40
     Davidson diagonalization with overlap
     ethr =  1.00E-13,  avg # of iterations =  1.0

     total cpu time spent up to now is     7862.5 secs

     total energy              =  -10067.25394570 Ry
     Harris-Foulkes estimate   =  -10067.25394570 Ry
     estimated scf accuracy    <          1.1E-11 Ry

     iteration # 25     ecut=    40.00 Ry     beta= 0.40
     Davidson diagonalization with overlap
     ethr =  1.00E-13,  avg # of iterations =  1.0

     total cpu time spent up to now is     8089.0 secs

     total energy              =  -10067.25394570 Ry
     Harris-Foulkes estimate   =  -10067.25394570 Ry
     estimated scf accuracy    <          4.8E-12 Ry

     iteration # 26     ecut=    40.00 Ry     beta= 0.40
     Davidson diagonalization with overlap
     ethr =  1.00E-13,  avg # of iterations =  1.0

     total cpu time spent up to now is     8314.7 secs

     End of self-consistent calculation

          k = 0.0000 0.0000 0.0000 (123065 PWs)   bands (ev):

    -3.3061  -2.7649  -2.7626  -2.7588  -2.7588  -2.7439  -2.6749  -2.2072
    -2.2058  -2.2058  -2.2054  -2.2043  -2.2006  -2.2006  -2.2004  -2.1861
    -2.1861  -2.1274  -2.0394  -1.6534  -1.6433  -1.6390  -1.6390  -1.6342
    -1.6342  -1.5715  -1.5443  -1.0878  -1.0777  -1.0768  -1.0768  -1.0647
    -1.0263  -0.5470  -0.5462  -0.5462  -0.5443  -0.5428  -0.5428  -0.5422
    -0.5410  -0.5399  -0.5386  -0.5386  -0.5334  -0.5333  -0.5308  -0.5307
    -0.5307  -0.5287  -0.5175  -0.5175  -0.4841  -0.4841  -0.4775  -0.4046
    -0.3334   0.0048   0.0059   0.0067   0.0081   0.0086   0.0086   0.0087
     0.0106   0.0106   0.0131   0.0131   0.0169   0.0184   0.0184   0.0186
     0.0212   0.0278   0.0548   0.0548   0.0629   0.0637   0.0637   0.2353
     0.3453   1.1095   1.1108   1.1145   1.1145   1.1147   1.1243   1.1243
     1.1314   1.1314   1.1435   1.1637   1.1992   1.6403   1.6418   1.6435
     1.6465   1.6465   1.6474   1.6488   1.6496   1.6496   1.6499   1.6505
     1.6505   1.6512   1.6517   1.6535   1.6541   1.6541   1.6592   1.6642
     1.6664   1.6695   1.6709   1.6709   1.6931   1.6931   1.7269   1.7269
     1.7344   1.7781   1.9221   2.1774   2.1813   2.1813   2.1820   2.1836
     2.1851   2.1851   2.1855   2.1861   2.1908   2.1908   2.1917   2.1917
     2.1928   2.1960   2.2072   2.2140   2.2140   2.2314   2.2556   2.2735
     2.2735   2.3145   2.4103   2.7208   2.7215   2.7215   2.7228   2.7228
     2.7235   2.7247   2.7271   2.7287   2.7331   2.7339   2.7339   2.7339
     2.7397   2.7397   2.7497   2.7780   2.7780   2.7817   2.8048   2.8048
     2.8094   2.8727   3.0188   3.1898   3.2214   3.2214   3.2270   3.3815
     3.3815   3.3816   3.4775   3.7957   3.7959   3.7959   3.7970   3.7977
     3.7990   3.7991   3.7991   3.8021   3.8045   3.8050   3.8050   3.8162
     3.8188   3.8188   3.8197   3.8268   3.8386   3.8386   3.8625   3.8682
     3.8682   3.9133   3.9727   4.2177   4.2215   4.2218   4.2220   4.2220
     4.2222   4.2241   4.2241   4.2257   4.2257   4.2258   4.2271   4.2308
     4.2312   4.2367   4.2367   4.2483   4.2501   4.2908   4.2908   4.2934
     4.3481   4.3481   4.4114   4.4494   4.4526   4.4526   4.4530   4.4530
     4.4541   4.4562   4.4562   4.4569   4.4615   4.4643   4.4643   4.4655
     4.4701   4.4771   4.4771   4.4822   4.4935   4.5043   4.5043   4.5305
     4.5305   4.7105   4.8627   4.8688   4.8688   5.0281   5.3502   5.3511
     5.3519   5.3519   5.3556   5.3556   5.3613   5.3799   5.3799   5.4443
     5.4443   5.4460   5.8631   5.8649   5.8689   5.8701   5.8744   5.8744
     5.8825   5.8955   5.8955   5.9182   5.9182   5.9183   5.9376   5.9396
     5.9398   5.9405   5.9405   5.9409   5.9410   5.9410   5.9446   5.9454
     5.9495   5.9495   5.9565   5.9637   5.9647   5.9647   5.9915   5.9915
     5.9978   5.9979   6.0689   6.0897   6.0897   6.1501   6.1512   6.1587
     6.2193   6.3994   6.3994   6.3998   6.4010   6.4105   6.4109   6.4202
     6.4202   6.4479   6.4577   6.4577   6.4668   6.6713   6.6738   6.6755
     6.6755   6.6769   6.6851   6.6851   6.6917   6.7218   6.7304   6.7430
     6.8133   6.9050   6.9061   6.9109   6.9109   6.9128   6.9128   6.9188
     6.9249   6.9249   6.9308   6.9308   6.9446   6.9790   6.9808   6.9838
     6.9838   6.9856   6.9856   6.9887   6.9948   6.9958   6.9988   7.0052
     7.0052   7.0059   7.0150   7.0150   7.0168   7.0207   7.0234   7.0554
     7.0554   7.1077   7.1077   7.1229   7.1453   7.3174   7.3174   7.3196
     7.3223   7.3223   7.3234   7.3234   7.3371   7.3506   7.3556   7.4103
     7.4107   7.4127   7.4141   7.4174   7.4174   7.4199   7.4204   7.4205
     7.4208   7.4208   7.4324   7.4370   7.4419   7.4419   7.4453   7.4604
     7.4604   7.4744   7.4858   7.4950   7.4950   7.6265   7.6265   7.6752
     7.6989   7.9383   7.9525   7.9608   7.9659   7.9659   7.9671   8.5580
     8.5602   8.5605   8.5605   8.5621   8.5621   8.5624   8.5636   8.5638
     8.5661   8.5684   8.5697   8.5697   8.5744   8.5744   8.5772   8.5849
     8.6329   8.6365   8.6365   8.6550   8.6617   8.6617   8.6667   8.7823
     8.7860   8.7862   8.7862   8.8009   8.8134   8.8575   8.8607   8.8607
     8.8608   8.8655   8.8655   8.8663   8.8663   8.8683   8.8700   8.8775
     8.8797   8.8797   8.8802   8.8878   8.8878   8.8904   8.9110   8.9228
     8.9228   8.9382

     occupation numbers 
     1.0000   1.0000   1.0000   1.0000   1.0000   1.0000   1.0000   1.0000
     1.0000   1.0000   1.0000   1.0000   1.0000   1.0000   1.0000   1.0000
     1.0000   1.0000   1.0000   1.0000   1.0000   1.0000   1.0000   1.0000
     1.0000   1.0000   1.0000   1.0000   1.0000   1.0000   1.0000   1.0000
     1.0000   1.0000   1.0000   1.0000   1.0000   1.0000   1.0000   1.0000
     1.0000   1.0000   1.0000   1.0000   1.0000   1.0000   1.0000   1.0000
     1.0000   1.0000   1.0000   1.0000   1.0000   1.0000   1.0000   1.0000
     1.0000   1.0000   1.0000   1.0000   1.0000   1.0000   1.0000   1.0000
     1.0000   1.0000   1.0000   1.0000   1.0000   1.0000   1.0000   1.0000
     1.0000   1.0000   1.0000   1.0000   1.0000   1.0000   1.0000   1.0000
     1.0000   1.0000   1.0000   1.0000   1.0000   1.0000   1.0000   1.0000
     1.0000   1.0000   1.0000   1.0000   1.0000   1.0000   1.0000   1.0000
     1.0000   1.0000   1.0000   1.0000   1.0000   1.0000   1.0000   1.0000
     1.0000   1.0000   1.0000   1.0000   1.0000   1.0000   1.0000   1.0000
     1.0000   1.0000   1.0000   1.0000   1.0000   1.0000   1.0000   1.0000
     1.0000   1.0000   1.0000   1.0000   1.0000   1.0000   1.0000   1.0000
     1.0000   1.0000   1.0000   1.0000   1.0000   1.0000   1.0000   1.0000
     1.0000   1.0000   1.0000   1.0000   1.0000   1.0000   1.0000   1.0000
     1.0000   1.0000   1.0000   1.0000   1.0000   1.0000   1.0000   1.0000
     1.0000   1.0000   1.0000   1.0000   1.0000   1.0000   1.0000   1.0000
     1.0000   1.0000   1.0000   1.0000   1.0000   1.0000   1.0000   1.0000
     1.0000   1.0000   1.0000   1.0000   1.0000   1.0000   1.0000   1.0000
     1.0000   1.0000   1.0000   1.0000   1.0000   1.0000   1.0000   1.0000
     1.0000   1.0000   1.0000   1.0000   1.0000   1.0000   1.0000   1.0000
     1.0000   1.0000   1.0000   1.0000   1.0000   1.0000   1.0000   1.0000
     1.0000   1.0000   1.0000   1.0000   1.0000   1.0000   1.0000   1.0000
     1.0000   1.0000   1.0000   1.0000   1.0000   1.0000   1.0000   1.0000
     1.0000   1.0000   1.0000   1.0000   1.0000   1.0000   1.0000   1.0000
     1.0000   1.0000   1.0000   1.0000   1.0000   1.0000   1.0000   1.0000
     1.0000   1.0000   1.0000   1.0000   1.0000   1.0000   1.0000   1.0000
     1.0000   1.0000   1.0000   1.0000   1.0000   1.0000   1.0000   1.0000
     1.0000   1.0000   1.0000   1.0000   1.0000   1.0000   1.0000   1.0000
     1.0000   1.0000   1.0000   1.0000   1.0000   1.0000   1.0000   1.0000
     1.0000   1.0000   1.0000   1.0000   1.0000   1.0000   1.0001   1.0001
     1.0001   1.0001   1.0001   1.0001   1.0001   1.0001   1.0001   1.0001
     1.0001   1.0001   1.0001   1.0001   1.0001   1.0001   1.0001   1.0001
     1.0001   1.0001   1.0001   1.0001   1.0001   1.0001   1.0002   1.0002
     1.0002   1.0002   1.0003   1.0004   1.0004   1.0006   1.0006   1.0006
     1.0010   1.0036   1.0036   1.0036   1.0036   1.0038   1.0038   1.0041
     1.0041   1.0048   1.0051   1.0051   1.0054   1.0154   1.0155   1.0157
     1.0157   1.0158   1.0163   1.0163   1.0168   1.0189   1.0196   1.0205
     1.0259   1.0323   1.0323   1.0326   1.0326   1.0327   1.0327   1.0330
     1.0333   1.0333   1.0336   1.0336   1.0342   1.0352   1.0353   1.0353
     1.0353   1.0353   1.0353   1.0354   1.0354   1.0354   1.0355   1.0355
     1.0355   1.0355   1.0354   1.0354   1.0354   1.0353   1.0353   1.0341
     1.0341   1.0295   1.0295   1.0274   1.0236   0.9595   0.9595   0.9582
     0.9566   0.9566   0.9559   0.9559   0.9475   0.9386   0.9352   0.8934
     0.8930   0.8913   0.8901   0.8873   0.8873   0.8852   0.8848   0.8846
     0.8844   0.8844   0.8741   0.8699   0.8653   0.8653   0.8622   0.8477
     0.8477   0.8337   0.8220   0.8122   0.8122   0.6526   0.6526   0.5864
     0.5534   0.2327   0.2165   0.2071   0.2015   0.2015   0.2002  -0.0329
    -0.0327  -0.0327  -0.0327  -0.0326  -0.0326  -0.0326  -0.0325  -0.0325
    -0.0324  -0.0323  -0.0322  -0.0322  -0.0319  -0.0319  -0.0317  -0.0313
    -0.0279  -0.0277  -0.0277  -0.0263  -0.0258  -0.0258  -0.0254  -0.0167
    -0.0165  -0.0165  -0.0165  -0.0155  -0.0146  -0.0120  -0.0118  -0.0118
    -0.0118  -0.0115  -0.0115  -0.0115  -0.0115  -0.0114  -0.0113  -0.0109
    -0.0107  -0.0107  -0.0107  -0.0103  -0.0103  -0.0102  -0.0092  -0.0086
    -0.0086  -0.0079

          k = 0.0000 0.0000 0.2000 (123202 PWs)   bands (ev):

    -3.2839  -2.9485  -2.7406  -2.7364  -2.7220  -2.6911  -2.4979  -2.4050
    -2.4007  -2.3867  -2.3435  -2.1786  -2.1757  -2.1460  -2.1389  -1.9587
    -1.9542  -1.9381  -1.8981  -1.8440  -1.8412  -1.7988  -1.7724  -1.4882
    -1.3993  -1.3969  -1.3605  -1.3468  -1.0558  -1.0551  -1.0449  -1.0415
    -0.9595  -0.9551  -0.9377  -0.8859  -0.7247  -0.7226  -0.7150  -0.6982
    -0.6048  -0.5188  -0.5160  -0.5144  -0.5009  -0.4962  -0.4951  -0.4813
    -0.4620  -0.4035  -0.4012  -0.3643  -0.3514  -0.2819  -0.2809  -0.2706
    -0.2613  -0.1883  -0.1851  -0.1835  -0.1658  -0.1616  -0.1588  -0.1214
    -0.0855  -0.0761  -0.0718  -0.0257   0.0395   0.2514   0.2544   0.2559
     0.2723   0.2764   0.2798   0.3120   0.3564   0.4758   0.4783   0.5469
     0.5743   0.7072   0.7076   0.7295   0.7483   1.0409   1.1362   1.1467
     1.1469   1.1623   1.2355   1.2385   1.2399   1.2549   1.2595   1.2599
     1.2868   1.3304   1.4642   1.4804   1.4804   1.5090   1.5600   1.5638
     1.5765   1.5777   1.5874   1.5960   1.6205   1.6402   1.6789   1.6919
     1.6923   1.7308   1.8977   1.9102   1.9112   1.9316   2.0004   2.0120
     2.0142   2.0247   2.1035   2.1052   2.1061   2.1080   2.1084   2.1225
     2.1240   2.1265   2.1430   2.1565   2.1661   2.1883   2.2078   2.2130
     2.2344   2.2346   2.2433   2.2470   2.2668   2.3232   2.3472   2.4366
     2.4509   2.4520   2.4719   2.5316   2.5369   2.5589   2.5590   2.5654
     2.5742   2.6062   2.6526   2.8479   2.8521   2.8655   2.8731   2.8814
     2.8834   2.9116   2.9163   2.9621   2.9675   2.9900   2.9914   3.0001
     3.0036   3.0406   3.0917   3.1962   3.1980   3.2199   3.2379   3.3875
     3.3897   3.4038   3.4186   3.4234   3.4392   3.4405   3.4963   3.7067
     3.7099   3.7116   3.7257   3.7277   3.7287   3.7472   3.7522   3.7540
     3.7664   3.7856   3.8004   3.8235   3.8249   3.8294   3.8321   3.8433
     3.8610   3.8620   3.8974   3.9176   3.9241   3.9479   3.9487   3.9627
     3.9630   3.9847   4.0286   4.1354   4.1369   4.1426   4.1461   4.1567
     4.2034   4.2044   4.2454   4.2626   4.2757   4.2892   4.3116   4.4624
     4.4692   4.4692   4.4853   4.5027   4.5937   4.5957   4.5992   4.6008
     4.6168   4.6431   4.6511   4.6880   4.8049   4.8088   4.8214   4.8239
     4.8282   4.8366   4.8662   4.8930   4.9008   4.9066   4.9529   4.9569
     4.9804   5.0082   5.0108   5.0118   5.0307   5.0335   5.0445   5.0529
     5.0946   5.1878   5.1947   5.2825   5.3382   5.3457   5.3507   5.3759
     5.3937   5.3976   5.4071   5.4149   5.4725   5.4759   5.5231   5.5300
     5.5417   5.5437   5.5503   5.5568   5.5641   5.5885   5.5928   5.6116
     5.6137   5.6862   5.7129   5.7157   5.7373   5.7510   5.8326   5.8560
     5.8651   5.8830   6.0980   6.1239   6.1355   6.1523   6.1723   6.1898
     6.3758   6.3835   6.3889   6.3901   6.3903   6.3936   6.3993   6.4000
     6.4016   6.4056   6.4077   6.4185   6.4190   6.4228   6.4269   6.4398
     6.4767   6.4819   6.4903   6.4979   6.5003   6.5183   6.5192   6.5342
     6.5478   6.5683   6.5763   6.5968   6.6014   6.6131   6.6214   6.6264
     6.6719   6.7008   6.7145   6.7369   6.7570   6.8125   6.8208   6.8295
     6.8460   6.8623   6.8637   6.8660   6.8894   6.9362   6.9372   6.9379
     6.9583   6.9637   6.9688   7.0279   7.0455   7.0460   7.0509   7.0517
     7.0575   7.0726   7.0747   7.0938   7.0979   7.1122   7.1200   7.1210
     7.1433   7.1909   7.2270   7.2359   7.2384   7.2470   7.2533   7.2576
     7.2610   7.3061   7.3189   7.3272   7.3324   7.3548   7.3856   7.3976
     7.4010   7.5268   7.5417   7.5577   7.5937   7.6234   7.6294   7.6372
     7.6394   7.6506   7.6547   7.6618   7.6643   7.6686   7.7015   7.7093
     7.7224   7.7258   7.7295   7.7925   7.8041   7.8199   7.8572   7.8894
     7.9173   7.9314   7.9501   7.9648   7.9665   7.9708   7.9847   7.9856
     8.0198   8.0253   8.0563   8.1624   8.1686   8.1687   8.1779   8.1968
     8.2207   8.2385   8.2467   8.4714   8.4893   8.4985   8.5401   8.5923
     8.5948   8.6112   8.6232   8.6264   8.6413   8.6680   8.6792   8.6925
     8.6980   8.7244   8.7677   8.9207   8.9247   8.9855   8.9943   9.0139
     9.0156   9.0158   9.0205   9.0209   9.0301   9.0512   9.0696   9.1222
     9.1238   9.1475   9.1516   9.1572   9.1667   9.1811   9.2027   9.2042
     9.2047   9.2090

     occupation numbers 
     1.0000   1.0000   1.0000   1.0000   1.0000   1.0000   1.0000   1.0000
     1.0000   1.0000   1.0000   1.0000   1.0000   1.0000   1.0000   1.0000
     1.0000   1.0000   1.0000   1.0000   1.0000   1.0000   1.0000   1.0000
     1.0000   1.0000   1.0000   1.0000   1.0000   1.0000   1.0000   1.0000
     1.0000   1.0000   1.0000   1.0000   1.0000   1.0000   1.0000   1.0000
     1.0000   1.0000   1.0000   1.0000   1.0000   1.0000   1.0000   1.0000
     1.0000   1.0000   1.0000   1.0000   1.0000   1.0000   1.0000   1.0000
     1.0000   1.0000   1.0000   1.0000   1.0000   1.0000   1.0000   1.0000
     1.0000   1.0000   1.0000   1.0000   1.0000   1.0000   1.0000   1.0000
     1.0000   1.0000   1.0000   1.0000   1.0000   1.0000   1.0000   1.0000
     1.0000   1.0000   1.0000   1.0000   1.0000   1.0000   1.0000   1.0000
     1.0000   1.0000   1.0000   1.0000   1.0000   1.0000   1.0000   1.0000
     1.0000   1.0000   1.0000   1.0000   1.0000   1.0000   1.0000   1.0000
     1.0000   1.0000   1.0000   1.0000   1.0000   1.0000   1.0000   1.0000
     1.0000   1.0000   1.0000   1.0000   1.0000   1.0000   1.0000   1.0000
[...]
     atom   74 type  1   force =     0.00000000   -0.00000001   -0.00000002
     atom   75 type  1   force =     0.00000004   -0.00000000   -0.00000002
     atom   76 type  1   force =     0.00000004   -0.00000002   -0.00000004
     atom   77 type  1   force =     0.00000002    0.00000001   -0.00000003
     atom   78 type  1   force =     0.00000002   -0.00000001   -0.00000002
     atom   79 type  1   force =     0.00000009    0.00000001   -0.00000004
     atom   80 type  1   force =     0.00000008    0.00000004    0.00000001
     atom   81 type  1   force =     0.00000002    0.00000001   -0.00000001
     atom   82 type  1   force =     0.00000002    0.00000001    0.00000002
     atom   83 type  1   force =     0.00000004    0.00000001    0.00000003
     atom   84 type  1   force =     0.00000004    0.00000001    0.00000004
     atom   85 type  1   force =     0.00000001   -0.00000000    0.00000002
     atom   86 type  1   force =     0.00000001   -0.00000000   -0.00000000
     atom   87 type  1   force =     0.00000001    0.00000000    0.00000000
     atom   88 type  1   force =     0.00000003    0.00000000   -0.00000001
     atom   89 type  1   force =     0.00000002    0.00000001    0.00000001
     atom   90 type  1   force =     0.00000002    0.00000001   -0.00000000
     atom   91 type  1   force =     0.00000002    0.00000001   -0.00000000
     atom   92 type  1   force =     0.00000005    0.00000002   -0.00000004
     atom   93 type  1   force =     0.00000003    0.00000001   -0.00000002
     atom   94 type  1   force =     0.00000003    0.00000002   -0.00000002
     atom   95 type  1   force =     0.00000005    0.00000002   -0.00000002
     atom   96 type  1   force =     0.00000004    0.00000001   -0.00000001
     atom   97 type  1   force =     0.00000001   -0.00000000   -0.00000000
     atom   98 type  1   force =     0.00000001    0.00000000    0.00000001
     atom   99 type  1   force =     0.00000003    0.00000001    0.00000002
     atom  100 type  1   force =     0.00000002    0.00000001    0.00000002
     atom  101 type  1   force =     0.00000001    0.00000001    0.00000002
     atom  102 type  1   force =     0.00000002    0.00000001    0.00000002
     atom  103 type  1   force =     0.00000001    0.00000001    0.00000001
     atom  104 type  1   force =     0.00000002    0.00000001    0.00000000
     atom  105 type  1   force =     0.00000003    0.00000000    0.00000001
     atom  106 type  1   force =     0.00000003    0.00000001   -0.00000001
     atom  107 type  1   force =     0.00000002    0.00000001   -0.00000001
     atom  108 type  1   force =     0.00000003    0.00000000   -0.00000002
     atom  109 type  1   force =     0.00000002   -0.00000000   -0.00000002
     atom  110 type  1   force =     0.00000002   -0.00000000   -0.00000002
     atom  111 type  1   force =     0.00000003    0.00000000   -0.00000002
     atom  112 type  1   force =     0.00000004   -0.00000002   -0.00000000
     atom  113 type  1   force =     0.00000002   -0.00000001    0.00000001
     atom  114 type  1   force =     0.00000001    0.00000000    0.00000002
     atom  115 type  1   force =     0.00000006   -0.00000003    0.00000004
     atom  116 type  1   force =     0.00000002    0.00000000    0.00000003
     atom  117 type  1   force =     0.00000000   -0.00000001    0.00000002
     atom  118 type  1   force =     0.00000001    0.00000000    0.00000001
     atom  119 type  1   force =     0.00000002   -0.00000001    0.00000001
     atom  120 type  1   force =     0.00000002    0.00000000   -0.00000000
     atom  121 type  1   force =     0.00000000   -0.00000001   -0.00000001
     atom  122 type  1   force =     0.00000001   -0.00000001   -0.00000001
     atom  123 type  1   force =     0.00000002   -0.00000001   -0.00000002
     atom  124 type  1   force =     0.00000002   -0.00000001   -0.00000002
     atom  125 type  1   force =     0.00000001   -0.00000002   -0.00000002
     atom  126 type  1   force =     0.00000001   -0.00000001   -0.00000002
     atom  127 type  1   force =     0.00000005   -0.00000004   -0.00000003
     atom  128 type  1   force =    -0.00000001   -0.00000001    0.00000001
     atom  129 type  1   force =    -0.00000005    0.00000001   -0.00000000
     atom  130 type  1   force =    -0.00000004   -0.00000002    0.00000003
     atom  131 type  1   force =    -0.00000002    0.00000000    0.00000002
     atom  132 type  1   force =    -0.00000001   -0.00000001    0.00000002
     atom  133 type  1   force =    -0.00000003   -0.00000000    0.00000003
     atom  134 type  1   force =    -0.00000001   -0.00000001    0.00000001
     atom  135 type  1   force =    -0.00000001    0.00000000    0.00000001
     atom  136 type  1   force =    -0.00000001   -0.00000001   -0.00000000
     atom  137 type  1   force =    -0.00000001    0.00000001    0.00000000
     atom  138 type  1   force =    -0.00000001   -0.00000001   -0.00000002
     atom  139 type  1   force =    -0.00000000    0.00000001   -0.00000001
     atom  140 type  1   force =    -0.00000000   -0.00000000   -0.00000002
     atom  141 type  1   force =    -0.00000002    0.00000002   -0.00000003
     atom  142 type  1   force =    -0.00000003   -0.00000001   -0.00000003
     atom  143 type  1   force =    -0.00000001    0.00000002   -0.00000002
     atom  144 type  1   force =    -0.00000001    0.00000001   -0.00000001
     atom  145 type  1   force =    -0.00000004    0.00000001   -0.00000002
     atom  146 type  1   force =    -0.00000004    0.00000001    0.00000002
     atom  147 type  1   force =    -0.00000001    0.00000000    0.00000001
     atom  148 type  1   force =    -0.00000001    0.00000000    0.00000002
     atom  149 type  1   force =    -0.00000002    0.00000001    0.00000003
     atom  150 type  1   force =    -0.00000001    0.00000001    0.00000002
     atom  151 type  1   force =     0.00000001    0.00000001    0.00000002
     atom  152 type  1   force =     0.00000000    0.00000001    0.00000001
     atom  153 type  1   force =    -0.00000001    0.00000003    0.00000001
     atom  154 type  1   force =    -0.00000001    0.00000002   -0.00000000
     atom  155 type  1   force =     0.00000001    0.00000002    0.00000000
     atom  156 type  1   force =     0.00000000    0.00000003   -0.00000002
     atom  157 type  1   force =    -0.00000002    0.00000002   -0.00000003
     atom  158 type  1   force =    -0.00000004    0.00000003   -0.00000004
     atom  159 type  1   force =    -0.00000000    0.00000001   -0.00000003
     atom  160 type  1   force =    -0.00000000   -0.00000000   -0.00000001
     atom  161 type  1   force =    -0.00000001    0.00000000   -0.00000001
     atom  162 type  1   force =    -0.00000002    0.00000001    0.00000002
     atom  163 type  1   force =     0.00000000    0.00000000    0.00000002
     atom  164 type  1   force =     0.00000001    0.00000001    0.00000003
     atom  165 type  1   force =     0.00000000    0.00000001    0.00000003
     atom  166 type  1   force =    -0.00000000    0.00000001    0.00000003
     atom  167 type  1   force =     0.00000001    0.00000000    0.00000003
     atom  168 type  1   force =     0.00000002    0.00000002    0.00000001
     atom  169 type  1   force =    -0.00000000   -0.00000001    0.00000001
     atom  170 type  1   force =    -0.00000001    0.00000001   -0.00000001
     atom  171 type  1   force =     0.00000002   -0.00000001   -0.00000002
     atom  172 type  1   force =     0.00000002   -0.00000000   -0.00000003
     atom  173 type  1   force =    -0.00000000   -0.00000001   -0.00000003
     atom  174 type  1   force =    -0.00000002    0.00000001   -0.00000004
     atom  175 type  1   force =     0.00000001   -0.00000001   -0.00000003
     atom  176 type  1   force =     0.00000000   -0.00000001   -0.00000000
     atom  177 type  1   force =    -0.00000002   -0.00000003    0.00000000
     atom  178 type  1   force =    -0.00000001   -0.00000001    0.00000002
     atom  179 type  1   force =    -0.00000001   -0.00000001    0.00000003
     atom  180 type  1   force =    -0.00000000   -0.00000000    0.00000002
     atom  181 type  1   force =    -0.00000001   -0.00000002    0.00000002
     atom  182 type  1   force =    -0.00000000   -0.00000002    0.00000002
     atom  183 type  1   force =    -0.00000001   -0.00000001    0.00000001
     atom  184 type  1   force =     0.00000001   -0.00000002    0.00000000
     atom  185 type  1   force =    -0.00000001   -0.00000002    0.00000000
     atom  186 type  1   force =     0.00000000   -0.00000003   -0.00000001
     atom  187 type  1   force =     0.00000000   -0.00000002   -0.00000002
     atom  188 type  1   force =     0.00000001   -0.00000002   -0.00000002
     atom  189 type  1   force =    -0.00000000   -0.00000003   -0.00000002
     atom  190 type  1   force =    -0.00000000   -0.00000002   -0.00000003
     atom  191 type  1   force =    -0.00000000   -0.00000002   -0.00000002
     atom  192 type  1   force =    -0.00000010   -0.00000004   -0.00000000
     atom  193 type  1   force =    -0.00000010    0.00000001   -0.00000001
     atom  194 type  1   force =    -0.00000007   -0.00000005    0.00000008
     atom  195 type  1   force =    -0.00000009    0.00000000    0.00000005
     atom  196 type  1   force =    -0.00000005   -0.00000002    0.00000005
     atom  197 type  1   force =    -0.00000004   -0.00000000    0.00000009
     atom  198 type  1   force =    -0.00000002   -0.00000002    0.00000004
     atom  199 type  1   force =    -0.00000003    0.00000000    0.00000002
     atom  200 type  1   force =    -0.00000002   -0.00000002    0.00000000
     atom  201 type  1   force =    -0.00000002   -0.00000000   -0.00000000
     atom  202 type  1   force =    -0.00000004   -0.00000002   -0.00000004
     atom  203 type  1   force =    -0.00000003    0.00000001   -0.00000002
     atom  204 type  1   force =    -0.00000004   -0.00000002   -0.00000005
     atom  205 type  1   force =    -0.00000006    0.00000002   -0.00000009
     atom  206 type  1   force =    -0.00000008   -0.00000005   -0.00000008
     atom  207 type  1   force =    -0.00000009    0.00000001   -0.00000006
     atom  208 type  1   force =    -0.00000009    0.00000004   -0.00000001
     atom  209 type  1   force =    -0.00000005    0.00000006   -0.00000001
     atom  210 type  1   force =    -0.00000006    0.00000006    0.00000007
     atom  211 type  1   force =    -0.00000005    0.00000003    0.00000003
     atom  212 type  1   force =    -0.00000005    0.00000001    0.00000005
     atom  213 type  1   force =    -0.00000002    0.00000004    0.00000006
     atom  214 type  1   force =    -0.00000002    0.00000002    0.00000004
     atom  215 type  1   force =    -0.00000003    0.00000002    0.00000003
     atom  216 type  1   force =    -0.00000002    0.00000002    0.00000001
     atom  217 type  1   force =    -0.00000002    0.00000002    0.00000001
     atom  218 type  1   force =    -0.00000004    0.00000003   -0.00000003
     atom  219 type  1   force =    -0.00000002    0.00000002   -0.00000001
     atom  220 type  1   force =    -0.00000005    0.00000003   -0.00000005
     atom  221 type  1   force =    -0.00000003    0.00000003   -0.00000006
     atom  222 type  1   force =    -0.00000007    0.00000007   -0.00000008
     atom  223 type  1   force =    -0.00000005    0.00000002   -0.00000005
     atom  224 type  1   force =    -0.00000005    0.00000002   -0.00000001
     atom  225 type  1   force =    -0.00000005    0.00000001   -0.00000000
     atom  226 type  1   force =    -0.00000003    0.00000003    0.00000004
     atom  227 type  1   force =    -0.00000003    0.00000001    0.00000003
     atom  228 type  1   force =    -0.00000002    0.00000003    0.00000004
     atom  229 type  1   force =    -0.00000002    0.00000001    0.00000004
     atom  230 type  1   force =    -0.00000002    0.00000002    0.00000002
     atom  231 type  1   force =    -0.00000002    0.00000000    0.00000002
     atom  232 type  1   force =    -0.00000003    0.00000002    0.00000001
     atom  233 type  1   force =    -0.00000003    0.00000000    0.00000001
     atom  234 type  1   force =    -0.00000003    0.00000001   -0.00000001
     atom  235 type  1   force =    -0.00000002   -0.00000000   -0.00000001
     atom  236 type  1   force =    -0.00000003    0.00000001   -0.00000004
     atom  237 type  1   force =    -0.00000003    0.00000000   -0.00000004
     atom  238 type  1   force =    -0.00000003    0.00000002   -0.00000006
     atom  239 type  1   force =    -0.00000004    0.00000001   -0.00000004
     atom  240 type  1   force =    -0.00000004   -0.00000002   -0.00000001
     atom  241 type  1   force =    -0.00000007   -0.00000008   -0.00000001
     atom  242 type  1   force =    -0.00000005   -0.00000004    0.00000005
     atom  243 type  1   force =    -0.00000006   -0.00000005    0.00000004
     atom  244 type  1   force =    -0.00000002   -0.00000002    0.00000003
     atom  245 type  1   force =    -0.00000003   -0.00000005    0.00000007
     atom  246 type  1   force =    -0.00000002   -0.00000002    0.00000001
     atom  247 type  1   force =    -0.00000001   -0.00000002    0.00000002
     atom  248 type  1   force =    -0.00000002   -0.00000002    0.00000000
     atom  249 type  1   force =    -0.00000002   -0.00000002   -0.00000000
     atom  250 type  1   force =    -0.00000003   -0.00000002   -0.00000001
     atom  251 type  1   force =    -0.00000002   -0.00000003   -0.00000002
     atom  252 type  1   force =    -0.00000002   -0.00000002   -0.00000003
     atom  253 type  1   force =    -0.00000004   -0.00000005   -0.00000006
     atom  254 type  1   force =    -0.00000005   -0.00000003   -0.00000006
     atom  255 type  1   force =    -0.00000005   -0.00000005   -0.00000005

     Total force =     0.008489     Total SCF correction =     0.000001


     Computing stress (Cartesian axis) and pressure

          total   stress  (Ry/bohr**3)                   (kbar)     P=   -9.87
  -0.00006712  -0.00000000   0.00000000         -9.87     -0.00      0.00
  -0.00000000  -0.00006710   0.00000000         -0.00     -9.87      0.00
   0.00000000   0.00000000  -0.00006712          0.00      0.00     -9.87

     kinetic stress (kbar)   1424.99     -0.00      0.00
                               -0.00   1424.96      0.00
                                0.00      0.00   1424.99

     local   stress (kbar)    613.50     -0.00      0.00
                               -0.00    604.26      0.00
                                0.00      0.00    613.50

     nonloc. stress (kbar)   1033.33      0.00     -0.00
                                0.00   1033.35     -0.00
                               -0.00     -0.00   1033.33

     hartree stress (kbar)      5.65     -0.00      0.00
                               -0.00      9.70     -0.00
                                0.00     -0.00      5.65

     exc-cor stress (kbar)    499.53      0.00     -0.00
                                0.00    499.53     -0.00
                               -0.00     -0.00    499.53

     corecor stress (kbar)  -1265.23     -0.00      0.00
                               -0.00  -1265.23      0.00
                                0.00      0.00  -1265.23

     ewald   stress (kbar)  -2321.64      0.00     -0.00
                                0.00  -2316.44      0.00
                               -0.00      0.00  -2321.64

     hubbard stress (kbar)      0.00      0.00      0.00
                                0.00      0.00      0.00
                                0.00      0.00      0.00

     london  stress (kbar)      0.00      0.00      0.00
                                0.00      0.00      0.00
                                0.00      0.00      0.00

     DFT-D3  stress (kbar)      0.00      0.00      0.00
                                0.00      0.00      0.00
                                0.00      0.00      0.00

     XDM     stress (kbar)      0.00      0.00      0.00
                                0.00      0.00      0.00
                                0.00      0.00      0.00

     dft-nl  stress (kbar)      0.00      0.00      0.00
                                0.00      0.00      0.00
                                0.00      0.00      0.00

     TS-vdW  stress (kbar)      0.00      0.00      0.00
                                0.00      0.00      0.00
                                0.00      0.00      0.00



     Writing output data file aiida.save/
 
     init_run     :    200.28s CPU    202.61s WALL (       1 calls)
     electrons    :   8045.57s CPU   8110.79s WALL (       1 calls)
     forces       :     97.49s CPU     98.38s WALL (       1 calls)
     stress       :   1144.31s CPU   1145.80s WALL (       1 calls)

     Called by init_run:
     wfcinit      :    186.61s CPU    188.51s WALL (       1 calls)
     wfcinit:atom :      0.33s CPU      0.60s WALL (       2 calls)
     wfcinit:wfcr :    183.97s CPU    184.84s WALL (       2 calls)
     potinit      :      2.27s CPU      2.46s WALL (       1 calls)
     hinit0       :      2.63s CPU      2.71s WALL (       1 calls)

     Called by electrons:
     c_bands      :   7024.31s CPU   7078.20s WALL (      27 calls)
     sum_band     :    938.04s CPU    942.06s WALL (      27 calls)
     v_of_rho     :     39.75s CPU     42.10s WALL (      27 calls)
     v_h          :      3.49s CPU      3.50s WALL (      27 calls)
     v_xc         :     37.94s CPU     40.35s WALL (      29 calls)
     newd         :      8.00s CPU      9.62s WALL (      27 calls)
     PAW_pot      :      4.84s CPU      5.56s WALL (      27 calls)
     mix_rho      :     25.54s CPU     27.68s WALL (      27 calls)

     Called by c_bands:
     init_us_2    :     85.28s CPU     85.84s WALL (     114 calls)
     cegterg      :   6134.71s CPU   6186.18s WALL (      54 calls)

     Called by sum_band:
     sum_band:bec :      1.51s CPU      1.51s WALL (      54 calls)
     addusdens    :      6.36s CPU      8.56s WALL (      27 calls)

     Called by *egterg:
     h_psi        :   3927.29s CPU   3943.85s WALL (     280 calls)
     s_psi        :   1237.31s CPU   1239.75s WALL (     280 calls)
     g_psi        :      5.13s CPU      5.13s WALL (     224 calls)
     cdiaghg      :    373.17s CPU    379.86s WALL (     276 calls)
     cegterg:over :    310.67s CPU    312.54s WALL (     224 calls)
     cegterg:upda :    229.33s CPU    239.70s WALL (     224 calls)
     cegterg:last :    133.56s CPU    133.62s WALL (      58 calls)
     cdiaghg:chol :     16.38s CPU     16.53s WALL (     276 calls)
     cdiaghg:inve :      7.80s CPU      7.80s WALL (     276 calls)
     cdiaghg:para :     83.36s CPU     84.84s WALL (     552 calls)

     Called by h_psi:
     h_psi:pot    :   3921.81s CPU   3930.33s WALL (     280 calls)
     h_psi:calbec :   1214.98s CPU   1215.05s WALL (     280 calls)
     vloc_psi     :   1453.39s CPU   1459.12s WALL (     280 calls)
     add_vuspsi   :   1253.43s CPU   1256.16s WALL (     280 calls)

     General routines
     calbec       :   1769.30s CPU   1769.40s WALL (     344 calls)
     fft          :     41.95s CPU     44.88s WALL (     376 calls)
     ffts         :     12.12s CPU     12.15s WALL (     425 calls)
     fftw         :   1504.94s CPU   1510.44s WALL (  150106 calls)
     interpolate  :      3.83s CPU      4.38s WALL (      27 calls)
 
     Parallel routines
     fft_scatt_xy :    497.18s CPU    498.84s WALL (  150907 calls)
     fft_scatt_yz :    296.21s CPU    298.85s WALL (  150907 calls)

     PAW routines
     PAW_pot      :      4.84s CPU      5.56s WALL (      27 calls)
 
     PWSCF        :      2h41m CPU      2h43m WALL

 
   This run was terminated on:   1:47:47  27Feb2020            

=------------------------------------------------------------------------------=
   JOB DONE.
=------------------------------------------------------------------------------=
