begin
comment 255 atoms, species Al254Mg
lattice     30.6664728719     0.0000000000     0.0000000000
lattice      0.0000000000    30.6664728719     0.0000000000
lattice      0.0000000000     0.0000000000    30.6664728719
atom      3.7808510405    30.6538474850     3.7808510405   Al  0.0 0.0    3.02859977e-04 -3.91189971e-04  3.02859977e-04
atom      3.8198618606     3.7278041757     0.0000000000   Al  0.0 0.0   -4.27539968e-04  1.86234986e-04 -4.99999962e-09
atom      0.0000000000     3.7278041757     3.8198618606   Al  0.0 0.0   -4.99999962e-09  1.86229986e-04 -4.27539968e-04
atom      0.0000000000    30.6625536967     7.6618986478   Al  0.0 0.0    4.99999962e-09 -3.34914975e-04  4.63129965e-04
atom      3.8371792179     3.8315273869     7.6811111931   Al  0.0 0.0   -3.75999972e-06 -3.03424977e-04 -6.84199949e-05
atom      3.8326589798    30.6658656757    11.5014115843   Al  0.0 0.0   -3.88949971e-05 -4.73449964e-05  4.54799966e-05
atom      0.0000000000     3.8329380447    11.5040887673   Al  0.0 0.0    4.99999962e-09 -3.56799973e-05  7.47349944e-05
atom      0.0000000000    30.6656970101    15.3332364360   Al  0.0 0.0    1.49999989e-08 -4.72549964e-05 -9.99999925e-09
atom      3.8336004405     3.8336893733    15.3332364360   Al  0.0 0.0    5.71399957e-05  9.59999928e-07 -9.99999925e-09
atom      3.8326589798    30.6658656757    19.1650612877   Al  0.0 0.0   -3.88949971e-05 -4.73499964e-05 -4.54949966e-05
atom      0.0000000000     3.8329380447    19.1623841046   Al  0.0 0.0    1.49999989e-08 -3.56799973e-05 -7.47549944e-05
atom      0.0000000000    30.6625536967    23.0045742241   Al  0.0 0.0    9.99999925e-09 -3.34919975e-04 -4.63139965e-04
atom      3.8371792179     3.8315273869    22.9853616789   Al  0.0 0.0   -3.75999972e-06 -3.03419977e-04  6.84499949e-05
atom      3.7808510405    30.6538474850    26.8856218314   Al  0.0 0.0    3.02869977e-04 -3.91189971e-04 -3.02854977e-04
atom      0.0000000000     3.7278041757    26.8466110113   Al  0.0 0.0    0.00000000e+00  1.86239986e-04  4.27549968e-04
atom      0.0000000000     7.6561854839     0.0000000000   Mg  0.0 0.0    2.49999981e-08  1.68054987e-04  4.99999962e-09
atom      3.8785728229    11.5457277042     0.0000000000   Al  0.0 0.0   -3.01604977e-04 -2.96099978e-04  9.99999925e-09
atom      3.8827618631     7.6744412352     3.8827618631   Al  0.0 0.0   -3.26659975e-04 -3.02489977e-04 -3.26659975e-04
atom      0.0000000000    11.5457277042     3.8785728229   Al  0.0 0.0    1.49999989e-08 -2.96089978e-04 -3.01604977e-04
atom      0.0000000000     7.6543270957     7.6583658701   Al  0.0 0.0    9.99999925e-09 -4.66479965e-04 -4.69194965e-04
atom      3.8346247007    11.5014575840     7.6758978927   Al  0.0 0.0    1.17489991e-04  1.71204987e-04  3.56264973e-04
atom      3.8321223165     7.6667623504    11.5012521186   Al  0.0 0.0   -4.85099964e-05  1.74649987e-05  7.18699946e-05
atom      0.0000000000    11.5000775927    11.5029571745   Al  0.0 0.0    4.99999962e-09 -1.02229992e-04 -4.08499969e-06
atom      0.0000000000     7.6671027482    15.3332364360   Al  0.0 0.0   -0.00000000e+00  3.76999972e-05 -4.99999962e-09
atom      3.8337353730    11.5007062554    15.3332364360   Al  0.0 0.0    3.88999971e-05  2.43499982e-05 -4.99999962e-09
atom      3.8321223165     7.6667623504    19.1652207533   Al  0.0 0.0   -4.85149964e-05  1.74699987e-05 -7.19049946e-05
atom      0.0000000000    11.5000775927    19.1635156974   Al  0.0 0.0    9.99999925e-09 -1.02234992e-04  4.06499969e-06
atom      0.0000000000     7.6543270957    23.0081070018   Al  0.0 0.0    9.99999925e-09 -4.66474965e-04  4.69234965e-04
atom      3.8346247007    11.5014575840    22.9905749792   Al  0.0 0.0    1.17484991e-04  1.71214987e-04 -3.56229973e-04
atom      3.8827618631     7.6744412352    26.7837110088   Al  0.0 0.0   -3.26664975e-04 -3.02504977e-04  3.26664975e-04
atom      0.0000000000    11.5457277042    26.7879000490   Al  0.0 0.0    1.49999989e-08 -2.96089978e-04  3.01559977e-04
atom      0.0000000000    15.3374193429     0.0000000000   Al  0.0 0.0    4.99999962e-09  4.09499969e-06  0.00000000e+00
atom      3.8329135115    19.1675514053     0.0000000000   Al  0.0 0.0   -4.62449965e-05  1.18609991e-04  4.99999962e-09
atom      3.8368020202    15.3424977108     3.8368020202   Al  0.0 0.0    1.97379985e-04  3.02039977e-04  1.97389985e-04
atom      0.0000000000    19.1675514053     3.8329135115   Al  0.0 0.0    9.99999925e-09  1.18619991e-04 -4.62399965e-05
atom      0.0000000000    15.3375757419     7.6712335221   Al  0.0 0.0    1.49999989e-08  3.43104974e-04  3.75474972e-04
atom      3.8318524515    19.1678243369     7.6671027482   Al  0.0 0.0   -3.87299971e-05  9.41699929e-05  5.97149955e-05
atom      3.8336065738    15.3339202983    11.5008626544   Al  0.0 0.0    1.33549990e-05  5.12899961e-05  6.82399949e-05
atom      0.0000000000    19.1668092766    11.5002370583   Al  0.0 0.0    1.49999989e-08  1.61654988e-04 -4.49049966e-05
atom      0.0000000000    15.3339601647    15.3332364360   Al  0.0 0.0    0.00000000e+00  4.77899964e-05 -9.99999925e-09
atom      3.8336863066    19.1658586160    15.3332364360   Al  0.0 0.0    7.06499947e-06  1.51299989e-05 -1.99999985e-08
atom      3.8336065738    15.3339202983    19.1656132842   Al  0.0 0.0    1.33549990e-05  5.12999961e-05 -6.82699949e-05
atom      0.0000000000    19.1668092766    19.1662358136   Al  0.0 0.0    9.99999925e-09  1.61654988e-04  4.49499966e-05
atom      0.0000000000    15.3375757419    22.9952393498   Al  0.0 0.0    1.99999985e-08  3.43104974e-04 -3.75449972e-04
atom      3.8318524515    19.1678243369    22.9993701237   Al  0.0 0.0   -3.87299971e-05  9.41799929e-05 -5.97449955e-05
atom      3.8368020202    15.3424977108    26.8296708517   Al  0.0 0.0    1.97379985e-04  3.02029977e-04 -1.97384985e-04
atom      0.0000000000    19.1675514053    26.8335593604   Al  0.0 0.0    4.99999962e-09  1.18609991e-04  4.62599965e-05
atom      0.0000000000    23.0092324613     0.0000000000   Al  0.0 0.0   -4.99999962e-09 -4.25699968e-05  0.00000000e+00
atom      3.7738069517    26.8918869918     0.0000000000   Al  0.0 0.0    8.23499938e-06 -9.05899932e-05 -4.99999962e-09
atom      3.8345419012    22.9939544246     3.8345419012   Al  0.0 0.0   -1.21769991e-04  3.86159971e-04 -1.21764991e-04
atom      0.0000000000    26.8918869918     3.7738069517   Al  0.0 0.0   -4.99999962e-09 -9.05849932e-05  8.22999938e-06
atom      0.0000000000    23.0119096444     7.6550262912   Al  0.0 0.0    1.99999985e-08  4.57264966e-04 -4.16404969e-04
atom      3.8335237743    26.8323695013     7.6726135134   Al  0.0 0.0   -1.46804989e-04  5.98899955e-05 -3.19884976e-04
atom      3.8324443145    22.9995755890    11.4989214667   Al  0.0 0.0   -3.17899976e-05 -2.23849983e-05 -1.17999991e-05
atom      0.0000000000    26.8330840301    11.5022579789   Al  0.0 0.0    1.99999985e-08 -1.74699987e-05  3.59549973e-05
atom      0.0000000000    22.9994191900    15.3332364360   Al  0.0 0.0    1.99999985e-08 -4.24599968e-05 -1.99999985e-08
atom      3.8339469716    26.8327190991    15.3332364360   Al  0.0 0.0    4.35949967e-05 -3.42899974e-05 -1.99999985e-08
atom      3.8324443145    22.9995755890    19.1675514053   Al  0.0 0.0   -3.17849976e-05 -2.23899983e-05  1.18499991e-05
atom      0.0000000000    26.8330840301    19.1642148930   Al  0.0 0.0    9.99999925e-09 -1.74699987e-05 -3.59649973e-05
atom      0.0000000000    23.0119096444    23.0114465807   Al  0.0 0.0    1.99999985e-08  4.57259966e-04  4.16374969e-04
atom      3.8335237743    26.8323695013    22.9938593585   Al  0.0 0.0   -1.46804989e-04  5.98799955e-05  3.19904976e-04
atom      3.8345419012    22.9939544246    26.8319309707   Al  0.0 0.0   -1.21774991e-04  3.86174971e-04  1.21779991e-04
atom      0.0000000000    26.8918869918    26.8926659202   Al  0.0 0.0    4.99999962e-09 -9.05949932e-05 -8.21999938e-06
atom      7.6618986478    30.6625536967     0.0000000000   Al  0.0 0.0    4.63119965e-04 -3.34914975e-04  4.99999962e-09
atom     11.5040887673     3.8329380447     0.0000000000   Al  0.0 0.0    7.47299944e-05 -3.56799973e-05  9.99999925e-09
atom     11.5014115843    30.6658656757     3.8326589798   Al  0.0 0.0    4.54699966e-05 -4.73399964e-05 -3.88949971e-05
atom      7.6811111931     3.8315273869     3.8371792179   Al  0.0 0.0   -6.84299949e-05 -3.03424977e-04 -3.76499972e-06
atom      7.6550508244    30.6663624726     7.6550508244   Al  0.0 0.0   -3.99104970e-04 -2.35649982e-05 -3.99094970e-04
atom     11.4985964020     3.8323737816     7.6672928804   Al  0.0 0.0    5.04999962e-05 -5.07599962e-05  6.38799952e-05
atom     11.4997034617     0.0002974648    11.4997034617   Al  0.0 0.0   -1.09029992e-04 -2.09999984e-07 -1.09024992e-04
atom      7.6672928804     3.8323737816    11.4985964020   Al  0.0 0.0    6.38799952e-05 -5.07549962e-05  5.04949962e-05
atom      7.6673511467    30.6661570072    15.3332364360   Al  0.0 0.0    4.40549967e-05 -7.57499943e-06 -1.99999985e-08
atom     11.5005958561     3.8335299076    15.3332364360   Al  0.0 0.0   -1.19749991e-05 -4.69499965e-06 -1.99999985e-08
atom     11.4997034617     0.0002974648    19.1667694102   Al  0.0 0.0   -1.09029992e-04 -2.14999984e-07  1.09044992e-04
atom      7.6672928804     3.8323737816    19.1678764699   Al  0.0 0.0    6.38749952e-05 -5.07549962e-05 -5.04849962e-05
atom      7.6550508244    30.6663624726    23.0114220475   Al  0.0 0.0   -3.99094970e-04 -2.35749982e-05  3.99114970e-04
atom     11.4985964020     3.8323737816    22.9991799915   Al  0.0 0.0    5.04949962e-05 -5.07599962e-05 -6.38599952e-05
atom     11.5014115843    30.6658656757    26.8338138921   Al  0.0 0.0    4.54749966e-05 -4.73449964e-05  3.88499971e-05
atom      7.6811111931     3.8315273869    26.8292936540   Al  0.0 0.0   -6.84349949e-05 -3.03419977e-04  3.76499972e-06
atom      7.6583658701     7.6543270957     0.0000000000   Al  0.0 0.0   -4.69204965e-04 -4.66479965e-04  4.99999962e-09
atom     11.5029571745    11.5000775927     0.0000000000   Al  0.0 0.0   -4.07999969e-06 -1.02234992e-04  4.99999962e-09
atom     11.5012521186     7.6667623504     3.8321223165   Al  0.0 0.0    7.18899946e-05  1.74649987e-05 -4.84999964e-05
atom      7.6758978927    11.5014575840     3.8346247007   Al  0.0 0.0    3.56254973e-04  1.71209987e-04  1.17494991e-04
atom      7.6747662998     7.6701601956     7.6747662998   Al  0.0 0.0    4.03534970e-04  3.38599975e-05  4.03544970e-04
atom     11.4996298622    11.4994673299     7.6664250192   Al  0.0 0.0    9.46899929e-05  3.25499976e-05  4.02499970e-05
atom     11.5000775927     7.6660324883    11.5000775927   Al  0.0 0.0    8.91249933e-05  2.24999983e-06  8.91249933e-05
atom      7.6664250192    11.4994673299    11.4996298622   Al  0.0 0.0    4.02449970e-05  3.25599976e-05  9.46799929e-05
atom      7.6676700780     7.6669371493    15.3332364360   Al  0.0 0.0    3.08499977e-05 -1.12999992e-05 -1.99999985e-08
atom     11.4996697286    11.4997801279    15.3332364360   Al  0.0 0.0   -2.88099978e-05 -2.63149980e-05 -1.99999985e-08
atom     11.5000775927     7.6660324883    19.1663952792   Al  0.0 0.0    8.91349933e-05  2.25499983e-06 -8.91099933e-05
atom      7.6664250192    11.4994673299    19.1668430097   Al  0.0 0.0    4.02449970e-05  3.25699976e-05 -9.46699929e-05
atom      7.6747662998     7.6701601956    22.9917065721   Al  0.0 0.0    4.03544970e-04  3.38549975e-05 -4.03519970e-04
atom     11.4996298622    11.4994673299    23.0000478527   Al  0.0 0.0    9.46799929e-05  3.25549976e-05 -4.02399970e-05
atom     11.5012521186     7.6667623504    26.8343505554   Al  0.0 0.0    7.18899946e-05  1.74599987e-05  4.84999964e-05
atom      7.6758978927    11.5014575840    26.8318481712   Al  0.0 0.0    3.56254973e-04  1.71219987e-04 -1.17534991e-04
atom      7.6712335221    15.3375757419     0.0000000000   Al  0.0 0.0    3.75469972e-04  3.43109974e-04  4.99999962e-09
atom     11.5002370583    19.1668092766     0.0000000000   Al  0.0 0.0   -4.49099966e-05  1.61659988e-04  9.99999925e-09
atom     11.5008626544    15.3339202983     3.8336065738   Al  0.0 0.0    6.82549949e-05  5.12949961e-05  1.33649990e-05
atom      7.6671027482    19.1678243369     3.8318524515   Al  0.0 0.0    5.97149955e-05  9.41849929e-05 -3.87249971e-05
atom      7.6671150148    15.3334081682     7.6671150148   Al  0.0 0.0    1.02499992e-05  2.10749984e-05  1.02549992e-05
atom     11.4996605287    19.1664320790     7.6657442235   Al  0.0 0.0    2.05549985e-05 -3.29799975e-05 -2.32999982e-06
atom     11.4993630639    15.3329420378    11.4993630639   Al  0.0 0.0   -4.14349969e-05 -4.26499968e-06 -4.14299969e-05
atom      7.6657442235    19.1664320790    11.4996605287   Al  0.0 0.0   -2.33499982e-06 -3.29749975e-05  2.05549985e-05
atom      7.6683846068    15.3337301662    15.3332364360   Al  0.0 0.0    4.45949966e-05  1.31999990e-05 -1.99999985e-08
atom     11.4999334603    19.1670852749    15.3332364360   Al  0.0 0.0   -1.72649987e-05  4.62899965e-05 -1.49999989e-08
atom     11.4993630639    15.3329420378    19.1671098080   Al  0.0 0.0   -4.14199969e-05 -4.25999968e-06  4.14599969e-05
atom      7.6657442235    19.1664320790    19.1668123433   Al  0.0 0.0   -2.34499982e-06 -3.29749975e-05 -2.05199985e-05
atom      7.6671150148    15.3334081682    22.9993578571   Al  0.0 0.0    1.02599992e-05  2.10749984e-05 -1.02299992e-05
atom     11.4996605287    19.1664320790    23.0007286484   Al  0.0 0.0    2.05499985e-05 -3.29849975e-05  2.35499982e-06
atom     11.5008626544    15.3339202983    26.8328662981   Al  0.0 0.0    6.82349949e-05  5.12949961e-05 -1.33599990e-05
atom      7.6671027482    19.1678243369    26.8346204204   Al  0.0 0.0    5.97199955e-05  9.41699929e-05  3.86999971e-05
atom      7.6550262912    23.0119096444     0.0000000000   Al  0.0 0.0   -4.16404969e-04  4.57264966e-04  4.99999962e-09
atom     11.5022579789    26.8330840301     0.0000000000   Al  0.0 0.0    3.59449973e-05 -1.74699987e-05  9.99999925e-09
atom     11.4989214667    22.9995755890     3.8324443145   Al  0.0 0.0   -1.18049991e-05 -2.23899983e-05 -3.17899976e-05
atom      7.6726135134    26.8323695013     3.8335237743   Al  0.0 0.0   -3.19889976e-04  5.98999955e-05 -1.46804989e-04
atom      7.6705772596    22.9963280096     7.6705772596   Al  0.0 0.0    4.29099968e-05 -2.87649978e-05  4.29099968e-05
atom     11.4982345377    26.8346664201     7.6662471537   Al  0.0 0.0   -3.11449977e-05  4.96149963e-05  1.03649992e-05
atom     11.5000101264    23.0004587834    11.5000101264   Al  0.0 0.0    3.67149972e-05 -4.79999964e-07  3.67149972e-05
atom      7.6662471537    26.8346664201    11.4982345377   Al  0.0 0.0    1.03549992e-05  4.96149963e-05 -3.11399977e-05
atom      7.6675228789    22.9993977235    15.3332364360   Al  0.0 0.0    1.89799986e-05  1.06699992e-05 -2.49999981e-08
atom     11.5008779876    26.8325535001    15.3332364360   Al  0.0 0.0   -3.78999972e-06 -1.37899990e-05 -9.99999925e-09
atom     11.5000101264    23.0004587834    19.1664658121   Al  0.0 0.0    3.67199972e-05 -4.64999965e-07 -3.67349972e-05
atom      7.6662471537    26.8346664201    19.1682383342   Al  0.0 0.0    1.03599992e-05  4.96149963e-05  3.11649977e-05
atom      7.6705772596    22.9963280096    22.9958956123   Al  0.0 0.0    4.29049968e-05 -2.87649978e-05 -4.29399968e-05
atom     11.4982345377    26.8346664201    23.0002257183   Al  0.0 0.0   -3.11499977e-05  4.96149963e-05 -1.03399992e-05
atom     11.4989214667    22.9995755890    26.8340316241   Al  0.0 0.0   -1.17949991e-05 -2.23849983e-05  3.17599976e-05
atom      7.6726135134    26.8323695013    26.8329490976   Al  0.0 0.0   -3.19894976e-04  5.99049955e-05  1.46819989e-04
atom     15.3332364360    30.6656970101     0.0000000000   Al  0.0 0.0   -0.00000000e+00 -4.72499964e-05  9.99999925e-09
atom     19.1623841046     3.8329380447     0.0000000000   Al  0.0 0.0   -7.47549944e-05 -3.56799973e-05  9.99999925e-09
atom     19.1650612877    30.6658656757     3.8326589798   Al  0.0 0.0   -4.54899966e-05 -4.73449964e-05 -3.88949971e-05
atom     15.3332364360     3.8336893733     3.8336004405   Al  0.0 0.0   -9.99999925e-09  9.74999927e-07  5.71449957e-05
atom     15.3332364360    30.6661570072     7.6673511467   Al  0.0 0.0   -1.99999985e-08 -7.56999943e-06  4.40599967e-05
atom     19.1678764699     3.8323737816     7.6672928804   Al  0.0 0.0   -5.04849962e-05 -5.07549962e-05  6.38799952e-05
atom     19.1667694102     0.0002974648    11.4997034617   Al  0.0 0.0    1.09059992e-04 -2.04999985e-07 -1.09019992e-04
atom     15.3332364360     3.8335299076    11.5005958561   Al  0.0 0.0   -1.49999989e-08 -4.68999965e-06 -1.19699991e-05
atom     15.3332364360    30.6660435413    15.3332364360   Al  0.0 0.0   -9.99999925e-09 -2.65999980e-05 -1.49999989e-08
atom     19.1658770158     3.8335299076    15.3332364360   Al  0.0 0.0    1.19549991e-05 -4.69999965e-06 -1.99999985e-08
atom     19.1667694102     0.0002974648    19.1667694102   Al  0.0 0.0    1.09049992e-04 -2.14999984e-07  1.09044992e-04
atom     15.3332364360     3.8335299076    19.1658770158   Al  0.0 0.0   -1.49999989e-08 -4.68999965e-06  1.19499991e-05
atom     15.3332364360    30.6661570072    22.9991217252   Al  0.0 0.0   -1.49999989e-08 -7.56999943e-06 -4.40349967e-05
atom     19.1678764699     3.8323737816    22.9991799915   Al  0.0 0.0   -5.04749962e-05 -5.07549962e-05 -6.38699952e-05
atom     19.1650612877    30.6658656757    26.8338138921   Al  0.0 0.0   -4.54899966e-05 -4.73499964e-05  3.88549971e-05
atom     15.3332364360     3.8336893733    26.8328724314   Al  0.0 0.0   -9.99999925e-09  9.74999927e-07 -5.71499957e-05
atom     15.3332364360     7.6671027482     0.0000000000   Al  0.0 0.0    4.99999962e-09  3.76999972e-05  0.00000000e+00
atom     19.1635156974    11.5000775927     0.0000000000   Al  0.0 0.0    4.05999969e-06 -1.02244992e-04  4.99999962e-09
atom     19.1652207533     7.6667623504     3.8321223165   Al  0.0 0.0   -7.19149946e-05  1.74649987e-05 -4.85049964e-05
atom     15.3332364360    11.5007062554     3.8337353730   Al  0.0 0.0   -9.99999925e-09  2.43399982e-05  3.89099971e-05
atom     15.3332364360     7.6669371493     7.6676700780   Al  0.0 0.0   -9.99999925e-09 -1.12999992e-05  3.08399977e-05
atom     19.1668430097    11.4994673299     7.6664250192   Al  0.0 0.0   -9.46699929e-05  3.25549976e-05  4.02499970e-05
atom     19.1663952792     7.6660324883    11.5000775927   Al  0.0 0.0   -8.91149933e-05  2.25999983e-06  8.91249933e-05
atom     15.3332364360    11.4997801279    11.4996697286   Al  0.0 0.0   -9.99999925e-09 -2.63099980e-05 -2.88149978e-05
atom     15.3332364360     7.6678724767    15.3332364360   Al  0.0 0.0   -1.49999989e-08  2.79149979e-05 -1.49999989e-08
atom     19.1668031433    11.4997801279    15.3332364360   Al  0.0 0.0    2.87949978e-05 -2.62999980e-05 -1.99999985e-08
atom     19.1663952792     7.6660324883    19.1663952792   Al  0.0 0.0   -8.91099933e-05  2.24999983e-06 -8.90999933e-05
atom     15.3332364360    11.4997801279    19.1668031433   Al  0.0 0.0   -1.49999989e-08 -2.63049980e-05  2.87949978e-05
atom     15.3332364360     7.6669371493    22.9988027939   Al  0.0 0.0   -1.99999985e-08 -1.12949992e-05 -3.08299977e-05
atom     19.1668430097    11.4994673299    23.0000478527   Al  0.0 0.0   -9.46499929e-05  3.25549976e-05 -4.02399970e-05
atom     19.1652207533     7.6667623504    26.8343505554   Al  0.0 0.0   -7.19099946e-05  1.74699987e-05  4.85049964e-05
atom     15.3332364360    11.5007062554    26.8327374989   Al  0.0 0.0   -4.99999962e-09  2.43299982e-05 -3.89049971e-05
atom     15.3332364360    15.3339601647     0.0000000000   Al  0.0 0.0   -4.99999962e-09  4.77899964e-05 -0.00000000e+00
atom     19.1662358136    19.1668092766     0.0000000000   Al  0.0 0.0    4.49549966e-05  1.61664988e-04  9.99999925e-09
atom     19.1656132842    15.3339202983     3.8336065738   Al  0.0 0.0   -6.82699949e-05  5.13049961e-05  1.33699990e-05
atom     15.3332364360    19.1658586160     3.8336863066   Al  0.0 0.0   -1.49999989e-08  1.51349989e-05  7.07499947e-06
atom     15.3332364360    15.3337301662     7.6683846068   Al  0.0 0.0   -1.49999989e-08  1.31999990e-05  4.45849966e-05
atom     19.1668123433    19.1664320790     7.6657442235   Al  0.0 0.0   -2.05199985e-05 -3.29749975e-05 -2.33499982e-06
atom     19.1671098080    15.3329420378    11.4993630639   Al  0.0 0.0    4.14599969e-05 -4.25999968e-06 -4.14199969e-05
atom     15.3332364360    19.1670852749    11.4999334603   Al  0.0 0.0   -9.99999925e-09  4.62999965e-05 -1.72649987e-05
atom     15.3332364360    15.3337516327    15.3332364360   Al  0.0 0.0   -4.99999962e-09  3.23399976e-05 -9.99999925e-09
atom     19.1665394116    19.1670852749    15.3332364360   Al  0.0 0.0    1.72549987e-05  4.62899965e-05 -1.49999989e-08
atom     19.1671098080    15.3329420378    19.1671098080   Al  0.0 0.0    4.14499969e-05 -4.25999968e-06  4.14549969e-05
atom     15.3332364360    19.1670852749    19.1665394116   Al  0.0 0.0   -9.99999925e-09  4.62899965e-05  1.72549987e-05
atom     15.3332364360    15.3337301662    22.9980882651   Al  0.0 0.0   -9.99999925e-09  1.32099990e-05 -4.46199966e-05
atom     19.1668123433    19.1664320790    23.0007286484   Al  0.0 0.0   -2.05099985e-05 -3.29749975e-05  2.36499982e-06
atom     19.1656132842    15.3339202983    26.8328662981   Al  0.0 0.0   -6.82649949e-05  5.13049961e-05 -1.33649990e-05
atom     15.3332364360    19.1658586160    26.8327865653   Al  0.0 0.0   -9.99999925e-09  1.51349989e-05 -7.06499947e-06
atom     15.3332364360    22.9994191900     0.0000000000   Al  0.0 0.0   -1.99999985e-08 -4.24649968e-05  9.99999925e-09
atom     19.1642148930    26.8330840301     0.0000000000   Al  0.0 0.0   -3.59549973e-05 -1.74699987e-05  1.49999989e-08
atom     19.1675514053    22.9995755890     3.8324443145   Al  0.0 0.0    1.18449991e-05 -2.23949983e-05 -3.17949976e-05
atom     15.3332364360    26.8327190991     3.8339469716   Al  0.0 0.0   -9.99999925e-09 -3.42949974e-05  4.35949967e-05
atom     15.3332364360    22.9993977235     7.6675228789   Al  0.0 0.0   -1.99999985e-08  1.06599992e-05  1.89849986e-05
atom     19.1682383342    26.8346664201     7.6662471537   Al  0.0 0.0    3.11749977e-05  4.96049963e-05  1.03599992e-05
atom     19.1664658121    23.0004587834    11.5000101264   Al  0.0 0.0   -3.67349972e-05 -4.74999964e-07  3.67199972e-05
atom     15.3332364360    26.8325535001    11.5008779876   Al  0.0 0.0   -1.49999989e-08 -1.37949990e-05 -3.78499972e-06
atom     15.3332364360    22.9984746627    15.3332364360   Al  0.0 0.0    9.99999925e-09 -3.13399976e-05 -0.00000000e+00
atom     19.1655948843    26.8325535001    15.3332364360   Al  0.0 0.0    3.76499972e-06 -1.37949990e-05 -9.99999925e-09
atom     19.1664658121    23.0004587834    19.1664658121   Al  0.0 0.0   -3.67299972e-05 -4.69999965e-07 -3.67249972e-05
atom     15.3332364360    26.8325535001    19.1655948843   Al  0.0 0.0   -9.99999925e-09 -1.37999990e-05  3.75999972e-06
atom     15.3332364360    22.9993977235    22.9989499930   Al  0.0 0.0   -1.49999989e-08  1.06599992e-05 -1.89549986e-05
atom     19.1682383342    26.8346664201    23.0002257183   Al  0.0 0.0    3.11749977e-05  4.96099963e-05 -1.03399992e-05
atom     19.1675514053    22.9995755890    26.8340316241   Al  0.0 0.0    1.18399991e-05 -2.23949983e-05  3.17499976e-05
atom     15.3332364360    26.8327190991    26.8325259003   Al  0.0 0.0   -9.99999925e-09 -3.42949974e-05 -4.35949967e-05
atom     23.0045742241    30.6625536967     0.0000000000   Al  0.0 0.0   -4.63144965e-04 -3.34919975e-04  4.99999962e-09
atom     26.8466110113     3.7278041757     0.0000000000   Al  0.0 0.0    4.27549968e-04  1.86239986e-04 -4.99999962e-09
atom     26.8856218314    30.6538474850     3.7808510405   Al  0.0 0.0   -3.02849977e-04 -3.91184971e-04  3.02864977e-04
atom     22.9853616789     3.8315273869     3.8371792179   Al  0.0 0.0    6.84499949e-05 -3.03419977e-04 -3.75999972e-06
atom     23.0114220475    30.6663624726     7.6550508244   Al  0.0 0.0    3.99114970e-04 -2.35699982e-05 -3.99084970e-04
atom     26.8292936540     3.8315273869     7.6811111931   Al  0.0 0.0    3.76499972e-06 -3.03419977e-04 -6.84299949e-05
atom     26.8338138921    30.6658656757    11.5014115843   Al  0.0 0.0    3.88499971e-05 -4.73399964e-05  4.54849966e-05
atom     22.9991799915     3.8323737816    11.4985964020   Al  0.0 0.0   -6.38649952e-05 -5.07649962e-05  5.04999962e-05
atom     22.9991217252    30.6661570072    15.3332364360   Al  0.0 0.0   -4.40349967e-05 -7.56999943e-06 -2.49999981e-08
atom     26.8328724314     3.8336893733    15.3332364360   Al  0.0 0.0   -5.71449957e-05  9.64999927e-07 -9.99999925e-09
atom     26.8338138921    30.6658656757    19.1650612877   Al  0.0 0.0    3.88499971e-05 -4.73549964e-05 -4.55049966e-05
atom     22.9991799915     3.8323737816    19.1678764699   Al  0.0 0.0   -6.38649952e-05 -5.07599962e-05 -5.04799962e-05
atom     23.0114220475    30.6663624726    23.0114220475   Al  0.0 0.0    3.99104970e-04 -2.35699982e-05  3.99104970e-04
atom     26.8292936540     3.8315273869    22.9853616789   Al  0.0 0.0    3.74999972e-06 -3.03419977e-04  6.84549949e-05
atom     26.8856218314    30.6538474850    26.8856218314   Al  0.0 0.0   -3.02859977e-04 -3.91179971e-04 -3.02859977e-04
atom     22.9853616789     3.8315273869    26.8292936540   Al  0.0 0.0    6.84549949e-05 -3.03424977e-04  3.74999972e-06
atom     23.0081070018     7.6543270957     0.0000000000   Al  0.0 0.0    4.69229965e-04 -4.66469965e-04  4.99999962e-09
atom     26.7879000490    11.5457277042     0.0000000000   Al  0.0 0.0    3.01564977e-04 -2.96099978e-04  9.99999925e-09
atom     26.7837110088     7.6744412352     3.8827618631   Al  0.0 0.0    3.26664975e-04 -3.02499977e-04 -3.26659975e-04
atom     22.9905749792    11.5014575840     3.8346247007   Al  0.0 0.0   -3.56229973e-04  1.71209987e-04  1.17499991e-04
atom     22.9917065721     7.6701601956     7.6747662998   Al  0.0 0.0   -4.03524970e-04  3.38599975e-05  4.03544970e-04
atom     26.8318481712    11.5014575840     7.6758978927   Al  0.0 0.0   -1.17529991e-04  1.71209987e-04  3.56269973e-04
atom     26.8343505554     7.6667623504    11.5012521186   Al  0.0 0.0    4.85099964e-05  1.74699987e-05  7.18849946e-05
atom     23.0000478527    11.4994673299    11.4996298622   Al  0.0 0.0   -4.02349970e-05  3.25649976e-05  9.46799929e-05
atom     22.9988027939     7.6669371493    15.3332364360   Al  0.0 0.0   -3.08399977e-05 -1.13049992e-05 -2.49999981e-08
atom     26.8327374989    11.5007062554    15.3332364360   Al  0.0 0.0   -3.88899971e-05  2.43349982e-05 -9.99999925e-09
atom     26.8343505554     7.6667623504    19.1652207533   Al  0.0 0.0    4.84999964e-05  1.74749987e-05 -7.19049946e-05
atom     23.0000478527    11.4994673299    19.1668430097   Al  0.0 0.0   -4.02399970e-05  3.25649976e-05 -9.46499929e-05
atom     22.9917065721     7.6701601956    22.9917065721   Al  0.0 0.0   -4.03539970e-04  3.38699975e-05 -4.03534970e-04
atom     26.8318481712    11.5014575840    22.9905749792   Al  0.0 0.0   -1.17539991e-04  1.71209987e-04 -3.56234973e-04
atom     26.7837110088     7.6744412352    26.7837110088   Al  0.0 0.0    3.26664975e-04 -3.02494977e-04  3.26664975e-04
atom     22.9905749792    11.5014575840    26.8318481712   Al  0.0 0.0   -3.56234973e-04  1.71209987e-04 -1.17544991e-04
atom     22.9952393498    15.3375757419     0.0000000000   Al  0.0 0.0   -3.75444972e-04  3.43114974e-04  9.99999925e-09
atom     26.8335593604    19.1675514053     0.0000000000   Al  0.0 0.0    4.62699965e-05  1.18609991e-04  4.99999962e-09
atom     26.8296708517    15.3424977108     3.8368020202   Al  0.0 0.0   -1.97379985e-04  3.02034977e-04  1.97384985e-04
atom     22.9993701237    19.1678243369     3.8318524515   Al  0.0 0.0   -5.97549955e-05  9.41849929e-05 -3.87199971e-05
atom     22.9993578571    15.3334081682     7.6671150148   Al  0.0 0.0   -1.02349992e-05  2.10799984e-05  1.02599992e-05
atom     26.8346204204    19.1678243369     7.6671027482   Al  0.0 0.0    3.86949971e-05  9.41649929e-05  5.97199955e-05
atom     26.8328662981    15.3339202983    11.5008626544   Al  0.0 0.0   -1.33549990e-05  5.12899961e-05  6.82449949e-05
atom     23.0007286484    19.1664320790    11.4996605287   Al  0.0 0.0    2.35499982e-06 -3.29699975e-05  2.05449985e-05
atom     22.9980882651    15.3337301662    15.3332364360   Al  0.0 0.0   -4.46249966e-05  1.32049990e-05 -2.49999981e-08
atom     26.8327865653    19.1658586160    15.3332364360   Al  0.0 0.0   -7.06499947e-06  1.51349989e-05 -2.49999981e-08
atom     26.8328662981    15.3339202983    19.1656132842   Al  0.0 0.0   -1.33499990e-05  5.12999961e-05 -6.82599949e-05
atom     23.0007286484    19.1664320790    19.1668123433   Al  0.0 0.0    2.35999982e-06 -3.29649975e-05 -2.05099985e-05
atom     22.9993578571    15.3334081682    22.9993578571   Al  0.0 0.0   -1.02449992e-05  2.10799984e-05 -1.02449992e-05
atom     26.8346204204    19.1678243369    22.9993701237   Al  0.0 0.0    3.86899971e-05  9.41799929e-05 -5.97599955e-05
atom     26.8296708517    15.3424977108    26.8296708517   Al  0.0 0.0   -1.97374985e-04  3.02034977e-04 -1.97379985e-04
atom     22.9993701237    19.1678243369    26.8346204204   Al  0.0 0.0   -5.97649955e-05  9.41849929e-05  3.86849971e-05
atom     23.0114465807    23.0119096444     0.0000000000   Al  0.0 0.0    4.16359969e-04  4.57254966e-04  1.49999989e-08
atom     26.8926659202    26.8918869918     0.0000000000   Al  0.0 0.0   -8.21499938e-06 -9.05999932e-05 -4.99999962e-09
atom     26.8319309707    22.9939544246     3.8345419012   Al  0.0 0.0    1.21784991e-04  3.86169971e-04 -1.21774991e-04
atom     22.9938593585    26.8323695013     3.8335237743   Al  0.0 0.0    3.19894976e-04  5.98899955e-05 -1.46804989e-04
atom     22.9958956123    22.9963280096     7.6705772596   Al  0.0 0.0   -4.29449968e-05 -2.87749978e-05  4.29199968e-05
atom     26.8329490976    26.8323695013     7.6726135134   Al  0.0 0.0    1.46809989e-04  5.98949955e-05 -3.19884976e-04
atom     26.8340316241    22.9995755890    11.4989214667   Al  0.0 0.0    3.17449976e-05 -2.23899983e-05 -1.17899991e-05