
     Program PWSCF v.6.3 starts on 22Feb2020 at 14:12:40 

     This program is part of the open-source Quantum ESPRESSO suite
     for quantum simulation of materials; please cite
         "P. Giannozzi et al., J. Phys.:Condens. Matter 21 395502 (2009);
         "P. Giannozzi et al., J. Phys.:Condens. Matter 29 465901 (2017);
          URL http://www.quantum-espresso.org", 
     in publications or presentations arising from this work. More details at
     http://www.quantum-espresso.org/quote

 *** WARNING: using old-style file format, will disappear from next version ***

     Parallel version (MPI & OpenMP), running on      36 processor cores
     Number of MPI processes:                36
     Threads/MPI process:                     1

     MPI processes distributed on     1 nodes
     K-points division:     npool     =       4
     R & G space division:  proc/nbgrp/npool/nimage =       9
     Reading input from aiida.in
Warning: card &IONS ignored
Warning: card   !PRESS_CONV_THR = 0.05                 ! JUST FOR VOLUME RELAXATIONS ignored
Warning: card / ignored

     Current dimensions of program PWSCF are:
     Max number of different atomic species (ntypx) = 10
     Max number of k-points (npk) =  40000
     Max angular momentum in pseudopotentials (lmaxx) =  3
               file Mg.pbe-n-kjpaw_psl.0.3.0.UPF: wavefunction(s)  3S renormalized
               file Al.pbe-n-kjpaw_psl.1.0.0.UPF: wavefunction(s)  3S 3P renormalized

     Subspace diagonalization in iterative solution of the eigenvalue problem:
     one sub-group per band group will be used
     scalapack distributed-memory algorithm (size of sub-group:  2*  2 procs)

     Found symmetry operation: I + ( -0.5000 -0.5000  0.0000)
     This is a supercell, fractional translations are disabled
 
     Parallelization info
     --------------------
     sticks:   dense  smooth     PW     G-vecs:    dense   smooth      PW
     Min         785     314     90                39044     9881    1536
     Max         786     315     91                39047     9883    1538
     Sum        7069    2831    815               351407    88939   13833
 


     bravais-lattice index     =            0
     lattice parameter (alat)  =      27.6424  a.u.
     unit-cell volume          =    2600.8899 (a.u.)^3
     number of atoms/cell      =           22
     number of atomic types    =            3
     number of electrons       =        64.00
     number of Kohn-Sham states=           38
     kinetic-energy cutoff     =      40.0000  Ry
     charge density cutoff     =     400.0000  Ry
     convergence threshold     =      1.0E-12
     mixing beta               =       0.4000
     number of iterations used =            8  local-TF  mixing
     Exchange-correlation      = SLA PW PBX PBC ( 1  4  3  4 0 0)

     celldm(1)=  27.642386  celldm(2)=   0.000000  celldm(3)=   0.000000
     celldm(4)=   0.000000  celldm(5)=   0.000000  celldm(6)=   0.000000

     crystal axes: (cart. coord. in units of alat)
               a(1) = (   0.554700   0.000000   0.832050 )  
               a(2) = (   0.000000   0.291056   0.000000 )  
               a(3) = (  -0.416025   0.000000   0.138675 )  

     reciprocal axes: (cart. coord. in units 2 pi/alat)
               b(1) = (  0.327777  0.000000  0.983332 )  
               b(2) = (  0.000000  3.435769  0.000000 )  
               b(3) = ( -1.966664  0.000000  1.311110 )  


     PseudoPot. # 1 for Mg read from file:
     /users/aglensk/Dropbox/Albert/scripts/dotfiles/scripts/potentials/quantum_espresso/pseudo_SSSPefV1.1_alalloy/Mg.pbe-n-kjpaw_psl.0.3.0.UPF
     MD5 check sum: 24ecedc7f3e3cbe212e682f4413594e4
     Pseudo is Projector augmented-wave + core cor, Zval =  2.0
     Generated using "atomic" code by A. Dal Corso v.5.0.99 svn rev. 10869
     Shape of augmentation charge: PSQ
     Using radial grid of 1129 points,  4 beta functions with: 
                l(1) =   0
                l(2) =   0
                l(3) =   1
                l(4) =   1
     Q(r) pseudized with 0 coefficients 


     PseudoPot. # 2 for Si read from file:
     /users/aglensk/Dropbox/Albert/scripts/dotfiles/scripts/potentials/quantum_espresso/pseudo_SSSPefV1.1_alalloy/Si.pbe-n-rrkjus_psl.1.0.0.UPF
     MD5 check sum: 0b0bb1205258b0d07b9f9672cf965d36
     Pseudo is Ultrasoft + core correction, Zval =  4.0
     Generated using "atomic" code by A. Dal Corso v.5.1
     Using radial grid of 1141 points,  6 beta functions with: 
                l(1) =   0
                l(2) =   0
                l(3) =   1
                l(4) =   1
                l(5) =   2
                l(6) =   2
     Q(r) pseudized with 0 coefficients 


     PseudoPot. # 3 for Al read from file:
     /users/aglensk/Dropbox/Albert/scripts/dotfiles/scripts/potentials/quantum_espresso/pseudo_SSSPefV1.1_alalloy/Al.pbe-n-kjpaw_psl.1.0.0.UPF
     MD5 check sum: cfc449ca30b5f3223ec38ddd88ac046d
     Pseudo is Projector augmented-wave + core cor, Zval =  3.0
     Generated using "atomic" code by A. Dal Corso v.5.1
     Shape of augmentation charge: PSQ
     Using radial grid of 1135 points,  6 beta functions with: 
                l(1) =   0
                l(2) =   0
                l(3) =   1
                l(4) =   1
                l(5) =   2
                l(6) =   2
     Q(r) pseudized with 0 coefficients 


     atomic species   valence    mass     pseudopotential
        Mg             2.00    24.30500     Mg( 1.00)
        Si             4.00    28.08500     Si( 1.00)
        Al             3.00    26.98154     Al( 1.00)

     No symmetry found


                                    s                        frac. trans.

      isym =  1     identity                                     

 cryst.   s( 1) = (     1          0          0      )
                  (     0          1          0      )
                  (     0          0          1      )

 cart.    s( 1) = (  1.0000000  0.0000000  0.0000000 )
                  (  0.0000000  1.0000000  0.0000000 )
                  ( -0.0000000  0.0000000  1.0000000 )


   Cartesian axes

     site n.     atom                  positions (alat units)
         1           Mg  tau(   1) = (  -0.4104796   0.0000000   0.1382616  )
         2           Mg  tau(   2) = (  -0.1023917   0.1455279   0.1102818  )
         3           Mg  tau(   3) = (  -0.2901915   0.1455279   0.2508328  )
         4           Mg  tau(   4) = (   0.1626014   0.0000000   0.3030342  )
         5           Mg  tau(   5) = (  -0.0251926   0.0000000   0.4435959  )
         6           Si  tau(   6) = (  -0.2361317   0.0000000   0.1409661  )
         7           Si  tau(   7) = (   0.0183417   0.0000000   0.1846519  )
         8           Al  tau(   8) = (  -0.1311218   0.0000000   0.2707621  )
         9           Al  tau(   9) = (   0.0035352   0.1455279   0.2831151  )
        10           Si  tau(  10) = (  -0.1459323   0.1455279   0.3692184  )
        11           Si  tau(  11) = (   0.1085496   0.1455279   0.4129057  )
        12           Mg  tau(  12) = (  -0.1331295   0.1455279   0.5542867  )
        13           Mg  tau(  13) = (   0.1749584   0.0000000   0.5263069  )
        14           Mg  tau(  14) = (  -0.0128414   0.0000000   0.6668580  )
        15           Mg  tau(  15) = (   0.4399515   0.1455279   0.7190594  )
        16           Mg  tau(  16) = (   0.2521575   0.1455279   0.8596211  )
        17           Si  tau(  17) = (   0.0412184   0.1455279   0.5569913  )
        18           Si  tau(  18) = (   0.2956918   0.1455279   0.6006771  )
        19           Al  tau(  19) = (   0.1462283   0.1455279   0.6867873  )
        20           Al  tau(  20) = (   0.2808853   0.0000000   0.6991403  )
        21           Si  tau(  21) = (   0.1314179   0.0000000   0.7852435  )
        22           Si  tau(  22) = (   0.3858998   0.0000000   0.8289309  )

   Crystallographic axes

     site n.     atom                  positions (cryst. coord.)
         1           Mg  tau(   1) = (  0.0014111  0.0000000  0.9885516  )
         2           Mg  tau(   2) = (  0.0748820  0.5000001  0.3459616  )
         3           Mg  tau(   3) = (  0.1515338  0.5000001  0.8995786  )
         4           Mg  tau(   4) = (  0.3512804  0.0000000  0.0775287  )
         5           Mg  tau(   5) = (  0.4279446  0.0000000  0.6311483  )
         6           Si  tau(   6) = (  0.0612179  0.0000000  0.6492138  )
         7           Si  tau(   7) = (  0.1875861  0.0000000  0.2060270  )
         8           Al  tau(   8) = (  0.2232704  0.0000000  0.6128713  )
         9           Al  tau(   9) = (  0.2795550  0.5000001  0.3642424  )
        10           Si  tau(  10) = (  0.3152310  0.5000001  0.7710855  )
        11           Si  tau(  11) = (  0.4416036  0.5000001  0.3278839  )
        12           Mg  tau(  12) = (  0.5014112  0.5000001  0.9885517  )
        13           Mg  tau(  13) = (  0.5748819  0.0000000  0.3459616  )
        14           Mg  tau(  14) = (  0.6515338  0.0000000  0.8995787  )
        15           Mg  tau(  15) = (  0.8512804  0.5000001  0.0775287  )
        16           Mg  tau(  16) = (  0.9279446  0.5000001  0.6311482  )
        17           Si  tau(  17) = (  0.5612179  0.5000001  0.6492139  )
        18           Si  tau(  18) = (  0.6875862  0.5000001  0.2060270  )
        19           Al  tau(  19) = (  0.7232704  0.5000001  0.6128713  )
        20           Al  tau(  20) = (  0.7795550  0.0000000  0.3642425  )
        21           Si  tau(  21) = (  0.8152310  0.0000000  0.7710855  )
        22           Si  tau(  22) = (  0.9416036  0.0000000  0.3278839  )

     number of k points=   742  Methfessel-Paxton smearing, width (Ry)=  0.0441
                       cart. coord. in units 2pi/alat
        k(    1) = (   0.0000000   0.0000000   0.0000000), wk =   0.0013495
        k(    2) = (  -0.1512819   0.0000000   0.1008546), wk =   0.0026991
        k(    3) = (  -0.3025637   0.0000000   0.2017092), wk =   0.0026991
        k(    4) = (  -0.4538456   0.0000000   0.3025637), wk =   0.0026991
        k(    5) = (  -0.6051275   0.0000000   0.4034183), wk =   0.0026991
        k(    6) = (  -0.7564093   0.0000000   0.5042729), wk =   0.0026991
        k(    7) = (  -0.9076912   0.0000000   0.6051275), wk =   0.0026991
        k(    8) = (   0.0000000   0.1808299   0.0000000), wk =   0.0026991
        k(    9) = (  -0.1512819   0.1808299   0.1008546), wk =   0.0026991
        k(   10) = (  -0.3025637   0.1808299   0.2017092), wk =   0.0026991
        k(   11) = (  -0.4538456   0.1808299   0.3025637), wk =   0.0026991
        k(   12) = (  -0.6051275   0.1808299   0.4034183), wk =   0.0026991
        k(   13) = (  -0.7564093   0.1808299   0.5042729), wk =   0.0026991
        k(   14) = (  -0.9076912   0.1808299   0.6051275), wk =   0.0026991
        k(   15) = (   0.9076912   0.1808299  -0.6051275), wk =   0.0026991
        k(   16) = (   0.7564093   0.1808299  -0.5042729), wk =   0.0026991
        k(   17) = (   0.6051275   0.1808299  -0.4034183), wk =   0.0026991
        k(   18) = (   0.4538456   0.1808299  -0.3025637), wk =   0.0026991
        k(   19) = (   0.3025637   0.1808299  -0.2017092), wk =   0.0026991
        k(   20) = (   0.1512819   0.1808299  -0.1008546), wk =   0.0026991
        k(   21) = (   0.0000000   0.3616599   0.0000000), wk =   0.0026991
        k(   22) = (  -0.1512819   0.3616599   0.1008546), wk =   0.0026991
        k(   23) = (  -0.3025637   0.3616599   0.2017092), wk =   0.0026991
        k(   24) = (  -0.4538456   0.3616599   0.3025637), wk =   0.0026991
        k(   25) = (  -0.6051275   0.3616599   0.4034183), wk =   0.0026991
        k(   26) = (  -0.7564093   0.3616599   0.5042729), wk =   0.0026991
        k(   27) = (  -0.9076912   0.3616599   0.6051275), wk =   0.0026991
        k(   28) = (   0.9076912   0.3616599  -0.6051275), wk =   0.0026991
        k(   29) = (   0.7564093   0.3616599  -0.5042729), wk =   0.0026991
        k(   30) = (   0.6051275   0.3616599  -0.4034183), wk =   0.0026991
        k(   31) = (   0.4538456   0.3616599  -0.3025637), wk =   0.0026991
        k(   32) = (   0.3025637   0.3616599  -0.2017092), wk =   0.0026991
        k(   33) = (   0.1512819   0.3616599  -0.1008546), wk =   0.0026991
        k(   34) = (   0.0000000   0.5424898   0.0000000), wk =   0.0026991
        k(   35) = (  -0.1512819   0.5424898   0.1008546), wk =   0.0026991
        k(   36) = (  -0.3025637   0.5424898   0.2017092), wk =   0.0026991
        k(   37) = (  -0.4538456   0.5424898   0.3025637), wk =   0.0026991
        k(   38) = (  -0.6051275   0.5424898   0.4034183), wk =   0.0026991
        k(   39) = (  -0.7564093   0.5424898   0.5042729), wk =   0.0026991
        k(   40) = (  -0.9076912   0.5424898   0.6051275), wk =   0.0026991
        k(   41) = (   0.9076912   0.5424898  -0.6051275), wk =   0.0026991
        k(   42) = (   0.7564093   0.5424898  -0.5042729), wk =   0.0026991
        k(   43) = (   0.6051275   0.5424898  -0.4034183), wk =   0.0026991
        k(   44) = (   0.4538456   0.5424898  -0.3025637), wk =   0.0026991
        k(   45) = (   0.3025637   0.5424898  -0.2017092), wk =   0.0026991
        k(   46) = (   0.1512819   0.5424898  -0.1008546), wk =   0.0026991
        k(   47) = (   0.0000000   0.7233198   0.0000000), wk =   0.0026991
        k(   48) = (  -0.1512819   0.7233198   0.1008546), wk =   0.0026991
        k(   49) = (  -0.3025637   0.7233198   0.2017092), wk =   0.0026991
        k(   50) = (  -0.4538456   0.7233198   0.3025637), wk =   0.0026991
        k(   51) = (  -0.6051275   0.7233198   0.4034183), wk =   0.0026991
        k(   52) = (  -0.7564093   0.7233198   0.5042729), wk =   0.0026991
        k(   53) = (  -0.9076912   0.7233198   0.6051275), wk =   0.0026991
        k(   54) = (   0.9076912   0.7233198  -0.6051275), wk =   0.0026991
        k(   55) = (   0.7564093   0.7233198  -0.5042729), wk =   0.0026991
        k(   56) = (   0.6051275   0.7233198  -0.4034183), wk =   0.0026991
        k(   57) = (   0.4538456   0.7233198  -0.3025637), wk =   0.0026991
        k(   58) = (   0.3025637   0.7233198  -0.2017092), wk =   0.0026991
        k(   59) = (   0.1512819   0.7233198  -0.1008546), wk =   0.0026991
        k(   60) = (   0.0000000   0.9041497   0.0000000), wk =   0.0026991
        k(   61) = (  -0.1512819   0.9041497   0.1008546), wk =   0.0026991
        k(   62) = (  -0.3025637   0.9041497   0.2017092), wk =   0.0026991
        k(   63) = (  -0.4538456   0.9041497   0.3025637), wk =   0.0026991
        k(   64) = (  -0.6051275   0.9041497   0.4034183), wk =   0.0026991
        k(   65) = (  -0.7564093   0.9041497   0.5042729), wk =   0.0026991
        k(   66) = (  -0.9076912   0.9041497   0.6051275), wk =   0.0026991
        k(   67) = (   0.9076912   0.9041497  -0.6051275), wk =   0.0026991
        k(   68) = (   0.7564093   0.9041497  -0.5042729), wk =   0.0026991
        k(   69) = (   0.6051275   0.9041497  -0.4034183), wk =   0.0026991
        k(   70) = (   0.4538456   0.9041497  -0.3025637), wk =   0.0026991
        k(   71) = (   0.3025637   0.9041497  -0.2017092), wk =   0.0026991
        k(   72) = (   0.1512819   0.9041497  -0.1008546), wk =   0.0026991
        k(   73) = (   0.0000000   1.0849796   0.0000000), wk =   0.0026991
        k(   74) = (  -0.1512819   1.0849796   0.1008546), wk =   0.0026991
        k(   75) = (  -0.3025637   1.0849796   0.2017092), wk =   0.0026991
        k(   76) = (  -0.4538456   1.0849796   0.3025637), wk =   0.0026991
        k(   77) = (  -0.6051275   1.0849796   0.4034183), wk =   0.0026991
        k(   78) = (  -0.7564093   1.0849796   0.5042729), wk =   0.0026991
        k(   79) = (  -0.9076912   1.0849796   0.6051275), wk =   0.0026991
        k(   80) = (   0.9076912   1.0849796  -0.6051275), wk =   0.0026991
        k(   81) = (   0.7564093   1.0849796  -0.5042729), wk =   0.0026991
        k(   82) = (   0.6051275   1.0849796  -0.4034183), wk =   0.0026991
        k(   83) = (   0.4538456   1.0849796  -0.3025637), wk =   0.0026991
        k(   84) = (   0.3025637   1.0849796  -0.2017092), wk =   0.0026991
        k(   85) = (   0.1512819   1.0849796  -0.1008546), wk =   0.0026991
        k(   86) = (   0.0000000   1.2658096   0.0000000), wk =   0.0026991
        k(   87) = (  -0.1512819   1.2658096   0.1008546), wk =   0.0026991
        k(   88) = (  -0.3025637   1.2658096   0.2017092), wk =   0.0026991
        k(   89) = (  -0.4538456   1.2658096   0.3025637), wk =   0.0026991
        k(   90) = (  -0.6051275   1.2658096   0.4034183), wk =   0.0026991
        k(   91) = (  -0.7564093   1.2658096   0.5042729), wk =   0.0026991
        k(   92) = (  -0.9076912   1.2658096   0.6051275), wk =   0.0026991
        k(   93) = (   0.9076912   1.2658096  -0.6051275), wk =   0.0026991
        k(   94) = (   0.7564093   1.2658096  -0.5042729), wk =   0.0026991
        k(   95) = (   0.6051275   1.2658096  -0.4034183), wk =   0.0026991
        k(   96) = (   0.4538456   1.2658096  -0.3025637), wk =   0.0026991
        k(   97) = (   0.3025637   1.2658096  -0.2017092), wk =   0.0026991
        k(   98) = (   0.1512819   1.2658096  -0.1008546), wk =   0.0026991
        k(   99) = (   0.0000000   1.4466395   0.0000000), wk =   0.0026991
        k(  100) = (  -0.1512819   1.4466395   0.1008546), wk =   0.0026991
        k(  101) = (  -0.3025637   1.4466395   0.2017092), wk =   0.0026991
        k(  102) = (  -0.4538456   1.4466395   0.3025637), wk =   0.0026991
        k(  103) = (  -0.6051275   1.4466395   0.4034183), wk =   0.0026991
        k(  104) = (  -0.7564093   1.4466395   0.5042729), wk =   0.0026991
        k(  105) = (  -0.9076912   1.4466395   0.6051275), wk =   0.0026991
        k(  106) = (   0.9076912   1.4466395  -0.6051275), wk =   0.0026991
        k(  107) = (   0.7564093   1.4466395  -0.5042729), wk =   0.0026991
        k(  108) = (   0.6051275   1.4466395  -0.4034183), wk =   0.0026991
        k(  109) = (   0.4538456   1.4466395  -0.3025637), wk =   0.0026991
        k(  110) = (   0.3025637   1.4466395  -0.2017092), wk =   0.0026991
        k(  111) = (   0.1512819   1.4466395  -0.1008546), wk =   0.0026991
        k(  112) = (   0.0000000   1.6274695   0.0000000), wk =   0.0026991
        k(  113) = (  -0.1512819   1.6274695   0.1008546), wk =   0.0026991
        k(  114) = (  -0.3025637   1.6274695   0.2017092), wk =   0.0026991
        k(  115) = (  -0.4538456   1.6274695   0.3025637), wk =   0.0026991
        k(  116) = (  -0.6051275   1.6274695   0.4034183), wk =   0.0026991
        k(  117) = (  -0.7564093   1.6274695   0.5042729), wk =   0.0026991
        k(  118) = (  -0.9076912   1.6274695   0.6051275), wk =   0.0026991
        k(  119) = (   0.9076912   1.6274695  -0.6051275), wk =   0.0026991
        k(  120) = (   0.7564093   1.6274695  -0.5042729), wk =   0.0026991
        k(  121) = (   0.6051275   1.6274695  -0.4034183), wk =   0.0026991
        k(  122) = (   0.4538456   1.6274695  -0.3025637), wk =   0.0026991
        k(  123) = (   0.3025637   1.6274695  -0.2017092), wk =   0.0026991
        k(  124) = (   0.1512819   1.6274695  -0.1008546), wk =   0.0026991
        k(  125) = (   0.0546296   0.0000000   0.1638887), wk =   0.0026991
        k(  126) = (  -0.0966523   0.0000000   0.2647433), wk =   0.0026991
        k(  127) = (  -0.2479342   0.0000000   0.3655979), wk =   0.0026991
        k(  128) = (  -0.3992160   0.0000000   0.4664524), wk =   0.0026991
        k(  129) = (  -0.5504979   0.0000000   0.5673070), wk =   0.0026991
        k(  130) = (  -0.7017798   0.0000000   0.6681616), wk =   0.0026991
        k(  131) = (  -0.8530616   0.0000000   0.7690162), wk =   0.0026991
        k(  132) = (   0.9623208   0.0000000  -0.4412388), wk =   0.0026991
        k(  133) = (   0.8110389   0.0000000  -0.3403842), wk =   0.0026991
        k(  134) = (   0.6597570   0.0000000  -0.2395296), wk =   0.0026991
        k(  135) = (   0.5084752   0.0000000  -0.1386750), wk =   0.0026991
        k(  136) = (   0.3571933   0.0000000  -0.0378205), wk =   0.0026991
        k(  137) = (   0.2059114   0.0000000   0.0630341), wk =   0.0026991
        k(  138) = (   0.0546296   0.1808299   0.1638887), wk =   0.0026991
        k(  139) = (  -0.0966523   0.1808299   0.2647433), wk =   0.0026991
        k(  140) = (  -0.2479342   0.1808299   0.3655979), wk =   0.0026991
        k(  141) = (  -0.3992160   0.1808299   0.4664524), wk =   0.0026991
        k(  142) = (  -0.5504979   0.1808299   0.5673070), wk =   0.0026991
        k(  143) = (  -0.7017798   0.1808299   0.6681616), wk =   0.0026991
        k(  144) = (  -0.8530616   0.1808299   0.7690162), wk =   0.0026991
        k(  145) = (   0.9623208   0.1808299  -0.4412388), wk =   0.0026991
        k(  146) = (   0.8110389   0.1808299  -0.3403842), wk =   0.0026991
        k(  147) = (   0.6597570   0.1808299  -0.2395296), wk =   0.0026991
        k(  148) = (   0.5084752   0.1808299  -0.1386750), wk =   0.0026991
        k(  149) = (   0.3571933   0.1808299  -0.0378205), wk =   0.0026991
        k(  150) = (   0.2059114   0.1808299   0.0630341), wk =   0.0026991
        k(  151) = (   0.0546296   0.3616599   0.1638887), wk =   0.0026991
        k(  152) = (  -0.0966523   0.3616599   0.2647433), wk =   0.0026991
        k(  153) = (  -0.2479342   0.3616599   0.3655979), wk =   0.0026991
        k(  154) = (  -0.3992160   0.3616599   0.4664524), wk =   0.0026991
        k(  155) = (  -0.5504979   0.3616599   0.5673070), wk =   0.0026991
        k(  156) = (  -0.7017798   0.3616599   0.6681616), wk =   0.0026991
        k(  157) = (  -0.8530616   0.3616599   0.7690162), wk =   0.0026991
        k(  158) = (   0.9623208   0.3616599  -0.4412388), wk =   0.0026991
        k(  159) = (   0.8110389   0.3616599  -0.3403842), wk =   0.0026991
        k(  160) = (   0.6597570   0.3616599  -0.2395296), wk =   0.0026991
        k(  161) = (   0.5084752   0.3616599  -0.1386750), wk =   0.0026991
        k(  162) = (   0.3571933   0.3616599  -0.0378205), wk =   0.0026991
        k(  163) = (   0.2059114   0.3616599   0.0630341), wk =   0.0026991
        k(  164) = (   0.0546296   0.5424898   0.1638887), wk =   0.0026991
        k(  165) = (  -0.0966523   0.5424898   0.2647433), wk =   0.0026991
        k(  166) = (  -0.2479342   0.5424898   0.3655979), wk =   0.0026991
        k(  167) = (  -0.3992160   0.5424898   0.4664524), wk =   0.0026991
        k(  168) = (  -0.5504979   0.5424898   0.5673070), wk =   0.0026991
        k(  169) = (  -0.7017798   0.5424898   0.6681616), wk =   0.0026991
        k(  170) = (  -0.8530616   0.5424898   0.7690162), wk =   0.0026991
        k(  171) = (   0.9623208   0.5424898  -0.4412388), wk =   0.0026991
        k(  172) = (   0.8110389   0.5424898  -0.3403842), wk =   0.0026991
        k(  173) = (   0.6597570   0.5424898  -0.2395296), wk =   0.0026991
        k(  174) = (   0.5084752   0.5424898  -0.1386750), wk =   0.0026991
        k(  175) = (   0.3571933   0.5424898  -0.0378205), wk =   0.0026991
        k(  176) = (   0.2059114   0.5424898   0.0630341), wk =   0.0026991
        k(  177) = (   0.0546296   0.7233198   0.1638887), wk =   0.0026991
        k(  178) = (  -0.0966523   0.7233198   0.2647433), wk =   0.0026991
        k(  179) = (  -0.2479342   0.7233198   0.3655979), wk =   0.0026991
        k(  180) = (  -0.3992160   0.7233198   0.4664524), wk =   0.0026991
        k(  181) = (  -0.5504979   0.7233198   0.5673070), wk =   0.0026991
        k(  182) = (  -0.7017798   0.7233198   0.6681616), wk =   0.0026991
        k(  183) = (  -0.8530616   0.7233198   0.7690162), wk =   0.0026991
        k(  184) = (   0.9623208   0.7233198  -0.4412388), wk =   0.0026991
        k(  185) = (   0.8110389   0.7233198  -0.3403842), wk =   0.0026991
        k(  186) = (   0.6597570   0.7233198  -0.2395296), wk =   0.0026991
        k(  187) = (   0.5084752   0.7233198  -0.1386750), wk =   0.0026991
        k(  188) = (   0.3571933   0.7233198  -0.0378205), wk =   0.0026991
        k(  189) = (   0.2059114   0.7233198   0.0630341), wk =   0.0026991
        k(  190) = (   0.0546296   0.9041497   0.1638887), wk =   0.0026991
        k(  191) = (  -0.0966523   0.9041497   0.2647433), wk =   0.0026991
        k(  192) = (  -0.2479342   0.9041497   0.3655979), wk =   0.0026991
        k(  193) = (  -0.3992160   0.9041497   0.4664524), wk =   0.0026991
        k(  194) = (  -0.5504979   0.9041497   0.5673070), wk =   0.0026991
        k(  195) = (  -0.7017798   0.9041497   0.6681616), wk =   0.0026991
        k(  196) = (  -0.8530616   0.9041497   0.7690162), wk =   0.0026991
        k(  197) = (   0.9623208   0.9041497  -0.4412388), wk =   0.0026991
        k(  198) = (   0.8110389   0.9041497  -0.3403842), wk =   0.0026991
        k(  199) = (   0.6597570   0.9041497  -0.2395296), wk =   0.0026991
        k(  200) = (   0.5084752   0.9041497  -0.1386750), wk =   0.0026991
        k(  201) = (   0.3571933   0.9041497  -0.0378205), wk =   0.0026991
        k(  202) = (   0.2059114   0.9041497   0.0630341), wk =   0.0026991
        k(  203) = (   0.0546296   1.0849796   0.1638887), wk =   0.0026991
        k(  204) = (  -0.0966523   1.0849796   0.2647433), wk =   0.0026991
        k(  205) = (  -0.2479342   1.0849796   0.3655979), wk =   0.0026991
        k(  206) = (  -0.3992160   1.0849796   0.4664524), wk =   0.0026991
        k(  207) = (  -0.5504979   1.0849796   0.5673070), wk =   0.0026991
        k(  208) = (  -0.7017798   1.0849796   0.6681616), wk =   0.0026991
        k(  209) = (  -0.8530616   1.0849796   0.7690162), wk =   0.0026991
        k(  210) = (   0.9623208   1.0849796  -0.4412388), wk =   0.0026991
        k(  211) = (   0.8110389   1.0849796  -0.3403842), wk =   0.0026991
        k(  212) = (   0.6597570   1.0849796  -0.2395296), wk =   0.0026991
        k(  213) = (   0.5084752   1.0849796  -0.1386750), wk =   0.0026991
        k(  214) = (   0.3571933   1.0849796  -0.0378205), wk =   0.0026991
        k(  215) = (   0.2059114   1.0849796   0.0630341), wk =   0.0026991
        k(  216) = (   0.0546296   1.2658096   0.1638887), wk =   0.0026991
        k(  217) = (  -0.0966523   1.2658096   0.2647433), wk =   0.0026991
        k(  218) = (  -0.2479342   1.2658096   0.3655979), wk =   0.0026991
        k(  219) = (  -0.3992160   1.2658096   0.4664524), wk =   0.0026991
        k(  220) = (  -0.5504979   1.2658096   0.5673070), wk =   0.0026991
        k(  221) = (  -0.7017798   1.2658096   0.6681616), wk =   0.0026991
        k(  222) = (  -0.8530616   1.2658096   0.7690162), wk =   0.0026991
        k(  223) = (   0.9623208   1.2658096  -0.4412388), wk =   0.0026991
        k(  224) = (   0.8110389   1.2658096  -0.3403842), wk =   0.0026991
        k(  225) = (   0.6597570   1.2658096  -0.2395296), wk =   0.0026991
        k(  226) = (   0.5084752   1.2658096  -0.1386750), wk =   0.0026991
        k(  227) = (   0.3571933   1.2658096  -0.0378205), wk =   0.0026991
        k(  228) = (   0.2059114   1.2658096   0.0630341), wk =   0.0026991
        k(  229) = (   0.0546296   1.4466395   0.1638887), wk =   0.0026991
        k(  230) = (  -0.0966523   1.4466395   0.2647433), wk =   0.0026991
        k(  231) = (  -0.2479342   1.4466395   0.3655979), wk =   0.0026991
        k(  232) = (  -0.3992160   1.4466395   0.4664524), wk =   0.0026991
        k(  233) = (  -0.5504979   1.4466395   0.5673070), wk =   0.0026991
        k(  234) = (  -0.7017798   1.4466395   0.6681616), wk =   0.0026991
        k(  235) = (  -0.8530616   1.4466395   0.7690162), wk =   0.0026991
        k(  236) = (   0.9623208   1.4466395  -0.4412388), wk =   0.0026991
        k(  237) = (   0.8110389   1.4466395  -0.3403842), wk =   0.0026991
        k(  238) = (   0.6597570   1.4466395  -0.2395296), wk =   0.0026991
        k(  239) = (   0.5084752   1.4466395  -0.1386750), wk =   0.0026991
        k(  240) = (   0.3571933   1.4466395  -0.0378205), wk =   0.0026991
        k(  241) = (   0.2059114   1.4466395   0.0630341), wk =   0.0026991
        k(  242) = (   0.0546296   1.6274695   0.1638887), wk =   0.0026991
        k(  243) = (  -0.0966523   1.6274695   0.2647433), wk =   0.0026991
        k(  244) = (  -0.2479342   1.6274695   0.3655979), wk =   0.0026991
        k(  245) = (  -0.3992160   1.6274695   0.4664524), wk =   0.0026991
        k(  246) = (  -0.5504979   1.6274695   0.5673070), wk =   0.0026991
        k(  247) = (  -0.7017798   1.6274695   0.6681616), wk =   0.0026991
        k(  248) = (  -0.8530616   1.6274695   0.7690162), wk =   0.0026991
        k(  249) = (   0.9623208   1.6274695  -0.4412388), wk =   0.0026991
        k(  250) = (   0.8110389   1.6274695  -0.3403842), wk =   0.0026991
        k(  251) = (   0.6597570   1.6274695  -0.2395296), wk =   0.0026991
        k(  252) = (   0.5084752   1.6274695  -0.1386750), wk =   0.0026991
        k(  253) = (   0.3571933   1.6274695  -0.0378205), wk =   0.0026991
        k(  254) = (   0.2059114   1.6274695   0.0630341), wk =   0.0026991
        k(  255) = (   0.0546296  -1.6274695   0.1638887), wk =   0.0026991
        k(  256) = (  -0.0966523  -1.6274695   0.2647433), wk =   0.0026991
        k(  257) = (  -0.2479342  -1.6274695   0.3655979), wk =   0.0026991
        k(  258) = (  -0.3992160  -1.6274695   0.4664524), wk =   0.0026991
        k(  259) = (  -0.5504979  -1.6274695   0.5673070), wk =   0.0026991
        k(  260) = (  -0.7017798  -1.6274695   0.6681616), wk =   0.0026991
        k(  261) = (  -0.8530616  -1.6274695   0.7690162), wk =   0.0026991
        k(  262) = (   0.9623208  -1.6274695  -0.4412388), wk =   0.0026991
        k(  263) = (   0.8110389  -1.6274695  -0.3403842), wk =   0.0026991
        k(  264) = (   0.6597570  -1.6274695  -0.2395296), wk =   0.0026991
        k(  265) = (   0.5084752  -1.6274695  -0.1386750), wk =   0.0026991
        k(  266) = (   0.3571933  -1.6274695  -0.0378205), wk =   0.0026991
        k(  267) = (   0.2059114  -1.6274695   0.0630341), wk =   0.0026991
        k(  268) = (   0.0546296  -1.4466395   0.1638887), wk =   0.0026991
        k(  269) = (  -0.0966523  -1.4466395   0.2647433), wk =   0.0026991
        k(  270) = (  -0.2479342  -1.4466395   0.3655979), wk =   0.0026991
        k(  271) = (  -0.3992160  -1.4466395   0.4664524), wk =   0.0026991
        k(  272) = (  -0.5504979  -1.4466395   0.5673070), wk =   0.0026991
        k(  273) = (  -0.7017798  -1.4466395   0.6681616), wk =   0.0026991
        k(  274) = (  -0.8530616  -1.4466395   0.7690162), wk =   0.0026991
        k(  275) = (   0.9623208  -1.4466395  -0.4412388), wk =   0.0026991
        k(  276) = (   0.8110389  -1.4466395  -0.3403842), wk =   0.0026991
        k(  277) = (   0.6597570  -1.4466395  -0.2395296), wk =   0.0026991
        k(  278) = (   0.5084752  -1.4466395  -0.1386750), wk =   0.0026991
        k(  279) = (   0.3571933  -1.4466395  -0.0378205), wk =   0.0026991
        k(  280) = (   0.2059114  -1.4466395   0.0630341), wk =   0.0026991
        k(  281) = (   0.0546296  -1.2658096   0.1638887), wk =   0.0026991
        k(  282) = (  -0.0966523  -1.2658096   0.2647433), wk =   0.0026991
        k(  283) = (  -0.2479342  -1.2658096   0.3655979), wk =   0.0026991
        k(  284) = (  -0.3992160  -1.2658096   0.4664524), wk =   0.0026991
        k(  285) = (  -0.5504979  -1.2658096   0.5673070), wk =   0.0026991
        k(  286) = (  -0.7017798  -1.2658096   0.6681616), wk =   0.0026991
        k(  287) = (  -0.8530616  -1.2658096   0.7690162), wk =   0.0026991
        k(  288) = (   0.9623208  -1.2658096  -0.4412388), wk =   0.0026991
        k(  289) = (   0.8110389  -1.2658096  -0.3403842), wk =   0.0026991
        k(  290) = (   0.6597570  -1.2658096  -0.2395296), wk =   0.0026991
        k(  291) = (   0.5084752  -1.2658096  -0.1386750), wk =   0.0026991
        k(  292) = (   0.3571933  -1.2658096  -0.0378205), wk =   0.0026991
        k(  293) = (   0.2059114  -1.2658096   0.0630341), wk =   0.0026991
        k(  294) = (   0.0546296  -1.0849796   0.1638887), wk =   0.0026991
        k(  295) = (  -0.0966523  -1.0849796   0.2647433), wk =   0.0026991
        k(  296) = (  -0.2479342  -1.0849796   0.3655979), wk =   0.0026991
        k(  297) = (  -0.3992160  -1.0849796   0.4664524), wk =   0.0026991
        k(  298) = (  -0.5504979  -1.0849796   0.5673070), wk =   0.0026991
        k(  299) = (  -0.7017798  -1.0849796   0.6681616), wk =   0.0026991
        k(  300) = (  -0.8530616  -1.0849796   0.7690162), wk =   0.0026991
        k(  301) = (   0.9623208  -1.0849796  -0.4412388), wk =   0.0026991
        k(  302) = (   0.8110389  -1.0849796  -0.3403842), wk =   0.0026991
        k(  303) = (   0.6597570  -1.0849796  -0.2395296), wk =   0.0026991
        k(  304) = (   0.5084752  -1.0849796  -0.1386750), wk =   0.0026991
        k(  305) = (   0.3571933  -1.0849796  -0.0378205), wk =   0.0026991
        k(  306) = (   0.2059114  -1.0849796   0.0630341), wk =   0.0026991
        k(  307) = (   0.0546296  -0.9041497   0.1638887), wk =   0.0026991
        k(  308) = (  -0.0966523  -0.9041497   0.2647433), wk =   0.0026991
        k(  309) = (  -0.2479342  -0.9041497   0.3655979), wk =   0.0026991
        k(  310) = (  -0.3992160  -0.9041497   0.4664524), wk =   0.0026991
        k(  311) = (  -0.5504979  -0.9041497   0.5673070), wk =   0.0026991
        k(  312) = (  -0.7017798  -0.9041497   0.6681616), wk =   0.0026991
        k(  313) = (  -0.8530616  -0.9041497   0.7690162), wk =   0.0026991
        k(  314) = (   0.9623208  -0.9041497  -0.4412388), wk =   0.0026991
        k(  315) = (   0.8110389  -0.9041497  -0.3403842), wk =   0.0026991
        k(  316) = (   0.6597570  -0.9041497  -0.2395296), wk =   0.0026991
        k(  317) = (   0.5084752  -0.9041497  -0.1386750), wk =   0.0026991
        k(  318) = (   0.3571933  -0.9041497  -0.0378205), wk =   0.0026991
        k(  319) = (   0.2059114  -0.9041497   0.0630341), wk =   0.0026991
        k(  320) = (   0.0546296  -0.7233198   0.1638887), wk =   0.0026991
        k(  321) = (  -0.0966523  -0.7233198   0.2647433), wk =   0.0026991
        k(  322) = (  -0.2479342  -0.7233198   0.3655979), wk =   0.0026991
        k(  323) = (  -0.3992160  -0.7233198   0.4664524), wk =   0.0026991
        k(  324) = (  -0.5504979  -0.7233198   0.5673070), wk =   0.0026991
        k(  325) = (  -0.7017798  -0.7233198   0.6681616), wk =   0.0026991
        k(  326) = (  -0.8530616  -0.7233198   0.7690162), wk =   0.0026991
        k(  327) = (   0.9623208  -0.7233198  -0.4412388), wk =   0.0026991
        k(  328) = (   0.8110389  -0.7233198  -0.3403842), wk =   0.0026991
        k(  329) = (   0.6597570  -0.7233198  -0.2395296), wk =   0.0026991
        k(  330) = (   0.5084752  -0.7233198  -0.1386750), wk =   0.0026991
        k(  331) = (   0.3571933  -0.7233198  -0.0378205), wk =   0.0026991
        k(  332) = (   0.2059114  -0.7233198   0.0630341), wk =   0.0026991
        k(  333) = (   0.0546296  -0.5424898   0.1638887), wk =   0.0026991
        k(  334) = (  -0.0966523  -0.5424898   0.2647433), wk =   0.0026991
        k(  335) = (  -0.2479342  -0.5424898   0.3655979), wk =   0.0026991
        k(  336) = (  -0.3992160  -0.5424898   0.4664524), wk =   0.0026991
        k(  337) = (  -0.5504979  -0.5424898   0.5673070), wk =   0.0026991
        k(  338) = (  -0.7017798  -0.5424898   0.6681616), wk =   0.0026991
        k(  339) = (  -0.8530616  -0.5424898   0.7690162), wk =   0.0026991
        k(  340) = (   0.9623208  -0.5424898  -0.4412388), wk =   0.0026991
        k(  341) = (   0.8110389  -0.5424898  -0.3403842), wk =   0.0026991
        k(  342) = (   0.6597570  -0.5424898  -0.2395296), wk =   0.0026991
        k(  343) = (   0.5084752  -0.5424898  -0.1386750), wk =   0.0026991
        k(  344) = (   0.3571933  -0.5424898  -0.0378205), wk =   0.0026991
        k(  345) = (   0.2059114  -0.5424898   0.0630341), wk =   0.0026991
        k(  346) = (   0.0546296  -0.3616599   0.1638887), wk =   0.0026991
        k(  347) = (  -0.0966523  -0.3616599   0.2647433), wk =   0.0026991
        k(  348) = (  -0.2479342  -0.3616599   0.3655979), wk =   0.0026991
        k(  349) = (  -0.3992160  -0.3616599   0.4664524), wk =   0.0026991
        k(  350) = (  -0.5504979  -0.3616599   0.5673070), wk =   0.0026991
        k(  351) = (  -0.7017798  -0.3616599   0.6681616), wk =   0.0026991
        k(  352) = (  -0.8530616  -0.3616599   0.7690162), wk =   0.0026991
        k(  353) = (   0.9623208  -0.3616599  -0.4412388), wk =   0.0026991
        k(  354) = (   0.8110389  -0.3616599  -0.3403842), wk =   0.0026991
        k(  355) = (   0.6597570  -0.3616599  -0.2395296), wk =   0.0026991
        k(  356) = (   0.5084752  -0.3616599  -0.1386750), wk =   0.0026991
        k(  357) = (   0.3571933  -0.3616599  -0.0378205), wk =   0.0026991
        k(  358) = (   0.2059114  -0.3616599   0.0630341), wk =   0.0026991
        k(  359) = (   0.0546296  -0.1808299   0.1638887), wk =   0.0026991
        k(  360) = (  -0.0966523  -0.1808299   0.2647433), wk =   0.0026991
        k(  361) = (  -0.2479342  -0.1808299   0.3655979), wk =   0.0026991
        k(  362) = (  -0.3992160  -0.1808299   0.4664524), wk =   0.0026991
        k(  363) = (  -0.5504979  -0.1808299   0.5673070), wk =   0.0026991
        k(  364) = (  -0.7017798  -0.1808299   0.6681616), wk =   0.0026991
        k(  365) = (  -0.8530616  -0.1808299   0.7690162), wk =   0.0026991
        k(  366) = (   0.9623208  -0.1808299  -0.4412388), wk =   0.0026991
        k(  367) = (   0.8110389  -0.1808299  -0.3403842), wk =   0.0026991
        k(  368) = (   0.6597570  -0.1808299  -0.2395296), wk =   0.0026991
        k(  369) = (   0.5084752  -0.1808299  -0.1386750), wk =   0.0026991
        k(  370) = (   0.3571933  -0.1808299  -0.0378205), wk =   0.0026991
        k(  371) = (   0.2059114  -0.1808299   0.0630341), wk =   0.0026991
        k(  372) = (   0.1092591   0.0000000   0.3277774), wk =   0.0026991
        k(  373) = (  -0.0420227   0.0000000   0.4286320), wk =   0.0026991
        k(  374) = (  -0.1933046   0.0000000   0.5294866), wk =   0.0026991
        k(  375) = (  -0.3445865   0.0000000   0.6303411), wk =   0.0026991
        k(  376) = (  -0.4958683   0.0000000   0.7311957), wk =   0.0026991
        k(  377) = (  -0.6471502   0.0000000   0.8320503), wk =   0.0026991
        k(  378) = (  -0.7984321   0.0000000   0.9329049), wk =   0.0026991
        k(  379) = (   1.0169503   0.0000000  -0.2773501), wk =   0.0026991
        k(  380) = (   0.8656685   0.0000000  -0.1764955), wk =   0.0026991
        k(  381) = (   0.7143866   0.0000000  -0.0756409), wk =   0.0026991
        k(  382) = (   0.5631047   0.0000000   0.0252137), wk =   0.0026991
        k(  383) = (   0.4118229   0.0000000   0.1260682), wk =   0.0026991
        k(  384) = (   0.2605410   0.0000000   0.2269228), wk =   0.0026991
        k(  385) = (   0.1092591   0.1808299   0.3277774), wk =   0.0026991
        k(  386) = (  -0.0420227   0.1808299   0.4286320), wk =   0.0026991
        k(  387) = (  -0.1933046   0.1808299   0.5294866), wk =   0.0026991
        k(  388) = (  -0.3445865   0.1808299   0.6303411), wk =   0.0026991
        k(  389) = (  -0.4958683   0.1808299   0.7311957), wk =   0.0026991
        k(  390) = (  -0.6471502   0.1808299   0.8320503), wk =   0.0026991
        k(  391) = (  -0.7984321   0.1808299   0.9329049), wk =   0.0026991
        k(  392) = (   1.0169503   0.1808299  -0.2773501), wk =   0.0026991
        k(  393) = (   0.8656685   0.1808299  -0.1764955), wk =   0.0026991
        k(  394) = (   0.7143866   0.1808299  -0.0756409), wk =   0.0026991
        k(  395) = (   0.5631047   0.1808299   0.0252137), wk =   0.0026991
        k(  396) = (   0.4118229   0.1808299   0.1260682), wk =   0.0026991
        k(  397) = (   0.2605410   0.1808299   0.2269228), wk =   0.0026991
        k(  398) = (   0.1092591   0.3616599   0.3277774), wk =   0.0026991
        k(  399) = (  -0.0420227   0.3616599   0.4286320), wk =   0.0026991
        k(  400) = (  -0.1933046   0.3616599   0.5294866), wk =   0.0026991
        k(  401) = (  -0.3445865   0.3616599   0.6303411), wk =   0.0026991
        k(  402) = (  -0.4958683   0.3616599   0.7311957), wk =   0.0026991
        k(  403) = (  -0.6471502   0.3616599   0.8320503), wk =   0.0026991
        k(  404) = (  -0.7984321   0.3616599   0.9329049), wk =   0.0026991
        k(  405) = (   1.0169503   0.3616599  -0.2773501), wk =   0.0026991
        k(  406) = (   0.8656685   0.3616599  -0.1764955), wk =   0.0026991
        k(  407) = (   0.7143866   0.3616599  -0.0756409), wk =   0.0026991
        k(  408) = (   0.5631047   0.3616599   0.0252137), wk =   0.0026991
        k(  409) = (   0.4118229   0.3616599   0.1260682), wk =   0.0026991
        k(  410) = (   0.2605410   0.3616599   0.2269228), wk =   0.0026991
        k(  411) = (   0.1092591   0.5424898   0.3277774), wk =   0.0026991
        k(  412) = (  -0.0420227   0.5424898   0.4286320), wk =   0.0026991
        k(  413) = (  -0.1933046   0.5424898   0.5294866), wk =   0.0026991
        k(  414) = (  -0.3445865   0.5424898   0.6303411), wk =   0.0026991
        k(  415) = (  -0.4958683   0.5424898   0.7311957), wk =   0.0026991
        k(  416) = (  -0.6471502   0.5424898   0.8320503), wk =   0.0026991
        k(  417) = (  -0.7984321   0.5424898   0.9329049), wk =   0.0026991
        k(  418) = (   1.0169503   0.5424898  -0.2773501), wk =   0.0026991
        k(  419) = (   0.8656685   0.5424898  -0.1764955), wk =   0.0026991
        k(  420) = (   0.7143866   0.5424898  -0.0756409), wk =   0.0026991
        k(  421) = (   0.5631047   0.5424898   0.0252137), wk =   0.0026991
        k(  422) = (   0.4118229   0.5424898   0.1260682), wk =   0.0026991
        k(  423) = (   0.2605410   0.5424898   0.2269228), wk =   0.0026991
        k(  424) = (   0.1092591   0.7233198   0.3277774), wk =   0.0026991
        k(  425) = (  -0.0420227   0.7233198   0.4286320), wk =   0.0026991
        k(  426) = (  -0.1933046   0.7233198   0.5294866), wk =   0.0026991
        k(  427) = (  -0.3445865   0.7233198   0.6303411), wk =   0.0026991
        k(  428) = (  -0.4958683   0.7233198   0.7311957), wk =   0.0026991
        k(  429) = (  -0.6471502   0.7233198   0.8320503), wk =   0.0026991
        k(  430) = (  -0.7984321   0.7233198   0.9329049), wk =   0.0026991
        k(  431) = (   1.0169503   0.7233198  -0.2773501), wk =   0.0026991
        k(  432) = (   0.8656685   0.7233198  -0.1764955), wk =   0.0026991
        k(  433) = (   0.7143866   0.7233198  -0.0756409), wk =   0.0026991
        k(  434) = (   0.5631047   0.7233198   0.0252137), wk =   0.0026991
        k(  435) = (   0.4118229   0.7233198   0.1260682), wk =   0.0026991
        k(  436) = (   0.2605410   0.7233198   0.2269228), wk =   0.0026991
        k(  437) = (   0.1092591   0.9041497   0.3277774), wk =   0.0026991
        k(  438) = (  -0.0420227   0.9041497   0.4286320), wk =   0.0026991
        k(  439) = (  -0.1933046   0.9041497   0.5294866), wk =   0.0026991
        k(  440) = (  -0.3445865   0.9041497   0.6303411), wk =   0.0026991
        k(  441) = (  -0.4958683   0.9041497   0.7311957), wk =   0.0026991
        k(  442) = (  -0.6471502   0.9041497   0.8320503), wk =   0.0026991
        k(  443) = (  -0.7984321   0.9041497   0.9329049), wk =   0.0026991
        k(  444) = (   1.0169503   0.9041497  -0.2773501), wk =   0.0026991
        k(  445) = (   0.8656685   0.9041497  -0.1764955), wk =   0.0026991
        k(  446) = (   0.7143866   0.9041497  -0.0756409), wk =   0.0026991
        k(  447) = (   0.5631047   0.9041497   0.0252137), wk =   0.0026991
        k(  448) = (   0.4118229   0.9041497   0.1260682), wk =   0.0026991
        k(  449) = (   0.2605410   0.9041497   0.2269228), wk =   0.0026991
        k(  450) = (   0.1092591   1.0849796   0.3277774), wk =   0.0026991
        k(  451) = (  -0.0420227   1.0849796   0.4286320), wk =   0.0026991
        k(  452) = (  -0.1933046   1.0849796   0.5294866), wk =   0.0026991
        k(  453) = (  -0.3445865   1.0849796   0.6303411), wk =   0.0026991
        k(  454) = (  -0.4958683   1.0849796   0.7311957), wk =   0.0026991
        k(  455) = (  -0.6471502   1.0849796   0.8320503), wk =   0.0026991
        k(  456) = (  -0.7984321   1.0849796   0.9329049), wk =   0.0026991
        k(  457) = (   1.0169503   1.0849796  -0.2773501), wk =   0.0026991
        k(  458) = (   0.8656685   1.0849796  -0.1764955), wk =   0.0026991
        k(  459) = (   0.7143866   1.0849796  -0.0756409), wk =   0.0026991
        k(  460) = (   0.5631047   1.0849796   0.0252137), wk =   0.0026991
        k(  461) = (   0.4118229   1.0849796   0.1260682), wk =   0.0026991
        k(  462) = (   0.2605410   1.0849796   0.2269228), wk =   0.0026991
        k(  463) = (   0.1092591   1.2658096   0.3277774), wk =   0.0026991
        k(  464) = (  -0.0420227   1.2658096   0.4286320), wk =   0.0026991
        k(  465) = (  -0.1933046   1.2658096   0.5294866), wk =   0.0026991
        k(  466) = (  -0.3445865   1.2658096   0.6303411), wk =   0.0026991
        k(  467) = (  -0.4958683   1.2658096   0.7311957), wk =   0.0026991
        k(  468) = (  -0.6471502   1.2658096   0.8320503), wk =   0.0026991
        k(  469) = (  -0.7984321   1.2658096   0.9329049), wk =   0.0026991
        k(  470) = (   1.0169503   1.2658096  -0.2773501), wk =   0.0026991
        k(  471) = (   0.8656685   1.2658096  -0.1764955), wk =   0.0026991
        k(  472) = (   0.7143866   1.2658096  -0.0756409), wk =   0.0026991
        k(  473) = (   0.5631047   1.2658096   0.0252137), wk =   0.0026991
        k(  474) = (   0.4118229   1.2658096   0.1260682), wk =   0.0026991
        k(  475) = (   0.2605410   1.2658096   0.2269228), wk =   0.0026991
        k(  476) = (   0.1092591   1.4466395   0.3277774), wk =   0.0026991
        k(  477) = (  -0.0420227   1.4466395   0.4286320), wk =   0.0026991
        k(  478) = (  -0.1933046   1.4466395   0.5294866), wk =   0.0026991
        k(  479) = (  -0.3445865   1.4466395   0.6303411), wk =   0.0026991
        k(  480) = (  -0.4958683   1.4466395   0.7311957), wk =   0.0026991
        k(  481) = (  -0.6471502   1.4466395   0.8320503), wk =   0.0026991
        k(  482) = (  -0.7984321   1.4466395   0.9329049), wk =   0.0026991
        k(  483) = (   1.0169503   1.4466395  -0.2773501), wk =   0.0026991
        k(  484) = (   0.8656685   1.4466395  -0.1764955), wk =   0.0026991
        k(  485) = (   0.7143866   1.4466395  -0.0756409), wk =   0.0026991
        k(  486) = (   0.5631047   1.4466395   0.0252137), wk =   0.0026991
        k(  487) = (   0.4118229   1.4466395   0.1260682), wk =   0.0026991
        k(  488) = (   0.2605410   1.4466395   0.2269228), wk =   0.0026991
        k(  489) = (   0.1092591   1.6274695   0.3277774), wk =   0.0026991
        k(  490) = (  -0.0420227   1.6274695   0.4286320), wk =   0.0026991
        k(  491) = (  -0.1933046   1.6274695   0.5294866), wk =   0.0026991
        k(  492) = (  -0.3445865   1.6274695   0.6303411), wk =   0.0026991
        k(  493) = (  -0.4958683   1.6274695   0.7311957), wk =   0.0026991
        k(  494) = (  -0.6471502   1.6274695   0.8320503), wk =   0.0026991
        k(  495) = (  -0.7984321   1.6274695   0.9329049), wk =   0.0026991
        k(  496) = (   1.0169503   1.6274695  -0.2773501), wk =   0.0026991
        k(  497) = (   0.8656685   1.6274695  -0.1764955), wk =   0.0026991
        k(  498) = (   0.7143866   1.6274695  -0.0756409), wk =   0.0026991
        k(  499) = (   0.5631047   1.6274695   0.0252137), wk =   0.0026991
        k(  500) = (   0.4118229   1.6274695   0.1260682), wk =   0.0026991
        k(  501) = (   0.2605410   1.6274695   0.2269228), wk =   0.0026991
        k(  502) = (   0.1092591  -1.6274695   0.3277774), wk =   0.0026991
        k(  503) = (  -0.0420227  -1.6274695   0.4286320), wk =   0.0026991
        k(  504) = (  -0.1933046  -1.6274695   0.5294866), wk =   0.0026991
        k(  505) = (  -0.3445865  -1.6274695   0.6303411), wk =   0.0026991
        k(  506) = (  -0.4958683  -1.6274695   0.7311957), wk =   0.0026991
        k(  507) = (  -0.6471502  -1.6274695   0.8320503), wk =   0.0026991
        k(  508) = (  -0.7984321  -1.6274695   0.9329049), wk =   0.0026991
        k(  509) = (   1.0169503  -1.6274695  -0.2773501), wk =   0.0026991
        k(  510) = (   0.8656685  -1.6274695  -0.1764955), wk =   0.0026991
        k(  511) = (   0.7143866  -1.6274695  -0.0756409), wk =   0.0026991
        k(  512) = (   0.5631047  -1.6274695   0.0252137), wk =   0.0026991
        k(  513) = (   0.4118229  -1.6274695   0.1260682), wk =   0.0026991
        k(  514) = (   0.2605410  -1.6274695   0.2269228), wk =   0.0026991
        k(  515) = (   0.1092591  -1.4466395   0.3277774), wk =   0.0026991
        k(  516) = (  -0.0420227  -1.4466395   0.4286320), wk =   0.0026991
        k(  517) = (  -0.1933046  -1.4466395   0.5294866), wk =   0.0026991
        k(  518) = (  -0.3445865  -1.4466395   0.6303411), wk =   0.0026991
        k(  519) = (  -0.4958683  -1.4466395   0.7311957), wk =   0.0026991
        k(  520) = (  -0.6471502  -1.4466395   0.8320503), wk =   0.0026991
        k(  521) = (  -0.7984321  -1.4466395   0.9329049), wk =   0.0026991
        k(  522) = (   1.0169503  -1.4466395  -0.2773501), wk =   0.0026991
        k(  523) = (   0.8656685  -1.4466395  -0.1764955), wk =   0.0026991
        k(  524) = (   0.7143866  -1.4466395  -0.0756409), wk =   0.0026991
        k(  525) = (   0.5631047  -1.4466395   0.0252137), wk =   0.0026991
        k(  526) = (   0.4118229  -1.4466395   0.1260682), wk =   0.0026991
        k(  527) = (   0.2605410  -1.4466395   0.2269228), wk =   0.0026991
        k(  528) = (   0.1092591  -1.2658096   0.3277774), wk =   0.0026991
        k(  529) = (  -0.0420227  -1.2658096   0.4286320), wk =   0.0026991
        k(  530) = (  -0.1933046  -1.2658096   0.5294866), wk =   0.0026991
        k(  531) = (  -0.3445865  -1.2658096   0.6303411), wk =   0.0026991
        k(  532) = (  -0.4958683  -1.2658096   0.7311957), wk =   0.0026991
        k(  533) = (  -0.6471502  -1.2658096   0.8320503), wk =   0.0026991
        k(  534) = (  -0.7984321  -1.2658096   0.9329049), wk =   0.0026991
        k(  535) = (   1.0169503  -1.2658096  -0.2773501), wk =   0.0026991
        k(  536) = (   0.8656685  -1.2658096  -0.1764955), wk =   0.0026991
        k(  537) = (   0.7143866  -1.2658096  -0.0756409), wk =   0.0026991
        k(  538) = (   0.5631047  -1.2658096   0.0252137), wk =   0.0026991
        k(  539) = (   0.4118229  -1.2658096   0.1260682), wk =   0.0026991
        k(  540) = (   0.2605410  -1.2658096   0.2269228), wk =   0.0026991
        k(  541) = (   0.1092591  -1.0849796   0.3277774), wk =   0.0026991
        k(  542) = (  -0.0420227  -1.0849796   0.4286320), wk =   0.0026991
        k(  543) = (  -0.1933046  -1.0849796   0.5294866), wk =   0.0026991
        k(  544) = (  -0.3445865  -1.0849796   0.6303411), wk =   0.0026991
        k(  545) = (  -0.4958683  -1.0849796   0.7311957), wk =   0.0026991
        k(  546) = (  -0.6471502  -1.0849796   0.8320503), wk =   0.0026991
        k(  547) = (  -0.7984321  -1.0849796   0.9329049), wk =   0.0026991
        k(  548) = (   1.0169503  -1.0849796  -0.2773501), wk =   0.0026991
        k(  549) = (   0.8656685  -1.0849796  -0.1764955), wk =   0.0026991
        k(  550) = (   0.7143866  -1.0849796  -0.0756409), wk =   0.0026991
        k(  551) = (   0.5631047  -1.0849796   0.0252137), wk =   0.0026991
        k(  552) = (   0.4118229  -1.0849796   0.1260682), wk =   0.0026991
        k(  553) = (   0.2605410  -1.0849796   0.2269228), wk =   0.0026991
        k(  554) = (   0.1092591  -0.9041497   0.3277774), wk =   0.0026991
        k(  555) = (  -0.0420227  -0.9041497   0.4286320), wk =   0.0026991
        k(  556) = (  -0.1933046  -0.9041497   0.5294866), wk =   0.0026991
        k(  557) = (  -0.3445865  -0.9041497   0.6303411), wk =   0.0026991
        k(  558) = (  -0.4958683  -0.9041497   0.7311957), wk =   0.0026991
        k(  559) = (  -0.6471502  -0.9041497   0.8320503), wk =   0.0026991
        k(  560) = (  -0.7984321  -0.9041497   0.9329049), wk =   0.0026991
        k(  561) = (   1.0169503  -0.9041497  -0.2773501), wk =   0.0026991
        k(  562) = (   0.8656685  -0.9041497  -0.1764955), wk =   0.0026991
        k(  563) = (   0.7143866  -0.9041497  -0.0756409), wk =   0.0026991
        k(  564) = (   0.5631047  -0.9041497   0.0252137), wk =   0.0026991
        k(  565) = (   0.4118229  -0.9041497   0.1260682), wk =   0.0026991
        k(  566) = (   0.2605410  -0.9041497   0.2269228), wk =   0.0026991
        k(  567) = (   0.1092591  -0.7233198   0.3277774), wk =   0.0026991
        k(  568) = (  -0.0420227  -0.7233198   0.4286320), wk =   0.0026991
        k(  569) = (  -0.1933046  -0.7233198   0.5294866), wk =   0.0026991
        k(  570) = (  -0.3445865  -0.7233198   0.6303411), wk =   0.0026991
        k(  571) = (  -0.4958683  -0.7233198   0.7311957), wk =   0.0026991
        k(  572) = (  -0.6471502  -0.7233198   0.8320503), wk =   0.0026991
        k(  573) = (  -0.7984321  -0.7233198   0.9329049), wk =   0.0026991
        k(  574) = (   1.0169503  -0.7233198  -0.2773501), wk =   0.0026991
        k(  575) = (   0.8656685  -0.7233198  -0.1764955), wk =   0.0026991
        k(  576) = (   0.7143866  -0.7233198  -0.0756409), wk =   0.0026991
        k(  577) = (   0.5631047  -0.7233198   0.0252137), wk =   0.0026991
        k(  578) = (   0.4118229  -0.7233198   0.1260682), wk =   0.0026991
        k(  579) = (   0.2605410  -0.7233198   0.2269228), wk =   0.0026991
        k(  580) = (   0.1092591  -0.5424898   0.3277774), wk =   0.0026991
        k(  581) = (  -0.0420227  -0.5424898   0.4286320), wk =   0.0026991
        k(  582) = (  -0.1933046  -0.5424898   0.5294866), wk =   0.0026991
        k(  583) = (  -0.3445865  -0.5424898   0.6303411), wk =   0.0026991
        k(  584) = (  -0.4958683  -0.5424898   0.7311957), wk =   0.0026991
        k(  585) = (  -0.6471502  -0.5424898   0.8320503), wk =   0.0026991
        k(  586) = (  -0.7984321  -0.5424898   0.9329049), wk =   0.0026991
        k(  587) = (   1.0169503  -0.5424898  -0.2773501), wk =   0.0026991
        k(  588) = (   0.8656685  -0.5424898  -0.1764955), wk =   0.0026991
        k(  589) = (   0.7143866  -0.5424898  -0.0756409), wk =   0.0026991
        k(  590) = (   0.5631047  -0.5424898   0.0252137), wk =   0.0026991
        k(  591) = (   0.4118229  -0.5424898   0.1260682), wk =   0.0026991
        k(  592) = (   0.2605410  -0.5424898   0.2269228), wk =   0.0026991
        k(  593) = (   0.1092591  -0.3616599   0.3277774), wk =   0.0026991
        k(  594) = (  -0.0420227  -0.3616599   0.4286320), wk =   0.0026991
        k(  595) = (  -0.1933046  -0.3616599   0.5294866), wk =   0.0026991
        k(  596) = (  -0.3445865  -0.3616599   0.6303411), wk =   0.0026991
        k(  597) = (  -0.4958683  -0.3616599   0.7311957), wk =   0.0026991
        k(  598) = (  -0.6471502  -0.3616599   0.8320503), wk =   0.0026991
        k(  599) = (  -0.7984321  -0.3616599   0.9329049), wk =   0.0026991
        k(  600) = (   1.0169503  -0.3616599  -0.2773501), wk =   0.0026991
        k(  601) = (   0.8656685  -0.3616599  -0.1764955), wk =   0.0026991
        k(  602) = (   0.7143866  -0.3616599  -0.0756409), wk =   0.0026991
        k(  603) = (   0.5631047  -0.3616599   0.0252137), wk =   0.0026991
        k(  604) = (   0.4118229  -0.3616599   0.1260682), wk =   0.0026991
        k(  605) = (   0.2605410  -0.3616599   0.2269228), wk =   0.0026991
        k(  606) = (   0.1092591  -0.1808299   0.3277774), wk =   0.0026991
        k(  607) = (  -0.0420227  -0.1808299   0.4286320), wk =   0.0026991
        k(  608) = (  -0.1933046  -0.1808299   0.5294866), wk =   0.0026991
        k(  609) = (  -0.3445865  -0.1808299   0.6303411), wk =   0.0026991
        k(  610) = (  -0.4958683  -0.1808299   0.7311957), wk =   0.0026991
        k(  611) = (  -0.6471502  -0.1808299   0.8320503), wk =   0.0026991
        k(  612) = (  -0.7984321  -0.1808299   0.9329049), wk =   0.0026991
        k(  613) = (   1.0169503  -0.1808299  -0.2773501), wk =   0.0026991
        k(  614) = (   0.8656685  -0.1808299  -0.1764955), wk =   0.0026991
        k(  615) = (   0.7143866  -0.1808299  -0.0756409), wk =   0.0026991
        k(  616) = (   0.5631047  -0.1808299   0.0252137), wk =   0.0026991
        k(  617) = (   0.4118229  -0.1808299   0.1260682), wk =   0.0026991
        k(  618) = (   0.2605410  -0.1808299   0.2269228), wk =   0.0026991
        k(  619) = (  -0.1638887   0.0000000  -0.4916661), wk =   0.0013495
        k(  620) = (  -0.3151706   0.0000000  -0.3908115), wk =   0.0026991
        k(  621) = (  -0.4664524   0.0000000  -0.2899569), wk =   0.0026991
        k(  622) = (  -0.6177343   0.0000000  -0.1891023), wk =   0.0026991
        k(  623) = (  -0.7690162   0.0000000  -0.0882478), wk =   0.0026991
        k(  624) = (  -0.9202980   0.0000000   0.0126068), wk =   0.0026991
        k(  625) = (  -1.0715799   0.0000000   0.1134614), wk =   0.0026991
        k(  626) = (  -0.1638887   0.1808299  -0.4916661), wk =   0.0026991
        k(  627) = (  -0.3151706   0.1808299  -0.3908115), wk =   0.0026991
        k(  628) = (  -0.4664524   0.1808299  -0.2899569), wk =   0.0026991
        k(  629) = (  -0.6177343   0.1808299  -0.1891023), wk =   0.0026991
        k(  630) = (  -0.7690162   0.1808299  -0.0882478), wk =   0.0026991
        k(  631) = (  -0.9202980   0.1808299   0.0126068), wk =   0.0026991
        k(  632) = (  -1.0715799   0.1808299   0.1134614), wk =   0.0026991
        k(  633) = (   0.7438025   0.1808299  -1.0967936), wk =   0.0026991
        k(  634) = (   0.5925207   0.1808299  -0.9959390), wk =   0.0026991
        k(  635) = (   0.4412388   0.1808299  -0.8950844), wk =   0.0026991
        k(  636) = (   0.2899569   0.1808299  -0.7942298), wk =   0.0026991
        k(  637) = (   0.1386751   0.1808299  -0.6933753), wk =   0.0026991
        k(  638) = (  -0.0126068   0.1808299  -0.5925207), wk =   0.0026991
        k(  639) = (  -0.1638887   0.3616599  -0.4916661), wk =   0.0026991
        k(  640) = (  -0.3151706   0.3616599  -0.3908115), wk =   0.0026991
        k(  641) = (  -0.4664524   0.3616599  -0.2899569), wk =   0.0026991
        k(  642) = (  -0.6177343   0.3616599  -0.1891023), wk =   0.0026991
        k(  643) = (  -0.7690162   0.3616599  -0.0882478), wk =   0.0026991
        k(  644) = (  -0.9202980   0.3616599   0.0126068), wk =   0.0026991
        k(  645) = (  -1.0715799   0.3616599   0.1134614), wk =   0.0026991
        k(  646) = (   0.7438025   0.3616599  -1.0967936), wk =   0.0026991
        k(  647) = (   0.5925207   0.3616599  -0.9959390), wk =   0.0026991
        k(  648) = (   0.4412388   0.3616599  -0.8950844), wk =   0.0026991
        k(  649) = (   0.2899569   0.3616599  -0.7942298), wk =   0.0026991
        k(  650) = (   0.1386751   0.3616599  -0.6933753), wk =   0.0026991
        k(  651) = (  -0.0126068   0.3616599  -0.5925207), wk =   0.0026991
        k(  652) = (  -0.1638887   0.5424898  -0.4916661), wk =   0.0026991
        k(  653) = (  -0.3151706   0.5424898  -0.3908115), wk =   0.0026991
        k(  654) = (  -0.4664524   0.5424898  -0.2899569), wk =   0.0026991
        k(  655) = (  -0.6177343   0.5424898  -0.1891023), wk =   0.0026991
        k(  656) = (  -0.7690162   0.5424898  -0.0882478), wk =   0.0026991
        k(  657) = (  -0.9202980   0.5424898   0.0126068), wk =   0.0026991
        k(  658) = (  -1.0715799   0.5424898   0.1134614), wk =   0.0026991
        k(  659) = (   0.7438025   0.5424898  -1.0967936), wk =   0.0026991
        k(  660) = (   0.5925207   0.5424898  -0.9959390), wk =   0.0026991
        k(  661) = (   0.4412388   0.5424898  -0.8950844), wk =   0.0026991
        k(  662) = (   0.2899569   0.5424898  -0.7942298), wk =   0.0026991
        k(  663) = (   0.1386751   0.5424898  -0.6933753), wk =   0.0026991
        k(  664) = (  -0.0126068   0.5424898  -0.5925207), wk =   0.0026991
        k(  665) = (  -0.1638887   0.7233198  -0.4916661), wk =   0.0026991
        k(  666) = (  -0.3151706   0.7233198  -0.3908115), wk =   0.0026991
        k(  667) = (  -0.4664524   0.7233198  -0.2899569), wk =   0.0026991
        k(  668) = (  -0.6177343   0.7233198  -0.1891023), wk =   0.0026991
        k(  669) = (  -0.7690162   0.7233198  -0.0882478), wk =   0.0026991
        k(  670) = (  -0.9202980   0.7233198   0.0126068), wk =   0.0026991
        k(  671) = (  -1.0715799   0.7233198   0.1134614), wk =   0.0026991
        k(  672) = (   0.7438025   0.7233198  -1.0967936), wk =   0.0026991
        k(  673) = (   0.5925207   0.7233198  -0.9959390), wk =   0.0026991
        k(  674) = (   0.4412388   0.7233198  -0.8950844), wk =   0.0026991
        k(  675) = (   0.2899569   0.7233198  -0.7942298), wk =   0.0026991
        k(  676) = (   0.1386751   0.7233198  -0.6933753), wk =   0.0026991
        k(  677) = (  -0.0126068   0.7233198  -0.5925207), wk =   0.0026991
        k(  678) = (  -0.1638887   0.9041497  -0.4916661), wk =   0.0026991
        k(  679) = (  -0.3151706   0.9041497  -0.3908115), wk =   0.0026991
        k(  680) = (  -0.4664524   0.9041497  -0.2899569), wk =   0.0026991
        k(  681) = (  -0.6177343   0.9041497  -0.1891023), wk =   0.0026991
        k(  682) = (  -0.7690162   0.9041497  -0.0882478), wk =   0.0026991
        k(  683) = (  -0.9202980   0.9041497   0.0126068), wk =   0.0026991
        k(  684) = (  -1.0715799   0.9041497   0.1134614), wk =   0.0026991
        k(  685) = (   0.7438025   0.9041497  -1.0967936), wk =   0.0026991
        k(  686) = (   0.5925207   0.9041497  -0.9959390), wk =   0.0026991
        k(  687) = (   0.4412388   0.9041497  -0.8950844), wk =   0.0026991
        k(  688) = (   0.2899569   0.9041497  -0.7942298), wk =   0.0026991
        k(  689) = (   0.1386751   0.9041497  -0.6933753), wk =   0.0026991
        k(  690) = (  -0.0126068   0.9041497  -0.5925207), wk =   0.0026991
        k(  691) = (  -0.1638887   1.0849796  -0.4916661), wk =   0.0026991
        k(  692) = (  -0.3151706   1.0849796  -0.3908115), wk =   0.0026991
        k(  693) = (  -0.4664524   1.0849796  -0.2899569), wk =   0.0026991
        k(  694) = (  -0.6177343   1.0849796  -0.1891023), wk =   0.0026991
        k(  695) = (  -0.7690162   1.0849796  -0.0882478), wk =   0.0026991
        k(  696) = (  -0.9202980   1.0849796   0.0126068), wk =   0.0026991
        k(  697) = (  -1.0715799   1.0849796   0.1134614), wk =   0.0026991
        k(  698) = (   0.7438025   1.0849796  -1.0967936), wk =   0.0026991
        k(  699) = (   0.5925207   1.0849796  -0.9959390), wk =   0.0026991
        k(  700) = (   0.4412388   1.0849796  -0.8950844), wk =   0.0026991
        k(  701) = (   0.2899569   1.0849796  -0.7942298), wk =   0.0026991
        k(  702) = (   0.1386751   1.0849796  -0.6933753), wk =   0.0026991
        k(  703) = (  -0.0126068   1.0849796  -0.5925207), wk =   0.0026991
        k(  704) = (  -0.1638887   1.2658096  -0.4916661), wk =   0.0026991
        k(  705) = (  -0.3151706   1.2658096  -0.3908115), wk =   0.0026991
        k(  706) = (  -0.4664524   1.2658096  -0.2899569), wk =   0.0026991
        k(  707) = (  -0.6177343   1.2658096  -0.1891023), wk =   0.0026991
        k(  708) = (  -0.7690162   1.2658096  -0.0882478), wk =   0.0026991
        k(  709) = (  -0.9202980   1.2658096   0.0126068), wk =   0.0026991
        k(  710) = (  -1.0715799   1.2658096   0.1134614), wk =   0.0026991
        k(  711) = (   0.7438025   1.2658096  -1.0967936), wk =   0.0026991
        k(  712) = (   0.5925207   1.2658096  -0.9959390), wk =   0.0026991
        k(  713) = (   0.4412388   1.2658096  -0.8950844), wk =   0.0026991
        k(  714) = (   0.2899569   1.2658096  -0.7942298), wk =   0.0026991
        k(  715) = (   0.1386751   1.2658096  -0.6933753), wk =   0.0026991
        k(  716) = (  -0.0126068   1.2658096  -0.5925207), wk =   0.0026991
        k(  717) = (  -0.1638887   1.4466395  -0.4916661), wk =   0.0026991
        k(  718) = (  -0.3151706   1.4466395  -0.3908115), wk =   0.0026991
        k(  719) = (  -0.4664524   1.4466395  -0.2899569), wk =   0.0026991
        k(  720) = (  -0.6177343   1.4466395  -0.1891023), wk =   0.0026991
        k(  721) = (  -0.7690162   1.4466395  -0.0882478), wk =   0.0026991
        k(  722) = (  -0.9202980   1.4466395   0.0126068), wk =   0.0026991
        k(  723) = (  -1.0715799   1.4466395   0.1134614), wk =   0.0026991
        k(  724) = (   0.7438025   1.4466395  -1.0967936), wk =   0.0026991
        k(  725) = (   0.5925207   1.4466395  -0.9959390), wk =   0.0026991
        k(  726) = (   0.4412388   1.4466395  -0.8950844), wk =   0.0026991
        k(  727) = (   0.2899569   1.4466395  -0.7942298), wk =   0.0026991
        k(  728) = (   0.1386751   1.4466395  -0.6933753), wk =   0.0026991
        k(  729) = (  -0.0126068   1.4466395  -0.5925207), wk =   0.0026991
        k(  730) = (  -0.1638887   1.6274695  -0.4916661), wk =   0.0026991
        k(  731) = (  -0.3151706   1.6274695  -0.3908115), wk =   0.0026991
        k(  732) = (  -0.4664524   1.6274695  -0.2899569), wk =   0.0026991
        k(  733) = (  -0.6177343   1.6274695  -0.1891023), wk =   0.0026991
        k(  734) = (  -0.7690162   1.6274695  -0.0882478), wk =   0.0026991
        k(  735) = (  -0.9202980   1.6274695   0.0126068), wk =   0.0026991
        k(  736) = (  -1.0715799   1.6274695   0.1134614), wk =   0.0026991
        k(  737) = (   0.7438025   1.6274695  -1.0967936), wk =   0.0026991
        k(  738) = (   0.5925207   1.6274695  -0.9959390), wk =   0.0026991
        k(  739) = (   0.4412388   1.6274695  -0.8950844), wk =   0.0026991
        k(  740) = (   0.2899569   1.6274695  -0.7942298), wk =   0.0026991
        k(  741) = (   0.1386751   1.6274695  -0.6933753), wk =   0.0026991
        k(  742) = (  -0.0126068   1.6274695  -0.5925207), wk =   0.0026991

                       cryst. coord.
        k(    1) = (   0.0000000   0.0000000   0.0000000), wk =   0.0013495
        k(    2) = (  -0.0000000   0.0000000   0.0769231), wk =   0.0026991
        k(    3) = (  -0.0000000   0.0000000   0.1538462), wk =   0.0026991
        k(    4) = (   0.0000000   0.0000000   0.2307692), wk =   0.0026991
        k(    5) = (  -0.0000000   0.0000000   0.3076923), wk =   0.0026991
        k(    6) = (   0.0000000   0.0000000   0.3846154), wk =   0.0026991
        k(    7) = (   0.0000000   0.0000000   0.4615385), wk =   0.0026991
        k(    8) = (   0.0000000   0.0526316   0.0000000), wk =   0.0026991
        k(    9) = (  -0.0000000   0.0526316   0.0769231), wk =   0.0026991
        k(   10) = (  -0.0000000   0.0526316   0.1538462), wk =   0.0026991
        k(   11) = (   0.0000000   0.0526316   0.2307692), wk =   0.0026991
        k(   12) = (  -0.0000000   0.0526316   0.3076923), wk =   0.0026991
        k(   13) = (   0.0000000   0.0526316   0.3846154), wk =   0.0026991
        k(   14) = (   0.0000000   0.0526316   0.4615385), wk =   0.0026991
        k(   15) = (  -0.0000000   0.0526316  -0.4615385), wk =   0.0026991
        k(   16) = (  -0.0000000   0.0526316  -0.3846154), wk =   0.0026991
        k(   17) = (   0.0000000   0.0526316  -0.3076923), wk =   0.0026991
        k(   18) = (  -0.0000000   0.0526316  -0.2307692), wk =   0.0026991
        k(   19) = (   0.0000000   0.0526316  -0.1538462), wk =   0.0026991
        k(   20) = (   0.0000000   0.0526316  -0.0769231), wk =   0.0026991
        k(   21) = (   0.0000000   0.1052632   0.0000000), wk =   0.0026991
        k(   22) = (  -0.0000000   0.1052632   0.0769231), wk =   0.0026991
        k(   23) = (  -0.0000000   0.1052632   0.1538462), wk =   0.0026991
        k(   24) = (   0.0000000   0.1052632   0.2307692), wk =   0.0026991
        k(   25) = (  -0.0000000   0.1052632   0.3076923), wk =   0.0026991
        k(   26) = (   0.0000000   0.1052632   0.3846154), wk =   0.0026991
        k(   27) = (   0.0000000   0.1052632   0.4615385), wk =   0.0026991
        k(   28) = (  -0.0000000   0.1052632  -0.4615385), wk =   0.0026991
        k(   29) = (  -0.0000000   0.1052632  -0.3846154), wk =   0.0026991
        k(   30) = (   0.0000000   0.1052632  -0.3076923), wk =   0.0026991
        k(   31) = (  -0.0000000   0.1052632  -0.2307692), wk =   0.0026991
        k(   32) = (   0.0000000   0.1052632  -0.1538462), wk =   0.0026991
        k(   33) = (   0.0000000   0.1052632  -0.0769231), wk =   0.0026991
        k(   34) = (   0.0000000   0.1578947   0.0000000), wk =   0.0026991
        k(   35) = (  -0.0000000   0.1578947   0.0769231), wk =   0.0026991
        k(   36) = (  -0.0000000   0.1578947   0.1538462), wk =   0.0026991
        k(   37) = (   0.0000000   0.1578947   0.2307692), wk =   0.0026991
        k(   38) = (  -0.0000000   0.1578947   0.3076923), wk =   0.0026991
        k(   39) = (   0.0000000   0.1578947   0.3846154), wk =   0.0026991
        k(   40) = (   0.0000000   0.1578947   0.4615385), wk =   0.0026991
        k(   41) = (  -0.0000000   0.1578947  -0.4615385), wk =   0.0026991
        k(   42) = (  -0.0000000   0.1578947  -0.3846154), wk =   0.0026991
        k(   43) = (   0.0000000   0.1578947  -0.3076923), wk =   0.0026991
        k(   44) = (  -0.0000000   0.1578947  -0.2307692), wk =   0.0026991
        k(   45) = (   0.0000000   0.1578947  -0.1538462), wk =   0.0026991
        k(   46) = (   0.0000000   0.1578947  -0.0769231), wk =   0.0026991
        k(   47) = (   0.0000000   0.2105263   0.0000000), wk =   0.0026991
        k(   48) = (  -0.0000000   0.2105263   0.0769231), wk =   0.0026991
        k(   49) = (  -0.0000000   0.2105263   0.1538462), wk =   0.0026991
        k(   50) = (   0.0000000   0.2105263   0.2307692), wk =   0.0026991
        k(   51) = (  -0.0000000   0.2105263   0.3076923), wk =   0.0026991
        k(   52) = (   0.0000000   0.2105263   0.3846154), wk =   0.0026991
        k(   53) = (   0.0000000   0.2105263   0.4615385), wk =   0.0026991
        k(   54) = (  -0.0000000   0.2105263  -0.4615385), wk =   0.0026991
        k(   55) = (  -0.0000000   0.2105263  -0.3846154), wk =   0.0026991
        k(   56) = (   0.0000000   0.2105263  -0.3076923), wk =   0.0026991
        k(   57) = (  -0.0000000   0.2105263  -0.2307692), wk =   0.0026991
        k(   58) = (   0.0000000   0.2105263  -0.1538462), wk =   0.0026991
        k(   59) = (   0.0000000   0.2105263  -0.0769231), wk =   0.0026991
        k(   60) = (   0.0000000   0.2631579   0.0000000), wk =   0.0026991
        k(   61) = (  -0.0000000   0.2631579   0.0769231), wk =   0.0026991
        k(   62) = (  -0.0000000   0.2631579   0.1538462), wk =   0.0026991
        k(   63) = (   0.0000000   0.2631579   0.2307692), wk =   0.0026991
        k(   64) = (  -0.0000000   0.2631579   0.3076923), wk =   0.0026991
        k(   65) = (   0.0000000   0.2631579   0.3846154), wk =   0.0026991
        k(   66) = (   0.0000000   0.2631579   0.4615385), wk =   0.0026991
        k(   67) = (  -0.0000000   0.2631579  -0.4615385), wk =   0.0026991
        k(   68) = (  -0.0000000   0.2631579  -0.3846154), wk =   0.0026991
        k(   69) = (   0.0000000   0.2631579  -0.3076923), wk =   0.0026991
        k(   70) = (  -0.0000000   0.2631579  -0.2307692), wk =   0.0026991
        k(   71) = (   0.0000000   0.2631579  -0.1538462), wk =   0.0026991
        k(   72) = (   0.0000000   0.2631579  -0.0769231), wk =   0.0026991
        k(   73) = (   0.0000000   0.3157895   0.0000000), wk =   0.0026991
        k(   74) = (  -0.0000000   0.3157895   0.0769231), wk =   0.0026991
        k(   75) = (  -0.0000000   0.3157895   0.1538462), wk =   0.0026991
        k(   76) = (   0.0000000   0.3157895   0.2307692), wk =   0.0026991
        k(   77) = (  -0.0000000   0.3157895   0.3076923), wk =   0.0026991
        k(   78) = (   0.0000000   0.3157895   0.3846154), wk =   0.0026991
        k(   79) = (   0.0000000   0.3157895   0.4615385), wk =   0.0026991
        k(   80) = (  -0.0000000   0.3157895  -0.4615385), wk =   0.0026991
        k(   81) = (  -0.0000000   0.3157895  -0.3846154), wk =   0.0026991
        k(   82) = (   0.0000000   0.3157895  -0.3076923), wk =   0.0026991
        k(   83) = (  -0.0000000   0.3157895  -0.2307692), wk =   0.0026991
        k(   84) = (   0.0000000   0.3157895  -0.1538462), wk =   0.0026991
        k(   85) = (   0.0000000   0.3157895  -0.0769231), wk =   0.0026991
        k(   86) = (   0.0000000   0.3684211   0.0000000), wk =   0.0026991
        k(   87) = (  -0.0000000   0.3684211   0.0769231), wk =   0.0026991
        k(   88) = (  -0.0000000   0.3684211   0.1538462), wk =   0.0026991
        k(   89) = (   0.0000000   0.3684211   0.2307692), wk =   0.0026991
        k(   90) = (  -0.0000000   0.3684211   0.3076923), wk =   0.0026991
        k(   91) = (   0.0000000   0.3684211   0.3846154), wk =   0.0026991
        k(   92) = (   0.0000000   0.3684211   0.4615385), wk =   0.0026991
        k(   93) = (  -0.0000000   0.3684211  -0.4615385), wk =   0.0026991
        k(   94) = (  -0.0000000   0.3684211  -0.3846154), wk =   0.0026991
        k(   95) = (   0.0000000   0.3684211  -0.3076923), wk =   0.0026991
        k(   96) = (  -0.0000000   0.3684211  -0.2307692), wk =   0.0026991
        k(   97) = (   0.0000000   0.3684211  -0.1538462), wk =   0.0026991
        k(   98) = (   0.0000000   0.3684211  -0.0769231), wk =   0.0026991
        k(   99) = (   0.0000000   0.4210526   0.0000000), wk =   0.0026991
        k(  100) = (  -0.0000000   0.4210526   0.0769231), wk =   0.0026991
        k(  101) = (  -0.0000000   0.4210526   0.1538462), wk =   0.0026991
        k(  102) = (   0.0000000   0.4210526   0.2307692), wk =   0.0026991
        k(  103) = (  -0.0000000   0.4210526   0.3076923), wk =   0.0026991
        k(  104) = (   0.0000000   0.4210526   0.3846154), wk =   0.0026991
        k(  105) = (   0.0000000   0.4210526   0.4615385), wk =   0.0026991
        k(  106) = (  -0.0000000   0.4210526  -0.4615385), wk =   0.0026991
        k(  107) = (  -0.0000000   0.4210526  -0.3846154), wk =   0.0026991
        k(  108) = (   0.0000000   0.4210526  -0.3076923), wk =   0.0026991
        k(  109) = (  -0.0000000   0.4210526  -0.2307692), wk =   0.0026991
        k(  110) = (   0.0000000   0.4210526  -0.1538462), wk =   0.0026991
        k(  111) = (   0.0000000   0.4210526  -0.0769231), wk =   0.0026991
        k(  112) = (   0.0000000   0.4736842   0.0000000), wk =   0.0026991
        k(  113) = (  -0.0000000   0.4736842   0.0769231), wk =   0.0026991
        k(  114) = (  -0.0000000   0.4736842   0.1538462), wk =   0.0026991
        k(  115) = (   0.0000000   0.4736842   0.2307692), wk =   0.0026991
        k(  116) = (  -0.0000000   0.4736842   0.3076923), wk =   0.0026991
        k(  117) = (   0.0000000   0.4736842   0.3846154), wk =   0.0026991
        k(  118) = (   0.0000000   0.4736842   0.4615385), wk =   0.0026991
        k(  119) = (  -0.0000000   0.4736842  -0.4615385), wk =   0.0026991
        k(  120) = (  -0.0000000   0.4736842  -0.3846154), wk =   0.0026991
        k(  121) = (   0.0000000   0.4736842  -0.3076923), wk =   0.0026991
        k(  122) = (  -0.0000000   0.4736842  -0.2307692), wk =   0.0026991
        k(  123) = (   0.0000000   0.4736842  -0.1538462), wk =   0.0026991
        k(  124) = (   0.0000000   0.4736842  -0.0769231), wk =   0.0026991
        k(  125) = (   0.1666667   0.0000000  -0.0000000), wk =   0.0026991
        k(  126) = (   0.1666667   0.0000000   0.0769231), wk =   0.0026991
        k(  127) = (   0.1666667   0.0000000   0.1538462), wk =   0.0026991
        k(  128) = (   0.1666667   0.0000000   0.2307692), wk =   0.0026991
        k(  129) = (   0.1666667   0.0000000   0.3076923), wk =   0.0026991
        k(  130) = (   0.1666667   0.0000000   0.3846154), wk =   0.0026991
        k(  131) = (   0.1666667   0.0000000   0.4615385), wk =   0.0026991
        k(  132) = (   0.1666667   0.0000000  -0.4615385), wk =   0.0026991
        k(  133) = (   0.1666667   0.0000000  -0.3846154), wk =   0.0026991
        k(  134) = (   0.1666667   0.0000000  -0.3076923), wk =   0.0026991
        k(  135) = (   0.1666667   0.0000000  -0.2307692), wk =   0.0026991
        k(  136) = (   0.1666667   0.0000000  -0.1538462), wk =   0.0026991
        k(  137) = (   0.1666667   0.0000000  -0.0769231), wk =   0.0026991
        k(  138) = (   0.1666667   0.0526316  -0.0000000), wk =   0.0026991
        k(  139) = (   0.1666667   0.0526316   0.0769231), wk =   0.0026991
        k(  140) = (   0.1666667   0.0526316   0.1538462), wk =   0.0026991
        k(  141) = (   0.1666667   0.0526316   0.2307692), wk =   0.0026991
        k(  142) = (   0.1666667   0.0526316   0.3076923), wk =   0.0026991
        k(  143) = (   0.1666667   0.0526316   0.3846154), wk =   0.0026991
        k(  144) = (   0.1666667   0.0526316   0.4615385), wk =   0.0026991
        k(  145) = (   0.1666667   0.0526316  -0.4615385), wk =   0.0026991
        k(  146) = (   0.1666667   0.0526316  -0.3846154), wk =   0.0026991
        k(  147) = (   0.1666667   0.0526316  -0.3076923), wk =   0.0026991
        k(  148) = (   0.1666667   0.0526316  -0.2307692), wk =   0.0026991
        k(  149) = (   0.1666667   0.0526316  -0.1538462), wk =   0.0026991
        k(  150) = (   0.1666667   0.0526316  -0.0769231), wk =   0.0026991
        k(  151) = (   0.1666667   0.1052632  -0.0000000), wk =   0.0026991
        k(  152) = (   0.1666667   0.1052632   0.0769231), wk =   0.0026991
        k(  153) = (   0.1666667   0.1052632   0.1538462), wk =   0.0026991
        k(  154) = (   0.1666667   0.1052632   0.2307692), wk =   0.0026991
        k(  155) = (   0.1666667   0.1052632   0.3076923), wk =   0.0026991
        k(  156) = (   0.1666667   0.1052632   0.3846154), wk =   0.0026991
        k(  157) = (   0.1666667   0.1052632   0.4615385), wk =   0.0026991
        k(  158) = (   0.1666667   0.1052632  -0.4615385), wk =   0.0026991
        k(  159) = (   0.1666667   0.1052632  -0.3846154), wk =   0.0026991
        k(  160) = (   0.1666667   0.1052632  -0.3076923), wk =   0.0026991
        k(  161) = (   0.1666667   0.1052632  -0.2307692), wk =   0.0026991
        k(  162) = (   0.1666667   0.1052632  -0.1538462), wk =   0.0026991
        k(  163) = (   0.1666667   0.1052632  -0.0769231), wk =   0.0026991
        k(  164) = (   0.1666667   0.1578947  -0.0000000), wk =   0.0026991
        k(  165) = (   0.1666667   0.1578947   0.0769231), wk =   0.0026991
        k(  166) = (   0.1666667   0.1578947   0.1538462), wk =   0.0026991
        k(  167) = (   0.1666667   0.1578947   0.2307692), wk =   0.0026991
        k(  168) = (   0.1666667   0.1578947   0.3076923), wk =   0.0026991
        k(  169) = (   0.1666667   0.1578947   0.3846154), wk =   0.0026991
        k(  170) = (   0.1666667   0.1578947   0.4615385), wk =   0.0026991
        k(  171) = (   0.1666667   0.1578947  -0.4615385), wk =   0.0026991
        k(  172) = (   0.1666667   0.1578947  -0.3846154), wk =   0.0026991
        k(  173) = (   0.1666667   0.1578947  -0.3076923), wk =   0.0026991
        k(  174) = (   0.1666667   0.1578947  -0.2307692), wk =   0.0026991
        k(  175) = (   0.1666667   0.1578947  -0.1538462), wk =   0.0026991
        k(  176) = (   0.1666667   0.1578947  -0.0769231), wk =   0.0026991
        k(  177) = (   0.1666667   0.2105263  -0.0000000), wk =   0.0026991
        k(  178) = (   0.1666667   0.2105263   0.0769231), wk =   0.0026991
        k(  179) = (   0.1666667   0.2105263   0.1538462), wk =   0.0026991
        k(  180) = (   0.1666667   0.2105263   0.2307692), wk =   0.0026991
        k(  181) = (   0.1666667   0.2105263   0.3076923), wk =   0.0026991
        k(  182) = (   0.1666667   0.2105263   0.3846154), wk =   0.0026991
[...]
     0.2591   0.1652   0.0654   0.0062  -0.0105  -0.0325

          k =-0.0126 1.6275-0.5925 ( 11115 PWs)   bands (ev):

    -3.2339  -3.2210  -2.2389  -2.1983  -1.5134  -1.4919  -0.1267  -0.1122
     0.4473   0.4873   0.7360   0.8339   1.6258   1.6439   2.2769   2.3283
     2.5337   2.5564   2.8418   2.9628   3.3170   3.3994   3.6674   3.7825
     4.3493   4.5233   4.7162   4.7180   5.2176   5.2685   5.5964   5.6968
     6.9353   7.0090   7.3411   7.4423   7.6113   7.8097

     occupation numbers 
     1.0000   1.0000   1.0000   1.0000   1.0000   1.0000   1.0000   1.0000
     1.0000   1.0000   1.0000   1.0000   1.0000   1.0000   1.0000   1.0000
     1.0000   1.0000   1.0000   1.0000   1.0000   1.0000   1.0000   1.0000
     1.0000   1.0000   1.0000   1.0000   1.0006   1.0008   1.0074   1.0123
     0.3289   0.2370  -0.0084  -0.0297  -0.0339  -0.0201

     the Fermi energy is     6.8111 ev

!    total energy              =    -585.58350713 Ry
     Harris-Foulkes estimate   =    -585.58350713 Ry
     estimated scf accuracy    <          4.9E-13 Ry

     The total energy is the sum of the following terms:

     one-electron contribution =      45.46603501 Ry
     hartree contribution      =       7.82341186 Ry
     xc contribution           =     -76.47251008 Ry
     ewald contribution        =    -110.72300364 Ry
     one-center paw contrib.   =    -451.68426016 Ry
      -> PAW hartree energy AE =       1.13090929 Ry
      -> PAW hartree energy PS =      -1.12843179 Ry
      -> PAW xc energy AE      =     -32.79130046 Ry
      -> PAW xc energy PS      =       1.47470550 Ry
      -> total E_H with PAW    =       7.82588937 Ry
      -> total E_XC with PAW   =    -107.78910503 Ry
     smearing contrib. (-TS)   =       0.00681988 Ry

     convergence has been achieved in  18 iterations

     Forces acting on atoms (cartesian axes, Ry/au):

     atom    1 type  1   force =    -0.00000006    0.00000003   -0.00000361
     atom    2 type  1   force =    -0.00062555   -0.00000002   -0.00074758
     atom    3 type  1   force =     0.00082721   -0.00000005   -0.00088859
     atom    4 type  1   force =    -0.00082470    0.00000004    0.00090173
     atom    5 type  1   force =     0.00062434    0.00000002    0.00074320
     atom    6 type  2   force =     0.00046499    0.00000010   -0.00012423
     atom    7 type  2   force =    -0.00076268    0.00000010    0.00080181
     atom    8 type  3   force =    -0.00040542    0.00000002   -0.00187885
     atom    9 type  3   force =     0.00040416   -0.00000003    0.00187043
     atom   10 type  2   force =     0.00076775   -0.00000010   -0.00080185
     atom   11 type  2   force =    -0.00046982   -0.00000010    0.00012790
     atom   12 type  1   force =    -0.00000010   -0.00000003   -0.00000364
     atom   13 type  1   force =    -0.00062561    0.00000005   -0.00074775
     atom   14 type  1   force =     0.00082722    0.00000005   -0.00088878
     atom   15 type  1   force =    -0.00082477   -0.00000004    0.00090159
     atom   16 type  1   force =     0.00062434   -0.00000005    0.00074311
     atom   17 type  2   force =     0.00046509    0.00000001   -0.00012421
     atom   18 type  2   force =    -0.00076271   -0.00000003    0.00080171
     atom   19 type  3   force =    -0.00040559   -0.00000007   -0.00187890
     atom   20 type  3   force =     0.00040428    0.00000008    0.00187059
     atom   21 type  2   force =     0.00076759    0.00000002   -0.00080186
     atom   22 type  2   force =    -0.00046994   -0.00000001    0.00012779
     The non-local contrib.  to forces
     atom    1 type  1   force =     0.00000111    0.00000005   -0.00001068
     atom    2 type  1   force =    -0.00428281   -0.00000004    0.01207873
     atom    3 type  1   force =    -0.02480767   -0.00000005    0.00613777
     atom    4 type  1   force =     0.02481828    0.00000010   -0.00611413
     atom    5 type  1   force =     0.00427679    0.00000007   -0.01209880
     atom    6 type  2   force =     0.04190057    0.00000006   -0.03733361
     atom    7 type  2   force =    -0.01336796    0.00000006    0.03249845
     atom    8 type  3   force =     0.00349712    0.00000008    0.01916124
     atom    9 type  3   force =    -0.00349749   -0.00000010   -0.01917589
     atom   10 type  2   force =     0.01337505   -0.00000009   -0.03249606
     atom   11 type  2   force =    -0.04191850   -0.00000008    0.03733329
     atom   12 type  1   force =     0.00000115   -0.00000005   -0.00001067
     atom   13 type  1   force =    -0.00428283    0.00000014    0.01207920
     atom   14 type  1   force =    -0.02480778    0.00000010    0.00613794
     atom   15 type  1   force =     0.02481796   -0.00000014   -0.00611400
     atom   16 type  1   force =     0.00427663   -0.00000018   -0.01209853
     atom   17 type  2   force =     0.04190053   -0.00000002   -0.03733361
     atom   18 type  2   force =    -0.01336803   -0.00000001    0.03249818
     atom   19 type  3   force =     0.00349674   -0.00000006    0.01916102
     atom   20 type  3   force =    -0.00349738    0.00000007   -0.01917595
     atom   21 type  2   force =     0.01337497    0.00000005   -0.03249622
     atom   22 type  2   force =    -0.04191853    0.00000006    0.03733328
     The ionic contribution  to forces
     atom    1 type  1   force =     0.00000787    0.00000010   -0.00003195
     atom    2 type  1   force =     0.19024444   -0.00000030   -0.24629584
     atom    3 type  1   force =    -0.22019988   -0.00000027   -0.15245767
     atom    4 type  1   force =     0.22018672    0.00000027    0.15248027
     atom    5 type  1   force =    -0.19027687    0.00000030    0.24624524
     atom    6 type  2   force =    -0.67385289    0.00000029    0.33740128
     atom    7 type  2   force =     0.48014667    0.00000045   -0.70848724
     atom    8 type  3   force =    -0.28553086    0.00000042    0.16917323
     atom    9 type  3   force =     0.28554988   -0.00000042   -0.16913331
     atom   10 type  2   force =    -0.48011276   -0.00000045    0.70854235
     atom   11 type  2   force =     0.67383795   -0.00000029   -0.33743379
     atom   12 type  1   force =     0.00000787   -0.00000010   -0.00003194
     atom   13 type  1   force =     0.19024444    0.00000030   -0.24629580
     atom   14 type  1   force =    -0.22019979    0.00000027   -0.15245795
     atom   15 type  1   force =     0.22018666   -0.00000027    0.15247999
     atom   16 type  1   force =    -0.19027690   -0.00000030    0.24624530
     atom   17 type  2   force =    -0.67385227   -0.00000029    0.33740059
     atom   18 type  2   force =     0.48014631   -0.00000045   -0.70848787
     atom   19 type  3   force =    -0.28553136   -0.00000042    0.16917205
     atom   20 type  3   force =     0.28555040    0.00000042   -0.16913402
     atom   21 type  2   force =    -0.48011389    0.00000045    0.70854223
     atom   22 type  2   force =     0.67383827    0.00000029   -0.33743516
     The local contribution  to forces
     atom    1 type  1   force =    -0.00000880   -0.00000012    0.00003601
     atom    2 type  1   force =    -0.18660777    0.00000030    0.23474423
     atom    3 type  1   force =     0.24276960    0.00000026    0.14590080
     atom    4 type  1   force =    -0.24276329   -0.00000031   -0.14593460
     atom    5 type  1   force =     0.18664434   -0.00000034   -0.23468362
     atom    6 type  2   force =     0.63645229   -0.00000024   -0.30366845
     atom    7 type  2   force =    -0.46873139   -0.00000037    0.68003883
     atom    8 type  3   force =     0.28176810   -0.00000045   -0.18755953
     atom    9 type  3   force =    -0.28178784    0.00000046    0.18752090
     atom   10 type  2   force =     0.46869762    0.00000039   -0.68008983
     atom   11 type  2   force =    -0.63642971    0.00000027    0.30370282
     atom   12 type  1   force =    -0.00000881    0.00000012    0.00003613
     atom   13 type  1   force =    -0.18660775   -0.00000038    0.23474375
     atom   14 type  1   force =     0.24276965   -0.00000031    0.14590085
     atom   15 type  1   force =    -0.24276304    0.00000035   -0.14593467
     atom   16 type  1   force =     0.18664447    0.00000041   -0.23468415
     atom   17 type  2   force =     0.63645191    0.00000034   -0.30366743
     atom   18 type  2   force =    -0.46873093    0.00000046    0.68003977
     atom   19 type  3   force =     0.28176880    0.00000041   -0.18755813
     atom   20 type  3   force =    -0.28178835   -0.00000041    0.18752177
     atom   21 type  2   force =     0.46869861   -0.00000049   -0.68008969
     atom   22 type  2   force =    -0.63643022   -0.00000036    0.30370377
     The core correction contribution to forces
     atom    1 type  1   force =    -0.00000017   -0.00000001    0.00000127
     atom    2 type  1   force =     0.00002066    0.00000001   -0.00127650
     atom    3 type  1   force =     0.00306519    0.00000001   -0.00047128
     atom    4 type  1   force =    -0.00306624   -0.00000001    0.00046866
     atom    5 type  1   force =    -0.00001980   -0.00000001    0.00127887
     atom    6 type  2   force =    -0.00403501   -0.00000001    0.00347457
     atom    7 type  2   force =     0.00119002   -0.00000001   -0.00325016
     atom    8 type  3   force =    -0.00013967   -0.00000001   -0.00265548
     atom    9 type  3   force =     0.00013971    0.00000001    0.00265710
     atom   10 type  2   force =    -0.00119200    0.00000001    0.00324028
     atom   11 type  2   force =     0.00404066    0.00000001   -0.00347576
     atom   12 type  1   force =    -0.00000017    0.00000001    0.00000127
     atom   13 type  1   force =     0.00002066   -0.00000002   -0.00127655
     atom   14 type  1   force =     0.00306520   -0.00000001   -0.00047130
     atom   15 type  1   force =    -0.00306620    0.00000002    0.00046864
     atom   16 type  1   force =    -0.00001978    0.00000002    0.00127884
     atom   17 type  2   force =    -0.00403501    0.00000000    0.00347457
     atom   18 type  2   force =     0.00119003    0.00000000   -0.00325013
     atom   19 type  3   force =    -0.00013963    0.00000001   -0.00265546
     atom   20 type  3   force =     0.00013970   -0.00000001    0.00265711
     atom   21 type  2   force =    -0.00119199   -0.00000001    0.00324029
     atom   22 type  2   force =     0.00404067   -0.00000001   -0.00347576
     The Hubbard contrib.    to forces
     atom    1 type  1   force =     0.00000000    0.00000000    0.00000000
     atom    2 type  1   force =     0.00000000    0.00000000    0.00000000
     atom    3 type  1   force =     0.00000000    0.00000000    0.00000000
     atom    4 type  1   force =     0.00000000    0.00000000    0.00000000
     atom    5 type  1   force =     0.00000000    0.00000000    0.00000000
     atom    6 type  2   force =     0.00000000    0.00000000    0.00000000
     atom    7 type  2   force =     0.00000000    0.00000000    0.00000000
     atom    8 type  3   force =     0.00000000    0.00000000    0.00000000
     atom    9 type  3   force =     0.00000000    0.00000000    0.00000000
     atom   10 type  2   force =     0.00000000    0.00000000    0.00000000
     atom   11 type  2   force =     0.00000000    0.00000000    0.00000000
     atom   12 type  1   force =     0.00000000    0.00000000    0.00000000
     atom   13 type  1   force =     0.00000000    0.00000000    0.00000000
     atom   14 type  1   force =     0.00000000    0.00000000    0.00000000
     atom   15 type  1   force =     0.00000000    0.00000000    0.00000000
     atom   16 type  1   force =     0.00000000    0.00000000    0.00000000
     atom   17 type  2   force =     0.00000000    0.00000000    0.00000000
     atom   18 type  2   force =     0.00000000    0.00000000    0.00000000
     atom   19 type  3   force =     0.00000000    0.00000000    0.00000000
     atom   20 type  3   force =     0.00000000    0.00000000    0.00000000
     atom   21 type  2   force =     0.00000000    0.00000000    0.00000000
     atom   22 type  2   force =     0.00000000    0.00000000    0.00000000
     The SCF correction term to forces
     atom    1 type  1   force =     0.00000003    0.00000000    0.00000009
     atom    2 type  1   force =     0.00000003    0.00000001    0.00000015
     atom    3 type  1   force =     0.00000007    0.00000001    0.00000014
     atom    4 type  1   force =    -0.00000007   -0.00000001   -0.00000013
     atom    5 type  1   force =    -0.00000003   -0.00000001   -0.00000015
     atom    6 type  2   force =     0.00000013   -0.00000000    0.00000032
     atom    7 type  2   force =     0.00000007   -0.00000004    0.00000027
     atom    8 type  3   force =     0.00000001   -0.00000002    0.00000004
     atom    9 type  3   force =     0.00000000    0.00000002   -0.00000003
     atom   10 type  2   force =    -0.00000006    0.00000004   -0.00000025
     atom   11 type  2   force =    -0.00000013    0.00000000   -0.00000032
     atom   12 type  1   force =    -0.00000003   -0.00000000   -0.00000009
     atom   13 type  1   force =    -0.00000003    0.00000001   -0.00000000
     atom   14 type  1   force =     0.00000004    0.00000001    0.00000002
     atom   15 type  1   force =    -0.00000004   -0.00000001   -0.00000003
     atom   16 type  1   force =     0.00000003   -0.00000001   -0.00000000
     atom   17 type  2   force =     0.00000003   -0.00000001    0.00000001
     atom   18 type  2   force =     0.00000001   -0.00000003    0.00000010
     atom   19 type  3   force =    -0.00000003   -0.00000001   -0.00000003
     atom   20 type  3   force =     0.00000002    0.00000001    0.00000002
     atom   21 type  2   force =    -0.00000002    0.00000003   -0.00000012
     atom   22 type  2   force =    -0.00000003    0.00000001   -0.00000001

     Total force =     0.005503     Total SCF correction =     0.000001


     Computing stress (Cartesian axis) and pressure

          total   stress  (Ry/bohr**3)                   (kbar)     P=   44.43
   0.00051912   0.00000000   0.00003745         76.37      0.00      5.51
   0.00000000  -0.00003291  -0.00000000          0.00     -4.84     -0.00
   0.00003745  -0.00000000   0.00041996          5.51     -0.00     61.78

     kinetic stress (kbar)   1513.88      0.00     13.19
                                0.00   1457.65     -0.00
                               13.19     -0.00   1484.61

     local   stress (kbar)    104.16     -0.00     30.60
                               -0.00    251.70      0.00
                               30.60      0.00    -96.52

     nonloc. stress (kbar)   1176.87     -0.00      8.49
                               -0.00   1141.14      0.00
                                8.49      0.00   1173.82

     hartree stress (kbar)    147.81      0.00     -4.09
                                0.00    104.39     -0.00
                               -4.09     -0.00    190.29

     exc-cor stress (kbar)   1525.77      0.00      0.26
                                0.00   1525.13     -0.00
                                0.26     -0.00   1526.23

     corecor stress (kbar)  -2279.01      0.00     -1.47
                                0.00  -2273.71      0.00
                               -1.47      0.00  -2278.46

     ewald   stress (kbar)  -2113.12      0.00    -41.46
                                0.00  -2211.14      0.00
                              -41.46      0.00  -1938.18

     hubbard stress (kbar)      0.00      0.00      0.00
                                0.00      0.00      0.00
                                0.00      0.00      0.00

     london  stress (kbar)      0.00      0.00      0.00
                                0.00      0.00      0.00
                                0.00      0.00      0.00

     DFT-D3  stress (kbar)      0.00      0.00      0.00
                                0.00      0.00      0.00
                                0.00      0.00      0.00

     XDM     stress (kbar)      0.00      0.00      0.00
                                0.00      0.00      0.00
                                0.00      0.00      0.00

     dft-nl  stress (kbar)      0.00      0.00      0.00
                                0.00      0.00      0.00
                                0.00      0.00      0.00

     TS-vdW  stress (kbar)      0.00      0.00      0.00
                                0.00      0.00      0.00
                                0.00      0.00      0.00



     Writing output data file aiida.save/
 
     init_run     :     23.31s CPU     23.73s WALL (       1 calls)
     electrons    :    769.07s CPU    781.21s WALL (       1 calls)
     forces       :      8.61s CPU      8.72s WALL (       1 calls)
     stress       :     59.23s CPU     59.41s WALL (       1 calls)

     Called by init_run:
     wfcinit      :     20.86s CPU     21.19s WALL (       1 calls)
     wfcinit:atom :      0.15s CPU      0.17s WALL (     186 calls)
     wfcinit:wfcr :     19.51s CPU     19.76s WALL (     186 calls)
     potinit      :      0.84s CPU      0.86s WALL (       1 calls)
     hinit0       :      1.43s CPU      1.46s WALL (       1 calls)

     Called by electrons:
     c_bands      :    684.68s CPU    693.70s WALL (      18 calls)
     sum_band     :     78.38s CPU     80.32s WALL (      18 calls)
     v_of_rho     :      1.49s CPU      1.58s WALL (      19 calls)
     v_h          :      0.10s CPU      0.10s WALL (      19 calls)
     v_xc         :      1.54s CPU      1.62s WALL (      21 calls)
     newd         :      1.51s CPU      2.23s WALL (      19 calls)
     PAW_pot      :      2.43s CPU      2.43s WALL (      19 calls)
     mix_rho      :      0.58s CPU      0.63s WALL (      18 calls)

     Called by c_bands:
     init_us_2    :     22.30s CPU     22.66s WALL (    7254 calls)
     cegterg      :    547.07s CPU    553.68s WALL (    3348 calls)

     Called by sum_band:
     sum_band:bec :      0.46s CPU      0.46s WALL (    3348 calls)
     addusdens    :      1.35s CPU      2.23s WALL (      18 calls)

     Called by *egterg:
     h_psi        :    388.38s CPU    393.77s WALL (   15929 calls)
     s_psi        :     49.72s CPU     49.86s WALL (   15929 calls)
     g_psi        :      2.42s CPU      2.44s WALL (   12395 calls)
     cdiaghg      :     58.36s CPU     59.22s WALL (   15743 calls)
     cegterg:over :     26.24s CPU     26.42s WALL (   12395 calls)
     cegterg:upda :     20.64s CPU     20.84s WALL (   12395 calls)
     cegterg:last :      8.74s CPU      8.80s WALL (    3864 calls)
     cdiaghg:chol :      3.63s CPU      3.67s WALL (   15743 calls)
     cdiaghg:inve :      0.78s CPU      0.79s WALL (   15743 calls)
     cdiaghg:para :      7.37s CPU      7.43s WALL (   31486 calls)

     Called by h_psi:
     h_psi:pot    :    386.68s CPU    392.04s WALL (   15929 calls)
     h_psi:calbec :     49.91s CPU     50.38s WALL (   15929 calls)
     vloc_psi     :    286.09s CPU    290.88s WALL (   15929 calls)
     add_vuspsi   :     50.53s CPU     50.67s WALL (   15929 calls)

     General routines
     calbec       :     71.55s CPU     72.32s WALL (   20207 calls)
     fft          :      1.26s CPU      1.30s WALL (     271 calls)
     ffts         :      0.23s CPU      0.24s WALL (     296 calls)
     fftw         :    303.05s CPU    308.02s WALL (  885958 calls)
     interpolate  :      0.13s CPU      0.13s WALL (      19 calls)
 
     Parallel routines
     fft_scatt_xy :     36.77s CPU     37.41s WALL (  886525 calls)
     fft_scatt_yz :    104.78s CPU    106.67s WALL (  886525 calls)

     PAW routines
     PAW_pot      :      2.43s CPU      2.43s WALL (      19 calls)
 
     PWSCF        :  14m41.71s CPU  15m10.36s WALL

 
   This run was terminated on:  14:27:50  22Feb2020            

=------------------------------------------------------------------------------=
   JOB DONE.
=------------------------------------------------------------------------------=
