begin
comment uuid: fcffbc87-223c-481b-93de-da4df9a061a1
lattice 27.1086740000 0.0000000000 0.0000000000
lattice 13.5543360000 23.4768000000 0.0000000000
lattice 13.5543360000 7.8256000000 22.1341400000
atom   16.265212    18.781442   13.280484 Mg  0.0   0.0  0.0001559500  0.0004812950  0.0001564650
atom   16.265212    15.651208   4.426828 Mg  0.0   0.0  0.0002961000  -0.0002988100  0.0000345800
atom   24.397817    7.825604   8.853656 Mg  0.0   0.0  0.0002490350  0.0001837050  0.0000064800
atom   8.132606    4.695351   13.280484 Si  0.0   0.0  -0.0004706750  -0.0002008700  0.0004381400
atom   24.397817    17.216325   8.853656 Si  0.0   0.0  0.0003642500  -0.0002280950  0.0005087550
atom   24.397817    20.346540   4.426828 Si  0.0   0.0  0.0001178000  0.0001939800  -0.0006124999
atom   0.000000    0.000000   0.000000 Al  0.0   0.0  -0.0004977400  -0.0001629200  0.0001106700
atom   2.710875    1.565121   4.426828 Al  0.0   0.0  0.0001365100  -0.0000186700  0.0004952600
atom   5.421731    3.130234   8.853656 Al  0.0   0.0  0.0010999349  0.0001922600  0.0012215549
atom   10.843462    6.260487   17.707312 Al  0.0   0.0  -0.0004875600  -0.0002123900  -0.0017411348
atom   2.710875    4.695351   0.000000 Al  0.0   0.0  -0.0000038600  0.0004768650  0.0005148350
atom   5.421731    6.260487   4.426828 Al  0.0   0.0  0.0004836800  -0.0003072300  -0.0002832050
atom   8.132606    7.825604   8.853656 Al  0.0   0.0  -0.0005343750  -0.0008033099  0.0010308649
atom   10.843462    9.390721   13.280484 Al  0.0   0.0  0.0031789847  -0.0016061349  0.0000615500
atom   13.554337    10.955838   17.707312 Al  0.0   0.0  0.0018832298  -0.0013412399  -0.0030221047
atom   5.421731    9.390721   0.000000 Al  0.0   0.0  0.0001203000  -0.0000188800  0.0001711050
atom   8.132606    10.955838   4.426828 Al  0.0   0.0  -0.0001983950  -0.0001147400  0.0001598300
atom   10.843462    12.520955   8.853656 Al  0.0   0.0  0.0001966850  -0.0005383950  0.0004090900
atom   13.554337    14.086072   13.280484 Al  0.0   0.0  -0.0002706950  -0.0062779944  0.0001444650
atom   16.265212    15.651208   17.707312 Al  0.0   0.0  -0.0000343600  -0.0024111698  0.0026641598
atom   8.132606    14.086072   0.000000 Al  0.0   0.0  -0.0001995800  0.0002194250  -0.0003941650
atom   10.843462    15.651208   4.426828 Al  0.0   0.0  -0.0033981047  0.0001074100  -0.0000377950
atom   13.554337    17.216325   8.853656 Al  0.0   0.0  -0.0034605847  0.0003114450  -0.0004166550
atom   18.976143    20.346540   17.707312 Al  0.0   0.0  0.0018595998  0.0009606649  0.0025310698
atom   10.843462    18.781442   0.000000 Al  0.0   0.0  -0.0003069850  0.0000587700  -0.0001709450
atom   13.554337    20.346540   4.426828 Al  0.0   0.0  -0.0014660199  0.0028617697  -0.0002219550
atom   16.265212    21.911600   8.853656 Al  0.0   0.0  -0.0000035300  0.0025980498  -0.0024937548
atom   18.976143    23.476849   13.280484 Al  0.0   0.0  0.0027127098  0.0041420946  -0.0001886450
atom   21.686886    25.041909   17.707312 Al  0.0   0.0  -0.0000344000  0.0011063049  -0.0011150599
atom   5.421731    0.000000   0.000000 Al  0.0   0.0  0.0007633449  -0.0001081150  0.0004988150
atom   8.132606    1.565121   4.426828 Al  0.0   0.0  0.0007678499  -0.0009550249  -0.0000232450
atom   10.843462    3.130234   8.853656 Al  0.0   0.0  -0.0008479099  -0.0003959900  0.0003697300
atom   13.554337    4.695351   13.280484 Al  0.0   0.0  0.0002055900  0.0035290897  0.0000163350
atom   16.265212    6.260487   17.707312 Al  0.0   0.0  -0.0000589800  0.0022087648  -0.0030390547
atom   8.132606    4.695351   0.000000 Al  0.0   0.0  -0.0002502600  -0.0002544850  -0.0002967800
atom   10.843462    6.260487   4.426828 Al  0.0   0.0  0.0002157900  0.0001407950  0.0004196850
atom   13.554337    7.825604   8.853656 Al  0.0   0.0  0.0015871599  0.0008432999  0.0036837897
atom   18.976143    10.955838   17.707312 Al  0.0   0.0  -0.0017809398  -0.0013365299  -0.0031450897
atom   10.843462    9.390721   0.000000 Al  0.0   0.0  0.0001279500  -0.0003500300  -0.0000354200
atom   13.554337    10.955838   4.426828 Al  0.0   0.0  -0.0019890348  -0.0027107248  -0.0005138900
atom   16.265212    12.520955   8.853656 Al  0.0   0.0  -0.0001960750  -0.0042871496  0.0053803195
atom   18.976143    14.086072   13.280484 Al  0.0   0.0  0.0005205500  -0.0060204495  -0.0000057800
atom   21.686886    15.651208   17.707312 Al  0.0   0.0  0.0003650650  0.0004796350  0.0004376650
atom   13.554337    14.086072   0.000000 Al  0.0   0.0  -0.0016062849  -0.0008183799  -0.0027289998
atom   18.976143    17.216325   8.853656 Al  0.0   0.0  0.0056381045  0.0005498900  -0.0006171499
atom   21.686886    18.781442   13.280484 Al  0.0   0.0  0.0036896047  -0.0007987099  -0.0011307099
atom   24.397817    20.346540   17.707312 Al  0.0   0.0  0.0001550150  -0.0001548800  0.0000295200
atom   16.265212    18.781442   0.000000 Al  0.0   0.0  0.0000220450  0.0021276848  -0.0031357647
atom   18.976143    20.346540   4.426828 Al  0.0   0.0  0.0034913997  0.0027174098  0.0001981100
atom   21.686886    21.911600   8.853656 Al  0.0   0.0  0.0018698898  -0.0012747899  -0.0010541999
atom   24.397817    23.476849   13.280484 Al  0.0   0.0  -0.0003850200  0.0011919599  -0.0004600450
atom   27.108749    25.041909   17.707312 Al  0.0   0.0  -0.0008726949  -0.0000931300  -0.0000850550
atom   10.843462    0.000000   0.000000 Al  0.0   0.0  0.0000984600  -0.0011638949  0.0016702098
atom   13.554337    1.565121   4.426828 Al  0.0   0.0  -0.0009213349  -0.0011227999  0.0000863200
atom   16.265212    3.130234   8.853656 Al  0.0   0.0  -0.0002100800  -0.0000164500  0.0004304600
atom   18.976143    4.695351   13.280484 Al  0.0   0.0  -0.0021834448  0.0029593147  0.0003021150
atom   21.686886    6.260487   17.707312 Al  0.0   0.0  -0.0004274150  0.0000442350  -0.0001971450
atom   13.554337    4.695351   0.000000 Al  0.0   0.0  -0.0001017400  -0.0000134350  0.0001457750
atom   16.265212    6.260487   4.426828 Al  0.0   0.0  -0.0002828250  -0.0007620249  -0.0008441599
atom   18.976143    7.825604   8.853656 Al  0.0   0.0  -0.0052065645  0.0010896349  0.0029918197
atom   21.686886    9.390721   13.280484 Al  0.0   0.0  -0.0053653545  0.0011059749  0.0030257097
atom   24.397817    10.955838   17.707312 Al  0.0   0.0  0.0005464250  0.0000626450  0.0006164799
atom   16.265212    9.390721   0.000000 Al  0.0   0.0  -0.0000107850  -0.0002789600  -0.0004698850
atom   18.976143    10.955838   4.426828 Al  0.0   0.0  0.0017611898  -0.0024778148  -0.0006212099
atom   21.686886    12.520955   8.853656 Al  0.0   0.0  -0.0011856249  0.0037838947  0.0003754900
atom   24.397817    14.086072   13.280484 Al  0.0   0.0  0.0007104549  0.0015509699  -0.0015652999
atom   27.108749    15.651208   17.707312 Al  0.0   0.0  0.0002160700  0.0001972550  0.0000651150
atom   18.976143    14.086072   0.000000 Al  0.0   0.0  0.0015092249  -0.0007067249  -0.0025606698
atom   21.686886    15.651208   4.426828 Al  0.0   0.0  0.0050210045  0.0022318798  0.0012420549
atom   27.108749    18.781442   13.280484 Al  0.0   0.0  -0.0011248399  -0.0001076300  -0.0009908299
atom   29.819492    20.346540   17.707312 Al  0.0   0.0  -0.0001191800  -0.0004532850  -0.0002621000
atom   21.686886    18.781442   0.000000 Al  0.0   0.0  0.0010886849  0.0003491850  0.0010465049
atom   27.108749    21.911600   8.853656 Al  0.0   0.0  -0.0017639898  -0.0020905648  -0.0015169799
atom   29.819492    23.476849   13.280484 Al  0.0   0.0  -0.0001312450  -0.0006657349  -0.0004410000
atom   32.530423    25.041909   17.707312 Al  0.0   0.0  0.0004823100  -0.0002340600  0.0004175200
atom   16.265212    0.000000   0.000000 Al  0.0   0.0  -0.0003277700  -0.0002004800  0.0002136300
atom   18.976143    1.565121   4.426828 Al  0.0   0.0  0.0000042050  -0.0002300800  -0.0000846250
atom   21.686886    3.130234   8.853656 Al  0.0   0.0  -0.0014964349  -0.0033048147  -0.0005892499
atom   24.397817    4.695351   13.280484 Al  0.0   0.0  0.0007372199  -0.0022483498  0.0029416597
atom   27.108749    6.260487   17.707312 Al  0.0   0.0  0.0002591100  -0.0000874900  0.0002674050
atom   18.976143    4.695351   0.000000 Al  0.0   0.0  0.0001769350  0.0000614400  0.0000701050
atom   21.686886    6.260487   4.426828 Al  0.0   0.0  -0.0019439598  -0.0007856349  -0.0023184748
atom   27.108749    9.390721   13.280484 Al  0.0   0.0  0.0010521149  0.0008830799  0.0026792648
atom   29.819492    10.955838   17.707312 Al  0.0   0.0  -0.0000457500  -0.0000545250  -0.0002952100
atom   21.686886    9.390721   0.000000 Al  0.0   0.0  -0.0002354100  -0.0003609850  -0.0002356550
atom   24.397817    10.955838   4.426828 Al  0.0   0.0  0.0002995250  0.0023841198  -0.0023276548
atom   27.108749    12.520955   8.853656 Al  0.0   0.0  0.0009695149  0.0041457996  -0.0000096200
atom   29.819492    14.086072   13.280484 Al  0.0   0.0  -0.0002636400  0.0001084700  -0.0000655950
atom   32.530423    15.651208   17.707312 Al  0.0   0.0  -0.0001600400  -0.0000589550  0.0001214500
atom   24.397817    14.086072   0.000000 Al  0.0   0.0  0.0003216350  0.0006437149  0.0001451950
atom   27.108749    15.651208   4.426828 Al  0.0   0.0  -0.0017989498  0.0021394298  0.0012504099
atom   29.819492    17.216325   8.853656 Al  0.0   0.0  -0.0017909898  0.0001735500  -0.0003625950
atom   32.530423    18.781442   13.280484 Al  0.0   0.0  0.0002573400  0.0002002900  -0.0000379250
atom   35.241355    20.346540   17.707312 Al  0.0   0.0  -0.0001242400  -0.0001257700  0.0000133300
atom   27.108749    18.781442   0.000000 Al  0.0   0.0  -0.0008363949  0.0004356600  0.0011531549
atom   29.819492    20.346540   4.426828 Al  0.0   0.0  -0.0018266798  -0.0002973250  0.0004581750
atom   32.530423    21.911600   8.853656 Al  0.0   0.0  -0.0000445000  0.0000122350  -0.0000404450
atom   35.241355    23.476849   13.280484 Al  0.0   0.0  -0.0006258549  0.0002298400  0.0001538050
atom   37.952098    25.041909   17.707312 Al  0.0   0.0  0.0001181550  0.0002851350  0.0000741600
atom   21.686886    0.000000   0.000000 Al  0.0   0.0  -0.0001602750  -0.0001499400  -0.0000154000
atom   24.397817    1.565121   4.426828 Al  0.0   0.0  0.0000033950  0.0000196050  -0.0002213800
atom   27.108749    3.130234   8.853656 Al  0.0   0.0  0.0016842698  -0.0028697547  -0.0001192700
atom   29.819492    4.695351   13.280484 Al  0.0   0.0  0.0018578798  0.0003406150  0.0002035400
atom   32.530423    6.260487   17.707312 Al  0.0   0.0  0.0007456849  -0.0004396200  -0.0011738449
atom   24.397817    4.695351   0.000000 Al  0.0   0.0  0.0002254750  -0.0002579700  -0.0004393350
atom   27.108749    6.260487   4.426828 Al  0.0   0.0  0.0015302449  -0.0011058549  -0.0029173997
atom   29.819492    7.825604   8.853656 Al  0.0   0.0  0.0036508347  -0.0000710950  0.0004671150
atom   32.530423    9.390721   13.280484 Al  0.0   0.0  0.0014765899  -0.0014413199  0.0001889700
atom   35.241355    10.955838   17.707312 Al  0.0   0.0  -0.0006945599  -0.0004698500  0.0001376650
atom   27.108749    9.390721   0.000000 Al  0.0   0.0  -0.0000189250  0.0001429950  0.0000646600
atom   29.819492    10.955838   4.426828 Al  0.0   0.0  0.0001735900  0.0004112700  -0.0001854200
atom   32.530423    12.520955   8.853656 Al  0.0   0.0  0.0001008700  0.0001984900  -0.0002420150
atom   35.241355    14.086072   13.280484 Al  0.0   0.0  -0.0007388149  0.0001102700  -0.0001223000
atom   37.952098    15.651208   17.707312 Al  0.0   0.0  -0.0002727200  0.0005091550  0.0004731650
atom   29.819492    14.086072   0.000000 Al  0.0   0.0  -0.0000522800  0.0003343600  0.0003976750
atom   32.530423    15.651208   4.426828 Al  0.0   0.0  0.0000574750  -0.0000908800  -0.0000771550
atom   35.241355    17.216325   8.853656 Al  0.0   0.0  -0.0007818749  0.0001398950  -0.0000549400
atom   37.952098    18.781442   13.280484 Al  0.0   0.0  -0.0029753547  -0.0005705399  -0.0000340400
atom   40.663029    20.346540   17.707312 Al  0.0   0.0  -0.0017790798  0.0010491299  0.0028294797
atom   32.530423    18.781442   0.000000 Al  0.0   0.0  0.0000069050  0.0000224950  0.0000314600
atom   35.241355    20.346540   4.426828 Al  0.0   0.0  -0.0005561649  0.0000408650  -0.0001546750
atom   37.952098    21.911600   8.853656 Al  0.0   0.0  -0.0002753350  0.0000540350  0.0000097000
atom   40.663029    23.476849   13.280484 Al  0.0   0.0  -0.0016006749  0.0027561947  -0.0000075450
atom   43.373961    25.041909   17.707312 Al  0.0   0.0  0.0003982800  0.0005241750  0.0001165600
energy -2398.128052979949643
charge 0
end
begin
comment uuid: 9868412d-2441-4a6a-915b-f8e24c1f9882
lattice 27.1086740000 0.0000000000 0.0000000000
lattice 13.5543360000 23.4768000000 0.0000000000
lattice 13.5543360000 7.8256000000 22.1341400000
atom   21.642850    15.641399   17.658911 Mg  0.0   0.0  0.0002706200  -0.0000820100  0.0021358998
atom   29.770542    14.115082   13.332439 Mg  0.0   0.0  0.0022374848  -0.0007737299  -0.0014405549
atom   32.620196    6.310060   17.882378 Mg  0.0   0.0  -0.0015050999  -0.0008173949  -0.0049536095
atom   -0.585523    0.227609   0.822792 Si  0.0   0.0  0.0251667677  -0.0317346771  -0.0030514047
atom   21.654757    -0.041184   -0.097678 Si  0.0   0.0  -0.0019484298  -0.0027255598  0.0071486344
atom   24.308801    3.791127   0.775745 Si  0.0   0.0  -0.0159496786  0.0381042615  -0.0024216998
atom   2.917861    1.615903   4.606826 Al  0.0   0.0  -0.0089829042  -0.0002622200  -0.0092699842
atom   5.456241    3.141196   8.923754 Al  0.0   0.0  -0.0009448249  -0.0004224250  -0.0013087549
atom   8.086510    4.644757   13.191260 Al  0.0   0.0  0.0025359998  0.0016992948  0.0022243898
atom   10.954005    6.166387   17.392335 Al  0.0   0.0  0.0020582198  0.0054414995  0.0105400240
atom   3.133352    4.958620   -0.096868 Al  0.0   0.0  -0.0154557586  -0.0091557092  0.0038537296
atom   5.472589    6.291368   4.468180 Al  0.0   0.0  0.0010784449  0.0007178349  -0.0004904100
atom   8.160256    7.823317   8.818352 Al  0.0   0.0  -0.0005937699  0.0000622800  0.0005665949
atom   10.886723    9.378001   13.087427 Al  0.0   0.0  -0.0006653049  0.0005150650  0.0020934048
atom   13.684591    11.029149   17.327793 Al  0.0   0.0  -0.0062098344  -0.0033470597  0.0121127639
atom   5.491375    9.515173   0.013188 Al  0.0   0.0  -0.0019440348  -0.0002359300  0.0016999848
atom   8.153622    10.953097   4.452153 Al  0.0   0.0  -0.0008505499  0.0001016150  0.0004483100
atom   10.851948    12.527777   8.798149 Al  0.0   0.0  -0.0000678600  -0.0006198149  0.0007113849
atom   13.569607    14.181174   13.130366 Al  0.0   0.0  -0.0006263249  -0.0019276848  0.0025938948
atom   16.234500    15.715144   17.673275 Al  0.0   0.0  -0.0021823448  -0.0002480900  -0.0015610549
atom   8.098984    13.984336   0.026309 Al  0.0   0.0  0.0017105398  0.0031274097  -0.0005707349
atom   10.842781    15.605754   4.468634 Al  0.0   0.0  -0.0003645150  0.0015354549  -0.0015509749
atom   13.550859    17.205325   8.883876 Al  0.0   0.0  -0.0000334450  0.0013217749  -0.0019418598
atom   16.252738    18.820072   13.237148 Al  0.0   0.0  0.0006889499  -0.0004947900  0.0011583049
atom   18.972741    20.387173   17.663674 Al  0.0   0.0  -0.0017736498  0.0007755149  0.0004494250
atom   10.844161    18.470357   -0.036100 Al  0.0   0.0  0.0005387150  0.0134159838  0.0014973649
atom   13.564335    20.263382   4.548862 Al  0.0   0.0  -0.0019238998  0.0053746995  -0.0064331544
atom   16.250829    21.911033   8.862426 Al  0.0   0.0  0.0005736599  0.0003037150  0.0000222150
atom   18.956488    23.478361   13.257125 Al  0.0   0.0  0.0002388750  -0.0005598149  0.0000433450
atom   21.671388    24.988424   17.673690 Al  0.0   0.0  0.0018508198  -0.0006548199  0.0004331950
atom   5.474422    0.013359   0.003829 Al  0.0   0.0  -0.0067267094  -0.0001432450  0.0001946200
atom   8.180591    1.575228   4.454648 Al  0.0   0.0  -0.0003739900  -0.0004290450  -0.0003761150
atom   10.845219    3.133409   8.844603 Al  0.0   0.0  -0.0004944900  -0.0007547899  0.0004787300
atom   13.627440    4.632151   13.139117 Al  0.0   0.0  -0.0010381799  0.0010219699  0.0024081548
atom   16.319944    6.248977   17.670893 Al  0.0   0.0  -0.0032408697  0.0013052049  0.0033709947
atom   8.264089    4.709979   0.019292 Al  0.0   0.0  -0.0012768049  -0.0019031348  0.0015961749
atom   10.846826    6.283809   4.467613 Al  0.0   0.0  -0.0003478250  -0.0006042699  -0.0000135600
atom   13.577035    7.813678   8.803403 Al  0.0   0.0  -0.0008389699  0.0005194050  0.0005323800
atom   16.360918    9.343000   13.126794 Al  0.0   0.0  -0.0017893598  0.0009025849  0.0027022448
atom   19.009595    10.911367   17.674786 Al  0.0   0.0  -0.0012344749  -0.0021971498  -0.0012891749
atom   10.836564    9.402779   0.050656 Al  0.0   0.0  0.0011612449  0.0003869900  -0.0004755650
atom   13.537913    10.951188   4.456803 Al  0.0   0.0  0.0003853100  0.0002199900  0.0003096500
atom   16.254760    12.509388   8.835834 Al  0.0   0.0  0.0010072799  0.0006883299  -0.0005464400
atom   18.978033    14.097978   13.185364 Al  0.0   0.0  -0.0021828198  -0.0015638699  0.0006971549
atom   13.595159    13.992104   0.029004 Al  0.0   0.0  -0.0013852549  0.0024279948  -0.0008999349
atom   16.270163    15.617793   4.455876 Al  0.0   0.0  -0.0000441350  0.0007808499  -0.0005006750
atom   18.974820    17.221087   8.838631 Al  0.0   0.0  -0.0002289750  0.0006828899  -0.0008067599
atom   21.673656    18.779892   13.242081 Al  0.0   0.0  -0.0001697250  0.0020681098  -0.0021357098
atom   24.398006    20.328018   17.678434 Al  0.0   0.0  0.0011032599  0.0041959546  0.0008514749
atom   16.319453    18.704710   0.002438 Al  0.0   0.0  -0.0034253197  0.0054742545  -0.0004547850
atom   18.976143    20.342382   4.429058 Al  0.0   0.0  0.0001723100  0.0000367700  -0.0000181500
atom   21.701249    21.900827   8.854733 Al  0.0   0.0  -0.0009366949  0.0001687550  -0.0005169050
atom   24.392337    23.457194   13.233576 Al  0.0   0.0  0.0007731299  0.0004931800  0.0015644549
atom   27.160344    25.017529   17.696578 Al  0.0   0.0  -0.0006513199  0.0002343700  -0.0004423650
atom   10.843292    -0.033322   0.020656 Al  0.0   0.0  -0.0012549899  0.0002168550  -0.0003125350
atom   13.504197    1.583319   4.502690 Al  0.0   0.0  0.0029841047  -0.0005661999  -0.0013074499
atom   16.258994    3.117949   8.869210 Al  0.0   0.0  0.0015933799  -0.0003717450  -0.0022937648
atom   19.030574    4.640883   13.230420 Al  0.0   0.0  -0.0005602999  0.0009517649  0.0009704099
atom   21.710699    6.228755   17.677206 Al  0.0   0.0  -0.0000530250  0.0003470450  0.0007138899
atom   13.440865    4.724021   0.081097 Al  0.0   0.0  0.0029793247  -0.0002436500  -0.0017498798
atom   16.225655    6.284413   4.488950 Al  0.0   0.0  0.0007483549  -0.0007072749  -0.0013288999
atom   18.969906    7.817080   8.874313 Al  0.0   0.0  0.0011268599  -0.0005018600  -0.0019376548
atom   21.702194    9.351164   13.227755 Al  0.0   0.0  0.0001593250  0.0010751149  0.0016226699
atom   24.425978    10.940208   17.670988 Al  0.0   0.0  -0.0001177800  -0.0017487598  0.0004045950
atom   16.202447    9.492173   0.061089 Al  0.0   0.0  0.0008420349  -0.0017692948  -0.0015880749
atom   18.955543    10.967007   4.455442 Al  0.0   0.0  0.0005403500  0.0000187950  -0.0002729650
atom   21.674790    12.517969   8.823720 Al  0.0   0.0  0.0007466449  -0.0002900200  -0.0006434549
atom   24.348490    14.082462   13.228568 Al  0.0   0.0  0.0000138850  -0.0009614699  -0.0013958999
atom   27.057721    15.704750   17.753899 Al  0.0   0.0  0.0032368947  -0.0009126449  0.0013929299
atom   18.985404    14.096599   0.006897 Al  0.0   0.0  0.0000125350  -0.0000548850  0.0003540400
atom   21.691044    15.658843   4.442571 Al  0.0   0.0  -0.0004900900  -0.0004164650  -0.0008384499
atom   24.386856    17.227230   8.831846 Al  0.0   0.0  0.0004855400  -0.0002091800  0.0004021950
atom   27.095520    18.815593   13.263891 Al  0.0   0.0  -0.0011623349  0.0015197199  0.0001387000
atom   29.824595    20.358446   17.672292 Al  0.0   0.0  0.0001259000  -0.0001426250  0.0003053000
atom   21.692934    18.755266   0.010727 Al  0.0   0.0  0.0002637500  0.0007044099  -0.0002386700
atom   24.406133    20.346729   4.444499 Al  0.0   0.0  -0.0007865649  0.0002906600  -0.0004207400
atom   27.112340    21.914435   8.856888 Al  0.0   0.0  -0.0002246000  -0.0005027950  -0.0004137650
atom   29.857858    23.475526   13.224088 Al  0.0   0.0  -0.0013731799  -0.0001261300  0.0022116248
atom   32.562174    25.016584   17.689150 Al  0.0   0.0  -0.0008389699  0.0009779049  0.0002858900
atom   16.149869    0.036942   0.108056 Al  0.0   0.0  0.0036023097  0.0005653899  0.0002419450
atom   19.005437    1.583960   4.472621 Al  0.0   0.0  0.0030267397  -0.0003730200  -0.0058912945
atom   21.736969    3.097349   8.769837 Al  0.0   0.0  -0.0003054300  -0.0001040950  -0.0002461100
atom   24.392148    4.671179   13.280333 Al  0.0   0.0  0.0004271500  0.0002664000  -0.0016436149
atom   27.082668    6.231741   17.711905 Al  0.0   0.0  -0.0003720000  0.0007299149  0.0012354849
atom   18.674414    4.893020   0.002759 Al  0.0   0.0  0.0123061889  -0.0067801294  0.0011696749
atom   21.633779    6.296263   4.518434 Al  0.0   0.0  0.0041128646  -0.0049488796  -0.0074452793
atom   24.377406    7.811826   8.845359 Al  0.0   0.0  0.0009893499  0.0002833300  0.0002513700
atom   27.088905    9.343529   13.253647 Al  0.0   0.0  -0.0013296849  -0.0007399399  0.0003518700
atom   29.762038    10.962264   17.735661 Al  0.0   0.0  0.0001151050  0.0003537800  0.0019981698
atom   21.655324    9.483914   0.002892 Al  0.0   0.0  0.0027381398  -0.0058695795  -0.0004441200
atom   24.387612    10.944838   4.409951 Al  0.0   0.0  0.0004154450  0.0005686049  0.0005779049
atom   27.095898    12.542443   8.844131 Al  0.0   0.0  -0.0014068799  -0.0014413149  -0.0019368398
atom   32.555560    15.719113   17.739536 Al  0.0   0.0  0.0004525850  0.0001557650  0.0010482699
atom   24.377217    14.101456   0.008690 Al  0.0   0.0  0.0006951499  0.0004334250  0.0000509300
atom   27.104969    15.666252   4.442080 Al  0.0   0.0  -0.0002828250  -0.0008807649  -0.0003911550
atom   29.818169    17.235507   8.854771 Al  0.0   0.0  -0.0005225350  0.0010649299  -0.0017988648
atom   32.549701    18.845378   13.222860 Al  0.0   0.0  0.0000991400  0.0003398550  0.0020477498
atom   35.237575    20.389819   17.690397 Al  0.0   0.0  0.0000439400  -0.0006404499  0.0002067150
atom   27.069060    18.753773   0.021338 Al  0.0   0.0  0.0010164599  0.0008050849  -0.0005391700
atom   29.804939    20.342760   4.464967 Al  0.0   0.0  0.0008428249  0.0001955100  -0.0005048850
atom   32.542519    21.933712   8.857927 Al  0.0   0.0  0.0004829700  -0.0002695650  -0.0014292649
atom   35.252506    23.488378   13.300499 Al  0.0   0.0  0.0001466850  -0.0000934750  -0.0019464598
atom   37.949263    25.038130   17.692779 Al  0.0   0.0  0.0001791600  0.0002353350  0.0013874149
atom   27.026537    3.089392   8.717694 Al  0.0   0.0  0.0015658149  0.0007464249  0.0017931698
atom   29.779614    4.665565   13.302710 Al  0.0   0.0  -0.0006188749  -0.0004244600  -0.0024289398
atom   27.237832    6.399208   4.577419 Al  0.0   0.0  -0.0042695596  -0.0078605643  -0.0094509791
atom   29.842738    7.835942   8.906518 Al  0.0   0.0  -0.0009417149  -0.0003526150  -0.0012270999
atom   32.482419    9.338785   13.169942 Al  0.0   0.0  0.0031933047  0.0002118900  0.0023499148
atom   35.218676    11.103329   17.359204 Al  0.0   0.0  0.0056903645  -0.0010173249  0.0112377590
atom   27.141067    9.445680   -0.007636 Al  0.0   0.0  -0.0032813047  -0.0055798795  0.0002287350
atom   29.841415    10.989932   4.443422 Al  0.0   0.0  -0.0004158700  -0.0001841000  -0.0001272800
atom   32.532313    12.512752   8.824835 Al  0.0   0.0  -0.0000569000  -0.0004685350  -0.0003967450
atom   35.242489    14.177828   13.126473 Al  0.0   0.0  0.0025610298  -0.0013124099  0.0021765398
atom   37.978179    15.728601   17.664789 Al  0.0   0.0  -0.0005896949  -0.0042375246  0.0033958797
atom   29.789442    14.102268   0.009756 Al  0.0   0.0  -0.0005656449  -0.0010073449  -0.0000164950
atom   32.515493    15.595889   4.487741 Al  0.0   0.0  0.0014276649  0.0031840247  -0.0013155899
atom   35.230393    17.212904   8.866375 Al  0.0   0.0  0.0004382250  0.0018692798  -0.0025418398
atom   37.938679    18.862255   13.233406 Al  0.0   0.0  0.0006100549  -0.0010513899  0.0004581350
atom   40.648477    20.389630   17.675920 Al  0.0   0.0  0.0003654600  0.0001316650  0.0004149000
atom   32.495270    18.653058   0.090637 Al  0.0   0.0  0.0020563748  0.0025864498  0.0007153699
atom   35.269326    20.372810   4.470316 Al  0.0   0.0  0.0012298899  0.0024640298  -0.0058058445
atom   37.944727    21.983040   8.774619 Al  0.0   0.0  -0.0001985600  -0.0005305500  -0.0002752850
atom   40.654713    23.484598   13.283565 Al  0.0   0.0  -0.0001114100  0.0002552700  -0.0018083548
atom   43.345612    25.026412   17.701756 Al  0.0   0.0  0.0002979950  -0.0003025000  0.0012450149
energy -2398.079981724496520
charge 0
end
begin
comment uuid: 7041a301-77a7-4546-9a9e-b65a810661c9
lattice 27.1086740000 0.0000000000 0.0000000000
lattice 13.5543360000 23.4768000000 0.0000000000
lattice 13.5543360000 7.8256000000 22.1341400000
atom   8.172862    10.937902   4.374628 Mg  0.0   0.0  -0.0010706199  -0.0019916998  0.0016300049
atom   16.231231    21.850555   8.912471 Mg  0.0   0.0  0.0062407894  -0.0004525450  -0.0034039697
atom   29.846896    17.198597   8.816632 Mg  0.0   0.0  -0.0039592996  0.0002516400  0.0012748949
atom   27.113663    3.059437   8.871762 Mg  0.0   0.0  0.0000814400  0.0080684893  -0.0030770747
atom   35.323000    17.140935   8.812342 Mg  0.0   0.0  -0.0025278848  -0.0028709297  0.0023674498
atom   37.905605    21.890055   8.889263 Mg  0.0   0.0  -0.0045359096  0.0012644899  -0.0020995048
atom   2.804748    1.439133   4.661937 Si  0.0   0.0  0.0006945699  0.0031742547  -0.0096134841
atom   10.682590    6.193847   4.305078 Si  0.0   0.0  0.0033805347  -0.0010989349  0.0008444899
atom   10.617614    0.197574   0.146219 Si  0.0   0.0  0.0015836099  -0.0027130598  -0.0031304347
atom   21.824663    9.339844   13.254479 Si  0.0   0.0  -0.0023996698  0.0011684149  0.0013294399
atom   16.438689    0.068164   0.196282 Si  0.0   0.0  -0.0009009849  0.0007243649  -0.0047598146
atom   32.680107    21.495435   8.795219 Si  0.0   0.0  -0.0069121194  0.0153743736  0.0014215299
atom   -0.035477    0.031302   0.003660 Al  0.0   0.0  0.0014552099  0.0001781800  0.0018784248
atom   5.419085    3.119064   8.854771 Al  0.0   0.0  0.0052506395  0.0026315198  -0.0005087400
atom   8.126728    4.702967   13.267009 Al  0.0   0.0  -0.0004749000  0.0001690350  0.0013999799
atom   10.825791    6.262698   17.740859 Al  0.0   0.0  0.0000906100  0.0005030700  -0.0008589549
atom   2.670128    4.675185   0.024843 Al  0.0   0.0  0.0007150599  -0.0005275700  0.0003789000
atom   5.358607    6.216073   4.434067 Al  0.0   0.0  -0.0009350399  -0.0021354598  -0.0006333649
atom   8.137217    7.787975   8.805255 Al  0.0   0.0  -0.0001085400  -0.0012306849  0.0017009948
atom   10.827189    9.390381   13.249281 Al  0.0   0.0  0.0017869598  -0.0004269500  0.0009536899
atom   13.523587    10.959882   17.700225 Al  0.0   0.0  0.0007570099  0.0000154250  -0.0008915099
atom   5.366242    9.424040   0.019079 Al  0.0   0.0  -0.0022563098  -0.0011168399  -0.0041653496
atom   10.852666    12.511373   8.815536 Al  0.0   0.0  0.0047029096  -0.0037344947  0.0031023347
atom   13.531336    14.086336   13.300933 Al  0.0   0.0  0.0000620550  -0.0000490200  0.0004291150
atom   16.240378    15.664872   17.704591 Al  0.0   0.0  0.0003358400  -0.0008180199  0.0008711599
atom   8.122003    14.139122   0.023851 Al  0.0   0.0  -0.0000117950  -0.0000398050  -0.0041000846
atom   10.793133    15.708794   4.443705 Al  0.0   0.0  0.0067655094  -0.0004076300  -0.0052604495
atom   13.509753    17.264934   8.822926 Al  0.0   0.0  0.0067667044  -0.0096048841  0.0006466299
atom   16.260317    18.771519   13.263588 Al  0.0   0.0  0.0005234150  -0.0034576247  0.0048727846
atom   18.949306    20.362415   17.719332 Al  0.0   0.0  0.0007812199  0.0000242750  -0.0004115500
atom   10.822219    18.817747   0.034171 Al  0.0   0.0  0.0007986999  0.0001562650  -0.0010830199
atom   13.511643    20.409664   4.482317 Al  0.0   0.0  0.0013547249  -0.0024001948  -0.0075192393
atom   18.933431    23.489134   13.220687 Al  0.0   0.0  0.0037435697  0.0008703749  0.0062682144
atom   21.670632    25.058919   17.713285 Al  0.0   0.0  0.0002325850  -0.0007966349  -0.0007013749
atom   5.347003    0.010897   0.032090 Al  0.0   0.0  0.0014889449  0.0000196000  0.0000840850
atom   8.129960    1.580970   4.459940 Al  0.0   0.0  -0.0000984000  0.0004693100  -0.0008614199
atom   10.839814    3.134581   8.812531 Al  0.0   0.0  -0.0001136700  0.0001411900  -0.0011949849
atom   13.521868    4.699868   13.256766 Al  0.0   0.0  0.0009318249  0.0007475699  0.0006808499
atom   16.293693    6.261526   17.679266 Al  0.0   0.0  -0.0004703400  -0.0004343500  -0.0001057850
atom   7.970865    4.708959   0.016014 Al  0.0   0.0  0.0049996245  0.0003572850  -0.0007222099
atom   13.502515    7.783836   8.769251 Al  0.0   0.0  0.0019718848  -0.0000565050  0.0005178450
atom   16.323460    9.364129   13.248903 Al  0.0   0.0  -0.0008877649  0.0002599000  -0.0006497599
atom   18.998445    10.925466   17.678661 Al  0.0   0.0  -0.0003515500  0.0001077050  -0.0014145899
atom   10.861605    9.381328   -0.002809 Al  0.0   0.0  0.0021337198  -0.0019548548  -0.0029652697
atom   13.573860    10.954798   4.430608 Al  0.0   0.0  0.0036399947  -0.0016664748  -0.0009012199
atom   16.304390    12.516683   8.843054 Al  0.0   0.0  -0.0001344200  -0.0005148250  -0.0004447400
atom   18.988050    14.054491   13.259582 Al  0.0   0.0  0.0004288800  -0.0002551400  0.0010620149
atom   21.694068    15.610460   17.698713 Al  0.0   0.0  -0.0001113050  0.0009231899  0.0002426150
atom   13.550047    14.131071   0.039310 Al  0.0   0.0  0.0003563850  -0.0014699349  -0.0015488499