
     Program PWSCF v.6.3 starts on 22Feb2020 at 14:12:18 

     This program is part of the open-source Quantum ESPRESSO suite
     for quantum simulation of materials; please cite
         "P. Giannozzi et al., J. Phys.:Condens. Matter 21 395502 (2009);
         "P. Giannozzi et al., J. Phys.:Condens. Matter 29 465901 (2017);
          URL http://www.quantum-espresso.org", 
     in publications or presentations arising from this work. More details at
     http://www.quantum-espresso.org/quote

 *** WARNING: using old-style file format, will disappear from next version ***

     Parallel version (MPI & OpenMP), running on      36 processor cores
     Number of MPI processes:                36
     Threads/MPI process:                     1

     MPI processes distributed on     1 nodes
     K-points division:     npool     =       4
     R & G space division:  proc/nbgrp/npool/nimage =       9
     Reading input from aiida.in
Warning: card &IONS ignored
Warning: card   !PRESS_CONV_THR = 0.05                 ! JUST FOR VOLUME RELAXATIONS ignored
Warning: card / ignored

     Current dimensions of program PWSCF are:
     Max number of different atomic species (ntypx) = 10
     Max number of k-points (npk) =  40000
     Max angular momentum in pseudopotentials (lmaxx) =  3
               file Al.pbe-n-kjpaw_psl.1.0.0.UPF: wavefunction(s)  3S 3P renormalized
               file Mg.pbe-n-kjpaw_psl.0.3.0.UPF: wavefunction(s)  3S renormalized

     Subspace diagonalization in iterative solution of the eigenvalue problem:
     one sub-group per band group will be used
     scalapack distributed-memory algorithm (size of sub-group:  2*  2 procs)

 
     Parallelization info
     --------------------
     sticks:   dense  smooth     PW     G-vecs:    dense   smooth      PW
     Min        1456     583    166               331500    83885   12672
     Max        1457     584    167               331506    83894   12677
     Sum       13105    5251   1499              2983521   754991  114069
 


     bravais-lattice index     =            0
     lattice parameter (alat)  =      53.6663  a.u.
     unit-cell volume          =   22080.4333 (a.u.)^3
     number of atoms/cell      =          196
     number of atomic types    =            3
     number of electrons       =       588.00
     number of Kohn-Sham states=          353
     kinetic-energy cutoff     =      40.0000  Ry
     charge density cutoff     =     400.0000  Ry
     convergence threshold     =      1.0E-12
     mixing beta               =       0.4000
     number of iterations used =            8  local-TF  mixing
     Exchange-correlation      = SLA PW PBX PBC ( 1  4  3  4 0 0)

     celldm(1)=  53.666328  celldm(2)=   0.000000  celldm(3)=   0.000000
     celldm(4)=   0.000000  celldm(5)=   0.000000  celldm(6)=   0.000000

     crystal axes: (cart. coord. in units of alat)
               a(1) = (   1.000000   0.000000   0.000000 )  
               a(2) = (   0.000000   0.142857   0.000000 )  
               a(3) = (   0.000000   0.000000   1.000000 )  

     reciprocal axes: (cart. coord. in units 2 pi/alat)
               b(1) = (  1.000000  0.000000  0.000000 )  
               b(2) = (  0.000000  7.000000  0.000000 )  
               b(3) = (  0.000000  0.000000  1.000000 )  


     PseudoPot. # 1 for Al read from file:
     /users/aglensk/Dropbox/Albert/scripts/dotfiles/scripts/potentials/quantum_espresso/pseudo_SSSPefV1.1_alalloy/Al.pbe-n-kjpaw_psl.1.0.0.UPF
     MD5 check sum: cfc449ca30b5f3223ec38ddd88ac046d
     Pseudo is Projector augmented-wave + core cor, Zval =  3.0
     Generated using "atomic" code by A. Dal Corso v.5.1
     Shape of augmentation charge: PSQ
     Using radial grid of 1135 points,  6 beta functions with: 
                l(1) =   0
                l(2) =   0
                l(3) =   1
                l(4) =   1
                l(5) =   2
                l(6) =   2
     Q(r) pseudized with 0 coefficients 


     PseudoPot. # 2 for Si read from file:
     /users/aglensk/Dropbox/Albert/scripts/dotfiles/scripts/potentials/quantum_espresso/pseudo_SSSPefV1.1_alalloy/Si.pbe-n-rrkjus_psl.1.0.0.UPF
     MD5 check sum: 0b0bb1205258b0d07b9f9672cf965d36
     Pseudo is Ultrasoft + core correction, Zval =  4.0
     Generated using "atomic" code by A. Dal Corso v.5.1
     Using radial grid of 1141 points,  6 beta functions with: 
                l(1) =   0
                l(2) =   0
                l(3) =   1
                l(4) =   1
                l(5) =   2
                l(6) =   2
     Q(r) pseudized with 0 coefficients 


     PseudoPot. # 3 for Mg read from file:
     /users/aglensk/Dropbox/Albert/scripts/dotfiles/scripts/potentials/quantum_espresso/pseudo_SSSPefV1.1_alalloy/Mg.pbe-n-kjpaw_psl.0.3.0.UPF
     MD5 check sum: 24ecedc7f3e3cbe212e682f4413594e4
     Pseudo is Projector augmented-wave + core cor, Zval =  2.0
     Generated using "atomic" code by A. Dal Corso v.5.0.99 svn rev. 10869
     Shape of augmentation charge: PSQ
     Using radial grid of 1129 points,  4 beta functions with: 
                l(1) =   0
                l(2) =   0
                l(3) =   1
                l(4) =   1
     Q(r) pseudized with 0 coefficients 


     atomic species   valence    mass     pseudopotential
        Al             3.00    26.98154     Al( 1.00)
        Si             4.00    28.08500     Si( 1.00)
        Mg             2.00    24.30500     Mg( 1.00)

     No symmetry found


                                    s                        frac. trans.

      isym =  1     identity                                     

 cryst.   s( 1) = (     1          0          0      )
                  (     0          1          0      )
                  (     0          0          1      )

 cart.    s( 1) = (  1.0000000  0.0000000  0.0000000 )
                  (  0.0000000  1.0000000  0.0000000 )
                  (  0.0000000  0.0000000  1.0000000 )


   Cartesian axes

     site n.     atom                  positions (alat units)
         1           Al  tau(   1) = (   0.0677374   0.0712946   0.9958175  )
         2           Al  tau(   2) = (   0.9975194   0.1427155   0.9966796  )
         3           Al  tau(   3) = (   0.0692275   0.1427295   0.0691146  )
         4           Al  tau(   4) = (   0.9967644   0.0712942   0.0674087  )
         5           Al  tau(   5) = (   0.0662169   0.0713051   0.1375429  )
         6           Al  tau(   6) = (   0.9965930   0.1427259   0.1392841  )
         7           Al  tau(   7) = (   0.0610653   0.1427428   0.2118150  )
         8           Al  tau(   8) = (   0.9939148   0.0713063   0.2117912  )
         9           Al  tau(   9) = (   0.0665560   0.0713152   0.2859120  )
        10           Al  tau(  10) = (   0.9967402   0.1427346   0.2843894  )
        11           Al  tau(  11) = (   0.0687558   0.1427457   0.3544177  )
        12           Al  tau(  12) = (   0.9971126   0.0713086   0.3565564  )
        13           Al  tau(  13) = (   0.0666540   0.0713138   0.4285530  )
        14           Al  tau(  14) = (   0.9971828   0.1427313   0.4279692  )
        15           Al  tau(  15) = (   0.0673820   0.1427297   0.5006784  )
        16           Al  tau(  16) = (   0.9973305   0.0712977   0.4997646  )
        17           Al  tau(  17) = (   0.0679927   0.0712960   0.5717529  )
        18           Al  tau(  18) = (   0.9973930   0.1427166   0.5711244  )
        19           Al  tau(  19) = (   0.0684266   0.1427161   0.6423519  )
        20           Al  tau(  20) = (   0.9975585   0.0712843   0.6420535  )
        21           Al  tau(  21) = (   0.0687200   0.0712863   0.7128498  )
        22           Al  tau(  22) = (   0.9976891   0.1427084   0.7129197  )
        23           Al  tau(  23) = (   0.0685987   0.1427101   0.7836630  )
        24           Al  tau(  24) = (   0.9976450   0.0712807   0.7836924  )
        25           Al  tau(  25) = (   0.0684561   0.0712844   0.8543398  )
        26           Al  tau(  26) = (   0.9975650   0.1427078   0.8545672  )
        27           Al  tau(  27) = (   0.0682818   0.1427150   0.9252440  )
        28           Al  tau(  28) = (   0.9974259   0.0712851   0.9255144  )
        29           Al  tau(  29) = (   0.2108487   0.0713151   0.9921440  )
        30           Al  tau(  30) = (   0.1390838   0.1427292   0.9955921  )
        31           Al  tau(  31) = (   0.2113237   0.1427533   0.0606180  )
        32           Al  tau(  32) = (   0.1367748   0.0713085   0.0657625  )
        33           Si  tau(  33) = (   0.2087758   0.0713363   0.1197551  )
        34           Mg  tau(  34) = (   0.1476973   0.1427543   0.1489118  )
        35           Al  tau(  35) = (   0.2094411   0.0713468   0.2124775  )
        36           Si  tau(  36) = (   0.1192626   0.0713258   0.2116084  )
        37           Si  tau(  37) = (   0.2138903   0.0713528   0.3052342  )
        38           Mg  tau(  38) = (   0.1496256   0.1427638   0.2735189  )
        39           Al  tau(  39) = (   0.2069058   0.1427773   0.3612291  )
        40           Al  tau(  40) = (   0.1366540   0.0713302   0.3568226  )
        41           Al  tau(  41) = (   0.2032656   0.0713418   0.4320189  )
        42           Al  tau(  42) = (   0.1351189   0.1427533   0.4288396  )
        43           Al  tau(  43) = (   0.2095884   0.1427509   0.5037338  )
        44           Al  tau(  44) = (   0.1382867   0.0713142   0.5017928  )
        45           Al  tau(  45) = (   0.2125112   0.0713155   0.5710154  )
        46           Al  tau(  46) = (   0.1390505   0.1427299   0.5722955  )
        47           Al  tau(  47) = (   0.2108405   0.1427305   0.6430484  )
        48           Al  tau(  48) = (   0.1397592   0.0712976   0.6424495  )
        49           Al  tau(  49) = (   0.2110406   0.0712970   0.7132765  )
        50           Al  tau(  50) = (   0.1396661   0.1427171   0.7131197  )
        51           Al  tau(  51) = (   0.2111002   0.1427204   0.7835849  )
        52           Al  tau(  52) = (   0.1397639   0.0712885   0.7836432  )
        53           Al  tau(  53) = (   0.2110579   0.0712982   0.8535602  )
        54           Al  tau(  54) = (   0.1397781   0.1427163   0.8542626  )
        55           Al  tau(  55) = (   0.2112185   0.1427310   0.9238031  )
        56           Al  tau(  56) = (   0.1392990   0.0712963   0.9244491  )
        57           Al  tau(  57) = (   0.3534619   0.0713191   0.9933769  )
        58           Al  tau(  58) = (   0.2849089   0.1427484   0.9965080  )
        59           Mg  tau(  59) = (   0.3630417   0.1427715   0.0759394  )
        60           Al  tau(  60) = (   0.2826461   0.0713289   0.0641245  )
        61           Si  tau(  61) = (   0.3382309   0.0713530   0.1357538  )
        62           Mg  tau(  62) = (   0.2673499   0.1427791   0.1520897  )
        63           Mg  tau(  63) = (   0.3735217   0.1427943   0.1950351  )
        64           Si  tau(  64) = (   0.3000300   0.0713613   0.2109406  )
        65           Al  tau(  65) = (   0.3560651   0.0713753   0.2785034  )
        66           Mg  tau(  66) = (   0.2723255   0.1427917   0.2709667  )
        67           Si  tau(  67) = (   0.3495593   0.1428025   0.3336409  )
        68           Mg  tau(  68) = (   0.2917697   0.0713666   0.3676180  )
        69           Al  tau(  69) = (   0.3538130   0.1427963   0.4284073  )
        70           Si  tau(  70) = (   0.2634479   0.1427800   0.4302754  )
        71           Si  tau(  71) = (   0.3563342   0.1427688   0.5195397  )
        72           Mg  tau(  72) = (   0.2933116   0.0713441   0.4915658  )
        73           Al  tau(  73) = (   0.3554924   0.0713297   0.5786281  )
        74           Al  tau(  74) = (   0.2816328   0.1427483   0.5732077  )
        75           Al  tau(  75) = (   0.3550845   0.1427464   0.6463890  )
        76           Al  tau(  76) = (   0.2826676   0.0713112   0.6430944  )
        77           Al  tau(  77) = (   0.3550387   0.0713100   0.7145922  )
        78           Al  tau(  78) = (   0.2826771   0.1427305   0.7139387  )
        79           Al  tau(  79) = (   0.3549662   0.1427299   0.7841400  )
        80           Al  tau(  80) = (   0.2828453   0.0712992   0.7836407  )
        81           Al  tau(  81) = (   0.3547125   0.0713052   0.8534842  )
        82           Al  tau(  82) = (   0.2827612   0.1427271   0.8538180  )
        83           Al  tau(  83) = (   0.3547541   0.1427380   0.9238520  )
        84           Al  tau(  84) = (   0.2827503   0.0713085   0.9236052  )
        85           Al  tau(  85) = (   0.5011536   0.0713132   0.9943847  )
        86           Al  tau(  86) = (   0.4271467   0.1427504   0.9891666  )
        87           Mg  tau(  87) = (   0.4899494   0.1427665   0.0761150  )
        88           Si  tau(  88) = (   0.4267325   0.0713360   0.0482628  )
        89           Si  tau(  89) = (   0.5200374   0.0713502   0.1374147  )
        90           Al  tau(  90) = (   0.4297134   0.0713586   0.1394385  )
        91           Mg  tau(  91) = (   0.4919639   0.1427925   0.2000521  )
        92           Si  tau(  92) = (   0.4343156   0.0713734   0.2342120  )
        93           Mg  tau(  93) = (   0.5115419   0.0713665   0.2969501  )
        94           Al  tau(  94) = (   0.4278705   0.1428041   0.2893231  )
        95           Si  tau(  95) = (   0.4836818   0.1427966   0.3570833  )
        96           Mg  tau(  96) = (   0.4101535   0.0713705   0.3729073  )
        97           Mg  tau(  97) = (   0.5162003   0.0713575   0.4159641  )
        98           Si  tau(  98) = (   0.4452084   0.1427879   0.4321783  )
        99           Al  tau(  99) = (   0.5006251   0.1427697   0.5038579  )
       100           Mg  tau( 100) = (   0.4201395   0.0713504   0.4920077  )
       101           Al  tau( 101) = (   0.4979612   0.0713316   0.5714442  )
       102           Al  tau( 102) = (   0.4293509   0.1427585   0.5745519  )
       103           Al  tau( 103) = (   0.4998323   0.1427451   0.6442947  )
       104           Al  tau( 104) = (   0.4276810   0.0713192   0.6440195  )
       105           Al  tau( 105) = (   0.4996047   0.0713086   0.7139380  )
       106           Al  tau( 106) = (   0.4275259   0.1427362   0.7142484  )
       107           Al  tau( 107) = (   0.4994087   0.1427280   0.7840558  )
       108           Al  tau( 108) = (   0.4272148   0.0713047   0.7835550  )
       109           Al  tau( 109) = (   0.4995726   0.0713008   0.8537318  )
       110           Al  tau( 110) = (   0.4271594   0.1427318   0.8531278  )
       111           Al  tau( 111) = (   0.4997334   0.1427321   0.9245287  )
       112           Al  tau( 112) = (   0.4272702   0.0713127   0.9213665  )
       113           Al  tau( 113) = (   0.6437781   0.0713012   0.9951969  )
       114           Al  tau( 114) = (   0.5702503   0.1427376   0.9965158  )
       115           Al  tau( 115) = (   0.6448602   0.1427378   0.0656752  )
       116           Al  tau( 116) = (   0.5735495   0.0713189   0.0637210  )
       117           Al  tau( 117) = (   0.6483398   0.0713271   0.1386986  )
       118           Al  tau( 118) = (   0.5802553   0.1427683   0.1355668  )
       119           Al  tau( 119) = (   0.6469593   0.1427613   0.2107990  )
       120           Al  tau( 120) = (   0.5766915   0.0713496   0.2063843  )
       121           Mg  tau( 121) = (   0.6340485   0.0713416   0.2941893  )
       122           Si  tau( 122) = (   0.5698391   0.1427840   0.2625137  )
       123           Si  tau( 123) = (   0.6642919   0.1427601   0.3561674  )
       124           Al  tau( 124) = (   0.5742621   0.1427877   0.3554906  )
       125           Mg  tau( 125) = (   0.6357870   0.0713363   0.4189436  )
       126           Si  tau( 126) = (   0.5746503   0.1427738   0.4482487  )
       127           Al  tau( 127) = (   0.6465578   0.1427482   0.5022514  )
       128           Al  tau( 128) = (   0.5718759   0.0713369   0.5074720  )
       129           Al  tau( 129) = (   0.6439441   0.0713145   0.5724315  )
       130           Al  tau( 130) = (   0.5720912   0.1427525   0.5758910  )
       131           Al  tau( 131) = (   0.6434616   0.1427312   0.6434797  )
       132           Al  tau( 132) = (   0.5714123   0.0713156   0.6441013  )
       133           Al  tau( 133) = (   0.6427596   0.0712970   0.7135525  )
       134           Al  tau( 134) = (   0.5714193   0.1427310   0.7142347  )
       135           Al  tau( 135) = (   0.6426728   0.1427180   0.7840756  )
       136           Al  tau( 136) = (   0.5712420   0.0712984   0.7841477  )
       137           Al  tau( 137) = (   0.6427280   0.0712904   0.8544766  )
       138           Al  tau( 138) = (   0.5712886   0.1427221   0.8543629  )
       139           Al  tau( 139) = (   0.6427958   0.1427198   0.9250729  )
       140           Al  tau( 140) = (   0.5716702   0.0712992   0.9244808  )
       141           Al  tau( 141) = (   0.7854894   0.0712884   0.9963137  )
       142           Al  tau( 142) = (   0.7148606   0.1427200   0.9956720  )
       143           Al  tau( 143) = (   0.7857547   0.1427221   0.0676522  )
       144           Al  tau( 144) = (   0.7157611   0.0713034   0.0667702  )
       145           Al  tau( 145) = (   0.7861096   0.0713051   0.1394363  )
       146           Al  tau( 146) = (   0.7167100   0.1427399   0.1389140  )
       147           Al  tau( 147) = (   0.7863225   0.1427359   0.2109109  )
       148           Al  tau( 148) = (   0.7147736   0.0713223   0.2130978  )
       149           Al  tau( 149) = (   0.7867354   0.0713124   0.2831423  )
       150           Al  tau( 150) = (   0.7169855   0.1427494   0.2816820  )
       151           Al  tau( 151) = (   0.7895764   0.1427402   0.3558158  )
       152           Al  tau( 152) = (   0.7225294   0.0713229   0.3558433  )
       153           Al  tau( 153) = (   0.7867710   0.0713075   0.4284159  )
       154           Al  tau( 154) = (   0.7171815   0.1427442   0.4303372  )
       155           Al  tau( 155) = (   0.7864609   0.1427281   0.5004191  )
       156           Al  tau( 156) = (   0.7140108   0.0713132   0.4987729  )
       157           Al  tau( 157) = (   0.7854948   0.0712973   0.5711546  )
       158           Al  tau( 158) = (   0.7153162   0.1427306   0.5721529  )
       159           Al  tau( 159) = (   0.7854411   0.1427174   0.6423202  )
       160           Al  tau( 160) = (   0.7145412   0.0712970   0.6426330  )
       161           Al  tau( 161) = (   0.7851592   0.0712868   0.7132068  )
       162           Al  tau( 162) = (   0.7141909   0.1427171   0.7134558  )
       163           Al  tau( 163) = (   0.7849898   0.1427077   0.7840127  )
       164           Al  tau( 164) = (   0.7139360   0.0712849   0.7840478  )
       165           Al  tau( 165) = (   0.7849577   0.0712800   0.8546580  )
       166           Al  tau( 166) = (   0.7138094   0.1427108   0.8546945  )
       167           Al  tau( 167) = (   0.7851670   0.1427090   0.9254463  )
       168           Al  tau( 168) = (   0.7142042   0.0712883   0.9251129  )
       169           Al  tau( 169) = (   0.9266387   0.0712862   0.9966773  )
       170           Al  tau( 170) = (   0.8560441   0.1427119   0.9967857  )
       171           Al  tau( 171) = (   0.9264432   0.1427172   0.0678746  )
       172           Al  tau( 172) = (   0.8559055   0.0712917   0.0680515  )
       173           Al  tau( 173) = (   0.9260854   0.0712959   0.1393213  )
       174           Al  tau( 174) = (   0.8562586   0.1427234   0.1394821  )
       175           Al  tau( 175) = (   0.9256819   0.1427280   0.2115413  )
       176           Al  tau( 176) = (   0.8561278   0.0713032   0.2113540  )
       177           Al  tau( 177) = (   0.9264446   0.0713042   0.2841598  )
       178           Al  tau( 178) = (   0.8570019   0.1427318   0.2833204  )
       179           Al  tau( 179) = (   0.9272801   0.1427301   0.3560734  )
       180           Al  tau( 180) = (   0.8577581   0.0713055   0.3559661  )
       181           Al  tau( 181) = (   0.9270217   0.0713011   0.4279510  )
       182           Al  tau( 182) = (   0.8572440   0.1427274   0.4282568  )
       183           Al  tau( 183) = (   0.9272108   0.1427205   0.4994414  )
       184           Al  tau( 184) = (   0.8567293   0.0712955   0.4997809  )
       185           Al  tau( 185) = (   0.9268998   0.0712868   0.5707718  )
       186           Al  tau( 186) = (   0.8563562   0.1427160   0.5710524  )
       187           Al  tau( 187) = (   0.9267623   0.1427101   0.6418967  )
       188           Al  tau( 188) = (   0.8559596   0.0712868   0.6418944  )
       189           Al  tau( 189) = (   0.9267642   0.0712809   0.7129481  )
       190           Al  tau( 190) = (   0.8559781   0.1427098   0.7129865  )
       191           Al  tau( 191) = (   0.9267627   0.1427055   0.7838537  )
       192           Al  tau( 192) = (   0.8559430   0.0712802   0.7838384  )
       193           Al  tau( 193) = (   0.9267743   0.0712794   0.8547275  )
       194           Al  tau( 194) = (   0.8559565   0.1427044   0.8546951  )
       195           Al  tau( 195) = (   0.9269030   0.1427078   0.9258396  )
       196           Al  tau( 196) = (   0.8560351   0.0712795   0.9257177  )

   Crystallographic axes

     site n.     atom                  positions (cryst. coord.)
         1           Al  tau(   1) = (  0.0677374  0.4990620  0.9958175  )
         2           Al  tau(   2) = (  0.9975194  0.9990084  0.9966796  )
         3           Al  tau(   3) = (  0.0692275  0.9991063  0.0691146  )
         4           Al  tau(   4) = (  0.9967644  0.4990592  0.0674087  )
         5           Al  tau(   5) = (  0.0662169  0.4991355  0.1375429  )
         6           Al  tau(   6) = (  0.9965930  0.9990812  0.1392841  )
         7           Al  tau(   7) = (  0.0610653  0.9991994  0.2118150  )
         8           Al  tau(   8) = (  0.9939148  0.4991442  0.2117912  )
         9           Al  tau(   9) = (  0.0665560  0.4992062  0.2859120  )
        10           Al  tau(  10) = (  0.9967402  0.9991423  0.2843894  )
        11           Al  tau(  11) = (  0.0687558  0.9992199  0.3544177  )
        12           Al  tau(  12) = (  0.9971126  0.4991603  0.3565564  )
        13           Al  tau(  13) = (  0.0666540  0.4991966  0.4285530  )
        14           Al  tau(  14) = (  0.9971828  0.9991193  0.4279692  )
        15           Al  tau(  15) = (  0.0673820  0.9991082  0.5006784  )
        16           Al  tau(  16) = (  0.9973305  0.4990837  0.4997646  )
        17           Al  tau(  17) = (  0.0679927  0.4990723  0.5717529  )
        18           Al  tau(  18) = (  0.9973930  0.9990165  0.5711244  )
        19           Al  tau(  19) = (  0.0684266  0.9990126  0.6423519  )
        20           Al  tau(  20) = (  0.9975585  0.4989903  0.6420535  )
        21           Al  tau(  21) = (  0.0687200  0.4990039  0.7128498  )
        22           Al  tau(  22) = (  0.9976891  0.9989586  0.7129197  )
        23           Al  tau(  23) = (  0.0685987  0.9989709  0.7836630  )
        24           Al  tau(  24) = (  0.9976450  0.4989649  0.7836924  )
        25           Al  tau(  25) = (  0.0684561  0.4989907  0.8543398  )
        26           Al  tau(  26) = (  0.9975650  0.9989549  0.8545672  )
        27           Al  tau(  27) = (  0.0682818  0.9990050  0.9252440  )
        28           Al  tau(  28) = (  0.9974259  0.4989956  0.9255144  )
        29           Al  tau(  29) = (  0.2108487  0.4992055  0.9921440  )
        30           Al  tau(  30) = (  0.1390838  0.9991042  0.9955921  )
        31           Al  tau(  31) = (  0.2113237  0.9992735  0.0606180  )
        32           Al  tau(  32) = (  0.1367748  0.4991595  0.0657625  )
        33           Si  tau(  33) = (  0.2087758  0.4993541  0.1197551  )
        34           Mg  tau(  34) = (  0.1476973  0.9992799  0.1489118  )
        35           Al  tau(  35) = (  0.2094411  0.4994274  0.2124775  )
        36           Si  tau(  36) = (  0.1192626  0.4992804  0.2116084  )
        37           Si  tau(  37) = (  0.2138903  0.4994696  0.3052342  )
        38           Mg  tau(  38) = (  0.1496256  0.9993464  0.2735189  )
        39           Al  tau(  39) = (  0.2069058  0.9994412  0.3612291  )
        40           Al  tau(  40) = (  0.1366540  0.4993114  0.3568226  )
        41           Al  tau(  41) = (  0.2032656  0.4993924  0.4320189  )
        42           Al  tau(  42) = (  0.1351189  0.9992731  0.4288396  )
        43           Al  tau(  43) = (  0.2095884  0.9992563  0.5037338  )
        44           Al  tau(  44) = (  0.1382867  0.4991991  0.5017928  )
        45           Al  tau(  45) = (  0.2125112  0.4992083  0.5710154  )
        46           Al  tau(  46) = (  0.1390505  0.9991093  0.5722955  )
        47           Al  tau(  47) = (  0.2108405  0.9991138  0.6430484  )
        48           Al  tau(  48) = (  0.1397592  0.4990833  0.6424495  )
        49           Al  tau(  49) = (  0.2110406  0.4990790  0.7132765  )
        50           Al  tau(  50) = (  0.1396661  0.9990198  0.7131197  )
        51           Al  tau(  51) = (  0.2111002  0.9990431  0.7835849  )
        52           Al  tau(  52) = (  0.1397639  0.4990195  0.7836432  )
        53           Al  tau(  53) = (  0.2110579  0.4990875  0.8535602  )
        54           Al  tau(  54) = (  0.1397781  0.9990142  0.8542626  )
        55           Al  tau(  55) = (  0.2112185  0.9991171  0.9238031  )
        56           Al  tau(  56) = (  0.1392990  0.4990738  0.9244491  )
        57           Al  tau(  57) = (  0.3534619  0.4992338  0.9933769  )
        58           Al  tau(  58) = (  0.2849089  0.9992390  0.9965080  )
        59           Mg  tau(  59) = (  0.3630417  0.9994004  0.0759394  )
        60           Al  tau(  60) = (  0.2826461  0.4993022  0.0641245  )
        61           Si  tau(  61) = (  0.3382309  0.4994713  0.1357538  )
        62           Mg  tau(  62) = (  0.2673499  0.9994535  0.1520897  )
        63           Mg  tau(  63) = (  0.3735217  0.9995600  0.1950351  )
        64           Si  tau(  64) = (  0.3000300  0.4995293  0.2109406  )
        65           Al  tau(  65) = (  0.3560651  0.4996271  0.2785034  )
        66           Mg  tau(  66) = (  0.2723255  0.9995419  0.2709667  )
        67           Si  tau(  67) = (  0.3495593  0.9996174  0.3336409  )
        68           Mg  tau(  68) = (  0.2917697  0.4995663  0.3676180  )
        69           Al  tau(  69) = (  0.3538130  0.9995743  0.4284073  )
        70           Si  tau(  70) = (  0.2634479  0.9994599  0.4302754  )
        71           Si  tau(  71) = (  0.3563342  0.9993819  0.5195397  )
        72           Mg  tau(  72) = (  0.2933116  0.4994087  0.4915658  )
        73           Al  tau(  73) = (  0.3554924  0.4993080  0.5786281  )
        74           Al  tau(  74) = (  0.2816328  0.9992383  0.5732077  )
        75           Al  tau(  75) = (  0.3550845  0.9992250  0.6463890  )
        76           Al  tau(  76) = (  0.2826676  0.4991786  0.6430944  )
        77           Al  tau(  77) = (  0.3550387  0.4991700  0.7145922  )
        78           Al  tau(  78) = (  0.2826771  0.9991133  0.7139387  )
        79           Al  tau(  79) = (  0.3549662  0.9991090  0.7841400  )
        80           Al  tau(  80) = (  0.2828453  0.4990946  0.7836407  )
        81           Al  tau(  81) = (  0.3547125  0.4991361  0.8534842  )
        82           Al  tau(  82) = (  0.2827612  0.9990898  0.8538180  )
        83           Al  tau(  83) = (  0.3547541  0.9991661  0.9238520  )
        84           Al  tau(  84) = (  0.2827503  0.4991597  0.9236052  )
        85           Al  tau(  85) = (  0.5011536  0.4991926  0.9943847  )
        86           Al  tau(  86) = (  0.4271467  0.9992530  0.9891666  )
        87           Mg  tau(  87) = (  0.4899494  0.9993656  0.0761150  )
        88           Si  tau(  88) = (  0.4267325  0.4993520  0.0482628  )
        89           Si  tau(  89) = (  0.5200374  0.4994516  0.1374147  )
        90           Al  tau(  90) = (  0.4297134  0.4995101  0.1394385  )
        91           Mg  tau(  91) = (  0.4919639  0.9995474  0.2000521  )
        92           Si  tau(  92) = (  0.4343156  0.4996140  0.2342120  )
        93           Mg  tau(  93) = (  0.5115419  0.4995653  0.2969501  )
        94           Al  tau(  94) = (  0.4278705  0.9996286  0.2893231  )
        95           Si  tau(  95) = (  0.4836818  0.9995765  0.3570833  )
        96           Mg  tau(  96) = (  0.4101535  0.4995933  0.3729073  )
        97           Mg  tau(  97) = (  0.5162003  0.4995024  0.4159641  )
        98           Si  tau(  98) = (  0.4452084  0.9995154  0.4321783  )
        99           Al  tau(  99) = (  0.5006251  0.9993881  0.5038579  )
       100           Mg  tau( 100) = (  0.4201395  0.4994528  0.4920077  )
       101           Al  tau( 101) = (  0.4979612  0.4993212  0.5714442  )
       102           Al  tau( 102) = (  0.4293509  0.9993092  0.5745519  )
       103           Al  tau( 103) = (  0.4998323  0.9992161  0.6442947  )
       104           Al  tau( 104) = (  0.4276810  0.4992345  0.6440195  )
       105           Al  tau( 105) = (  0.4996047  0.4991603  0.7139380  )
       106           Al  tau( 106) = (  0.4275259  0.9991532  0.7142484  )
       107           Al  tau( 107) = (  0.4994087  0.9990962  0.7840558  )
       108           Al  tau( 108) = (  0.4272148  0.4991327  0.7835550  )
       109           Al  tau( 109) = (  0.4995726  0.4991059  0.8537318  )
       110           Al  tau( 110) = (  0.4271594  0.9991224  0.8531278  )
       111           Al  tau( 111) = (  0.4997334  0.9991248  0.9245287  )
       112           Al  tau( 112) = (  0.4272702  0.4991892  0.9213665  )
       113           Al  tau( 113) = (  0.6437781  0.4991087  0.9951969  )
       114           Al  tau( 114) = (  0.5702503  0.9991635  0.9965158  )
       115           Al  tau( 115) = (  0.6448602  0.9991644  0.0656752  )
       116           Al  tau( 116) = (  0.5735495  0.4992320  0.0637210  )
       117           Al  tau( 117) = (  0.6483398  0.4992895  0.1386986  )
       118           Al  tau( 118) = (  0.5802553  0.9993783  0.1355668  )
       119           Al  tau( 119) = (  0.6469593  0.9993293  0.2107990  )
       120           Al  tau( 120) = (  0.5766915  0.4994471  0.2063843  )
       121           Mg  tau( 121) = (  0.6340485  0.4993915  0.2941893  )
       122           Si  tau( 122) = (  0.5698391  0.9994878  0.2625137  )
       123           Si  tau( 123) = (  0.6642919  0.9993207  0.3561674  )
       124           Al  tau( 124) = (  0.5742621  0.9995136  0.3554906  )
       125           Mg  tau( 125) = (  0.6357870  0.4993541  0.4189436  )
       126           Si  tau( 126) = (  0.5746503  0.9994166  0.4482487  )
       127           Al  tau( 127) = (  0.6465578  0.9992377  0.5022514  )
       128           Al  tau( 128) = (  0.5718759  0.4993581  0.5074720  )
       129           Al  tau( 129) = (  0.6439441  0.4992013  0.5724315  )
       130           Al  tau( 130) = (  0.5720912  0.9992673  0.5758910  )
       131           Al  tau( 131) = (  0.6434616  0.9991186  0.6434797  )
       132           Al  tau( 132) = (  0.5714123  0.4992096  0.6441013  )
       133           Al  tau( 133) = (  0.6427596  0.4990787  0.7135525  )
       134           Al  tau( 134) = (  0.5714193  0.9991173  0.7142347  )
       135           Al  tau( 135) = (  0.6426728  0.9990259  0.7840756  )
       136           Al  tau( 136) = (  0.5712420  0.4990885  0.7841477  )
       137           Al  tau( 137) = (  0.6427280  0.4990330  0.8544766  )
       138           Al  tau( 138) = (  0.5712886  0.9990549  0.8543629  )
       139           Al  tau( 139) = (  0.6427958  0.9990388  0.9250729  )
       140           Al  tau( 140) = (  0.5716702  0.4990945  0.9244808  )
       141           Al  tau( 141) = (  0.7854894  0.4990187  0.9963137  )
       142           Al  tau( 142) = (  0.7148606  0.9990404  0.9956720  )
       143           Al  tau( 143) = (  0.7857547  0.9990546  0.0676522  )
       144           Al  tau( 144) = (  0.7157611  0.4991235  0.0667702  )
       145           Al  tau( 145) = (  0.7861096  0.4991355  0.1394363  )
       146           Al  tau( 146) = (  0.7167100  0.9991790  0.1389140  )
       147           Al  tau( 147) = (  0.7863225  0.9991513  0.2109109  )
       148           Al  tau( 148) = (  0.7147736  0.4992561  0.2130978  )
       149           Al  tau( 149) = (  0.7867354  0.4991866  0.2831423  )
       150           Al  tau( 150) = (  0.7169855  0.9992457  0.2816820  )
       151           Al  tau( 151) = (  0.7895764  0.9991815  0.3558158  )
       152           Al  tau( 152) = (  0.7225294  0.4992603  0.3558433  )
       153           Al  tau( 153) = (  0.7867710  0.4991528  0.4284159  )
       154           Al  tau( 154) = (  0.7171815  0.9992094  0.4303372  )
       155           Al  tau( 155) = (  0.7864609  0.9990970  0.5004191  )
       156           Al  tau( 156) = (  0.7140108  0.4991923  0.4987729  )
       157           Al  tau( 157) = (  0.7854948  0.4990811  0.5711546  )
       158           Al  tau( 158) = (  0.7153162  0.9991141  0.5721529  )
       159           Al  tau( 159) = (  0.7854411  0.9990221  0.6423202  )
       160           Al  tau( 160) = (  0.7145412  0.4990791  0.6426330  )
       161           Al  tau( 161) = (  0.7851592  0.4990079  0.7132068  )
       162           Al  tau( 162) = (  0.7141909  0.9990195  0.7134558  )
       163           Al  tau( 163) = (  0.7849898  0.9989542  0.7840127  )
       164           Al  tau( 164) = (  0.7139360  0.4989942  0.7840478  )
       165           Al  tau( 165) = (  0.7849577  0.4989598  0.8546580  )
       166           Al  tau( 166) = (  0.7138094  0.9989760  0.8546945  )
       167           Al  tau( 167) = (  0.7851670  0.9989633  0.9254463  )
       168           Al  tau( 168) = (  0.7142042  0.4990180  0.9251129  )
       169           Al  tau( 169) = (  0.9266387  0.4990035  0.9966773  )
       170           Al  tau( 170) = (  0.8560441  0.9989831  0.9967857  )
       171           Al  tau( 171) = (  0.9264432  0.9990203  0.0678746  )
       172           Al  tau( 172) = (  0.8559055  0.4990422  0.0680515  )
       173           Al  tau( 173) = (  0.9260854  0.4990716  0.1393213  )
       174           Al  tau( 174) = (  0.8562586  0.9990640  0.1394821  )
       175           Al  tau( 175) = (  0.9256819  0.9990957  0.2115413  )
       176           Al  tau( 176) = (  0.8561278  0.4991223  0.2113540  )
       177           Al  tau( 177) = (  0.9264446  0.4991292  0.2841598  )
       178           Al  tau( 178) = (  0.8570019  0.9991224  0.2833204  )
       179           Al  tau( 179) = (  0.9272801  0.9991108  0.3560734  )
       180           Al  tau( 180) = (  0.8577581  0.4991383  0.3559661  )
       181           Al  tau( 181) = (  0.9270217  0.4991076  0.4279510  )
       182           Al  tau( 182) = (  0.8572440  0.9990920  0.4282568  )
       183           Al  tau( 183) = (  0.9272108  0.9990434  0.4994414  )
       184           Al  tau( 184) = (  0.8567293  0.4990683  0.4997809  )
       185           Al  tau( 185) = (  0.9268998  0.4990075  0.5707718  )
       186           Al  tau( 186) = (  0.8563562  0.9990123  0.5710524  )
       187           Al  tau( 187) = (  0.9267623  0.9989709  0.6418967  )
       188           Al  tau( 188) = (  0.8559596  0.4990075  0.6418944  )
       189           Al  tau( 189) = (  0.9267642  0.4989663  0.7129481  )
       190           Al  tau( 190) = (  0.8559781  0.9989685  0.7129865  )
       191           Al  tau( 191) = (  0.9267627  0.9989385  0.7838537  )
       192           Al  tau( 192) = (  0.8559430  0.4989613  0.7838384  )
       193           Al  tau( 193) = (  0.9267743  0.4989560  0.8547275  )
       194           Al  tau( 194) = (  0.8559565  0.9989309  0.8546951  )
       195           Al  tau( 195) = (  0.9269030  0.9989547  0.9258396  )
       196           Al  tau( 196) = (  0.8560351  0.4989566  0.9257177  )

     number of k points=    91  Methfessel-Paxton smearing, width (Ry)=  0.0441
                       cart. coord. in units 2pi/alat
        k(    1) = (   0.0000000   0.0000000   0.0000000), wk =   0.0111111
        k(    2) = (   0.0000000   0.0000000   0.3333333), wk =   0.0222222
        k(    3) = (   0.0000000   0.3500000   0.0000000), wk =   0.0222222
        k(    4) = (   0.0000000   0.3500000   0.3333333), wk =   0.0222222
        k(    5) = (   0.0000000   0.3500000  -0.3333333), wk =   0.0222222
        k(    6) = (   0.0000000   0.7000000   0.0000000), wk =   0.0222222
        k(    7) = (   0.0000000   0.7000000   0.3333333), wk =   0.0222222
        k(    8) = (   0.0000000   0.7000000  -0.3333333), wk =   0.0222222
        k(    9) = (   0.0000000   1.0500000   0.0000000), wk =   0.0222222
        k(   10) = (   0.0000000   1.0500000   0.3333333), wk =   0.0222222
        k(   11) = (   0.0000000   1.0500000  -0.3333333), wk =   0.0222222
        k(   12) = (   0.0000000   1.4000001   0.0000000), wk =   0.0222222
        k(   13) = (   0.0000000   1.4000001   0.3333333), wk =   0.0222222
        k(   14) = (   0.0000000   1.4000001  -0.3333333), wk =   0.0222222
        k(   15) = (   0.0000000   1.7500001   0.0000000), wk =   0.0222222
        k(   16) = (   0.0000000   1.7500001   0.3333333), wk =   0.0222222
        k(   17) = (   0.0000000   1.7500001  -0.3333333), wk =   0.0222222
        k(   18) = (   0.0000000   2.1000001   0.0000000), wk =   0.0222222
        k(   19) = (   0.0000000   2.1000001   0.3333333), wk =   0.0222222
        k(   20) = (   0.0000000   2.1000001  -0.3333333), wk =   0.0222222
        k(   21) = (   0.0000000   2.4500001   0.0000000), wk =   0.0222222
        k(   22) = (   0.0000000   2.4500001   0.3333333), wk =   0.0222222
        k(   23) = (   0.0000000   2.4500001  -0.3333333), wk =   0.0222222
        k(   24) = (   0.0000000   2.8000001   0.0000000), wk =   0.0222222
        k(   25) = (   0.0000000   2.8000001   0.3333333), wk =   0.0222222
        k(   26) = (   0.0000000   2.8000001  -0.3333333), wk =   0.0222222
        k(   27) = (   0.0000000   3.1500001   0.0000000), wk =   0.0222222
        k(   28) = (   0.0000000   3.1500001   0.3333333), wk =   0.0222222
        k(   29) = (   0.0000000   3.1500001  -0.3333333), wk =   0.0222222
        k(   30) = (   0.0000000  -3.5000001   0.0000000), wk =   0.0111111
        k(   31) = (   0.0000000  -3.5000001   0.3333333), wk =   0.0222222
        k(   32) = (   0.3333333   0.0000000   0.0000000), wk =   0.0222222
        k(   33) = (   0.3333333   0.0000000   0.3333333), wk =   0.0222222
        k(   34) = (   0.3333333   0.0000000  -0.3333333), wk =   0.0222222
        k(   35) = (   0.3333333   0.3500000   0.0000000), wk =   0.0222222
        k(   36) = (   0.3333333   0.3500000   0.3333333), wk =   0.0222222
        k(   37) = (   0.3333333   0.3500000  -0.3333333), wk =   0.0222222
        k(   38) = (   0.3333333   0.7000000   0.0000000), wk =   0.0222222
        k(   39) = (   0.3333333   0.7000000   0.3333333), wk =   0.0222222
        k(   40) = (   0.3333333   0.7000000  -0.3333333), wk =   0.0222222
        k(   41) = (   0.3333333   1.0500000   0.0000000), wk =   0.0222222
        k(   42) = (   0.3333333   1.0500000   0.3333333), wk =   0.0222222
        k(   43) = (   0.3333333   1.0500000  -0.3333333), wk =   0.0222222
        k(   44) = (   0.3333333   1.4000001   0.0000000), wk =   0.0222222
        k(   45) = (   0.3333333   1.4000001   0.3333333), wk =   0.0222222
        k(   46) = (   0.3333333   1.4000001  -0.3333333), wk =   0.0222222
        k(   47) = (   0.3333333   1.7500001   0.0000000), wk =   0.0222222
        k(   48) = (   0.3333333   1.7500001   0.3333333), wk =   0.0222222
        k(   49) = (   0.3333333   1.7500001  -0.3333333), wk =   0.0222222
        k(   50) = (   0.3333333   2.1000001   0.0000000), wk =   0.0222222
        k(   51) = (   0.3333333   2.1000001   0.3333333), wk =   0.0222222
        k(   52) = (   0.3333333   2.1000001  -0.3333333), wk =   0.0222222
        k(   53) = (   0.3333333   2.4500001   0.0000000), wk =   0.0222222
        k(   54) = (   0.3333333   2.4500001   0.3333333), wk =   0.0222222
        k(   55) = (   0.3333333   2.4500001  -0.3333333), wk =   0.0222222
        k(   56) = (   0.3333333   2.8000001   0.0000000), wk =   0.0222222
        k(   57) = (   0.3333333   2.8000001   0.3333333), wk =   0.0222222
        k(   58) = (   0.3333333   2.8000001  -0.3333333), wk =   0.0222222
        k(   59) = (   0.3333333   3.1500001   0.0000000), wk =   0.0222222
        k(   60) = (   0.3333333   3.1500001   0.3333333), wk =   0.0222222
        k(   61) = (   0.3333333   3.1500001  -0.3333333), wk =   0.0222222
        k(   62) = (   0.3333333  -3.5000001   0.0000000), wk =   0.0222222
        k(   63) = (   0.3333333  -3.5000001   0.3333333), wk =   0.0222222
        k(   64) = (   0.3333333  -3.5000001  -0.3333333), wk =   0.0222222
        k(   65) = (   0.3333333  -3.1500001   0.0000000), wk =   0.0222222
        k(   66) = (   0.3333333  -3.1500001   0.3333333), wk =   0.0222222
        k(   67) = (   0.3333333  -3.1500001  -0.3333333), wk =   0.0222222
        k(   68) = (   0.3333333  -2.8000001   0.0000000), wk =   0.0222222
        k(   69) = (   0.3333333  -2.8000001   0.3333333), wk =   0.0222222
        k(   70) = (   0.3333333  -2.8000001  -0.3333333), wk =   0.0222222
        k(   71) = (   0.3333333  -2.4500001   0.0000000), wk =   0.0222222
        k(   72) = (   0.3333333  -2.4500001   0.3333333), wk =   0.0222222
        k(   73) = (   0.3333333  -2.4500001  -0.3333333), wk =   0.0222222
        k(   74) = (   0.3333333  -2.1000001   0.0000000), wk =   0.0222222
        k(   75) = (   0.3333333  -2.1000001   0.3333333), wk =   0.0222222
        k(   76) = (   0.3333333  -2.1000001  -0.3333333), wk =   0.0222222
        k(   77) = (   0.3333333  -1.7500001   0.0000000), wk =   0.0222222
        k(   78) = (   0.3333333  -1.7500001   0.3333333), wk =   0.0222222
        k(   79) = (   0.3333333  -1.7500001  -0.3333333), wk =   0.0222222
        k(   80) = (   0.3333333  -1.4000001   0.0000000), wk =   0.0222222
        k(   81) = (   0.3333333  -1.4000001   0.3333333), wk =   0.0222222
        k(   82) = (   0.3333333  -1.4000001  -0.3333333), wk =   0.0222222
        k(   83) = (   0.3333333  -1.0500000   0.0000000), wk =   0.0222222
        k(   84) = (   0.3333333  -1.0500000   0.3333333), wk =   0.0222222
        k(   85) = (   0.3333333  -1.0500000  -0.3333333), wk =   0.0222222
        k(   86) = (   0.3333333  -0.7000000   0.0000000), wk =   0.0222222
        k(   87) = (   0.3333333  -0.7000000   0.3333333), wk =   0.0222222
        k(   88) = (   0.3333333  -0.7000000  -0.3333333), wk =   0.0222222
        k(   89) = (   0.3333333  -0.3500000   0.0000000), wk =   0.0222222
        k(   90) = (   0.3333333  -0.3500000   0.3333333), wk =   0.0222222
        k(   91) = (   0.3333333  -0.3500000  -0.3333333), wk =   0.0222222

                       cryst. coord.
        k(    1) = (   0.0000000   0.0000000   0.0000000), wk =   0.0111111
        k(    2) = (   0.0000000   0.0000000   0.3333333), wk =   0.0222222
        k(    3) = (   0.0000000   0.0500000   0.0000000), wk =   0.0222222
        k(    4) = (   0.0000000   0.0500000   0.3333333), wk =   0.0222222
        k(    5) = (   0.0000000   0.0500000  -0.3333333), wk =   0.0222222
        k(    6) = (   0.0000000   0.1000000   0.0000000), wk =   0.0222222
        k(    7) = (   0.0000000   0.1000000   0.3333333), wk =   0.0222222
        k(    8) = (   0.0000000   0.1000000  -0.3333333), wk =   0.0222222
        k(    9) = (   0.0000000   0.1500000   0.0000000), wk =   0.0222222
        k(   10) = (   0.0000000   0.1500000   0.3333333), wk =   0.0222222
        k(   11) = (   0.0000000   0.1500000  -0.3333333), wk =   0.0222222
        k(   12) = (   0.0000000   0.2000000   0.0000000), wk =   0.0222222
        k(   13) = (   0.0000000   0.2000000   0.3333333), wk =   0.0222222
        k(   14) = (   0.0000000   0.2000000  -0.3333333), wk =   0.0222222
        k(   15) = (   0.0000000   0.2500000   0.0000000), wk =   0.0222222
        k(   16) = (   0.0000000   0.2500000   0.3333333), wk =   0.0222222
        k(   17) = (   0.0000000   0.2500000  -0.3333333), wk =   0.0222222
        k(   18) = (   0.0000000   0.3000000   0.0000000), wk =   0.0222222
        k(   19) = (   0.0000000   0.3000000   0.3333333), wk =   0.0222222
        k(   20) = (   0.0000000   0.3000000  -0.3333333), wk =   0.0222222
        k(   21) = (   0.0000000   0.3500000   0.0000000), wk =   0.0222222
        k(   22) = (   0.0000000   0.3500000   0.3333333), wk =   0.0222222
        k(   23) = (   0.0000000   0.3500000  -0.3333333), wk =   0.0222222
        k(   24) = (   0.0000000   0.4000000   0.0000000), wk =   0.0222222
        k(   25) = (   0.0000000   0.4000000   0.3333333), wk =   0.0222222
        k(   26) = (   0.0000000   0.4000000  -0.3333333), wk =   0.0222222
        k(   27) = (   0.0000000   0.4500000   0.0000000), wk =   0.0222222
        k(   28) = (   0.0000000   0.4500000   0.3333333), wk =   0.0222222
        k(   29) = (   0.0000000   0.4500000  -0.3333333), wk =   0.0222222
        k(   30) = (   0.0000000  -0.5000000   0.0000000), wk =   0.0111111
        k(   31) = (   0.0000000  -0.5000000   0.3333333), wk =   0.0222222
        k(   32) = (   0.3333333   0.0000000   0.0000000), wk =   0.0222222
        k(   33) = (   0.3333333   0.0000000   0.3333333), wk =   0.0222222
        k(   34) = (   0.3333333   0.0000000  -0.3333333), wk =   0.0222222
        k(   35) = (   0.3333333   0.0500000   0.0000000), wk =   0.0222222
        k(   36) = (   0.3333333   0.0500000   0.3333333), wk =   0.0222222
        k(   37) = (   0.3333333   0.0500000  -0.3333333), wk =   0.0222222
        k(   38) = (   0.3333333   0.1000000   0.0000000), wk =   0.0222222
        k(   39) = (   0.3333333   0.1000000   0.3333333), wk =   0.0222222
        k(   40) = (   0.3333333   0.1000000  -0.3333333), wk =   0.0222222
        k(   41) = (   0.3333333   0.1500000   0.0000000), wk =   0.0222222
        k(   42) = (   0.3333333   0.1500000   0.3333333), wk =   0.0222222
        k(   43) = (   0.3333333   0.1500000  -0.3333333), wk =   0.0222222
        k(   44) = (   0.3333333   0.2000000   0.0000000), wk =   0.0222222
        k(   45) = (   0.3333333   0.2000000   0.3333333), wk =   0.0222222
        k(   46) = (   0.3333333   0.2000000  -0.3333333), wk =   0.0222222
        k(   47) = (   0.3333333   0.2500000   0.0000000), wk =   0.0222222
        k(   48) = (   0.3333333   0.2500000   0.3333333), wk =   0.0222222
        k(   49) = (   0.3333333   0.2500000  -0.3333333), wk =   0.0222222
        k(   50) = (   0.3333333   0.3000000   0.0000000), wk =   0.0222222
        k(   51) = (   0.3333333   0.3000000   0.3333333), wk =   0.0222222
        k(   52) = (   0.3333333   0.3000000  -0.3333333), wk =   0.0222222
        k(   53) = (   0.3333333   0.3500000   0.0000000), wk =   0.0222222
        k(   54) = (   0.3333333   0.3500000   0.3333333), wk =   0.0222222
        k(   55) = (   0.3333333   0.3500000  -0.3333333), wk =   0.0222222
        k(   56) = (   0.3333333   0.4000000   0.0000000), wk =   0.0222222
        k(   57) = (   0.3333333   0.4000000   0.3333333), wk =   0.0222222
        k(   58) = (   0.3333333   0.4000000  -0.3333333), wk =   0.0222222
        k(   59) = (   0.3333333   0.4500000   0.0000000), wk =   0.0222222
        k(   60) = (   0.3333333   0.4500000   0.3333333), wk =   0.0222222
        k(   61) = (   0.3333333   0.4500000  -0.3333333), wk =   0.0222222
        k(   62) = (   0.3333333  -0.5000000   0.0000000), wk =   0.0222222
        k(   63) = (   0.3333333  -0.5000000   0.3333333), wk =   0.0222222
        k(   64) = (   0.3333333  -0.5000000  -0.3333333), wk =   0.0222222
        k(   65) = (   0.3333333  -0.4500000   0.0000000), wk =   0.0222222
        k(   66) = (   0.3333333  -0.4500000   0.3333333), wk =   0.0222222
        k(   67) = (   0.3333333  -0.4500000  -0.3333333), wk =   0.0222222
        k(   68) = (   0.3333333  -0.4000000   0.0000000), wk =   0.0222222
        k(   69) = (   0.3333333  -0.4000000   0.3333333), wk =   0.0222222
        k(   70) = (   0.3333333  -0.4000000  -0.3333333), wk =   0.0222222
        k(   71) = (   0.3333333  -0.3500000   0.0000000), wk =   0.0222222
        k(   72) = (   0.3333333  -0.3500000   0.3333333), wk =   0.0222222
        k(   73) = (   0.3333333  -0.3500000  -0.3333333), wk =   0.0222222
        k(   74) = (   0.3333333  -0.3000000   0.0000000), wk =   0.0222222
        k(   75) = (   0.3333333  -0.3000000   0.3333333), wk =   0.0222222
        k(   76) = (   0.3333333  -0.3000000  -0.3333333), wk =   0.0222222
        k(   77) = (   0.3333333  -0.2500000   0.0000000), wk =   0.0222222
        k(   78) = (   0.3333333  -0.2500000   0.3333333), wk =   0.0222222
        k(   79) = (   0.3333333  -0.2500000  -0.3333333), wk =   0.0222222
        k(   80) = (   0.3333333  -0.2000000   0.0000000), wk =   0.0222222
        k(   81) = (   0.3333333  -0.2000000   0.3333333), wk =   0.0222222
        k(   82) = (   0.3333333  -0.2000000  -0.3333333), wk =   0.0222222
        k(   83) = (   0.3333333  -0.1500000   0.0000000), wk =   0.0222222
        k(   84) = (   0.3333333  -0.1500000   0.3333333), wk =   0.0222222
        k(   85) = (   0.3333333  -0.1500000  -0.3333333), wk =   0.0222222
        k(   86) = (   0.3333333  -0.1000000   0.0000000), wk =   0.0222222
        k(   87) = (   0.3333333  -0.1000000   0.3333333), wk =   0.0222222
        k(   88) = (   0.3333333  -0.1000000  -0.3333333), wk =   0.0222222
        k(   89) = (   0.3333333  -0.0500000   0.0000000), wk =   0.0222222
        k(   90) = (   0.3333333  -0.0500000   0.3333333), wk =   0.0222222
        k(   91) = (   0.3333333  -0.0500000  -0.3333333), wk =   0.0222222

     Dense  grid:  2983521 G-vectors     FFT dimensions: ( 360,  50, 360)

     Smooth grid:   754991 G-vectors     FFT dimensions: ( 225,  32, 225)

     Dynamical RAM for                 wfc:      56.45 MB

     Dynamical RAM for     wfc (w. buffer):    1354.90 MB

     Dynamical RAM for           str. fact:      15.17 MB

     Dynamical RAM for           local pot:       0.00 MB

     Dynamical RAM for          nlocal pot:     538.64 MB

     Dynamical RAM for                qrad:      41.06 MB

     Dynamical RAM for          rho,v,vnew:      31.65 MB

     Dynamical RAM for               rhoin:      10.55 MB

     Dynamical RAM for            rho*nmix:      80.93 MB

     Dynamical RAM for           G-vectors:      19.61 MB

     Dynamical RAM for          h,s,v(r/c):      22.82 MB

     Dynamical RAM for          <psi|beta>:      18.14 MB

     Dynamical RAM for                 psi:     225.82 MB

     Dynamical RAM for                hpsi:     225.82 MB

     Dynamical RAM for                spsi:     225.82 MB

     Dynamical RAM for      wfcinit/wfcrot:     264.84 MB

     Dynamical RAM for           addusdens:     446.39 MB

     Dynamical RAM for          addusforce:     979.55 MB

     Dynamical RAM for         addusstress:     256.08 MB

     Estimated static dynamical RAM per process >       2.09 GB

     Estimated max dynamical RAM per process >       3.05 GB

     Estimated total dynamical RAM >     109.68 GB

     Initial potential from superposition of free atoms

     starting charge  587.60068, renormalised to  588.00000
     Starting wfcs are  784 randomized atomic wfcs
