begin
comment 4 atoms, species Al4
lattice      7.6331895606    -0.0000000000     0.0000000000
lattice     -0.0000000000     7.6331895606    -0.0000000000
lattice      0.0000000000    -0.0000000000     7.6331895606
atom      0.0000000000     0.0000000000     0.0000000000   Al  0.0 0.0       0.0000000000     0.0000000000     0.0000000000
atom      0.0000000000     3.8165947803     3.8165947803   Al  0.0 0.0       0.0000000000    -0.0000000000    -0.0000000000
atom      3.8165947803    -0.0000000000     3.8165947803   Al  0.0 0.0      -0.0000000000     0.0000000000    -0.0000000000
atom      3.8165947803     3.8165947803    -0.0000000000   Al  0.0 0.0      -0.0000000000    -0.0000000000     0.0000000000
energy -79.0055702296
charge 0.0000
end
