begin
comment 2 atoms, species Mg2
lattice      6.0452957513    -0.0000000000     0.0000000000
lattice     -3.0226478756     5.2353796940    -0.0000000000
lattice      0.0000000000    -0.0000000000     9.7709647532
atom     -0.0000000000     3.4902531293     7.3282235649   Mg  0.0 0.0      -0.0000000000     0.0000000000     0.0000000000
atom      3.0226478756     1.7451265647     2.4427411883   Mg  0.0 0.0       0.0000000000    -0.0000000000    -0.0000000000
energy -33.6170353145
charge 0.0000
end
