begin
comment uuid: 2de31ede-4cd9-4681-ab6d-28c194209012 parent_uuid: 46939af9-eee4-4d42-a067-25e919f9bf55 trajectory_step: final_scf
lattice     13.5489774015     0.0000000013     0.0000000000
lattice     -6.7744886995    11.7337586240     0.0000000000
lattice      0.0000000000     0.0000000002    23.2039878050
atom      3.4575743862     7.9777193328     1.9251126749   Mg  0.0 0.0      -0.0000006402     0.0000009796    -0.0000015291
atom     -1.8632061362    10.7392464013     1.9251126919   Mg  0.0 0.0      -0.0000005282    -0.0000010441    -0.0000015291
atom     -1.5943684736     4.7505517409     1.9251126603   Mg  0.0 0.0       0.0000011684     0.0000000647    -0.0000015292
atom      2.9274506979     3.1822092294     5.8009970487   Mg  0.0 0.0       0.0000004197     0.0000013501     0.0000000000
atom      9.3293779864     0.9441422392     5.8009970487   Mg  0.0 0.0      -0.0000013791    -0.0000003115     0.0000000000
atom      8.0666372098     7.6074073741     5.8009970487   Mg  0.0 0.0       0.0000009592    -0.0000010386     0.0000000000
atom      3.4575743856     7.9777193330     9.6768814221   Mg  0.0 0.0      -0.0000006402     0.0000009796     0.0000015291
atom     -1.8632061360    10.7392464008     9.6768814052   Mg  0.0 0.0      -0.0000005282    -0.0000010441     0.0000015291
atom     -1.5943684732     4.7505517413     9.6768814368   Mg  0.0 0.0       0.0000011684     0.0000000647     0.0000015292
atom      3.3169141426     3.7560394808    13.5271065880   Mg  0.0 0.0       0.0000006402    -0.0000009797    -0.0000015292
atom      8.6376946554     0.9945123990    13.5271066005   Mg  0.0 0.0       0.0000005284     0.0000010442    -0.0000015292
atom      8.3688570081     6.9832070556    13.5271065600   Mg  0.0 0.0      -0.0000011684    -0.0000000646    -0.0000015291
atom      3.8470378506     8.5515495932    17.4029909513   Mg  0.0 0.0      -0.0000004197    -0.0000013500    -0.0000000000
atom     -2.5548894821    10.7896165676    17.4029909513   Mg  0.0 0.0       0.0000013790     0.0000003115    -0.0000000000
atom     -1.2921486682     4.1263514101    17.4029909513   Mg  0.0 0.0      -0.0000009594     0.0000010384    -0.0000000000
atom      3.3169141421     3.7560394810    21.2788753150   Mg  0.0 0.0       0.0000006403    -0.0000009797     0.0000015292
atom      8.6376946555     0.9945123986    21.2788753025   Mg  0.0 0.0       0.0000005284     0.0000010442     0.0000015292
atom      8.3688570085     6.9832070560    21.2788753429   Mg  0.0 0.0      -0.0000011684    -0.0000000646     0.0000015291
atom     -0.0000000687     0.0000000654     2.3188393387   Si  0.0 0.0      -0.0000000000     0.0000000001    -0.0000018020
atom      6.7744886205     3.9112529516     2.0789491952   Si  0.0 0.0       0.0000000000     0.0000000001     0.0000013284
atom     -0.0000000715     7.8225058113     5.8009970482   Si  0.0 0.0      -0.0000000002     0.0000000000     0.0000000000
atom     -0.0000000687     0.0000000654     9.2831547591   Si  0.0 0.0      -0.0000000000     0.0000000001     0.0000018020
atom     -0.0000001050     0.0000001104    13.9208331823   Si  0.0 0.0       0.0000000000    -0.0000000000    -0.0000018020
atom      6.7744886205     3.9112529516     9.5230449021   Si  0.0 0.0       0.0000000000     0.0000000001    -0.0000013284
atom     -0.0000000946     7.8225058519    13.6809431021   Si  0.0 0.0       0.0000000001    -0.0000000001     0.0000013285
atom     -0.0000001050     0.0000001104    20.8851487199   Si  0.0 0.0       0.0000000000    -0.0000000000     0.0000018021
atom      6.7744886077     3.9112529954    17.4029909518   Si  0.0 0.0      -0.0000000001    -0.0000000001    -0.0000000000
atom     -0.0000000946     7.8225058519    21.1250388007   Si  0.0 0.0       0.0000000001    -0.0000000001    -0.0000013285
energy -359.771880293
charge 0.0000
end
