begin
comment uuid: 2de31ede-4cd9-4681-ab6d-28c194209012 parent_uuid: 46939af9-eee4-4d42-a067-25e919f9bf55 trajectory_step: final_scf
lattice     13.5489774015     0.0000000013     0.0000000000
lattice     -6.7744886995    11.7337586240     0.0000000000
lattice      0.0000000000     0.0000000002    23.2039878050
atom      3.7941323295     7.4300181093     1.7214213287   Mg  0.0 0.0       0.0004256852    -0.0000510016     0.0002470911
atom     -1.5478231439    10.2078320105     1.6732671756   Mg  0.0 0.0       0.0003614421    -0.0000268238    -0.0000860394
atom     -1.2205070407     4.1874573146     1.7061049947   Mg  0.0 0.0      -0.0000887673    -0.0001288323    -0.0003581076
atom      3.2886266596     2.6191206555     5.5890088968   Mg  0.0 0.0      -0.0001999675     0.0000212306     0.0002181248
atom      9.6328287026     0.3909626093     5.5870702874   Mg  0.0 0.0       0.0004311649    -0.0000101351     0.0002214689
atom      8.4377430488     7.0464756111     5.5972611909   Mg  0.0 0.0      -0.0001532558    -0.0001544704     0.0001055388
atom      3.7957147330     7.3953899681     9.4170062090   Mg  0.0 0.0      -0.0001929476     0.0000038371     0.0000843731
atom     -1.5058317266    10.1946148501     9.4866047840   Mg  0.0 0.0       0.0002951087    -0.0002821916     0.0000120210
atom     -1.2183811059     4.1713957023     9.4483089253   Mg  0.0 0.0       0.0000276946     0.0006404477     0.0002846033
atom      3.7291894421     3.2438750792    13.3581199108   Mg  0.0 0.0      -0.0003761928    -0.0002467447    -0.0004560880
atom      9.0472377589     0.4696951330    13.3061497950   Mg  0.0 0.0      -0.0000665253    -0.0004288524    -0.0001824277
atom      8.7464469292     6.4747452669    13.2616910433   Mg  0.0 0.0       0.0002424666    -0.0001651594     0.0000086119
atom      4.2595753330     8.0557285072    17.1870796054   Mg  0.0 0.0       0.0000576931     0.0001724385     0.0004760953
atom     -2.1685326633    10.2287413574    17.1973454094   Mg  0.0 0.0       0.0000918917     0.0005925393     0.0001267987
atom     -0.9063322694     3.6286122027    17.1945338446   Mg  0.0 0.0      -0.0002042250    -0.0002421254     0.0002546664
atom      3.7152079678     3.2649300726    21.0155558802   Mg  0.0 0.0      -0.0002864237    -0.0006018358     0.0000498441
atom      9.0086588942     0.4737294559    21.0597492418   Mg  0.0 0.0       0.0004502922    -0.0002829931     0.0000237710
atom      8.7342048090     6.4615060974    21.1015411041   Mg  0.0 0.0       0.0003521777     0.0001894329    -0.0003876482
atom      0.3261477729    -0.5640874809     2.2388872648   Si  0.0 0.0       0.0001340362     0.0002289074    -0.0006830840
atom      7.1330933646     3.3637273423     1.8573155770   Si  0.0 0.0      -0.0005693483     0.0002097227     0.0001180009
atom      0.3247736738     7.2843412894     5.5783914957   Si  0.0 0.0       0.0001510346    -0.0004636743     0.0001976156
atom      0.3441208238    -0.5924684045     9.1596342702   Si  0.0 0.0      -0.0000702214     0.0004997299    -0.0002402097
atom      0.4135607552    -0.5080039798    13.7918563300   Si  0.0 0.0      -0.0001835968     0.0002888698     0.0001798916
atom      7.1328473822     3.3515955040     9.3011266227   Si  0.0 0.0       0.0001035596     0.0001908950     0.0004131288
atom      0.4010719851     7.2861076368    13.4638863988   Si  0.0 0.0      -0.0004086331     0.0003268642    -0.0004722823
atom      0.3921372257    -0.5054633709    20.7932343212   Si  0.0 0.0       0.0000692633     0.0003053329     0.0008314041
atom      7.1987568065     3.4139887997    17.1925604948   Si  0.0 0.0      -0.0002102510    -0.0005037015    -0.0007183123
atom      0.3820705710     7.3012158118    20.9126403111   Si  0.0 0.0      -0.0001831548    -0.0000817066    -0.0002688503
energy -359.771738239
charge 0.0000
end
