begin
comment 256 atoms, species Al255Mg
lattice     30.5327582425     0.0000000000     0.0000000000
lattice      0.0000000000    30.5327582425     0.0000000000
lattice      0.0000000000     0.0000000000    30.5327582425
atom     -0.0000000000    -0.0000000000    -0.0000000000   Mg  0.0 0.0       0.0000000000     0.0000000000     0.0000000000
atom     -0.0000000000     3.8612233915     3.8612233915   Al  0.0 0.0       0.0000000000    -0.0000004202    -0.0000004202
atom      3.8612233915    -0.0000000000     3.8612233915   Al  0.0 0.0      -0.0000004202     0.0000000000    -0.0000004202
atom      3.8612233915     3.8612233915    -0.0000000000   Al  0.0 0.0      -0.0000004202    -0.0000004202     0.0000000000
atom     -0.0000000000    -0.0000000000     7.6391290257   Al  0.0 0.0       0.0000000000     0.0000000000     0.0000014318
atom     -0.0000000000     3.8179950124    11.4609756196   Al  0.0 0.0       0.0000000000    -0.0000002022     0.0000002488
atom      3.8179950124    -0.0000000000    11.4609756196   Al  0.0 0.0      -0.0000002022     0.0000000000     0.0000002488
atom      3.8246226233     3.8246226233     7.6512518655   Al  0.0 0.0      -0.0000007708    -0.0000007708     0.0000012196
atom     -0.0000000000    -0.0000000000    15.2663791212   Al  0.0 0.0       0.0000000000     0.0000000000     0.0000000000
atom     -0.0000000000     3.8179950124    19.0717826229   Al  0.0 0.0       0.0000000000    -0.0000002022    -0.0000002488
atom      3.8179950124    -0.0000000000    19.0717826229   Al  0.0 0.0      -0.0000002022     0.0000000000    -0.0000002488
atom      3.8191685503     3.8191685503    15.2663791212   Al  0.0 0.0       0.0000012341     0.0000012341     0.0000000000
atom     -0.0000000000    -0.0000000000    22.8936292167   Al  0.0 0.0       0.0000000000     0.0000000000    -0.0000014317
atom     -0.0000000000     3.8612233915    26.6715348510   Al  0.0 0.0       0.0000000000    -0.0000004202     0.0000004202
atom      3.8612233915    -0.0000000000    26.6715348510   Al  0.0 0.0      -0.0000004202     0.0000000000     0.0000004202
atom      3.8246226233     3.8246226233    22.8815063770   Al  0.0 0.0      -0.0000007708    -0.0000007708    -0.0000012196
atom     -0.0000000000     7.6391290257    -0.0000000000   Al  0.0 0.0       0.0000000000     0.0000014318     0.0000000000
atom     -0.0000000000    11.4609756196     3.8179950124   Al  0.0 0.0       0.0000000000     0.0000002488    -0.0000002022
atom      3.8246226233     7.6512518655     3.8246226233   Al  0.0 0.0      -0.0000007708     0.0000012196    -0.0000007708
atom      3.8179950124    11.4609756196    -0.0000000000   Al  0.0 0.0      -0.0000002022     0.0000002488     0.0000000000
atom     -0.0000000000     7.6460301015     7.6460301015   Al  0.0 0.0       0.0000000000    -0.0000005492    -0.0000005492
atom     -0.0000000000    11.4534386731    11.4534386731   Al  0.0 0.0       0.0000000000     0.0000000046     0.0000000046
atom      3.8185747178     7.6375052563    11.4555433184   Al  0.0 0.0      -0.0000000011    -0.0000000020    -0.0000002490
atom      3.8185747178    11.4555433184     7.6375052563   Al  0.0 0.0      -0.0000000011    -0.0000002490    -0.0000000020
atom     -0.0000000000     7.6354524924    15.2663791212   Al  0.0 0.0       0.0000000000     0.0000009857     0.0000000000
atom     -0.0000000000    11.4534386731    19.0793195694   Al  0.0 0.0       0.0000000000     0.0000000046    -0.0000000046
atom      3.8185747178     7.6375052563    19.0772149241   Al  0.0 0.0      -0.0000000011    -0.0000000020     0.0000002490
atom      3.8175866972    11.4514847716    15.2663791212   Al  0.0 0.0      -0.0000009386     0.0000004115     0.0000000000
atom     -0.0000000000     7.6460301015    22.8867281410   Al  0.0 0.0       0.0000000000    -0.0000005492     0.0000005492
atom     -0.0000000000    11.4609756196    26.7147632301   Al  0.0 0.0       0.0000000000     0.0000002488     0.0000002022
atom      3.8246226233     7.6512518655    26.7081356192   Al  0.0 0.0      -0.0000007708     0.0000012196     0.0000007708
atom      3.8185747178    11.4555433184    22.8952529862   Al  0.0 0.0      -0.0000000011    -0.0000002490     0.0000000020
atom     -0.0000000000    15.2663791212    -0.0000000000   Al  0.0 0.0       0.0000000000     0.0000000000     0.0000000000
atom     -0.0000000000    19.0717826229     3.8179950124   Al  0.0 0.0       0.0000000000    -0.0000002488    -0.0000002022
atom      3.8191685503    15.2663791212     3.8191685503   Al  0.0 0.0       0.0000012341     0.0000000000     0.0000012341
atom      3.8179950124    19.0717826229    -0.0000000000   Al  0.0 0.0      -0.0000002022    -0.0000002488     0.0000000000
atom     -0.0000000000    15.2663791212     7.6354524924   Al  0.0 0.0       0.0000000000     0.0000000000     0.0000009857
atom     -0.0000000000    19.0793195694    11.4534386731   Al  0.0 0.0       0.0000000000    -0.0000000046     0.0000000046
atom      3.8175866972    15.2663791212    11.4514847716   Al  0.0 0.0      -0.0000009386     0.0000000000     0.0000004115
atom      3.8185747178    19.0772149241     7.6375052563   Al  0.0 0.0      -0.0000000011     0.0000002490    -0.0000000020
atom     -0.0000000000    15.2663791212    15.2663791212   Al  0.0 0.0       0.0000000000     0.0000000000     0.0000000000
atom     -0.0000000000    19.0793195694    19.0793195694   Al  0.0 0.0       0.0000000000    -0.0000000046    -0.0000000046
atom      3.8175866972    15.2663791212    19.0812734709   Al  0.0 0.0      -0.0000009386     0.0000000000    -0.0000004115
atom      3.8175866972    19.0812734709    15.2663791212   Al  0.0 0.0      -0.0000009386    -0.0000004115     0.0000000000
atom     -0.0000000000    15.2663791212    22.8973057501   Al  0.0 0.0       0.0000000000     0.0000000000    -0.0000009857
atom     -0.0000000000    19.0717826229    26.7147632301   Al  0.0 0.0       0.0000000000    -0.0000002488     0.0000002022
atom      3.8191685503    15.2663791212    26.7135896922   Al  0.0 0.0       0.0000012341     0.0000000000    -0.0000012341
atom      3.8185747178    19.0772149241    22.8952529862   Al  0.0 0.0      -0.0000000011     0.0000002490     0.0000000020
atom     -0.0000000000    22.8936292167    -0.0000000000   Al  0.0 0.0       0.0000000000    -0.0000014317     0.0000000000
atom     -0.0000000000    26.6715348510     3.8612233915   Al  0.0 0.0       0.0000000000     0.0000004202    -0.0000004202
atom      3.8246226233    22.8815063770     3.8246226233   Al  0.0 0.0      -0.0000007708    -0.0000012196    -0.0000007708
atom      3.8612233915    26.6715348510    -0.0000000000   Al  0.0 0.0      -0.0000004202     0.0000004202     0.0000000000
atom     -0.0000000000    22.8867281410     7.6460301015   Al  0.0 0.0       0.0000000000     0.0000005492    -0.0000005492
atom     -0.0000000000    26.7147632301    11.4609756196   Al  0.0 0.0       0.0000000000     0.0000002022     0.0000002488
atom      3.8185747178    22.8952529862    11.4555433184   Al  0.0 0.0      -0.0000000011     0.0000000020    -0.0000002490
atom      3.8246226233    26.7081356192     7.6512518655   Al  0.0 0.0      -0.0000007708     0.0000007708     0.0000012196
atom     -0.0000000000    22.8973057501    15.2663791212   Al  0.0 0.0       0.0000000000    -0.0000009857     0.0000000000
atom     -0.0000000000    26.7147632301    19.0717826229   Al  0.0 0.0       0.0000000000     0.0000002022    -0.0000002488
atom      3.8185747178    22.8952529862    19.0772149241   Al  0.0 0.0      -0.0000000011     0.0000000020     0.0000002490
atom      3.8191685503    26.7135896922    15.2663791212   Al  0.0 0.0       0.0000012341    -0.0000012341     0.0000000000
atom     -0.0000000000    22.8867281410    22.8867281410   Al  0.0 0.0       0.0000000000     0.0000005492     0.0000005492
atom     -0.0000000000    26.6715348510    26.6715348510   Al  0.0 0.0       0.0000000000     0.0000004202     0.0000004202
atom      3.8246226233    22.8815063770    26.7081356192   Al  0.0 0.0      -0.0000007708    -0.0000012196     0.0000007708
atom      3.8246226233    26.7081356192    22.8815063770   Al  0.0 0.0      -0.0000007708     0.0000007708    -0.0000012196
atom      7.6391290257    -0.0000000000    -0.0000000000   Al  0.0 0.0       0.0000014318     0.0000000000     0.0000000000
atom      7.6512518655     3.8246226233     3.8246226233   Al  0.0 0.0       0.0000012196    -0.0000007708    -0.0000007708
atom     11.4609756196    -0.0000000000     3.8179950124   Al  0.0 0.0       0.0000002488     0.0000000000    -0.0000002022
atom     11.4609756196     3.8179950124    -0.0000000000   Al  0.0 0.0       0.0000002488    -0.0000002022     0.0000000000
atom      7.6460301015    -0.0000000000     7.6460301015   Al  0.0 0.0      -0.0000005492     0.0000000000    -0.0000005492
atom      7.6375052563     3.8185747178    11.4555433184   Al  0.0 0.0      -0.0000000020    -0.0000000011    -0.0000002490
atom     11.4534386731    -0.0000000000    11.4534386731   Al  0.0 0.0       0.0000000046     0.0000000000     0.0000000046
atom     11.4555433184     3.8185747178     7.6375052563   Al  0.0 0.0      -0.0000002490    -0.0000000011    -0.0000000020
atom      7.6354524924    -0.0000000000    15.2663791212   Al  0.0 0.0       0.0000009857     0.0000000000     0.0000000000
atom      7.6375052563     3.8185747178    19.0772149241   Al  0.0 0.0      -0.0000000020    -0.0000000011     0.0000002490
atom     11.4534386731    -0.0000000000    19.0793195694   Al  0.0 0.0       0.0000000046     0.0000000000    -0.0000000046
atom     11.4514847716     3.8175866972    15.2663791212   Al  0.0 0.0       0.0000004115    -0.0000009386     0.0000000000
atom      7.6460301015    -0.0000000000    22.8867281410   Al  0.0 0.0      -0.0000005492     0.0000000000     0.0000005492
atom      7.6512518655     3.8246226233    26.7081356192   Al  0.0 0.0       0.0000012196    -0.0000007708     0.0000007708
atom     11.4609756196    -0.0000000000    26.7147632301   Al  0.0 0.0       0.0000002488     0.0000000000     0.0000002022
atom     11.4555433184     3.8185747178    22.8952529862   Al  0.0 0.0      -0.0000002490    -0.0000000011     0.0000000020
atom      7.6460301015     7.6460301015    -0.0000000000   Al  0.0 0.0      -0.0000005492    -0.0000005492     0.0000000000
atom      7.6375052563    11.4555433184     3.8185747178   Al  0.0 0.0      -0.0000000020    -0.0000002490    -0.0000000011
atom     11.4555433184     7.6375052563     3.8185747178   Al  0.0 0.0      -0.0000002490    -0.0000000020    -0.0000000011
atom     11.4534386731    11.4534386731    -0.0000000000   Al  0.0 0.0       0.0000000046     0.0000000046     0.0000000000
atom      7.6379705641     7.6379705641     7.6379705641   Al  0.0 0.0       0.0000003112     0.0000003112     0.0000003112
atom      7.6343850773    11.4509221659    11.4509221659   Al  0.0 0.0      -0.0000001962     0.0000001242     0.0000001242
atom     11.4509221659     7.6343850773    11.4509221659   Al  0.0 0.0       0.0000001242    -0.0000001962     0.0000001242
atom     11.4509221659    11.4509221659     7.6343850773   Al  0.0 0.0       0.0000001242     0.0000001242    -0.0000001962
atom      7.6347920126     7.6347920126    15.2663791212   Al  0.0 0.0       0.0000003919     0.0000003919     0.0000000000
atom      7.6343850773    11.4509221659    19.0818360766   Al  0.0 0.0      -0.0000001962     0.0000001242    -0.0000001242
atom     11.4509221659     7.6343850773    19.0818360766   Al  0.0 0.0       0.0000001242    -0.0000001962    -0.0000001242
atom     11.4501447288    11.4501447288    15.2663791212   Al  0.0 0.0       0.0000001186     0.0000001186     0.0000000000
atom      7.6379705641     7.6379705641    22.8947876784   Al  0.0 0.0       0.0000003112     0.0000003112    -0.0000003112
atom      7.6375052563    11.4555433184    26.7141835247   Al  0.0 0.0      -0.0000000020    -0.0000002490     0.0000000011
atom     11.4555433184     7.6375052563    26.7141835247   Al  0.0 0.0      -0.0000002490    -0.0000000020     0.0000000011
atom     11.4509221659    11.4509221659    22.8983731652   Al  0.0 0.0       0.0000001242     0.0000001242     0.0000001962
atom      7.6354524924    15.2663791212    -0.0000000000   Al  0.0 0.0       0.0000009857     0.0000000000     0.0000000000
atom      7.6375052563    19.0772149241     3.8185747178   Al  0.0 0.0      -0.0000000020     0.0000002490    -0.0000000011
atom     11.4514847716    15.2663791212     3.8175866972   Al  0.0 0.0       0.0000004115     0.0000000000    -0.0000009386
atom     11.4534386731    19.0793195694    -0.0000000000   Al  0.0 0.0       0.0000000046    -0.0000000046     0.0000000000
atom      7.6347920126    15.2663791212     7.6347920126   Al  0.0 0.0       0.0000003919     0.0000000000     0.0000003919
atom      7.6343850773    19.0818360766    11.4509221659   Al  0.0 0.0      -0.0000001962    -0.0000001242     0.0000001242
atom     11.4501447288    15.2663791212    11.4501447288   Al  0.0 0.0       0.0000001186     0.0000000000     0.0000001186
atom     11.4509221659    19.0818360766     7.6343850773   Al  0.0 0.0       0.0000001242    -0.0000001242    -0.0000001962
atom      7.6341652526    15.2663791212    15.2663791212   Al  0.0 0.0      -0.0000005133     0.0000000000     0.0000000000
atom      7.6343850773    19.0818360766    19.0818360766   Al  0.0 0.0      -0.0000001962    -0.0000001242    -0.0000001242
atom     11.4501447288    15.2663791212    19.0826135137   Al  0.0 0.0       0.0000001186     0.0000000000    -0.0000001186
atom     11.4501447288    19.0826135137    15.2663791212   Al  0.0 0.0       0.0000001186    -0.0000001186     0.0000000000
atom      7.6347920126    15.2663791212    22.8979662299   Al  0.0 0.0       0.0000003919     0.0000000000    -0.0000003919
atom      7.6375052563    19.0772149241    26.7141835247   Al  0.0 0.0      -0.0000000020     0.0000002490     0.0000000011
atom     11.4514847716    15.2663791212    26.7151715453   Al  0.0 0.0       0.0000004115     0.0000000000     0.0000009386
atom     11.4509221659    19.0818360766    22.8983731652   Al  0.0 0.0       0.0000001242    -0.0000001242     0.0000001962
atom      7.6460301015    22.8867281410    -0.0000000000   Al  0.0 0.0      -0.0000005492     0.0000005492     0.0000000000
atom      7.6512518655    26.7081356192     3.8246226233   Al  0.0 0.0       0.0000012196     0.0000007708    -0.0000007708
atom     11.4555433184    22.8952529862     3.8185747178   Al  0.0 0.0      -0.0000002490     0.0000000020    -0.0000000011
atom     11.4609756196    26.7147632301    -0.0000000000   Al  0.0 0.0       0.0000002488     0.0000002022     0.0000000000
atom      7.6379705641    22.8947876784     7.6379705641   Al  0.0 0.0       0.0000003112    -0.0000003112     0.0000003112
atom      7.6375052563    26.7141835247    11.4555433184   Al  0.0 0.0      -0.0000000020     0.0000000011    -0.0000002490
atom     11.4509221659    22.8983731652    11.4509221659   Al  0.0 0.0       0.0000001242     0.0000001962     0.0000001242
atom     11.4555433184    26.7141835247     7.6375052563   Al  0.0 0.0      -0.0000002490     0.0000000011    -0.0000000020
atom      7.6347920126    22.8979662299    15.2663791212   Al  0.0 0.0       0.0000003919    -0.0000003919     0.0000000000
atom      7.6375052563    26.7141835247    19.0772149241   Al  0.0 0.0      -0.0000000020     0.0000000011     0.0000002490
atom     11.4509221659    22.8983731652    19.0818360766   Al  0.0 0.0       0.0000001242     0.0000001962    -0.0000001242
atom     11.4514847716    26.7151715453    15.2663791212   Al  0.0 0.0       0.0000004115     0.0000009386     0.0000000000
atom      7.6379705641    22.8947876784    22.8947876784   Al  0.0 0.0       0.0000003112    -0.0000003112    -0.0000003112
atom      7.6512518655    26.7081356192    26.7081356192   Al  0.0 0.0       0.0000012196     0.0000007708     0.0000007708
atom     11.4555433184    22.8952529862    26.7141835247   Al  0.0 0.0      -0.0000002490     0.0000000020     0.0000000011
atom     11.4555433184    26.7141835247    22.8952529862   Al  0.0 0.0      -0.0000002490     0.0000000011     0.0000000020
atom     15.2663791212    -0.0000000000    -0.0000000000   Al  0.0 0.0       0.0000000000     0.0000000000     0.0000000000
atom     15.2663791212     3.8191685503     3.8191685503   Al  0.0 0.0       0.0000000000     0.0000012341     0.0000012341
atom     19.0717826229    -0.0000000000     3.8179950124   Al  0.0 0.0      -0.0000002488     0.0000000000    -0.0000002022
atom     19.0717826229     3.8179950124    -0.0000000000   Al  0.0 0.0      -0.0000002488    -0.0000002022     0.0000000000
atom     15.2663791212    -0.0000000000     7.6354524924   Al  0.0 0.0       0.0000000000     0.0000000000     0.0000009857
atom     15.2663791212     3.8175866972    11.4514847716   Al  0.0 0.0       0.0000000000    -0.0000009386     0.0000004115
atom     19.0793195694    -0.0000000000    11.4534386731   Al  0.0 0.0      -0.0000000046     0.0000000000     0.0000000046
atom     19.0772149241     3.8185747178     7.6375052563   Al  0.0 0.0       0.0000002490    -0.0000000011    -0.0000000020
atom     15.2663791212    -0.0000000000    15.2663791212   Al  0.0 0.0       0.0000000000     0.0000000000     0.0000000000
atom     15.2663791212     3.8175866972    19.0812734709   Al  0.0 0.0       0.0000000000    -0.0000009386    -0.0000004115
atom     19.0793195694    -0.0000000000    19.0793195694   Al  0.0 0.0      -0.0000000046     0.0000000000    -0.0000000046
atom     19.0812734709     3.8175866972    15.2663791212   Al  0.0 0.0      -0.0000004115    -0.0000009386     0.0000000000
atom     15.2663791212    -0.0000000000    22.8973057501   Al  0.0 0.0       0.0000000000     0.0000000000    -0.0000009857
atom     15.2663791212     3.8191685503    26.7135896922   Al  0.0 0.0       0.0000000000     0.0000012341    -0.0000012341
atom     19.0717826229    -0.0000000000    26.7147632301   Al  0.0 0.0      -0.0000002488     0.0000000000     0.0000002022
atom     19.0772149241     3.8185747178    22.8952529862   Al  0.0 0.0       0.0000002490    -0.0000000011     0.0000000020
atom     15.2663791212     7.6354524924    -0.0000000000   Al  0.0 0.0       0.0000000000     0.0000009857     0.0000000000
atom     15.2663791212    11.4514847716     3.8175866972   Al  0.0 0.0       0.0000000000     0.0000004115    -0.0000009386
atom     19.0772149241     7.6375052563     3.8185747178   Al  0.0 0.0       0.0000002490    -0.0000000020    -0.0000000011
atom     19.0793195694    11.4534386731    -0.0000000000   Al  0.0 0.0      -0.0000000046     0.0000000046     0.0000000000
atom     15.2663791212     7.6347920126     7.6347920126   Al  0.0 0.0       0.0000000000     0.0000003919     0.0000003919
atom     15.2663791212    11.4501447288    11.4501447288   Al  0.0 0.0       0.0000000000     0.0000001186     0.0000001186
atom     19.0818360766     7.6343850773    11.4509221659   Al  0.0 0.0      -0.0000001242    -0.0000001962     0.0000001242
atom     19.0818360766    11.4509221659     7.6343850773   Al  0.0 0.0      -0.0000001242     0.0000001242    -0.0000001962
atom     15.2663791212     7.6341652526    15.2663791212   Al  0.0 0.0       0.0000000000    -0.0000005133     0.0000000000
atom     15.2663791212    11.4501447288    19.0826135137   Al  0.0 0.0       0.0000000000     0.0000001186    -0.0000001186
atom     19.0818360766     7.6343850773    19.0818360766   Al  0.0 0.0      -0.0000001242    -0.0000001962    -0.0000001242
atom     19.0826135137    11.4501447288    15.2663791212   Al  0.0 0.0      -0.0000001186     0.0000001186     0.0000000000
atom     15.2663791212     7.6347920126    22.8979662299   Al  0.0 0.0       0.0000000000     0.0000003919    -0.0000003919
atom     15.2663791212    11.4514847716    26.7151715453   Al  0.0 0.0       0.0000000000     0.0000004115     0.0000009386
atom     19.0772149241     7.6375052563    26.7141835247   Al  0.0 0.0       0.0000002490    -0.0000000020     0.0000000011
atom     19.0818360766    11.4509221659    22.8983731652   Al  0.0 0.0      -0.0000001242     0.0000001242     0.0000001962
atom     15.2663791212    15.2663791212    -0.0000000000   Al  0.0 0.0       0.0000000000     0.0000000000     0.0000000000
atom     15.2663791212    19.0812734709     3.8175866972   Al  0.0 0.0       0.0000000000    -0.0000004115    -0.0000009386
atom     19.0812734709    15.2663791212     3.8175866972   Al  0.0 0.0      -0.0000004115     0.0000000000    -0.0000009386
atom     19.0793195694    19.0793195694    -0.0000000000   Al  0.0 0.0      -0.0000000046    -0.0000000046     0.0000000000
atom     15.2663791212    15.2663791212     7.6341652526   Al  0.0 0.0       0.0000000000     0.0000000000    -0.0000005133
atom     15.2663791212    19.0826135137    11.4501447288   Al  0.0 0.0       0.0000000000    -0.0000001186     0.0000001186
atom     19.0826135137    15.2663791212    11.4501447288   Al  0.0 0.0      -0.0000001186     0.0000000000     0.0000001186
atom     19.0818360766    19.0818360766     7.6343850773   Al  0.0 0.0      -0.0000001242    -0.0000001242    -0.0000001962
atom     15.2663791212    15.2663791212    15.2663791212   Al  0.0 0.0       0.0000000000     0.0000000000     0.0000000000
atom     15.2663791212    19.0826135137    19.0826135137   Al  0.0 0.0       0.0000000000    -0.0000001186    -0.0000001186
atom     19.0826135137    15.2663791212    19.0826135137   Al  0.0 0.0      -0.0000001186     0.0000000000    -0.0000001186
atom     19.0826135137    19.0826135137    15.2663791212   Al  0.0 0.0      -0.0000001186    -0.0000001186     0.0000000000
atom     15.2663791212    15.2663791212    22.8985929899   Al  0.0 0.0       0.0000000000     0.0000000000     0.0000005133
atom     15.2663791212    19.0812734709    26.7151715453   Al  0.0 0.0       0.0000000000    -0.0000004115     0.0000009386
atom     19.0812734709    15.2663791212    26.7151715453   Al  0.0 0.0      -0.0000004115     0.0000000000     0.0000009386
atom     19.0818360766    19.0818360766    22.8983731652   Al  0.0 0.0      -0.0000001242    -0.0000001242     0.0000001962
atom     15.2663791212    22.8973057501    -0.0000000000   Al  0.0 0.0       0.0000000000    -0.0000009857     0.0000000000
atom     15.2663791212    26.7135896922     3.8191685503   Al  0.0 0.0       0.0000000000    -0.0000012341     0.0000012341
atom     19.0772149241    22.8952529862     3.8185747178   Al  0.0 0.0       0.0000002490     0.0000000020    -0.0000000011
atom     19.0717826229    26.7147632301    -0.0000000000   Al  0.0 0.0      -0.0000002488     0.0000002022     0.0000000000
atom     15.2663791212    22.8979662299     7.6347920126   Al  0.0 0.0       0.0000000000    -0.0000003919     0.0000003919
atom     15.2663791212    26.7151715453    11.4514847716   Al  0.0 0.0       0.0000000000     0.0000009386     0.0000004115
atom     19.0818360766    22.8983731652    11.4509221659   Al  0.0 0.0      -0.0000001242     0.0000001962     0.0000001242
atom     19.0772149241    26.7141835247     7.6375052563   Al  0.0 0.0       0.0000002490     0.0000000011    -0.0000000020
atom     15.2663791212    22.8985929899    15.2663791212   Al  0.0 0.0       0.0000000000     0.0000005133     0.0000000000
atom     15.2663791212    26.7151715453    19.0812734709   Al  0.0 0.0       0.0000000000     0.0000009386    -0.0000004115
atom     19.0818360766    22.8983731652    19.0818360766   Al  0.0 0.0      -0.0000001242     0.0000001962    -0.0000001242
atom     19.0812734709    26.7151715453    15.2663791212   Al  0.0 0.0      -0.0000004115     0.0000009386     0.0000000000
atom     15.2663791212    22.8979662299    22.8979662299   Al  0.0 0.0       0.0000000000    -0.0000003919    -0.0000003919
atom     15.2663791212    26.7135896922    26.7135896922   Al  0.0 0.0       0.0000000000    -0.0000012341    -0.0000012341
atom     19.0772149241    22.8952529862    26.7141835247   Al  0.0 0.0       0.0000002490     0.0000000020     0.0000000011
atom     19.0772149241    26.7141835247    22.8952529862   Al  0.0 0.0       0.0000002490     0.0000000011     0.0000000020
atom     22.8936292167    -0.0000000000    -0.0000000000   Al  0.0 0.0      -0.0000014317     0.0000000000     0.0000000000
atom     22.8815063770     3.8246226233     3.8246226233   Al  0.0 0.0      -0.0000012196    -0.0000007708    -0.0000007708
atom     26.6715348510    -0.0000000000     3.8612233915   Al  0.0 0.0       0.0000004202     0.0000000000    -0.0000004202
atom     26.6715348510     3.8612233915    -0.0000000000   Al  0.0 0.0       0.0000004202    -0.0000004202     0.0000000000
atom     22.8867281410    -0.0000000000     7.6460301015   Al  0.0 0.0       0.0000005492     0.0000000000    -0.0000005492
atom     22.8952529862     3.8185747178    11.4555433184   Al  0.0 0.0       0.0000000020    -0.0000000011    -0.0000002490
atom     26.7147632301    -0.0000000000    11.4609756196   Al  0.0 0.0       0.0000002022     0.0000000000     0.0000002488
atom     26.7081356192     3.8246226233     7.6512518655   Al  0.0 0.0       0.0000007708    -0.0000007708     0.0000012196
atom     22.8973057501    -0.0000000000    15.2663791212   Al  0.0 0.0      -0.0000009857     0.0000000000     0.0000000000
atom     22.8952529862     3.8185747178    19.0772149241   Al  0.0 0.0       0.0000000020    -0.0000000011     0.0000002490
atom     26.7147632301    -0.0000000000    19.0717826229   Al  0.0 0.0       0.0000002022     0.0000000000    -0.0000002488
atom     26.7135896922     3.8191685503    15.2663791212   Al  0.0 0.0      -0.0000012341     0.0000012341     0.0000000000
atom     22.8867281410    -0.0000000000    22.8867281410   Al  0.0 0.0       0.0000005492     0.0000000000     0.0000005492
atom     22.8815063770     3.8246226233    26.7081356192   Al  0.0 0.0      -0.0000012196    -0.0000007708     0.0000007708
atom     26.6715348510    -0.0000000000    26.6715348510   Al  0.0 0.0       0.0000004202     0.0000000000     0.0000004202
atom     26.7081356192     3.8246226233    22.8815063770   Al  0.0 0.0       0.0000007708    -0.0000007708    -0.0000012196
atom     22.8867281410     7.6460301015    -0.0000000000   Al  0.0 0.0       0.0000005492    -0.0000005492     0.0000000000
atom     22.8952529862    11.4555433184     3.8185747178   Al  0.0 0.0       0.0000000020    -0.0000002490    -0.0000000011
atom     26.7081356192     7.6512518655     3.8246226233   Al  0.0 0.0       0.0000007708     0.0000012196    -0.0000007708
atom     26.7147632301    11.4609756196    -0.0000000000   Al  0.0 0.0       0.0000002022     0.0000002488     0.0000000000
atom     22.8947876784     7.6379705641     7.6379705641   Al  0.0 0.0      -0.0000003112     0.0000003112     0.0000003112
atom     22.8983731652    11.4509221659    11.4509221659   Al  0.0 0.0       0.0000001962     0.0000001242     0.0000001242
atom     26.7141835247     7.6375052563    11.4555433184   Al  0.0 0.0       0.0000000011    -0.0000000020    -0.0000002490
atom     26.7141835247    11.4555433184     7.6375052563   Al  0.0 0.0       0.0000000011    -0.0000002490    -0.0000000020
atom     22.8979662299     7.6347920126    15.2663791212   Al  0.0 0.0      -0.0000003919     0.0000003919     0.0000000000
atom     22.8983731652    11.4509221659    19.0818360766   Al  0.0 0.0       0.0000001962     0.0000001242    -0.0000001242
atom     26.7141835247     7.6375052563    19.0772149241   Al  0.0 0.0       0.0000000011    -0.0000000020     0.0000002490
atom     26.7151715453    11.4514847716    15.2663791212   Al  0.0 0.0       0.0000009386     0.0000004115     0.0000000000
atom     22.8947876784     7.6379705641    22.8947876784   Al  0.0 0.0      -0.0000003112     0.0000003112    -0.0000003112
atom     22.8952529862    11.4555433184    26.7141835247   Al  0.0 0.0       0.0000000020    -0.0000002490     0.0000000011
atom     26.7081356192     7.6512518655    26.7081356192   Al  0.0 0.0       0.0000007708     0.0000012196     0.0000007708
atom     26.7141835247    11.4555433184    22.8952529862   Al  0.0 0.0       0.0000000011    -0.0000002490     0.0000000020
atom     22.8973057501    15.2663791212    -0.0000000000   Al  0.0 0.0      -0.0000009857     0.0000000000     0.0000000000
atom     22.8952529862    19.0772149241     3.8185747178   Al  0.0 0.0       0.0000000020     0.0000002490    -0.0000000011
atom     26.7135896922    15.2663791212     3.8191685503   Al  0.0 0.0      -0.0000012341     0.0000000000     0.0000012341
atom     26.7147632301    19.0717826229    -0.0000000000   Al  0.0 0.0       0.0000002022    -0.0000002488     0.0000000000
atom     22.8979662299    15.2663791212     7.6347920126   Al  0.0 0.0      -0.0000003919     0.0000000000     0.0000003919
atom     22.8983731652    19.0818360766    11.4509221659   Al  0.0 0.0       0.0000001962    -0.0000001242     0.0000001242
atom     26.7151715453    15.2663791212    11.4514847716   Al  0.0 0.0       0.0000009386     0.0000000000     0.0000004115
atom     26.7141835247    19.0772149241     7.6375052563   Al  0.0 0.0       0.0000000011     0.0000002490    -0.0000000020
atom     22.8985929899    15.2663791212    15.2663791212   Al  0.0 0.0       0.0000005133     0.0000000000     0.0000000000
atom     22.8983731652    19.0818360766    19.0818360766   Al  0.0 0.0       0.0000001962    -0.0000001242    -0.0000001242
atom     26.7151715453    15.2663791212    19.0812734709   Al  0.0 0.0       0.0000009386     0.0000000000    -0.0000004115
atom     26.7151715453    19.0812734709    15.2663791212   Al  0.0 0.0       0.0000009386    -0.0000004115     0.0000000000
atom     22.8979662299    15.2663791212    22.8979662299   Al  0.0 0.0      -0.0000003919     0.0000000000    -0.0000003919
atom     22.8952529862    19.0772149241    26.7141835247   Al  0.0 0.0       0.0000000020     0.0000002490     0.0000000011
atom     26.7135896922    15.2663791212    26.7135896922   Al  0.0 0.0      -0.0000012341     0.0000000000    -0.0000012341
atom     26.7141835247    19.0772149241    22.8952529862   Al  0.0 0.0       0.0000000011     0.0000002490     0.0000000020