begin
comment uuid: 2de31ede-4cd9-4681-ab6d-28c194209012 parent_uuid: 46939af9-eee4-4d42-a067-25e919f9bf55 trajectory_step: final_scf
lattice     13.5489774015     0.0000000013     0.0000000000
lattice     -6.7744886995    11.7337586240     0.0000000000
lattice      0.0000000000     0.0000000002    23.2039878050
atom      4.8748082815     8.7455103779     2.2008543075   Mg  0.0 0.0      -0.0000648290    -0.0006326437    -0.0003600466
atom     -1.4687456749    10.9734465717     2.1705666217   Mg  0.0 0.0       0.0001546440    -0.0005951083    -0.0000625847
atom     -0.1966348234     4.3912162018     2.1752561410   Mg  0.0 0.0       0.0001072082     0.0000570200     0.0002782943
atom      4.3100710272     3.9750087136     6.1639518381   Mg  0.0 0.0       0.0002258635    -0.0004568282    -0.0001023820
atom      9.7179503254     1.1712798949     6.1677924441   Mg  0.0 0.0       0.0004566341    -0.0001401695     0.0003673776
atom      9.4309937636     7.2472342833     6.1373036996   Mg  0.0 0.0       0.0000831624     0.0001785245     0.0004158301
atom      4.4808818989     8.2547697816    10.0490772924   Mg  0.0 0.0       0.0004619813     0.0000361102    -0.0005294017
atom     -0.9322930083    10.9098124740    10.0343624025   Mg  0.0 0.0       0.0003531378    -0.0000571123     0.0003710968
atom     -0.4804934590     4.9818767086    10.0127272679   Mg  0.0 0.0       0.0002214249     0.0000981321     0.0000017447
atom      4.3807575366     3.9892875807    13.8937247627   Mg  0.0 0.0       0.0001502582    -0.0002523997    -0.0001836564
atom      9.7356576854     1.1273282497    13.7883909889   Mg  0.0 0.0       0.0001175695     0.0005628946     0.0004286673
atom      9.5258834928     7.1327061308    13.9256723760   Mg  0.0 0.0      -0.0005043448     0.0002538110    -0.0001850630
atom      4.9871408806     8.8452536695    17.7719805678   Mg  0.0 0.0       0.0002015481    -0.0000384236     0.0000243777
atom     -1.5179678186    10.9694104877    17.7960333419   Mg  0.0 0.0      -0.0002898103    -0.0001926413    -0.0004570815
atom     -0.1224968992     4.1598901098    17.7824869234   Mg  0.0 0.0      -0.0004299978     0.0000207847    -0.0001412997
atom      4.4242983615     4.0075546833    21.5771093853   Mg  0.0 0.0      -0.0000002045     0.0006184566     0.0003488712
atom      9.6780720632     1.1305798916    21.6458935952   Mg  0.0 0.0      -0.0004805107     0.0001611803    -0.0005018384
atom      9.5324187263     7.0989731882    21.5724968755   Mg  0.0 0.0       0.0001714356     0.0002771932     0.0002252896
atom      1.0598460498     0.2196147505     5.1787307076   Si  0.0 0.0       0.0000327973     0.0000820661    -0.0002251290
atom      7.8445125091     4.1242302761     2.2735788969   Si  0.0 0.0      -0.0001906867    -0.0004279932     0.0005079264
atom      1.0478947611     8.0462507438     6.0064654383   Si  0.0 0.0      -0.0000821531     0.0003426098     0.0004385944
atom      0.9848372890     0.2531226071     9.7234918671   Si  0.0 0.0       0.0000139973    -0.0002579064    -0.0006689943
atom      1.1240751316     0.1525326596    14.3420189262   Si  0.0 0.0       0.0001509295     0.0002624981    -0.0004938426
atom      7.8228995751     4.1368262602     9.9994543436   Si  0.0 0.0      -0.0002240608     0.0000441306     0.0000869197
atom      1.0892757222     8.0194163049    14.0338725439   Si  0.0 0.0      -0.0002710550    -0.0004804041    -0.0002663626
atom      1.1092683133     0.1587720816    21.5295331220   Si  0.0 0.0      -0.0000897475     0.0004573571     0.0001768633
atom      7.8991884287     4.0454340856    17.7353582762   Si  0.0 0.0      -0.0002724190    -0.0001042613    -0.0000788167
atom      1.1001410612     7.9928457858    21.5527027683   Si  0.0 0.0      -0.0000027725     0.0001831224     0.0005846461
energy -359.77483581
charge 0.0000
end
