begin
comment 8 atoms, species Si8
lattice     10.3364688362     0.0000000000     0.0000000000
lattice      0.0000000000    10.3364688362     0.0000000000
lattice      0.0000000000     0.0000000000    10.3364688362
atom      0.0000000000     0.0000000000     0.0000000000   Si  0.0 0.0      -0.0000000000    -0.0000000000    -0.0000000000
atom      0.0000000000     5.1682344181     5.1682344181   Si  0.0 0.0      -0.0000000000     0.0000000000     0.0000000000
atom      5.1682344181     5.1682344181     0.0000000000   Si  0.0 0.0       0.0000000000     0.0000000000    -0.0000000000
atom      5.1682344181     0.0000000000     5.1682344181   Si  0.0 0.0       0.0000000000    -0.0000000000     0.0000000000
atom      7.7523516271     2.5841172090     7.7523516271   Si  0.0 0.0       0.0000000000    -0.0000000000     0.0000000000
atom      2.5841172090     2.5841172090     2.5841172090   Si  0.0 0.0      -0.0000000000    -0.0000000000    -0.0000000000
atom      2.5841172090     7.7523516271     7.7523516271   Si  0.0 0.0      -0.0000000000     0.0000000000     0.0000000000
atom      7.7523516271     7.7523516271     2.5841172090   Si  0.0 0.0       0.0000000000     0.0000000000    -0.0000000000
energy -45.6793088359
charge 0.0000
end
