begin
comment 108 atoms, species Al107Si
lattice     22.9236428352     0.0000000000     0.0000000000
lattice      0.0000000000    22.9236428352    -0.0000000000
lattice      0.0000000000    -0.0000000000    22.9236428352
atom      0.0000000000     0.0000000000     0.0000000000   Si  0.0 0.0   -7.08247181e-13 -6.96229964e-13 -6.86953648e-13
atom      0.0000000000     3.7958450957     3.7958450957   Al  0.0 0.0   -1.15806159e-12  2.61243066e-08  2.61243053e-08
atom      3.7958450957     0.0000000000     3.7958450957   Al  0.0 0.0    2.61243045e-08 -1.14632604e-12  2.61243087e-08
atom      3.7958450957     3.7958450957     0.0000000000   Al  0.0 0.0    2.61243089e-08  2.61243095e-08 -1.12832857e-12
atom     -0.0000000000    -0.0000000000     7.6317530335   Al  0.0 0.0    9.54917507e-13  9.88551033e-13 -8.22377032e-07
atom      0.0000000000     3.8166801468    11.4618214176   Al  0.0 0.0   -1.21939560e-12  1.50689212e-06  5.55572629e-14
atom      3.8166801468    -0.0000000000    11.4618214176   Al  0.0 0.0    1.50689239e-06 -8.96857221e-13  4.56247647e-14
atom      3.8178592355     3.8178592355     7.6365178482   Al  0.0 0.0   -7.04060870e-07 -7.04060876e-07 -6.96372306e-08
atom     -0.0000000000    -0.0000000000    15.2918898016   Al  0.0 0.0    9.56305770e-13  9.85656840e-13  8.22376981e-07
atom      0.0000000000     3.7958450957    19.1277977395   Al  0.0 0.0   -1.16597447e-12  2.61237944e-08 -2.61237296e-08
atom      3.7958450957     0.0000000000    19.1277977395   Al  0.0 0.0    2.61237929e-08 -1.13935467e-12 -2.61237479e-08
atom      3.8178592355     3.8178592355    15.2871249870   Al  0.0 0.0   -7.04060850e-07 -7.04060856e-07  6.96372745e-08
atom     -0.0000000000     7.6317530335    -0.0000000000   Al  0.0 0.0    9.50752719e-13 -8.22377033e-07  9.96442721e-13
atom      0.0000000000    11.4618214176     3.8166801468   Al  0.0 0.0   -1.22049455e-12  5.26247796e-14  1.50689213e-06
atom      3.8178592355     7.6365178482     3.8178592355   Al  0.0 0.0   -7.04060884e-07 -6.96372216e-08 -7.04060869e-07
atom      3.8166801468    11.4618214176    -0.0000000000   Al  0.0 0.0    1.50689239e-06  5.81712212e-14 -8.83968138e-13
atom     -0.0000000000     7.6332729029     7.6332729029   Al  0.0 0.0    1.01493450e-12 -9.03955898e-08 -9.03955973e-08
atom      0.0000000000    11.4618214176    11.4618214176   Al  0.0 0.0    1.09918025e-12  4.18916180e-14  4.02501050e-14
atom      3.8183357621     7.6391417728    11.4618214176   Al  0.0 0.0   -1.85467867e-07 -4.20410157e-07  4.33506205e-14
atom      3.8183357621    11.4618214176     7.6391417728   Al  0.0 0.0   -1.85467865e-07  5.05161038e-14 -4.20410163e-07
atom     -0.0000000000     7.6332729029    15.2903699323   Al  0.0 0.0    9.96731636e-13 -9.03955731e-08  9.03954326e-08
atom      0.0000000000    11.4618214176    19.1069626884   Al  0.0 0.0   -6.20812536e-13  5.28274932e-14 -1.50689271e-06
atom      3.8178592355     7.6365178482    19.1057835997   Al  0.0 0.0   -7.04060845e-07 -6.96372582e-08  7.04060872e-07
atom      3.8183357621    11.4618214176    15.2845010624   Al  0.0 0.0   -1.85467877e-07  5.38992423e-14  4.20410256e-07
atom     -0.0000000000    15.2918898016    -0.0000000000   Al  0.0 0.0    9.55230568e-13  8.22376983e-07  9.91976604e-13
atom      0.0000000000    19.1277977395     3.7958450957   Al  0.0 0.0   -1.16642139e-12 -2.61237289e-08  2.61237968e-08
atom      3.8178592355    15.2871249870     3.8178592355   Al  0.0 0.0   -7.04060843e-07  6.96372773e-08 -7.04060852e-07
atom      3.7958450957    19.1277977395     0.0000000000   Al  0.0 0.0    2.61237865e-08 -2.61237436e-08 -1.12834416e-12
atom     -0.0000000000    15.2903699323     7.6332729029   Al  0.0 0.0    9.98536593e-13  9.03954410e-08 -9.03955762e-08
atom      0.0000000000    19.1069626884    11.4618214176   Al  0.0 0.0   -6.15831631e-13 -1.50689271e-06  5.12233940e-14
atom      3.8183357621    15.2845010624    11.4618214176   Al  0.0 0.0   -1.85467874e-07  4.20410264e-07  5.04586324e-14
atom      3.8178592355    19.1057835997     7.6365178482   Al  0.0 0.0   -7.04060851e-07  7.04060868e-07 -6.96372558e-08
atom      0.0000000000    15.2903699323    15.2903699323   Al  0.0 0.0    9.81763011e-13  9.03954272e-08  9.03954237e-08
atom      0.0000000000    19.1277977395    19.1277977395   Al  0.0 0.0   -1.17340588e-12 -2.61232176e-08 -2.61232187e-08
atom      3.8178592355    15.2871249870    19.1057835997   Al  0.0 0.0   -7.04060824e-07  6.96373059e-08  7.04060847e-07
atom      3.8178592355    19.1057835997    15.2871249870   Al  0.0 0.0   -7.04060827e-07  7.04060845e-07  6.96372987e-08
atom      7.6317530335    -0.0000000000    -0.0000000000   Al  0.0 0.0   -8.22377024e-07  9.46997220e-13  1.00083509e-12
atom      7.6365178482     3.8178592355     3.8178592355   Al  0.0 0.0   -6.96369193e-08 -7.04060883e-07 -7.04061145e-07
atom     11.4618214176    -0.0000000000     3.8166801468   Al  0.0 0.0    6.06808327e-14 -5.99235941e-13  1.50689212e-06
atom     11.4618214176     3.8166801468    -0.0000000000   Al  0.0 0.0    5.98356360e-14  1.50689239e-06  1.10048254e-12
atom      7.6332729029    -0.0000000000     7.6332729029   Al  0.0 0.0   -9.03956021e-08  9.90514077e-13 -9.03955733e-08
atom      7.6391417728     3.8183357621    11.4618214176   Al  0.0 0.0   -4.20410154e-07 -1.85467863e-07  4.18582024e-14
atom     11.4618214176    -0.0000000000    11.4618214176   Al  0.0 0.0    5.66096254e-14  1.10427506e-12  4.26030196e-14
atom     11.4618214176     3.8183357621     7.6391417728   Al  0.0 0.0    5.29907369e-14 -1.85467854e-07 -4.20410229e-07
atom      7.6332729029    -0.0000000000    15.2903699323   Al  0.0 0.0   -9.03955868e-08  1.00957568e-12  9.03954376e-08
atom      7.6365178482     3.8178592355    19.1057835997   Al  0.0 0.0   -6.96375482e-08 -7.04060844e-07  7.04060596e-07
atom     11.4618214176    -0.0000000000    19.1069626884   Al  0.0 0.0    5.67733751e-14 -1.19970106e-12 -1.50689272e-06
atom     11.4618214176     3.8183357621    15.2845010624   Al  0.0 0.0    4.65838530e-14 -1.85467875e-07  4.20410202e-07
atom      7.6332729029     7.6332729029    -0.0000000000   Al  0.0 0.0   -9.03955939e-08 -9.03955922e-08  1.04304911e-12
atom      7.6391417728    11.4618214176     3.8183357621   Al  0.0 0.0   -4.20410160e-07  6.99626218e-14 -1.85467854e-07
atom     11.4618214176     7.6391417728     3.8183357621   Al  0.0 0.0    5.23271694e-14 -4.20410464e-07 -1.85468116e-07
atom     11.4618214176    11.4618214176    -0.0000000000   Al  0.0 0.0    5.74683161e-14  5.69749796e-14  1.11439664e-12
atom      7.6409061700     7.6409061700     7.6409061700   Al  0.0 0.0   -1.58189786e-07 -1.58189774e-07 -1.58189769e-07
atom      7.6420841140    11.4618214176    11.4618214176   Al  0.0 0.0    5.10953889e-07  4.61540733e-14  3.70609965e-14
atom     11.4618214176     7.6420841140    11.4618214176   Al  0.0 0.0    4.67140701e-14  5.10953882e-07  1.99203723e-14
atom     11.4618214176    11.4618214176     7.6420841140   Al  0.0 0.0    4.62545319e-14  3.09125794e-14  5.10953879e-07
atom      7.6409061700     7.6409061700    15.2827366652   Al  0.0 0.0   -1.58189751e-07 -1.58189781e-07  1.58189670e-07
atom      7.6391417728    11.4618214176    19.1053070731   Al  0.0 0.0   -4.20410747e-07  4.94477986e-14  1.85467268e-07
atom     11.4618214176     7.6391417728    19.1053070731   Al  0.0 0.0    7.13659894e-14 -4.20410455e-07  1.85466999e-07
atom     11.4618214176    11.4618214176    15.2815587211   Al  0.0 0.0    3.74218991e-14  3.87081525e-14 -5.10953904e-07
atom      7.6332729029    15.2903699323    -0.0000000000   Al  0.0 0.0   -9.03955935e-08  9.03954205e-08  1.01182387e-12
atom      7.6365178482    19.1057835997     3.8178592355   Al  0.0 0.0   -6.96372536e-08  7.04060853e-07 -7.04060839e-07
atom     11.4618214176    15.2845010624     3.8183357621   Al  0.0 0.0    4.77576286e-14  4.20410272e-07 -1.85467874e-07
atom     11.4618214176    19.1069626884    -0.0000000000   Al  0.0 0.0    5.84523661e-14 -1.50689245e-06 -8.80105600e-13
atom      7.6409061700    15.2827366652     7.6409061700   Al  0.0 0.0   -1.58189759e-07  1.58189658e-07 -1.58189780e-07
atom      7.6391417728    19.1053070731    11.4618214176   Al  0.0 0.0   -4.20410754e-07  1.85467263e-07  4.78866284e-14
atom     11.4618214176    15.2815587211    11.4618214176   Al  0.0 0.0    3.59061855e-14 -5.10953900e-07  3.69638057e-14
atom     11.4618214176    19.1053070731     7.6391417728   Al  0.0 0.0    7.07487739e-14  1.85467269e-07 -4.20410761e-07
atom      7.6409061700    15.2827366652    15.2827366652   Al  0.0 0.0   -1.58189748e-07  1.58189646e-07  1.58189637e-07
atom      7.6365178482    19.1057835997    19.1057835997   Al  0.0 0.0   -6.96372812e-08  7.04060835e-07  7.04060831e-07
atom     11.4618214176    15.2845010624    19.1053070731   Al  0.0 0.0    6.71055962e-14  4.20410858e-07  1.85467289e-07
atom     11.4618214176    19.1053070731    15.2845010624   Al  0.0 0.0    6.52530723e-14  1.85467283e-07  4.20410854e-07
atom     15.2918898016    -0.0000000000    -0.0000000000   Al  0.0 0.0    8.22376992e-07  9.54791533e-13  1.00815356e-12
atom     15.2871249870     3.8178592355     3.8178592355   Al  0.0 0.0    6.96369751e-08 -7.04060862e-07 -7.04061125e-07
atom     19.1277977395     0.0000000000     3.7958450957   Al  0.0 0.0   -2.61237361e-08 -1.14681548e-12  2.61237780e-08
atom     19.1277977395     3.7958450957     0.0000000000   Al  0.0 0.0   -2.61237403e-08  2.61237799e-08 -1.12672429e-12
atom     15.2903699323    -0.0000000000     7.6332729029   Al  0.0 0.0    9.03954278e-08  1.02381091e-12 -9.03955850e-08
atom     15.2845010624     3.8183357621    11.4618214176   Al  0.0 0.0    4.20410569e-07 -1.85468142e-07  3.41301221e-14
atom     19.1069626884    -0.0000000000    11.4618214176   Al  0.0 0.0   -1.50689245e-06  1.08820262e-12  5.82885349e-14
atom     19.1057835997     3.8178592355     7.6365178482   Al  0.0 0.0    7.04060857e-07 -7.04061099e-07 -6.96369644e-08
atom     15.2903699323    -0.0000000000    15.2903699323   Al  0.0 0.0    9.03954112e-08  1.04339665e-12  9.03954313e-08
atom     15.2871249870     3.8178592355    19.1057835997   Al  0.0 0.0    6.96376131e-08 -7.04060802e-07  7.04060586e-07
atom     19.1277977395     0.0000000000    19.1277977395   Al  0.0 0.0   -2.61232191e-08 -1.13761474e-12 -2.61232161e-08
atom     19.1057835997     3.8178592355    15.2871249870   Al  0.0 0.0    7.04060843e-07 -7.04061086e-07  6.96370074e-08
atom     15.2903699323     7.6332729029    -0.0000000000   Al  0.0 0.0    9.03954237e-08 -9.03956012e-08  1.07475667e-12
atom     15.2845010624    11.4618214176     3.8183357621   Al  0.0 0.0    4.20410576e-07  6.21006230e-14 -1.85468137e-07
atom     19.1057835997     7.6365178482     3.8178592355   Al  0.0 0.0    7.04060871e-07 -6.96369540e-08 -7.04061095e-07
atom     19.1069626884    11.4618214176    -0.0000000000   Al  0.0 0.0   -1.50689245e-06  6.31310475e-14  1.09839327e-12
atom     15.2827366652     7.6409061700     7.6409061700   Al  0.0 0.0    1.58189661e-07 -1.58189749e-07 -1.58189743e-07
atom     15.2815587211    11.4618214176    11.4618214176   Al  0.0 0.0   -5.10953895e-07  2.64357176e-14  2.03825915e-14
atom     19.1053070731     7.6391417728    11.4618214176   Al  0.0 0.0    1.85467259e-07 -4.20410821e-07  3.59510543e-14
atom     19.1053070731    11.4618214176     7.6391417728   Al  0.0 0.0    1.85467257e-07  4.16097692e-14 -4.20410828e-07
atom     15.2827366652     7.6409061700    15.2827366652   Al  0.0 0.0    1.58189643e-07 -1.58189731e-07  1.58189687e-07
atom     15.2845010624    11.4618214176    19.1053070731   Al  0.0 0.0    4.20410568e-07  4.24903360e-14  1.85467020e-07
atom     19.1057835997     7.6365178482    19.1057835997   Al  0.0 0.0    7.04060813e-07 -6.96375910e-08  7.04060560e-07
atom     19.1053070731    11.4618214176    15.2845010624   Al  0.0 0.0    1.85467277e-07  4.47871405e-14  4.20410802e-07
atom     15.2903699323    15.2903699323    -0.0000000000   Al  0.0 0.0    9.03954191e-08  9.03954150e-08  1.04422323e-12
atom     15.2871249870    19.1057835997     3.8178592355   Al  0.0 0.0    6.96373181e-08  7.04060842e-07 -7.04060799e-07
atom     19.1057835997    15.2871249870     3.8178592355   Al  0.0 0.0    7.04060835e-07  6.96370127e-08 -7.04061083e-07
atom     19.1277977395    19.1277977395     0.0000000000   Al  0.0 0.0   -2.61232143e-08 -2.61232141e-08 -1.12543229e-12
atom     15.2827366652    15.2827366652     7.6409061700   Al  0.0 0.0    1.58189649e-07  1.58189676e-07 -1.58189734e-07
atom     15.2845010624    19.1053070731    11.4618214176   Al  0.0 0.0    4.20410570e-07  1.85467015e-07  4.12094639e-14
atom     19.1053070731    15.2845010624    11.4618214176   Al  0.0 0.0    1.85467276e-07  4.20410807e-07  4.23057577e-14
atom     19.1057835997    19.1057835997     7.6365178482   Al  0.0 0.0    7.04060820e-07  7.04060555e-07 -6.96375962e-08
atom     15.2827366652    15.2827366652    15.2827366652   Al  0.0 0.0    1.58189654e-07  1.58189639e-07  1.58189635e-07
atom     15.2871249870    19.1057835997    19.1057835997   Al  0.0 0.0    6.96373536e-08  7.04060801e-07  7.04060799e-07
atom     19.1057835997    15.2871249870    19.1057835997   Al  0.0 0.0    7.04060797e-07  6.96376403e-08  7.04060541e-07
atom     19.1057835997    19.1057835997    15.2871249870   Al  0.0 0.0    7.04060801e-07  7.04060539e-07  6.96376365e-08
energy -2.119090761229711e+03
charge 0.0000
end
