begin
comment 108 atoms, species Al107Mg
lattice     22.9589491391     0.0000000000    -0.0000000000
lattice      0.0000000000    22.9589491391    -0.0000000000
lattice     -0.0000000000    -0.0000000000    22.9589491391
atom     -0.0000000000    -0.0000000000    -0.0000000000   Mg  0.0 0.0   -9.98050809e-13 -9.86156658e-13 -9.70549497e-13
atom     -0.0000000000     3.8651515753     3.8651515753   Al  0.0 0.0   -7.74557778e-13 -9.66892336e-07 -9.66892332e-07
atom      3.8651515753    -0.0000000000     3.8651515753   Al  0.0 0.0   -9.66892321e-07 -7.59312659e-13 -9.66892339e-07
atom      3.8651515753     3.8651515753    -0.0000000000   Al  0.0 0.0   -9.66892320e-07 -9.66892325e-07 -7.66950078e-13
atom     -0.0000000000    -0.0000000000     7.6479524630   Al  0.0 0.0   -7.94455491e-13 -7.85122231e-13 -5.00085751e-07
atom     -0.0000000000     3.8208063313    11.4794745696   Al  0.0 0.0   -7.93265860e-13 -5.67222434e-07  1.01078538e-13
atom      3.8208063313    -0.0000000000    11.4794745696   Al  0.0 0.0   -5.67222418e-07 -7.74575345e-13  9.41989839e-14
atom      3.8304652399     3.8304652399     7.6638753214   Al  0.0 0.0    9.65147363e-08  9.65147297e-08 -1.99670677e-07
atom     -0.0000000000    -0.0000000000    15.3109966761   Al  0.0 0.0   -7.94613101e-13 -7.85275793e-13  5.00085762e-07
atom     -0.0000000000     3.8651515753    19.0937975638   Al  0.0 0.0   -7.76861474e-13 -9.66892406e-07  9.66893055e-07
atom      3.8651515753    -0.0000000000    19.0937975638   Al  0.0 0.0   -9.66892388e-07 -7.57352876e-13  9.66893044e-07
atom      3.8304652399     3.8304652399    15.2950738177   Al  0.0 0.0    9.65147359e-08  9.65147276e-08  1.99670662e-07
atom     -0.0000000000     7.6479524630    -0.0000000000   Al  0.0 0.0   -7.94803097e-13 -5.00085760e-07 -7.78106866e-13
atom     -0.0000000000    11.4794745696     3.8208063313   Al  0.0 0.0   -7.92760645e-13  9.25990351e-14 -5.67222426e-07
atom      3.8304652399     7.6638753214     3.8304652399   Al  0.0 0.0    9.65147372e-08 -1.99670664e-07  9.65147194e-08
atom      3.8208063313    11.4794745696    -0.0000000000   Al  0.0 0.0   -5.67222417e-07  1.00353825e-13 -7.83909420e-13
atom     -0.0000000000     7.6591067877     7.6591067877   Al  0.0 0.0   -7.92713146e-13  1.12057926e-07  1.12057934e-07
atom     -0.0000000000    11.4794745696    11.4794745696   Al  0.0 0.0   -7.96698734e-13  9.54335679e-14  1.03987867e-13
atom      3.8259039862     7.6538775805    11.4794745696   Al  0.0 0.0    2.76366585e-07  3.71251835e-07  9.04011592e-14
atom      3.8259039862    11.4794745696     7.6538775805   Al  0.0 0.0    2.76366586e-07  9.97994049e-14  3.71251824e-07
atom     -0.0000000000     7.6591067877    15.2998423514   Al  0.0 0.0   -7.94189929e-13  1.12057940e-07 -1.12057947e-07
atom     -0.0000000000    11.4794745696    19.1381428078   Al  0.0 0.0   -7.93203248e-13  9.04734770e-14  5.67223128e-07
atom      3.8304652399     7.6638753214    19.1284838992   Al  0.0 0.0    9.65147379e-08 -1.99670681e-07 -9.65140289e-08
atom      3.8259039862    11.4794745696    15.3050715586   Al  0.0 0.0    2.76366584e-07  9.91509152e-14 -3.71251850e-07
atom     -0.0000000000    15.3109966761    -0.0000000000   Al  0.0 0.0   -7.95720689e-13  5.00085755e-07 -7.76156495e-13
atom     -0.0000000000    19.0937975638     3.8651515753   Al  0.0 0.0   -7.75298329e-13  9.66893047e-07 -9.66892401e-07
atom      3.8304652399    15.2950738177     3.8304652399   Al  0.0 0.0    9.65147350e-08  1.99670674e-07  9.65147174e-08
atom      3.8651515753    19.0937975638    -0.0000000000   Al  0.0 0.0   -9.66892391e-07  9.66893056e-07 -7.63633096e-13
atom     -0.0000000000    15.2998423514     7.6591067877   Al  0.0 0.0   -7.93585398e-13 -1.12057958e-07  1.12057947e-07
atom     -0.0000000000    19.1381428078    11.4794745696   Al  0.0 0.0   -7.94466286e-13  5.67223121e-07  1.02141444e-13
atom      3.8259039862    15.3050715586    11.4794745696   Al  0.0 0.0    2.76366584e-07 -3.71251842e-07  8.96627577e-14
atom      3.8304652399    19.1284838992     7.6638753214   Al  0.0 0.0    9.65147380e-08 -9.65140189e-08 -1.99670694e-07
atom     -0.0000000000    15.2998423514    15.2998423514   Al  0.0 0.0   -7.94731848e-13 -1.12057971e-07 -1.12057963e-07
atom     -0.0000000000    19.0937975638    19.0937975638   Al  0.0 0.0   -7.76859315e-13  9.66893119e-07  9.66893126e-07
atom      3.8304652399    15.2950738177    19.1284838992   Al  0.0 0.0    9.65147362e-08  1.99670689e-07 -9.65140270e-08
atom      3.8304652399    19.1284838992    15.2950738177   Al  0.0 0.0    9.65147363e-08 -9.65140161e-08  1.99670679e-07
atom      7.6479524630    -0.0000000000    -0.0000000000   Al  0.0 0.0   -5.00085753e-07 -7.82488118e-13 -7.80214707e-13
atom      7.6638753214     3.8304652399     3.8304652399   Al  0.0 0.0   -1.99670668e-07  9.65147250e-08  9.65147234e-08
atom     11.4794745696    -0.0000000000     3.8208063313   Al  0.0 0.0    9.68588549e-14 -7.81165571e-13 -5.67222430e-07
atom     11.4794745696     3.8208063313    -0.0000000000   Al  0.0 0.0    9.80607992e-14 -5.67222429e-07 -7.83299963e-13
atom      7.6591067877    -0.0000000000     7.6591067877   Al  0.0 0.0    1.12057934e-07 -7.82062829e-13  1.12057931e-07
atom      7.6538775805     3.8259039862    11.4794745696   Al  0.0 0.0    3.71251833e-07  2.76366572e-07  9.64240496e-14
atom     11.4794745696    -0.0000000000    11.4794745696   Al  0.0 0.0    1.01053499e-13 -7.82855483e-13  1.00801700e-13
atom     11.4794745696     3.8259039862     7.6538775805   Al  0.0 0.0    9.60100822e-14  2.76366572e-07  3.71251830e-07
atom      7.6591067877    -0.0000000000    15.2998423514   Al  0.0 0.0    1.12057948e-07 -7.79350311e-13 -1.12057951e-07
atom      7.6638753214     3.8304652399    19.1284838992   Al  0.0 0.0   -1.99670682e-07  9.65147257e-08 -9.65140263e-08
atom     11.4794745696    -0.0000000000    19.1381428078   Al  0.0 0.0    9.64390228e-14 -7.78724080e-13  5.67223124e-07
atom     11.4794745696     3.8259039862    15.3050715586   Al  0.0 0.0    9.66092159e-14  2.76366571e-07 -3.71251845e-07
atom      7.6591067877     7.6591067877    -0.0000000000   Al  0.0 0.0    1.12057934e-07  1.12057931e-07 -7.81064527e-13
atom      7.6538775805    11.4794745696     3.8259039862   Al  0.0 0.0    3.71251833e-07  9.48930526e-14  2.76366572e-07
atom     11.4794745696     7.6538775805     3.8259039862   Al  0.0 0.0    9.58524723e-14  3.71251831e-07  2.76366571e-07
atom     11.4794745696    11.4794745696    -0.0000000000   Al  0.0 0.0    1.01464290e-13  9.97265439e-14 -7.85221413e-13
atom      7.6538856055     7.6538856055     7.6538856055   Al  0.0 0.0    1.59491916e-07  1.59491914e-07  1.59491915e-07
atom      7.6509158329    11.4794745696    11.4794745696   Al  0.0 0.0    2.27571899e-07  9.40515604e-14  9.46881192e-14
atom     11.4794745696     7.6509158329    11.4794745696   Al  0.0 0.0    9.54899897e-14  2.27571896e-07  9.54093370e-14
atom     11.4794745696    11.4794745696     7.6509158329   Al  0.0 0.0    9.44598240e-14  9.50484439e-14  2.27571896e-07
atom      7.6538856055     7.6538856055    15.3050635336   Al  0.0 0.0    1.59491919e-07  1.59491913e-07 -1.59491920e-07
atom      7.6538775805    11.4794745696    19.1330451529   Al  0.0 0.0    3.71251840e-07  9.37687952e-14 -2.76365872e-07
atom     11.4794745696     7.6538775805    19.1330451529   Al  0.0 0.0    9.76200514e-14  3.71251836e-07 -2.76365874e-07
atom     11.4794745696    11.4794745696    15.3080333062   Al  0.0 0.0    9.64324782e-14  9.49298169e-14 -2.27571901e-07
atom      7.6591067877    15.2998423514    -0.0000000000   Al  0.0 0.0    1.12057948e-07 -1.12057955e-07 -7.78043915e-13
atom      7.6638753214    19.1284838992     3.8304652399   Al  0.0 0.0   -1.99670683e-07 -9.65140260e-08  9.65147263e-08
atom     11.4794745696    15.3050715586     3.8259039862   Al  0.0 0.0    9.55541874e-14 -3.71251845e-07  2.76366570e-07
atom     11.4794745696    19.1381428078    -0.0000000000   Al  0.0 0.0    9.72998388e-14  5.67223123e-07 -7.80651838e-13
atom      7.6538856055    15.3050635336     7.6538856055   Al  0.0 0.0    1.59491918e-07 -1.59491923e-07  1.59491913e-07
atom      7.6538775805    19.1330451529    11.4794745696   Al  0.0 0.0    3.71251839e-07 -2.76365873e-07  9.73286619e-14
atom     11.4794745696    15.3080333062    11.4794745696   Al  0.0 0.0    9.60486751e-14 -2.27571903e-07  9.46748425e-14
atom     11.4794745696    19.1330451529     7.6538775805   Al  0.0 0.0    9.58607037e-14 -2.76365873e-07  3.71251835e-07
atom      7.6538856055    15.3050635336    15.3050635336   Al  0.0 0.0    1.59491920e-07 -1.59491925e-07 -1.59491923e-07
atom      7.6638753214    19.1284838992    19.1284838992   Al  0.0 0.0   -1.99670698e-07 -9.65140255e-08 -9.65140260e-08
atom     11.4794745696    15.3050715586    19.1330451529   Al  0.0 0.0    9.74818054e-14 -3.71251852e-07 -2.76365871e-07
atom     11.4794745696    19.1330451529    15.3050715586   Al  0.0 0.0    9.76085141e-14 -2.76365872e-07 -3.71251850e-07
atom     15.3109966761    -0.0000000000    -0.0000000000   Al  0.0 0.0    5.00085758e-07 -7.80018714e-13 -7.81894576e-13
atom     15.2950738177     3.8304652399     3.8304652399   Al  0.0 0.0    1.99670667e-07  9.65147239e-08  9.65147197e-08
atom     19.0937975638     0.0000000000     3.8651515753   Al  0.0 0.0    9.66893049e-07 -7.64293432e-13 -9.66892403e-07
atom     19.0937975638     3.8651515753    -0.0000000000   Al  0.0 0.0    9.66893048e-07 -9.66892402e-07 -7.62936345e-13
atom     15.2998423514    -0.0000000000     7.6591067877   Al  0.0 0.0   -1.12057955e-07 -7.80946511e-13  1.12057946e-07
atom     15.3050715586     3.8259039862    11.4794745696   Al  0.0 0.0   -3.71251846e-07  2.76366571e-07  9.62634033e-14
atom     19.1381428078    -0.0000000000    11.4794745696   Al  0.0 0.0    5.67223122e-07 -7.81055409e-13  9.86508961e-14
atom     19.1284838992     3.8304652399     7.6638753214   Al  0.0 0.0   -9.65140255e-08  9.65147245e-08 -1.99670686e-07
atom     15.2998423514    -0.0000000000    15.2998423514   Al  0.0 0.0   -1.12057969e-07 -7.78277616e-13 -1.12057968e-07
atom     15.2950738177     3.8304652399    19.1284838992   Al  0.0 0.0    1.99670683e-07  9.65147261e-08 -9.65140241e-08
atom     19.0937975638    -0.0000000000    19.0937975638   Al  0.0 0.0    9.66893119e-07 -7.62457438e-13  9.66893124e-07
atom     19.1284838992     3.8304652399    15.2950738177   Al  0.0 0.0   -9.65140259e-08  9.65147241e-08  1.99670684e-07
atom     15.2998423514     7.6591067877    -0.0000000000   Al  0.0 0.0   -1.12057955e-07  1.12057945e-07 -7.82906310e-13
atom     15.3050715586    11.4794745696     3.8259039862   Al  0.0 0.0   -3.71251847e-07  9.68542968e-14  2.76366570e-07
atom     19.1284838992     7.6638753214     3.8304652399   Al  0.0 0.0   -9.65140258e-08 -1.99670687e-07  9.65147246e-08
atom     19.1381428078    11.4794745696    -0.0000000000   Al  0.0 0.0    5.67223121e-07  9.63460829e-14 -7.80651386e-13
atom     15.3050635336     7.6538856055     7.6538856055   Al  0.0 0.0   -1.59491925e-07  1.59491915e-07  1.59491915e-07
atom     15.3080333062    11.4794745696    11.4794745696   Al  0.0 0.0   -2.27571902e-07  9.59032800e-14  9.52768355e-14
atom     19.1330451529     7.6538775805    11.4794745696   Al  0.0 0.0   -2.76365877e-07  3.71251835e-07  9.82319400e-14
atom     19.1330451529    11.4794745696     7.6538775805   Al  0.0 0.0   -2.76365877e-07  9.65416531e-14  3.71251836e-07
atom     15.3050635336     7.6538856055    15.3050635336   Al  0.0 0.0   -1.59491925e-07  1.59491915e-07 -1.59491922e-07
atom     15.3050715586    11.4794745696    19.1330451529   Al  0.0 0.0   -3.71251853e-07  9.50171570e-14 -2.76365872e-07
atom     19.1284838992     7.6638753214    19.1284838992   Al  0.0 0.0   -9.65140287e-08 -1.99670704e-07 -9.65140252e-08
atom     19.1330451529    11.4794745696    15.3050715586   Al  0.0 0.0   -2.76365876e-07  9.58643808e-14 -3.71251849e-07
atom     15.2998423514    15.2998423514    -0.0000000000   Al  0.0 0.0   -1.12057968e-07 -1.12057969e-07 -7.80283225e-13
atom     15.2950738177    19.1284838992     3.8304652399   Al  0.0 0.0    1.99670685e-07 -9.65140236e-08  9.65147224e-08
atom     19.1284838992    15.2950738177     3.8304652399   Al  0.0 0.0   -9.65140245e-08  1.99670685e-07  9.65147236e-08
atom     19.0937975638    19.0937975638    -0.0000000000   Al  0.0 0.0    9.66893119e-07  9.66893119e-07 -7.60778245e-13
atom     15.3050635336    15.3050635336     7.6538856055   Al  0.0 0.0   -1.59491925e-07 -1.59491924e-07  1.59491916e-07
atom     15.3050715586    19.1330451529    11.4794745696   Al  0.0 0.0   -3.71251851e-07 -2.76365873e-07  9.63249752e-14
atom     19.1330451529    15.3050715586    11.4794745696   Al  0.0 0.0   -2.76365877e-07 -3.71251852e-07  9.69727209e-14
atom     19.1284838992    19.1284838992     7.6638753214   Al  0.0 0.0   -9.65140278e-08 -9.65140264e-08 -1.99670702e-07
atom     15.3050635336    15.3050635336    15.3050635336   Al  0.0 0.0   -1.59491925e-07 -1.59491926e-07 -1.59491925e-07
atom     15.2950738177    19.1284838992    19.1284838992   Al  0.0 0.0    1.99670700e-07 -9.65140247e-08 -9.65140239e-08
atom     19.1284838992    15.2950738177    19.1284838992   Al  0.0 0.0   -9.65140273e-08  1.99670700e-07 -9.65140230e-08
atom     19.1284838992    19.1284838992    15.2950738177   Al  0.0 0.0   -9.65140269e-08 -9.65140253e-08  1.99670700e-07
energy -2.130201875463382e+03
charge 0.0000
end
