begin
comment 107 atoms, species Al107
lattice     22.9294870250    -0.0000000000    -0.0000000000
lattice     -0.0000000000    22.9294870250    -0.0000000000
lattice     -0.0000000000    -0.0000000000    22.9294870249
atom     -0.0188792028    -0.0188792028    -0.0223503549   Al  0.0 0.0    8.49886593e-07  8.49886593e-07  7.90923016e-07
atom     -0.0150302139     3.8083767443     3.8215811708   Al  0.0 0.0    4.68602217e-07  1.02255653e-06 -1.66453352e-13
atom      3.8083767443    -0.0150302139     3.8215811708   Al  0.0 0.0    1.02255654e-06  4.68602218e-07 -1.70833504e-13
atom      3.8066199720     3.8066199720    -0.0149611988   Al  0.0 0.0    4.27108856e-07  4.27108856e-07  4.27109181e-07
atom     -0.0188792028    -0.0188792028     7.6655126965   Al  0.0 0.0    8.49886593e-07  8.49886594e-07 -7.90922836e-07
atom     -0.0188792028     3.7992308160    11.4836227153   Al  0.0 0.0    8.49886598e-07  7.90922664e-07 -8.49886428e-07
atom      3.7992308160    -0.0188792028    11.4836227153   Al  0.0 0.0    7.90922668e-07  8.49886599e-07 -8.49886433e-07
atom      3.8066199720     3.8066199720     7.6581235405   Al  0.0 0.0    4.27108860e-07  4.27108856e-07 -4.27109056e-07
atom     -0.0819352093    -0.0819352093    15.2863246833   Al  0.0 0.0    8.48454192e-07  8.48454191e-07  1.91823203e-14
atom     -0.0188792028     3.7992308160    19.0890266513   Al  0.0 0.0    8.49886599e-07  7.90922667e-07  8.49886445e-07
atom      3.7992308160    -0.0188792028    19.0890266513   Al  0.0 0.0    7.90922669e-07  8.49886600e-07  8.49886442e-07
atom      3.7868167642     3.7868167642    15.2863246833   Al  0.0 0.0    1.14730617e-06  1.14730617e-06 -7.77425203e-15
atom     -0.0150302139     7.6431623417    -0.0132044266   Al  0.0 0.0    4.68602215e-07 -1.91960251e-14  1.02255688e-06
atom     -0.0150302139    11.4779479391     3.8215811708   Al  0.0 0.0    4.68602217e-07 -1.02255671e-06 -1.61733982e-13
atom      3.8049652194     7.6431623417     3.8215811708   Al  0.0 0.0    3.39093670e-07 -2.13928484e-14 -1.75731815e-13
atom      3.8066199720    11.4797047113    -0.0149611988   Al  0.0 0.0    4.27108857e-07 -4.27109033e-07  4.27109188e-07
atom     -0.0150302139     7.6431623417     7.6563667682   Al  0.0 0.0    4.68602216e-07 -1.77656611e-14 -1.02255671e-06
atom     -0.0188792028    11.4870938673    11.4836227153   Al  0.0 0.0    8.49886593e-07 -7.90922839e-07 -8.49886419e-07
atom      3.8083767443     7.6431623417    11.4797737263   Al  0.0 0.0    1.02255654e-06 -1.92008830e-14 -4.68602064e-07
atom      3.8066199720    11.4797047113     7.6581235405   Al  0.0 0.0    4.27108858e-07 -4.27109033e-07 -4.27109052e-07
atom     -0.0195050123     7.6431623417    15.2863246833   Al  0.0 0.0    2.34363325e-07 -1.51138201e-14  1.51389459e-14
atom     -0.0188792028    11.4870938673    19.0890266513   Al  0.0 0.0    8.49886595e-07 -7.90922843e-07  8.49886447e-07
atom      3.8083767443     7.6431623417    19.0928756403   Al  0.0 0.0    1.02255654e-06 -1.91604010e-14  4.68602062e-07
atom      3.7868167642    11.4995079191    15.2863246833   Al  0.0 0.0    1.14730616e-06 -1.14730634e-06 -2.29503612e-15
atom     -0.0188792028    15.3052038861    -0.0223503549   Al  0.0 0.0    8.49886595e-07 -8.49886415e-07  7.90923014e-07
atom     -0.0195050123    19.1079058541     3.8215811708   Al  0.0 0.0    2.34363329e-07  2.02084352e-14 -1.63670625e-13
atom      3.8083767443    15.3013548971     3.8215811708   Al  0.0 0.0    1.02255654e-06 -4.68602042e-07 -1.75845085e-13
atom      3.7868167642    19.1079058541    -0.0347644067   Al  0.0 0.0    1.14730616e-06  2.11020089e-14  1.14730650e-06
atom     -0.0188792028    15.3052038861     7.6655126965   Al  0.0 0.0    8.49886595e-07 -8.49886416e-07 -7.90922843e-07
atom     -0.0819352093    19.1079058541    11.5466787217   Al  0.0 0.0    8.48454203e-07  1.91973379e-14 -8.48454028e-07
atom      3.7992308160    15.3052038861    11.4836227153   Al  0.0 0.0    7.90922668e-07 -8.49886421e-07 -8.49886441e-07
atom      3.7868167642    19.1079058541     7.6779267483   Al  0.0 0.0    1.14730617e-06  1.95045570e-14 -1.14730636e-06
atom     -0.0819352093    15.3682598925    15.2863246833   Al  0.0 0.0    8.48454197e-07 -8.48454023e-07  9.27756826e-15
atom     -0.0819352093    19.1079058541    19.0259706449   Al  0.0 0.0    8.48454195e-07  2.23596819e-14  8.48454050e-07
atom      3.7992308160    15.3052038861    19.0890266513   Al  0.0 0.0    7.90922670e-07 -8.49886422e-07  8.49886437e-07
atom      3.7853815776    19.1079058541    15.2863246833   Al  0.0 0.0    1.17027688e-06  2.09955463e-14 -4.04998863e-15
atom      7.6431623417    -0.0150302139    -0.0132044266   Al  0.0 0.0   -2.01589570e-14  4.68602216e-07  1.02255688e-06
atom      7.6431623417     3.8049652194     3.8215811708   Al  0.0 0.0   -2.23806092e-14  3.39093670e-07 -1.71787644e-13
atom     11.4779479391    -0.0150302139     3.8215811708   Al  0.0 0.0   -1.02255671e-06  4.68602216e-07 -1.63908969e-13
atom     11.4797047113     3.8066199720    -0.0149611988   Al  0.0 0.0   -4.27109032e-07  4.27108855e-07  4.27109187e-07
atom      7.6431623417    -0.0150302139     7.6563667682   Al  0.0 0.0   -2.00898677e-14  4.68602217e-07 -1.02255671e-06
atom      7.6431623417     3.8083767443    11.4797737263   Al  0.0 0.0   -1.87426267e-14  1.02255653e-06 -4.68602061e-07
atom     11.4870938673    -0.0188792028    11.4836227153   Al  0.0 0.0   -7.90922840e-07  8.49886595e-07 -8.49886420e-07
atom     11.4797047113     3.8066199720     7.6581235405   Al  0.0 0.0   -4.27109034e-07  4.27108858e-07 -4.27109046e-07
atom      7.6431623417    -0.0195050123    15.2863246833   Al  0.0 0.0   -1.64907479e-14  2.34363328e-07  1.15135149e-14
atom      7.6431623417     3.8083767443    19.0928756403   Al  0.0 0.0   -1.77969672e-14  1.02255653e-06  4.68602062e-07
atom     11.4870938673    -0.0188792028    19.0890266513   Al  0.0 0.0   -7.90922842e-07  8.49886597e-07  8.49886444e-07
atom     11.4995079191     3.7868167642    15.2863246833   Al  0.0 0.0   -1.14730634e-06  1.14730616e-06 -6.67144167e-16
atom      7.6431623417     7.6431623417    -0.0166159515   Al  0.0 0.0   -2.10722309e-14 -2.01759471e-14  3.39094005e-07
atom      7.6431623417    11.4813594639     3.8215811708   Al  0.0 0.0   -2.15083570e-14 -3.39093843e-07 -1.67498829e-13
atom     11.4813594639     7.6431623417     3.8215811708   Al  0.0 0.0   -3.39093843e-07 -2.05851265e-14 -1.67348370e-13
atom     11.4797047113    11.4797047113    -0.0149611988   Al  0.0 0.0   -4.27109031e-07 -4.27109030e-07  4.27109192e-07
atom      7.6431623417     7.6431623417     7.6597782931   Al  0.0 0.0   -2.12557493e-14 -2.16161201e-14 -3.39093854e-07
atom      7.6431623417    11.4779479391    11.4797737263   Al  0.0 0.0   -1.77559454e-14 -1.02255671e-06 -4.68602055e-07
atom     11.4779479391     7.6431623417    11.4797737263   Al  0.0 0.0   -1.02255671e-06 -1.92925004e-14 -4.68602053e-07
atom     11.4797047113    11.4797047113     7.6581235405   Al  0.0 0.0   -4.27109032e-07 -4.27109032e-07 -4.27109043e-07
atom      7.6431623417     7.6431623417    15.2863246833   Al  0.0 0.0   -1.81121870e-14 -2.06935891e-14  6.63265882e-15
atom      7.6431623417    11.4779479391    19.0928756403   Al  0.0 0.0   -1.75292462e-14 -1.02255671e-06  4.68602070e-07
atom     11.4779479391     7.6431623417    19.0928756403   Al  0.0 0.0   -1.02255671e-06 -1.86768450e-14  4.68602067e-07
atom     11.4995079191    11.4995079191    15.2863246833   Al  0.0 0.0   -1.14730633e-06 -1.14730633e-06  5.79920201e-15
atom      7.6431623417    15.3013548971    -0.0132044266   Al  0.0 0.0   -1.79092372e-14 -4.68602040e-07  1.02255688e-06
atom      7.6431623417    19.1079058541     3.8215811708   Al  0.0 0.0   -2.04849720e-14  1.89719060e-14 -1.66151651e-13
atom     11.4779479391    15.3013548971     3.8215811708   Al  0.0 0.0   -1.02255671e-06 -4.68602041e-07 -1.68200611e-13
atom     11.4995079191    19.1079058541    -0.0347644067   Al  0.0 0.0   -1.14730633e-06  1.92927423e-14  1.14730650e-06
atom      7.6431623417    15.3013548971     7.6563667682   Al  0.0 0.0   -1.89110318e-14 -4.68602040e-07 -1.02255672e-06
atom      7.6431623417    19.1079058541    11.4842485248   Al  0.0 0.0   -1.64605214e-14  2.18366681e-14 -2.34363168e-07
atom     11.4870938673    15.3052038861    11.4836227153   Al  0.0 0.0   -7.90922839e-07 -8.49886416e-07 -8.49886430e-07
atom     11.4995079191    19.1079058541     7.6779267483   Al  0.0 0.0   -1.14730634e-06  1.75015023e-14 -1.14730635e-06
atom      7.6431623417    15.3058296956    15.2863246833   Al  0.0 0.0   -1.55450884e-14 -2.34363152e-07  6.02910605e-15
atom      7.6431623417    19.1079058541    19.0884008418   Al  0.0 0.0   -1.60351905e-14  2.13000636e-14  2.34363180e-07
atom     11.4870938673    15.3052038861    19.0890266513   Al  0.0 0.0   -7.90922841e-07 -8.49886419e-07  8.49886440e-07
atom     11.5009431058    19.1079058541    15.2863246833   Al  0.0 0.0   -1.17027705e-06  1.98219316e-14  4.25682245e-15
atom     15.3052038861    -0.0188792028    -0.0223503549   Al  0.0 0.0   -8.49886416e-07  8.49886595e-07  7.90923011e-07
atom     15.3013548971     3.8083767443     3.8215811708   Al  0.0 0.0   -4.68602041e-07  1.02255654e-06 -1.74320825e-13
atom     19.1079058541    -0.0195050123     3.8215811708   Al  0.0 0.0    2.02775482e-14  2.34363329e-07 -1.64971069e-13
atom     19.1079058541     3.7868167642    -0.0347644067   Al  0.0 0.0    2.09992073e-14  1.14730616e-06  1.14730650e-06
atom     15.3052038861    -0.0188792028     7.6655126965   Al  0.0 0.0   -8.49886415e-07  8.49886595e-07 -7.90922844e-07
atom     15.3052038861     3.7992308160    11.4836227153   Al  0.0 0.0   -8.49886421e-07  7.90922667e-07 -8.49886437e-07
atom     19.1079058541    -0.0819352093    11.5466787217   Al  0.0 0.0    1.67387719e-14  8.48454202e-07 -8.48454029e-07
atom     19.1079058541     3.7868167642     7.6779267483   Al  0.0 0.0    1.91727627e-14  1.14730616e-06 -1.14730636e-06
atom     15.3682598925    -0.0819352093    15.2863246833   Al  0.0 0.0   -8.48454025e-07  8.48454199e-07  7.30617559e-15
atom     15.3052038861     3.7992308160    19.0890266513   Al  0.0 0.0   -8.49886423e-07  7.90922670e-07  8.49886438e-07
atom     19.1079058541    -0.0819352093    19.0259706449   Al  0.0 0.0    2.14395924e-14  8.48454196e-07  8.48454047e-07
atom     19.1079058541     3.7853815776    15.2863246833   Al  0.0 0.0    1.87357869e-14  1.17027688e-06 -3.75359668e-16
atom     15.3013548971     7.6431623417    -0.0132044266   Al  0.0 0.0   -4.68602039e-07 -1.79801609e-14  1.02255687e-06
atom     15.3013548971    11.4779479391     3.8215811708   Al  0.0 0.0   -4.68602041e-07 -1.02255671e-06 -1.68491105e-13
atom     19.1079058541     7.6431623417     3.8215811708   Al  0.0 0.0    2.04233340e-14 -1.94709402e-14 -1.67564281e-13
atom     19.1079058541    11.4995079191    -0.0347644067   Al  0.0 0.0    1.95366305e-14 -1.14730634e-06  1.14730650e-06
atom     15.3013548971     7.6431623417     7.6563667682   Al  0.0 0.0   -4.68602040e-07 -1.92645420e-14 -1.02255672e-06
atom     15.3052038861    11.4870938673    11.4836227153   Al  0.0 0.0   -8.49886418e-07 -7.90922840e-07 -8.49886429e-07
atom     19.1079058541     7.6431623417    11.4842485248   Al  0.0 0.0    1.86485398e-14 -1.65195787e-14 -2.34363167e-07
atom     19.1079058541    11.4995079191     7.6779267483   Al  0.0 0.0    1.85358080e-14 -1.14730634e-06 -1.14730635e-06
atom     15.3058296956     7.6431623417    15.2863246833   Al  0.0 0.0   -2.34363152e-07 -1.52035805e-14  7.54413723e-15
atom     15.3052038861    11.4870938673    19.0890266513   Al  0.0 0.0   -8.49886419e-07 -7.90922843e-07  8.49886440e-07
atom     19.1079058541     7.6431623417    19.0884008418   Al  0.0 0.0    1.87422609e-14 -1.57754795e-14  2.34363180e-07
atom     19.1079058541    11.5009431058    15.2863246833   Al  0.0 0.0    1.75458660e-14 -1.17027705e-06  4.60633099e-15
atom     15.3052038861    15.3052038861    -0.0223503549   Al  0.0 0.0   -8.49886419e-07 -8.49886418e-07  7.90923005e-07
atom     15.3058296956    19.1079058541     3.8215811708   Al  0.0 0.0   -2.34363154e-07  1.88263849e-14 -1.69887825e-13
atom     19.1079058541    15.3058296956     3.8215811708   Al  0.0 0.0    1.92916196e-14 -2.34363155e-07 -1.70605601e-13
atom     19.1079058541    19.1079058541    -0.0361995933   Al  0.0 0.0    1.90962401e-14  1.99192701e-14  1.17027722e-06
atom     15.3052038861    15.3052038861     7.6655126965   Al  0.0 0.0   -8.49886418e-07 -8.49886417e-07 -7.90922850e-07
atom     15.3682598925    19.1079058541    11.5466787217   Al  0.0 0.0   -8.48454033e-07  1.69688556e-14 -8.48454040e-07
atom     19.1079058541    15.3682598925    11.5466787217   Al  0.0 0.0    1.59551879e-14 -8.48454031e-07 -8.48454041e-07
atom     19.1079058541    19.1079058541     7.6793619349   Al  0.0 0.0    1.76084686e-14  1.82544654e-14 -1.17027706e-06
atom     15.3682598925    15.3682598925    15.2863246833   Al  0.0 0.0   -8.48454033e-07 -8.48454033e-07  1.14936107e-15
atom     15.3682598925    19.1079058541    19.0259706449   Al  0.0 0.0   -8.48454032e-07  1.95241723e-14  8.48454051e-07
atom     19.1079058541    15.3682598925    19.0259706449   Al  0.0 0.0    1.86342488e-14 -8.48454031e-07  8.48454051e-07
energy -2.113369729581108e+03
charge 0.0000
end
