
     Program PWSCF v.6.3 starts on 22Feb2020 at 14:12:36 

     This program is part of the open-source Quantum ESPRESSO suite
     for quantum simulation of materials; please cite
         "P. Giannozzi et al., J. Phys.:Condens. Matter 21 395502 (2009);
         "P. Giannozzi et al., J. Phys.:Condens. Matter 29 465901 (2017);
          URL http://www.quantum-espresso.org", 
     in publications or presentations arising from this work. More details at
     http://www.quantum-espresso.org/quote

 *** WARNING: using old-style file format, will disappear from next version ***

     Parallel version (MPI & OpenMP), running on      36 processor cores
     Number of MPI processes:                36
     Threads/MPI process:                     1

     MPI processes distributed on     1 nodes
     K-points division:     npool     =       4
     R & G space division:  proc/nbgrp/npool/nimage =       9
     Reading input from aiida.in
Warning: card &IONS ignored
Warning: card   !PRESS_CONV_THR = 0.05                 ! JUST FOR VOLUME RELAXATIONS ignored
Warning: card / ignored

     Current dimensions of program PWSCF are:
     Max number of different atomic species (ntypx) = 10
     Max number of k-points (npk) =  40000
     Max angular momentum in pseudopotentials (lmaxx) =  3
               file Al.pbe-n-kjpaw_psl.1.0.0.UPF: wavefunction(s)  3S 3P renormalized
               file Mg.pbe-n-kjpaw_psl.0.3.0.UPF: wavefunction(s)  3S renormalized

     Subspace diagonalization in iterative solution of the eigenvalue problem:
     one sub-group per band group will be used
     scalapack distributed-memory algorithm (size of sub-group:  2*  2 procs)

 
     Parallelization info
     --------------------
     sticks:   dense  smooth     PW     G-vecs:    dense   smooth      PW
     Min        3119    1247    327               507355   128325   17325
     Max        3120    1248    328               507358   128328   17330
     Sum       28079   11231   2949              4566219  1154937  155951
 


     bravais-lattice index     =            0
     lattice parameter (alat)  =      38.3331  a.u.
     unit-cell volume          =   33796.5840 (a.u.)^3
     number of atoms/cell      =          300
     number of atomic types    =            3
     number of electrons       =       900.00
     number of Kohn-Sham states=          540
     kinetic-energy cutoff     =      40.0000  Ry
     charge density cutoff     =     400.0000  Ry
     convergence threshold     =      1.0E-12
     mixing beta               =       0.4000
     number of iterations used =            8  local-TF  mixing
     Exchange-correlation      = PBE ( 1  4  3  4 0 0)

     celldm(1)=  38.333092  celldm(2)=   0.000000  celldm(3)=   0.000000
     celldm(4)=   0.000000  celldm(5)=   0.000000  celldm(6)=   0.000000

     crystal axes: (cart. coord. in units of alat)
               a(1) = (   1.000000   0.000000   0.000000 )  
               a(2) = (   0.000000   0.600000   0.000000 )  
               a(3) = (   0.000000   0.000000   1.000000 )  

     reciprocal axes: (cart. coord. in units 2 pi/alat)
               b(1) = (  1.000000  0.000000  0.000000 )  
               b(2) = (  0.000000  1.666667  0.000000 )  
               b(3) = (  0.000000  0.000000  1.000000 )  


     PseudoPot. # 1 for Al read from file:
     /users/aglensk/Dropbox/Albert/scripts/dotfiles/scripts/potentials/quantum_espresso/pseudo_SSSPefV1.1_alalloy/Al.pbe-n-kjpaw_psl.1.0.0.UPF
     MD5 check sum: cfc449ca30b5f3223ec38ddd88ac046d
     Pseudo is Projector augmented-wave + core cor, Zval =  3.0
     Generated using "atomic" code by A. Dal Corso v.5.1
     Shape of augmentation charge: PSQ
     Using radial grid of 1135 points,  6 beta functions with: 
                l(1) =   0
                l(2) =   0
                l(3) =   1
                l(4) =   1
                l(5) =   2
                l(6) =   2
     Q(r) pseudized with 0 coefficients 


     PseudoPot. # 2 for Mg read from file:
     /users/aglensk/Dropbox/Albert/scripts/dotfiles/scripts/potentials/quantum_espresso/pseudo_SSSPefV1.1_alalloy/Mg.pbe-n-kjpaw_psl.0.3.0.UPF
     MD5 check sum: 24ecedc7f3e3cbe212e682f4413594e4
     Pseudo is Projector augmented-wave + core cor, Zval =  2.0
     Generated using "atomic" code by A. Dal Corso v.5.0.99 svn rev. 10869
     Shape of augmentation charge: PSQ
     Using radial grid of 1129 points,  4 beta functions with: 
                l(1) =   0
                l(2) =   0
                l(3) =   1
                l(4) =   1
     Q(r) pseudized with 0 coefficients 


     PseudoPot. # 3 for Si read from file:
     /users/aglensk/Dropbox/Albert/scripts/dotfiles/scripts/potentials/quantum_espresso/pseudo_SSSPefV1.1_alalloy/Si.pbe-n-rrkjus_psl.1.0.0.UPF
     MD5 check sum: 0b0bb1205258b0d07b9f9672cf965d36
     Pseudo is Ultrasoft + core correction, Zval =  4.0
     Generated using "atomic" code by A. Dal Corso v.5.1
     Using radial grid of 1141 points,  6 beta functions with: 
                l(1) =   0
                l(2) =   0
                l(3) =   1
                l(4) =   1
                l(5) =   2
                l(6) =   2
     Q(r) pseudized with 0 coefficients 


     atomic species   valence    mass     pseudopotential
        Al             3.00    26.98154     Al( 1.00)
        Mg             2.00    24.30500     Mg( 1.00)
        Si             4.00    28.08500     Si( 1.00)

     No symmetry found


                                    s                        frac. trans.

      isym =  1     identity                                     

 cryst.   s( 1) = (     1          0          0      )
                  (     0          1          0      )
                  (     0          0          1      )

 cart.    s( 1) = (  1.0000000  0.0000000  0.0000000 )
                  (  0.0000000  1.0000000  0.0000000 )
                  (  0.0000000  0.0000000  1.0000000 )


   Cartesian axes

     site n.     atom                  positions (alat units)
         1           Al  tau(   1) = (   0.0980036   0.0998217   0.9978849  )
         2           Al  tau(   2) = (   0.9981983   0.5998366   0.9976973  )
         3           Al  tau(   3) = (   0.0977851   0.5999145   0.0973752  )
         4           Al  tau(   4) = (   0.9981820   0.0998089   0.0975580  )
         5           Al  tau(   5) = (   0.0977290   0.0999382   0.1973358  )
         6           Al  tau(   6) = (   0.9982086   0.5998980   0.1972686  )
         7           Al  tau(   7) = (   0.0973659   0.5997592   0.2974740  )
         8           Al  tau(   8) = (   0.9982338   0.0998347   0.2975910  )
         9           Al  tau(   9) = (   0.0976174   0.0999140   0.3980340  )
        10           Al  tau(  10) = (   0.9982635   0.5998407   0.3979874  )
        11           Al  tau(  11) = (   0.0973748   0.5997538   0.4986820  )
        12           Al  tau(  12) = (   0.9982362   0.0998464   0.4984896  )
        13           Al  tau(  13) = (   0.0977478   0.0999316   0.5988519  )
        14           Al  tau(  14) = (   0.9982411   0.5998830   0.5989205  )
        15           Al  tau(  15) = (   0.0977782   0.5999063   0.6988646  )
        16           Al  tau(  16) = (   0.9982675   0.0998204   0.6987073  )
        17           Al  tau(  17) = (   0.0980112   0.0998384   0.7983755  )
        18           Al  tau(  18) = (   0.9982234   0.5998319   0.7986337  )
        19           Al  tau(  19) = (   0.0978780   0.5998505   0.8981908  )
        20           Al  tau(  20) = (   0.9982344   0.0998454   0.8981968  )
        21           Al  tau(  21) = (   0.2974179   0.0999579   0.9975746  )
        22           Al  tau(  22) = (   0.1974755   0.5999164   0.9976741  )
        23           Al  tau(  23) = (   0.2967941   0.5997766   0.0967615  )
        24           Al  tau(  24) = (   0.1979732   0.0999365   0.0978184  )
        25           Al  tau(  25) = (   0.2984680   0.0995690   0.1984654  )
        26           Al  tau(  26) = (   0.1969742   0.5997135   0.1967461  )
        27           Al  tau(  27) = (   0.2947534   0.5991249   0.2962594  )
        28           Al  tau(  28) = (   0.1970857   0.0996151   0.2974592  )
        29           Al  tau(  29) = (   0.2935109   0.1006077   0.3981045  )
        30           Al  tau(  30) = (   0.1954819   0.5992629   0.3980221  )
        31           Al  tau(  31) = (   0.2947655   0.5991345   0.4999607  )
        32           Al  tau(  32) = (   0.1970545   0.0996070   0.4987016  )
        33           Al  tau(  33) = (   0.2984643   0.0995648   0.5977849  )
        34           Al  tau(  34) = (   0.1969929   0.5996746   0.5994968  )
        35           Al  tau(  35) = (   0.2968112   0.5997594   0.6995605  )
        36           Al  tau(  36) = (   0.1979480   0.0999441   0.6984388  )
        37           Al  tau(  37) = (   0.2974797   0.0999649   0.7987120  )
        38           Al  tau(  38) = (   0.1974395   0.5999159   0.7986311  )
        39           Al  tau(  39) = (   0.2972787   0.5998442   0.8981873  )
        40           Al  tau(  40) = (   0.1976619   0.0997802   0.8981606  )
        41           Al  tau(  41) = (   0.4982208   0.0999398   0.9973602  )
        42           Al  tau(  42) = (   0.3975946   0.5998349   0.9971084  )
        43           Al  tau(  43) = (   0.4982138   0.5993477   0.0954797  )
        44           Al  tau(  44) = (   0.3976548   0.0996865   0.0969119  )
        45           Al  tau(  45) = (   0.3962256   0.5991011   0.1947471  )
        46           Al  tau(  46) = (   0.3961596   0.5991435   0.6015137  )
        47           Al  tau(  47) = (   0.4982335   0.5993399   0.7008121  )
        48           Al  tau(  48) = (   0.3976522   0.0997166   0.6993519  )
        49           Al  tau(  49) = (   0.4982852   0.0999450   0.7989209  )
        50           Al  tau(  50) = (   0.3976307   0.5998226   0.7991590  )
        51           Al  tau(  51) = (   0.4983568   0.5998725   0.8982014  )
        52           Al  tau(  52) = (   0.3977949   0.0998899   0.8982011  )
        53           Al  tau(  53) = (   0.6989985   0.1000207   0.9975796  )
        54           Al  tau(  54) = (   0.5987978   0.5998670   0.9971732  )
        55           Al  tau(  55) = (   0.6996663   0.5998190   0.0967742  )
        56           Al  tau(  56) = (   0.5988117   0.0996441   0.0968862  )
        57           Al  tau(  57) = (   0.6979487   0.0995919   0.1984761  )
        58           Al  tau(  58) = (   0.6005176   0.5991163   0.1945437  )
        59           Al  tau(  59) = (   0.7019487   0.5992343   0.2961454  )
        60           Al  tau(  60) = (   0.7031506   0.1009168   0.3980363  )
        61           Al  tau(  61) = (   0.7017993   0.5992912   0.4998497  )
        62           Al  tau(  62) = (   0.6979952   0.0996628   0.5978186  )
        63           Al  tau(  63) = (   0.6003848   0.5991331   0.6016330  )
        64           Al  tau(  64) = (   0.6996464   0.5998137   0.6993730  )
        65           Al  tau(  65) = (   0.5989060   0.0996561   0.6993913  )
        66           Al  tau(  66) = (   0.6990714   0.1000174   0.7986989  )
        67           Al  tau(  67) = (   0.5988415   0.5998613   0.7991028  )
        68           Al  tau(  68) = (   0.6991481   0.5998945   0.8981903  )
        69           Al  tau(  69) = (   0.5987933   0.0998888   0.8982045  )
        70           Al  tau(  70) = (   0.8984762   0.0997964   0.9978363  )
        71           Al  tau(  71) = (   0.7990759   0.5999690   0.9976126  )
        72           Al  tau(  72) = (   0.8988027   0.5999474   0.0973498  )
        73           Al  tau(  73) = (   0.7986060   0.1000069   0.0978388  )
        74           Al  tau(  74) = (   0.8988284   0.0999501   0.1973491  )
        75           Al  tau(  75) = (   0.7996385   0.5998154   0.1966726  )
        76           Al  tau(  76) = (   0.8992329   0.5998054   0.2974544  )
        77           Al  tau(  77) = (   0.7996178   0.0997118   0.2975181  )
        78           Al  tau(  78) = (   0.8990051   0.1000027   0.3980285  )
        79           Al  tau(  79) = (   0.8010984   0.5994911   0.3981177  )
        80           Al  tau(  80) = (   0.8993180   0.5998002   0.4987134  )
        81           Al  tau(  81) = (   0.7996371   0.0997563   0.4987539  )
        82           Al  tau(  82) = (   0.8989066   0.0999361   0.5989243  )
        83           Al  tau(  83) = (   0.7996727   0.5998476   0.5995614  )
        84           Al  tau(  84) = (   0.8988135   0.5999173   0.6988912  )
        85           Al  tau(  85) = (   0.7986372   0.0999658   0.6984374  )
        86           Al  tau(  86) = (   0.8985068   0.0998052   0.7984732  )
        87           Al  tau(  87) = (   0.7990139   0.5999474   0.7985897  )
        88           Al  tau(  88) = (   0.8985277   0.5998680   0.8981902  )
        89           Al  tau(  89) = (   0.7987783   0.0997566   0.8982092  )
        90           Mg  tau(  90) = (   0.4046774   0.0953223   0.3044401  )
        91           Mg  tau(  91) = (   0.5919409   0.0955006   0.3045242  )
        92           Al  tau(  92) = (   0.4982981   0.1007014   0.1935360  )
        93           Si  tau(  93) = (   0.4981358   0.5928351   0.2777557  )
        94           Si  tau(  94) = (   0.3776920   0.5926682   0.3980630  )
        95           Al  tau(  95) = (   0.4982234   0.0375042   0.3980932  )
        96           Mg  tau(  96) = (   0.4047582   0.0953025   0.4915662  )
        97           Mg  tau(  97) = (   0.5919253   0.0955341   0.4918444  )
        98           Si  tau(  98) = (   0.6193880   0.5928865   0.3981328  )
        99           Si  tau(  99) = (   0.4981004   0.5928041   0.5184061  )
       100           Al  tau( 100) = (   0.4981432   0.1006846   0.6026878  )
       101           Al  tau( 101) = (   0.0979042   0.2996973   0.9978704  )
       102           Al  tau( 102) = (   0.9982510   0.1997069   0.9979696  )
       103           Al  tau( 103) = (   0.0980572   0.1997411   0.0977066  )
       104           Al  tau( 104) = (   0.9982110   0.2997377   0.0977312  )
       105           Al  tau( 105) = (   0.0982385   0.2996438   0.1976784  )
       106           Al  tau( 106) = (   0.9982000   0.1999151   0.1975376  )
       107           Al  tau( 107) = (   0.0978857   0.1996635   0.2975627  )
       108           Al  tau( 108) = (   0.9982196   0.2995654   0.2975584  )
       109           Al  tau( 109) = (   0.0973760   0.2994426   0.3980564  )
       110           Al  tau( 110) = (   0.9982382   0.1995653   0.3980022  )
       111           Al  tau( 111) = (   0.0979268   0.1996580   0.4986009  )
       112           Al  tau( 112) = (   0.9982407   0.2995731   0.4985903  )
       113           Al  tau( 113) = (   0.0982829   0.2996375   0.5985930  )
       114           Al  tau( 114) = (   0.9982401   0.1999399   0.5986526  )
       115           Al  tau( 115) = (   0.0980743   0.1997540   0.6985454  )
       116           Al  tau( 116) = (   0.9982127   0.2997291   0.6985209  )
       117           Al  tau( 117) = (   0.0979047   0.2996991   0.7983974  )
       118           Al  tau( 118) = (   0.9982463   0.1997091   0.7982875  )
       119           Al  tau( 119) = (   0.0979807   0.1997216   0.8981760  )
       120           Al  tau( 120) = (   0.9982711   0.2997156   0.8981659  )
       121           Al  tau( 121) = (   0.2977072   0.2996316   0.9980105  )
       122           Al  tau( 122) = (   0.1977543   0.1997431   0.9978916  )
       123           Al  tau( 123) = (   0.2978986   0.1995717   0.0978573  )
       124           Al  tau( 124) = (   0.1977875   0.2996770   0.0977098  )
       125           Al  tau( 125) = (   0.2978774   0.2997583   0.1976574  )
       126           Al  tau( 126) = (   0.1980666   0.1995115   0.1977281  )
       127           Al  tau( 127) = (   0.2980273   0.1997047   0.2977304  )
       128           Al  tau( 128) = (   0.1980240   0.2994299   0.2976653  )
       129           Al  tau( 129) = (   0.2977748   0.3003154   0.3980312  )
       130           Al  tau( 130) = (   0.1969784   0.2006153   0.3980344  )
       131           Al  tau( 131) = (   0.2980582   0.1997274   0.4985145  )
       132           Al  tau( 132) = (   0.1980520   0.2994212   0.4985001  )
       133           Al  tau( 133) = (   0.2978595   0.2998002   0.5986218  )
       134           Al  tau( 134) = (   0.1980635   0.1995259   0.5985087  )
       135           Al  tau( 135) = (   0.2978898   0.1995759   0.6984637  )
       136           Al  tau( 136) = (   0.1977958   0.2996777   0.6985927  )
       137           Al  tau( 137) = (   0.2977093   0.2996539   0.7982772  )
       138           Al  tau( 138) = (   0.1977262   0.1997431   0.7984081  )
       139           Al  tau( 139) = (   0.2976059   0.1998504   0.8981758  )
       140           Al  tau( 140) = (   0.1976708   0.2997016   0.8981794  )
       141           Al  tau( 141) = (   0.4982580   0.2994555   0.9970911  )
       142           Al  tau( 142) = (   0.3976713   0.1996750   0.9976635  )
       143           Al  tau( 143) = (   0.4982322   0.2007599   0.0967887  )
       144           Al  tau( 144) = (   0.3978432   0.2994134   0.0978271  )
       145           Al  tau( 145) = (   0.4984721   0.3003019   0.1974849  )
       146           Al  tau( 146) = (   0.3978026   0.1995763   0.1979567  )
       147           Al  tau( 147) = (   0.4983543   0.2040314   0.2981020  )
       148           Al  tau( 148) = (   0.3978304   0.3018094   0.2974296  )
       149           Al  tau( 149) = (   0.4984864   0.3039860   0.3979858  )
       150           Al  tau( 150) = (   0.3981859   0.2040813   0.3980897  )
       151           Al  tau( 151) = (   0.4984086   0.2041145   0.4980217  )
       152           Al  tau( 152) = (   0.3977823   0.3019371   0.4987681  )
       153           Al  tau( 153) = (   0.4983440   0.3003508   0.5986843  )
       154           Al  tau( 154) = (   0.3977776   0.1995837   0.5982197  )
       155           Al  tau( 155) = (   0.4982546   0.2007926   0.6994583  )
       156           Al  tau( 156) = (   0.3978799   0.2994713   0.6984907  )
       157           Al  tau( 157) = (   0.4983067   0.2994674   0.7991577  )
       158           Al  tau( 158) = (   0.3977118   0.1996849   0.7986207  )
       159           Al  tau( 159) = (   0.4983198   0.1995477   0.8982070  )
       160           Al  tau( 160) = (   0.3976486   0.2995462   0.8981861  )
       161           Al  tau( 161) = (   0.6987222   0.2996411   0.9980127  )
       162           Al  tau( 162) = (   0.5987329   0.1997230   0.9977093  )
       163           Al  tau( 163) = (   0.6986083   0.1995540   0.0978237  )
       164           Al  tau( 164) = (   0.5986970   0.2994432   0.0978010  )
       165           Al  tau( 165) = (   0.6988299   0.2998761   0.1975728  )
       166           Al  tau( 166) = (   0.5988355   0.1996213   0.1979824  )
       167           Al  tau( 167) = (   0.6986059   0.1997822   0.2976448  )
       168           Al  tau( 168) = (   0.5990500   0.3019190   0.2973840  )
       169           Al  tau( 169) = (   0.6990246   0.3004078   0.3979779  )
       170           Al  tau( 170) = (   0.5985072   0.2040774   0.3980033  )
       171           Al  tau( 171) = (   0.6986659   0.1998231   0.4984601  )
       172           Al  tau( 172) = (   0.5989808   0.3018863   0.4986402  )
       173           Al  tau( 173) = (   0.6987829   0.2998685   0.5985580  )
       174           Al  tau( 174) = (   0.5987609   0.1997109   0.5982775  )
       175           Al  tau( 175) = (   0.6985979   0.1995849   0.6983593  )
       176           Al  tau( 176) = (   0.5986790   0.2994337   0.6984255  )
       177           Al  tau( 177) = (   0.6987420   0.2996285   0.7982953  )
       178           Al  tau( 178) = (   0.5987503   0.1997107   0.7985837  )
       179           Al  tau( 179) = (   0.6988111   0.1998392   0.8981974  )
       180           Al  tau( 180) = (   0.5988540   0.2995583   0.8981978  )
       181           Al  tau( 181) = (   0.8986284   0.2996887   0.9978927  )
       182           Al  tau( 182) = (   0.7987273   0.1996902   0.9978678  )
       183           Al  tau( 183) = (   0.8985100   0.1997249   0.0976278  )
       184           Al  tau( 184) = (   0.7986827   0.2996719   0.0976206  )
       185           Al  tau( 185) = (   0.8982850   0.2997008   0.1975639  )
       186           Al  tau( 186) = (   0.7985775   0.1995177   0.1976766  )
       187           Al  tau( 187) = (   0.8986522   0.1997110   0.2974888  )
       188           Al  tau( 188) = (   0.7985320   0.2995228   0.2975421  )
       189           Al  tau( 189) = (   0.8992408   0.2995204   0.3979591  )
       190           Al  tau( 190) = (   0.7997406   0.2008097   0.3980594  )
       191           Al  tau( 191) = (   0.8986956   0.1997137   0.4985993  )
       192           Al  tau( 192) = (   0.7985449   0.2995472   0.4985416  )
       193           Al  tau( 193) = (   0.8982740   0.2996925   0.5985777  )
       194           Al  tau( 194) = (   0.7985941   0.1995367   0.5985312  )
       195           Al  tau( 195) = (   0.8985033   0.1997370   0.6986055  )
       196           Al  tau( 196) = (   0.7986861   0.2996805   0.6986053  )
       197           Al  tau( 197) = (   0.8986298   0.2996652   0.7983712  )
       198           Al  tau( 198) = (   0.7986989   0.1997205   0.7983716  )
       199           Al  tau( 199) = (   0.8985156   0.1996698   0.8981830  )
       200           Al  tau( 200) = (   0.7987377   0.2996889   0.8982103  )
       201           Al  tau( 201) = (   0.0979095   0.4998347   0.9978317  )
       202           Al  tau( 202) = (   0.9982279   0.3997682   0.9979237  )
       203           Al  tau( 203) = (   0.0979366   0.3996580   0.0976518  )
       204           Al  tau( 204) = (   0.9982263   0.4998534   0.0974028  )
       205           Al  tau( 205) = (   0.0976079   0.4997456   0.1972532  )
       206           Al  tau( 206) = (   0.9982444   0.3996053   0.1973334  )
       207           Al  tau( 207) = (   0.0975990   0.3994675   0.2975114  )
       208           Al  tau( 208) = (   0.9982449   0.4998040   0.2974927  )
       209           Al  tau( 209) = (   0.0972026   0.4993449   0.3980419  )
       210           Al  tau( 210) = (   0.9982407   0.3995362   0.3980083  )
       211           Al  tau( 211) = (   0.0975959   0.3994577   0.4986990  )
       212           Al  tau( 212) = (   0.9982450   0.4997713   0.4985941  )
       213           Al  tau( 213) = (   0.0975967   0.4997447   0.5989784  )
       214           Al  tau( 214) = (   0.9982428   0.3995616   0.5988470  )
       215           Al  tau( 215) = (   0.0979691   0.3996509   0.6986257  )
       216           Al  tau( 216) = (   0.9982615   0.4998284   0.6988480  )
       217           Al  tau( 217) = (   0.0979598   0.4998194   0.7984002  )
       218           Al  tau( 218) = (   0.9982402   0.3997665   0.7983220  )
       219           Al  tau( 219) = (   0.0979467   0.3997441   0.8981598  )
       220           Al  tau( 220) = (   0.9982091   0.4997713   0.8981886  )
       221           Al  tau( 221) = (   0.2972844   0.4997380   0.9974065  )
       222           Al  tau( 222) = (   0.1975954   0.3996238   0.9978486  )
       223           Al  tau( 223) = (   0.2977668   0.3996720   0.0974280  )
       224           Al  tau( 224) = (   0.1974563   0.4996239   0.0973368  )
       225           Al  tau( 225) = (   0.2975817   0.4993616   0.1975041  )
       226           Al  tau( 226) = (   0.1977310   0.3996671   0.1976500  )
       227           Al  tau( 227) = (   0.2975826   0.3999058   0.2974595  )
       228           Al  tau( 228) = (   0.1967178   0.4995178   0.2972910  )
       229           Al  tau( 229) = (   0.2924705   0.4958049   0.3980279  )
       230           Al  tau( 230) = (   0.1960313   0.3984092   0.3980576  )
       231           Al  tau( 231) = (   0.2975467   0.3999579   0.4986746  )
       232           Al  tau( 232) = (   0.1966797   0.4995315   0.4988741  )
       233           Al  tau( 233) = (   0.2976225   0.4993451   0.5987554  )
       234           Al  tau( 234) = (   0.1977244   0.3996571   0.5986211  )
       235           Al  tau( 235) = (   0.2978672   0.3996767   0.6988104  )
       236           Al  tau( 236) = (   0.1975039   0.4996062   0.6989078  )
       237           Al  tau( 237) = (   0.2973428   0.4997106   0.7988625  )
       238           Al  tau( 238) = (   0.1976438   0.3996156   0.7983971  )
       239           Al  tau( 239) = (   0.2973051   0.3996118   0.8981913  )
       240           Al  tau( 240) = (   0.1973737   0.4998697   0.8981566  )
       241           Al  tau( 241) = (   0.4981964   0.4993615   0.9968594  )
       242           Al  tau( 242) = (   0.3975854   0.3994858   0.9973379  )
       243           Al  tau( 243) = (   0.4982371   0.3983928   0.0956806  )
       244           Al  tau( 244) = (   0.3974631   0.4996487   0.0964502  )
       245           Al  tau( 245) = (   0.4981917   0.4957977   0.1923255  )
       246           Al  tau( 246) = (   0.3977336   0.3999637   0.1972344  )
       247           Al  tau( 247) = (   0.4984219   0.4020058   0.2973200  )
       248           Al  tau( 248) = (   0.3977882   0.5009987   0.2976373  )
       249           Al  tau( 249) = (   0.4981336   0.5011925   0.3980714  )
       250           Al  tau( 250) = (   0.3976424   0.4018271   0.3980247  )
       251           Al  tau( 251) = (   0.4984881   0.4020015   0.4988597  )
       252           Al  tau( 252) = (   0.3977695   0.5009483   0.4985741  )
       253           Al  tau( 253) = (   0.4983196   0.4958561   0.6038738  )
       254           Al  tau( 254) = (   0.3978581   0.4000341   0.5989974  )
       255           Al  tau( 255) = (   0.4984489   0.3984360   0.7005534  )
       256           Al  tau( 256) = (   0.3975841   0.4995924   0.6998243  )
       257           Al  tau( 257) = (   0.4982946   0.4993663   0.7994323  )
       258           Al  tau( 258) = (   0.3976668   0.3994838   0.7989822  )
       259           Al  tau( 259) = (   0.4983407   0.3993855   0.8981810  )
       260           Al  tau( 260) = (   0.3976617   0.4997913   0.8981994  )
       261           Al  tau( 261) = (   0.6991040   0.4998208   0.9974092  )
       262           Al  tau( 262) = (   0.5988626   0.3994788   0.9972556  )
       263           Al  tau( 263) = (   0.6985892   0.3997496   0.0974111  )
       264           Al  tau( 264) = (   0.5988936   0.4996615   0.0964158  )
       265           Al  tau( 265) = (   0.6988617   0.4993966   0.1976054  )
       266           Al  tau( 266) = (   0.5988606   0.4000723   0.1972677  )
       267           Al  tau( 267) = (   0.6990655   0.4000578   0.2975265  )
       268           Al  tau( 268) = (   0.5987049   0.5012482   0.2978273  )
       269           Al  tau( 269) = (   0.7039783   0.4961393   0.3981251  )
       270           Al  tau( 270) = (   0.5991765   0.4020592   0.3980425  )
       271           Al  tau( 271) = (   0.6990501   0.4000345   0.4987251  )
       272           Al  tau( 272) = (   0.5987478   0.5013077   0.4983394  )
       273           Al  tau( 273) = (   0.6989315   0.4994654   0.5986338  )
       274           Al  tau( 274) = (   0.5989759   0.4000582   0.5989310  )
       275           Al  tau( 275) = (   0.6986705   0.3997440   0.6988470  )
       276           Al  tau( 276) = (   0.5990234   0.4996806   0.6997574  )
       277           Al  tau( 277) = (   0.6991355   0.4998246   0.7988446  )
       278           Al  tau( 278) = (   0.5989342   0.3994790   0.7989588  )
       279           Al  tau( 279) = (   0.6991217   0.3996971   0.8982048  )
       280           Al  tau( 280) = (   0.5989168   0.4998713   0.8981874  )
       281           Al  tau( 281) = (   0.8985620   0.4998938   0.9978838  )
       282           Al  tau( 282) = (   0.7988184   0.3997216   0.9978743  )
       283           Al  tau( 283) = (   0.8985130   0.3997267   0.0975799  )
       284           Al  tau( 284) = (   0.7989830   0.4997145   0.0973732  )
       285           Al  tau( 285) = (   0.8989620   0.4997712   0.1971899  )
       286           Al  tau( 286) = (   0.7988520   0.3997119   0.1975809  )
       287           Al  tau( 287) = (   0.8989838   0.3995206   0.2973933  )
       288           Al  tau( 288) = (   0.8000135   0.4997209   0.2972932  )
       289           Al  tau( 289) = (   0.8993899   0.4994364   0.3980213  )
       290           Al  tau( 290) = (   0.8007616   0.3984449   0.3980408  )
       291           Al  tau( 291) = (   0.8989245   0.3995434   0.4986392  )
       292           Al  tau( 292) = (   0.7999675   0.4997512   0.4989673  )
       293           Al  tau( 293) = (   0.8989692   0.4997483   0.5990056  )
       294           Al  tau( 294) = (   0.7988437   0.3996985   0.5986129  )
       295           Al  tau( 295) = (   0.8985266   0.3996854   0.6986321  )
       296           Al  tau( 296) = (   0.7990571   0.4997019   0.6989161  )
       297           Al  tau( 297) = (   0.8985959   0.4998796   0.7984567  )
       298           Al  tau( 298) = (   0.7988435   0.3996712   0.7984510  )
       299           Al  tau( 299) = (   0.8986345   0.3997597   0.8981888  )
       300           Al  tau( 300) = (   0.7990722   0.4999304   0.8982084  )

   Crystallographic axes

     site n.     atom                  positions (cryst. coord.)
         1           Al  tau(   1) = (  0.0980036  0.1663695  0.9978849  )
         2           Al  tau(   2) = (  0.9981983  0.9997277  0.9976973  )
         3           Al  tau(   3) = (  0.0977851  0.9998576  0.0973752  )
         4           Al  tau(   4) = (  0.9981820  0.1663482  0.0975580  )
         5           Al  tau(   5) = (  0.0977290  0.1665636  0.1973358  )
         6           Al  tau(   6) = (  0.9982086  0.9998300  0.1972686  )
         7           Al  tau(   7) = (  0.0973659  0.9995987  0.2974740  )
         8           Al  tau(   8) = (  0.9982338  0.1663911  0.2975910  )
         9           Al  tau(   9) = (  0.0976174  0.1665233  0.3980340  )
        10           Al  tau(  10) = (  0.9982635  0.9997345  0.3979874  )
        11           Al  tau(  11) = (  0.0973748  0.9995896  0.4986820  )
        12           Al  tau(  12) = (  0.9982362  0.1664106  0.4984896  )
        13           Al  tau(  13) = (  0.0977478  0.1665526  0.5988519  )
        14           Al  tau(  14) = (  0.9982411  0.9998050  0.5989205  )
        15           Al  tau(  15) = (  0.0977782  0.9998438  0.6988646  )
        16           Al  tau(  16) = (  0.9982675  0.1663674  0.6987073  )
        17           Al  tau(  17) = (  0.0980112  0.1663973  0.7983755  )
        18           Al  tau(  18) = (  0.9982234  0.9997198  0.7986337  )
        19           Al  tau(  19) = (  0.0978780  0.9997508  0.8981908  )
        20           Al  tau(  20) = (  0.9982344  0.1664089  0.8981968  )
        21           Al  tau(  21) = (  0.2974179  0.1665966  0.9975746  )
        22           Al  tau(  22) = (  0.1974755  0.9998607  0.9976741  )
        23           Al  tau(  23) = (  0.2967941  0.9996277  0.0967615  )
        24           Al  tau(  24) = (  0.1979732  0.1665608  0.0978184  )
        25           Al  tau(  25) = (  0.2984680  0.1659484  0.1984654  )
        26           Al  tau(  26) = (  0.1969742  0.9995225  0.1967461  )
        27           Al  tau(  27) = (  0.2947534  0.9985416  0.2962594  )
        28           Al  tau(  28) = (  0.1970857  0.1660251  0.2974592  )
        29           Al  tau(  29) = (  0.2935109  0.1676795  0.3981045  )
        30           Al  tau(  30) = (  0.1954819  0.9987714  0.3980221  )
        31           Al  tau(  31) = (  0.2947655  0.9985575  0.4999607  )
        32           Al  tau(  32) = (  0.1970545  0.1660117  0.4987016  )
        33           Al  tau(  33) = (  0.2984643  0.1659414  0.5977849  )
        34           Al  tau(  34) = (  0.1969929  0.9994576  0.5994968  )
        35           Al  tau(  35) = (  0.2968112  0.9995990  0.6995605  )
        36           Al  tau(  36) = (  0.1979480  0.1665734  0.6984388  )
        37           Al  tau(  37) = (  0.2974797  0.1666082  0.7987120  )
        38           Al  tau(  38) = (  0.1974395  0.9998598  0.7986311  )
        39           Al  tau(  39) = (  0.2972787  0.9997403  0.8981873  )
        40           Al  tau(  40) = (  0.1976619  0.1663004  0.8981606  )
        41           Al  tau(  41) = (  0.4982208  0.1665664  0.9973602  )
        42           Al  tau(  42) = (  0.3975946  0.9997249  0.9971084  )
        43           Al  tau(  43) = (  0.4982138  0.9989128  0.0954797  )
        44           Al  tau(  44) = (  0.3976548  0.1661441  0.0969119  )
        45           Al  tau(  45) = (  0.3962256  0.9985019  0.1947471  )
        46           Al  tau(  46) = (  0.3961596  0.9985726  0.6015137  )
        47           Al  tau(  47) = (  0.4982335  0.9988998  0.7008121  )
        48           Al  tau(  48) = (  0.3976522  0.1661944  0.6993519  )
        49           Al  tau(  49) = (  0.4982852  0.1665750  0.7989209  )
        50           Al  tau(  50) = (  0.3976307  0.9997043  0.7991590  )
        51           Al  tau(  51) = (  0.4983568  0.9997875  0.8982014  )
        52           Al  tau(  52) = (  0.3977949  0.1664832  0.8982011  )
        53           Al  tau(  53) = (  0.6989985  0.1667011  0.9975796  )
        54           Al  tau(  54) = (  0.5987978  0.9997783  0.9971732  )
        55           Al  tau(  55) = (  0.6996663  0.9996984  0.0967742  )
        56           Al  tau(  56) = (  0.5988117  0.1660735  0.0968862  )
        57           Al  tau(  57) = (  0.6979487  0.1659866  0.1984761  )
        58           Al  tau(  58) = (  0.6005176  0.9985272  0.1945437  )
        59           Al  tau(  59) = (  0.7019487  0.9987238  0.2961454  )
        60           Al  tau(  60) = (  0.7031506  0.1681947  0.3980363  )
        61           Al  tau(  61) = (  0.7017993  0.9988186  0.4998497  )
        62           Al  tau(  62) = (  0.6979952  0.1661047  0.5978186  )
        63           Al  tau(  63) = (  0.6003848  0.9985553  0.6016330  )
        64           Al  tau(  64) = (  0.6996464  0.9996895  0.6993730  )
        65           Al  tau(  65) = (  0.5989060  0.1660935  0.6993913  )
        66           Al  tau(  66) = (  0.6990714  0.1666957  0.7986989  )
        67           Al  tau(  67) = (  0.5988415  0.9997688  0.7991028  )
        68           Al  tau(  68) = (  0.6991481  0.9998242  0.8981903  )
        69           Al  tau(  69) = (  0.5987933  0.1664813  0.8982045  )
        70           Al  tau(  70) = (  0.8984762  0.1663274  0.9978363  )
        71           Al  tau(  71) = (  0.7990759  0.9999483  0.9976126  )
        72           Al  tau(  72) = (  0.8988027  0.9999123  0.0973498  )
        73           Al  tau(  73) = (  0.7986060  0.1666782  0.0978388  )
        74           Al  tau(  74) = (  0.8988284  0.1665834  0.1973491  )
        75           Al  tau(  75) = (  0.7996385  0.9996924  0.1966726  )
        76           Al  tau(  76) = (  0.8992329  0.9996757  0.2974544  )
        77           Al  tau(  77) = (  0.7996178  0.1661863  0.2975181  )
        78           Al  tau(  78) = (  0.8990051  0.1666712  0.3980285  )
        79           Al  tau(  79) = (  0.8010984  0.9991518  0.3981177  )
        80           Al  tau(  80) = (  0.8993180  0.9996670  0.4987134  )
        81           Al  tau(  81) = (  0.7996371  0.1662606  0.4987539  )
        82           Al  tau(  82) = (  0.8989066  0.1665602  0.5989243  )
        83           Al  tau(  83) = (  0.7996727  0.9997460  0.5995614  )
        84           Al  tau(  84) = (  0.8988135  0.9998622  0.6988912  )
        85           Al  tau(  85) = (  0.7986372  0.1666097  0.6984374  )
        86           Al  tau(  86) = (  0.8985068  0.1663419  0.7984732  )
        87           Al  tau(  87) = (  0.7990139  0.9999124  0.7985897  )
        88           Al  tau(  88) = (  0.8985277  0.9997800  0.8981902  )
        89           Al  tau(  89) = (  0.7987783  0.1662610  0.8982092  )
        90           Mg  tau(  90) = (  0.4046774  0.1588705  0.3044401  )
        91           Mg  tau(  91) = (  0.5919409  0.1591677  0.3045242  )
        92           Al  tau(  92) = (  0.4982981  0.1678357  0.1935360  )
        93           Si  tau(  93) = (  0.4981358  0.9880584  0.2777557  )
        94           Si  tau(  94) = (  0.3776920  0.9877803  0.3980630  )
        95           Al  tau(  95) = (  0.4982234  0.0625070  0.3980932  )
        96           Mg  tau(  96) = (  0.4047582  0.1588375  0.4915662  )
        97           Mg  tau(  97) = (  0.5919253  0.1592235  0.4918444  )
        98           Si  tau(  98) = (  0.6193880  0.9881441  0.3981328  )
        99           Si  tau(  99) = (  0.4981004  0.9880069  0.5184061  )
       100           Al  tau( 100) = (  0.4981432  0.1678076  0.6026878  )
       101           Al  tau( 101) = (  0.0979042  0.4994955  0.9978704  )
       102           Al  tau( 102) = (  0.9982510  0.3328448  0.9979696  )
       103           Al  tau( 103) = (  0.0980572  0.3329019  0.0977066  )
       104           Al  tau( 104) = (  0.9982110  0.4995628  0.0977312  )
       105           Al  tau( 105) = (  0.0982385  0.4994064  0.1976784  )
       106           Al  tau( 106) = (  0.9982000  0.3331918  0.1975376  )
       107           Al  tau( 107) = (  0.0978857  0.3327725  0.2975627  )
       108           Al  tau( 108) = (  0.9982196  0.4992756  0.2975584  )
       109           Al  tau( 109) = (  0.0973760  0.4990711  0.3980564  )
       110           Al  tau( 110) = (  0.9982382  0.3326089  0.3980022  )
       111           Al  tau( 111) = (  0.0979268  0.3327633  0.4986009  )
       112           Al  tau( 112) = (  0.9982407  0.4992885  0.4985903  )
       113           Al  tau( 113) = (  0.0982829  0.4993959  0.5985930  )
       114           Al  tau( 114) = (  0.9982401  0.3332331  0.5986526  )
       115           Al  tau( 115) = (  0.0980743  0.3329234  0.6985454  )
       116           Al  tau( 116) = (  0.9982127  0.4995485  0.6985209  )
       117           Al  tau( 117) = (  0.0979047  0.4994985  0.7983974  )
       118           Al  tau( 118) = (  0.9982463  0.3328486  0.7982875  )
       119           Al  tau( 119) = (  0.0979807  0.3328694  0.8981760  )
       120           Al  tau( 120) = (  0.9982711  0.4995259  0.8981659  )
       121           Al  tau( 121) = (  0.2977072  0.4993860  0.9980105  )
       122           Al  tau( 122) = (  0.1977543  0.3329052  0.9978916  )
       123           Al  tau( 123) = (  0.2978986  0.3326196  0.0978573  )
       124           Al  tau( 124) = (  0.1977875  0.4994617  0.0977098  )
       125           Al  tau( 125) = (  0.2978774  0.4995971  0.1976574  )
       126           Al  tau( 126) = (  0.1980666  0.3325191  0.1977281  )
       127           Al  tau( 127) = (  0.2980273  0.3328412  0.2977304  )
       128           Al  tau( 128) = (  0.1980240  0.4990498  0.2976653  )
       129           Al  tau( 129) = (  0.2977748  0.5005256  0.3980312  )
       130           Al  tau( 130) = (  0.1969784  0.3343588  0.3980344  )
       131           Al  tau( 131) = (  0.2980582  0.3328791  0.4985145  )
       132           Al  tau( 132) = (  0.1980520  0.4990354  0.4985001  )
       133           Al  tau( 133) = (  0.2978595  0.4996670  0.5986218  )
       134           Al  tau( 134) = (  0.1980635  0.3325432  0.5985087  )
       135           Al  tau( 135) = (  0.2978898  0.3326265  0.6984637  )
       136           Al  tau( 136) = (  0.1977958  0.4994628  0.6985927  )
       137           Al  tau( 137) = (  0.2977093  0.4994231  0.7982772  )
       138           Al  tau( 138) = (  0.1977262  0.3329051  0.7984081  )
       139           Al  tau( 139) = (  0.2976059  0.3330840  0.8981758  )
       140           Al  tau( 140) = (  0.1976708  0.4995027  0.8981794  )
       141           Al  tau( 141) = (  0.4982580  0.4990925  0.9970911  )
       142           Al  tau( 142) = (  0.3976713  0.3327918  0.9976635  )
       143           Al  tau( 143) = (  0.4982322  0.3345999  0.0967887  )
       144           Al  tau( 144) = (  0.3978432  0.4990223  0.0978271  )
       145           Al  tau( 145) = (  0.4984721  0.5005032  0.1974849  )
       146           Al  tau( 146) = (  0.3978026  0.3326271  0.1979567  )
       147           Al  tau( 147) = (  0.4983543  0.3400524  0.2981020  )
       148           Al  tau( 148) = (  0.3978304  0.5030157  0.2974296  )
       149           Al  tau( 149) = (  0.4984864  0.5066433  0.3979858  )
       150           Al  tau( 150) = (  0.3981859  0.3401354  0.3980897  )
       151           Al  tau( 151) = (  0.4984086  0.3401909  0.4980217  )
       152           Al  tau( 152) = (  0.3977823  0.5032285  0.4987681  )
       153           Al  tau( 153) = (  0.4983440  0.5005846  0.5986843  )
       154           Al  tau( 154) = (  0.3977776  0.3326394  0.5982197  )
       155           Al  tau( 155) = (  0.4982546  0.3346544  0.6994583  )
       156           Al  tau( 156) = (  0.3978799  0.4991188  0.6984907  )
       157           Al  tau( 157) = (  0.4983067  0.4991124  0.7991577  )
       158           Al  tau( 158) = (  0.3977118  0.3328082  0.7986207  )
       159           Al  tau( 159) = (  0.4983198  0.3325796  0.8982070  )
       160           Al  tau( 160) = (  0.3976486  0.4992437  0.8981861  )
       161           Al  tau( 161) = (  0.6987222  0.4994019  0.9980127  )
       162           Al  tau( 162) = (  0.5987329  0.3328717  0.9977093  )
       163           Al  tau( 163) = (  0.6986083  0.3325900  0.0978237  )
       164           Al  tau( 164) = (  0.5986970  0.4990720  0.0978010  )
       165           Al  tau( 165) = (  0.6988299  0.4997936  0.1975728  )
       166           Al  tau( 166) = (  0.5988355  0.3327021  0.1979824  )
       167           Al  tau( 167) = (  0.6986059  0.3329703  0.2976448  )
       168           Al  tau( 168) = (  0.5990500  0.5031983  0.2973840  )
       169           Al  tau( 169) = (  0.6990246  0.5006797  0.3979779  )
       170           Al  tau( 170) = (  0.5985072  0.3401290  0.3980033  )
       171           Al  tau( 171) = (  0.6986659  0.3330386  0.4984601  )
       172           Al  tau( 172) = (  0.5989808  0.5031438  0.4986402  )
       173           Al  tau( 173) = (  0.6987829  0.4997808  0.5985580  )
       174           Al  tau( 174) = (  0.5987609  0.3328515  0.5982775  )
       175           Al  tau( 175) = (  0.6985979  0.3326415  0.6983593  )
       176           Al  tau( 176) = (  0.5986790  0.4990561  0.6984255  )
       177           Al  tau( 177) = (  0.6987420  0.4993808  0.7982953  )
       178           Al  tau( 178) = (  0.5987503  0.3328512  0.7985837  )
       179           Al  tau( 179) = (  0.6988111  0.3330654  0.8981974  )
       180           Al  tau( 180) = (  0.5988540  0.4992638  0.8981978  )
       181           Al  tau( 181) = (  0.8986284  0.4994812  0.9978927  )
       182           Al  tau( 182) = (  0.7987273  0.3328171  0.9978678  )
       183           Al  tau( 183) = (  0.8985100  0.3328748  0.0976278  )
       184           Al  tau( 184) = (  0.7986827  0.4994531  0.0976206  )
       185           Al  tau( 185) = (  0.8982850  0.4995014  0.1975639  )
       186           Al  tau( 186) = (  0.7985775  0.3325296  0.1976766  )
       187           Al  tau( 187) = (  0.8986522  0.3328517  0.2974888  )
       188           Al  tau( 188) = (  0.7985320  0.4992046  0.2975421  )
       189           Al  tau( 189) = (  0.8992408  0.4992006  0.3979591  )
       190           Al  tau( 190) = (  0.7997406  0.3346828  0.3980594  )
       191           Al  tau( 191) = (  0.8986956  0.3328561  0.4985993  )
       192           Al  tau( 192) = (  0.7985449  0.4992454  0.4985416  )
       193           Al  tau( 193) = (  0.8982740  0.4994876  0.5985777  )
       194           Al  tau( 194) = (  0.7985941  0.3325612  0.5985312  )
       195           Al  tau( 195) = (  0.8985033  0.3328951  0.6986055  )
       196           Al  tau( 196) = (  0.7986861  0.4994675  0.6986053  )
       197           Al  tau( 197) = (  0.8986298  0.4994420  0.7983712  )
       198           Al  tau( 198) = (  0.7986989  0.3328675  0.7983716  )
       199           Al  tau( 199) = (  0.8985156  0.3327830  0.8981830  )
       200           Al  tau( 200) = (  0.7987377  0.4994815  0.8982103  )
       201           Al  tau( 201) = (  0.0979095  0.8330579  0.9978317  )
       202           Al  tau( 202) = (  0.9982279  0.6662804  0.9979237  )
       203           Al  tau( 203) = (  0.0979366  0.6660967  0.0976518  )
       204           Al  tau( 204) = (  0.9982263  0.8330891  0.0974028  )
       205           Al  tau( 205) = (  0.0976079  0.8329094  0.1972532  )
       206           Al  tau( 206) = (  0.9982444  0.6660088  0.1973334  )
       207           Al  tau( 207) = (  0.0975990  0.6657792  0.2975114  )
       208           Al  tau( 208) = (  0.9982449  0.8330066  0.2974927  )
       209           Al  tau( 209) = (  0.0972026  0.8322416  0.3980419  )
       210           Al  tau( 210) = (  0.9982407  0.6658936  0.3980083  )
       211           Al  tau( 211) = (  0.0975959  0.6657628  0.4986990  )
       212           Al  tau( 212) = (  0.9982450  0.8329522  0.4985941  )
       213           Al  tau( 213) = (  0.0975967  0.8329079  0.5989784  )
       214           Al  tau( 214) = (  0.9982428  0.6659360  0.5988470  )
       215           Al  tau( 215) = (  0.0979691  0.6660849  0.6986257  )
       216           Al  tau( 216) = (  0.9982615  0.8330473  0.6988480  )
       217           Al  tau( 217) = (  0.0979598  0.8330324  0.7984002  )
       218           Al  tau( 218) = (  0.9982402  0.6662775  0.7983220  )
       219           Al  tau( 219) = (  0.0979467  0.6662402  0.8981598  )
       220           Al  tau( 220) = (  0.9982091  0.8329523  0.8981886  )
       221           Al  tau( 221) = (  0.2972844  0.8328966  0.9974065  )
       222           Al  tau( 222) = (  0.1975954  0.6660396  0.9978486  )
       223           Al  tau( 223) = (  0.2977668  0.6661199  0.0974280  )
       224           Al  tau( 224) = (  0.1974563  0.8327065  0.0973368  )
       225           Al  tau( 225) = (  0.2975817  0.8322694  0.1975041  )
       226           Al  tau( 226) = (  0.1977310  0.6661119  0.1976500  )
       227           Al  tau( 227) = (  0.2975826  0.6665096  0.2974595  )
       228           Al  tau( 228) = (  0.1967178  0.8325296  0.2972910  )
       229           Al  tau( 229) = (  0.2924705  0.8263415  0.3980279  )
       230           Al  tau( 230) = (  0.1960313  0.6640154  0.3980576  )
       231           Al  tau( 231) = (  0.2975467  0.6665966  0.4986746  )
       232           Al  tau( 232) = (  0.1966797  0.8325525  0.4988741  )
       233           Al  tau( 233) = (  0.2976225  0.8322419  0.5987554  )
       234           Al  tau( 234) = (  0.1977244  0.6660952  0.5986211  )
       235           Al  tau( 235) = (  0.2978672  0.6661279  0.6988104  )
       236           Al  tau( 236) = (  0.1975039  0.8326770  0.6989078  )
       237           Al  tau( 237) = (  0.2973428  0.8328510  0.7988625  )
       238           Al  tau( 238) = (  0.1976438  0.6660261  0.7983971  )
       239           Al  tau( 239) = (  0.2973051  0.6660196  0.8981913  )
       240           Al  tau( 240) = (  0.1973737  0.8331162  0.8981566  )
       241           Al  tau( 241) = (  0.4981964  0.8322692  0.9968594  )
       242           Al  tau( 242) = (  0.3975854  0.6658097  0.9973379  )
       243           Al  tau( 243) = (  0.4982371  0.6639880  0.0956806  )
       244           Al  tau( 244) = (  0.3974631  0.8327478  0.0964502  )
       245           Al  tau( 245) = (  0.4981917  0.8263296  0.1923255  )
       246           Al  tau( 246) = (  0.3977336  0.6666062  0.1972344  )
       247           Al  tau( 247) = (  0.4984219  0.6700097  0.2973200  )
       248           Al  tau( 248) = (  0.3977882  0.8349978  0.2976373  )
       249           Al  tau( 249) = (  0.4981336  0.8353209  0.3980714  )
       250           Al  tau( 250) = (  0.3976424  0.6697118  0.3980247  )
       251           Al  tau( 251) = (  0.4984881  0.6700025  0.4988597  )
       252           Al  tau( 252) = (  0.3977695  0.8349138  0.4985741  )
       253           Al  tau( 253) = (  0.4983196  0.8264269  0.6038738  )
       254           Al  tau( 254) = (  0.3978581  0.6667235  0.5989974  )
       255           Al  tau( 255) = (  0.4984489  0.6640599  0.7005534  )
       256           Al  tau( 256) = (  0.3975841  0.8326540  0.6998243  )
       257           Al  tau( 257) = (  0.4982946  0.8322772  0.7994323  )
       258           Al  tau( 258) = (  0.3976668  0.6658064  0.7989822  )
       259           Al  tau( 259) = (  0.4983407  0.6656425  0.8981810  )
       260           Al  tau( 260) = (  0.3976617  0.8329856  0.8981994  )
       261           Al  tau( 261) = (  0.6991040  0.8330347  0.9974092  )
       262           Al  tau( 262) = (  0.5988626  0.6657980  0.9972556  )
       263           Al  tau( 263) = (  0.6985892  0.6662494  0.0974111  )
       264           Al  tau( 264) = (  0.5988936  0.8327692  0.0964158  )
       265           Al  tau( 265) = (  0.6988617  0.8323276  0.1976054  )
       266           Al  tau( 266) = (  0.5988606  0.6667872  0.1972677  )
       267           Al  tau( 267) = (  0.6990655  0.6667629  0.2975265  )
       268           Al  tau( 268) = (  0.5987049  0.8354137  0.2978273  )
       269           Al  tau( 269) = (  0.7039783  0.8268988  0.3981251  )
       270           Al  tau( 270) = (  0.5991765  0.6700987  0.3980425  )
       271           Al  tau( 271) = (  0.6990501  0.6667242  0.4987251  )
       272           Al  tau( 272) = (  0.5987478  0.8355128  0.4983394  )
       273           Al  tau( 273) = (  0.6989315  0.8324423  0.5986338  )
       274           Al  tau( 274) = (  0.5989759  0.6667636  0.5989310  )
       275           Al  tau( 275) = (  0.6986705  0.6662399  0.6988470  )
       276           Al  tau( 276) = (  0.5990234  0.8328010  0.6997574  )
       277           Al  tau( 277) = (  0.6991355  0.8330410  0.7988446  )
       278           Al  tau( 278) = (  0.5989342  0.6657984  0.7989588  )
       279           Al  tau( 279) = (  0.6991217  0.6661619  0.8982048  )
       280           Al  tau( 280) = (  0.5989168  0.8331188  0.8981874  )
       281           Al  tau( 281) = (  0.8985620  0.8331563  0.9978838  )
       282           Al  tau( 282) = (  0.7988184  0.6662026  0.9978743  )
       283           Al  tau( 283) = (  0.8985130  0.6662112  0.0975799  )
       284           Al  tau( 284) = (  0.7989830  0.8328576  0.0973732  )
       285           Al  tau( 285) = (  0.8989620  0.8329520  0.1971899  )
       286           Al  tau( 286) = (  0.7988520  0.6661865  0.1975809  )
       287           Al  tau( 287) = (  0.8989838  0.6658677  0.2973933  )
       288           Al  tau( 288) = (  0.8000135  0.8328681  0.2972932  )
       289           Al  tau( 289) = (  0.8993899  0.8323941  0.3980213  )
       290           Al  tau( 290) = (  0.8007616  0.6640749  0.3980408  )
       291           Al  tau( 291) = (  0.8989245  0.6659057  0.4986392  )
       292           Al  tau( 292) = (  0.7999675  0.8329187  0.4989673  )
       293           Al  tau( 293) = (  0.8989692  0.8329138  0.5990056  )
       294           Al  tau( 294) = (  0.7988437  0.6661642  0.5986129  )
       295           Al  tau( 295) = (  0.8985266  0.6661424  0.6986321  )
       296           Al  tau( 296) = (  0.7990571  0.8328366  0.6989161  )
       297           Al  tau( 297) = (  0.8985959  0.8331326  0.7984567  )
       298           Al  tau( 298) = (  0.7988435  0.6661187  0.7984510  )
       299           Al  tau( 299) = (  0.8986345  0.6662661  0.8981888  )
       300           Al  tau( 300) = (  0.7990722  0.8332173  0.8982084  )

     number of k points=    58  Methfessel-Paxton smearing, width (Ry)=  0.0441
                       cart. coord. in units 2pi/alat
        k(    1) = (   0.0000000   0.0000000   0.0000000), wk =   0.0178571
        k(    2) = (   0.0000000   0.0000000   0.2500000), wk =   0.0357143
        k(    3) = (   0.0000000   0.0000000  -0.5000000), wk =   0.0178571
        k(    4) = (   0.0000000   0.2380952   0.0000000), wk =   0.0357143
        k(    5) = (   0.0000000   0.2380952   0.2500000), wk =   0.0357143
        k(    6) = (   0.0000000   0.2380952  -0.5000000), wk =   0.0357143
        k(    7) = (   0.0000000   0.2380952  -0.2500000), wk =   0.0357143
        k(    8) = (   0.0000000   0.4761905   0.0000000), wk =   0.0357143
        k(    9) = (   0.0000000   0.4761905   0.2500000), wk =   0.0357143
        k(   10) = (   0.0000000   0.4761905  -0.5000000), wk =   0.0357143
        k(   11) = (   0.0000000   0.4761905  -0.2500000), wk =   0.0357143
        k(   12) = (   0.0000000   0.7142857   0.0000000), wk =   0.0357143
        k(   13) = (   0.0000000   0.7142857   0.2500000), wk =   0.0357143
        k(   14) = (   0.0000000   0.7142857  -0.5000000), wk =   0.0357143
        k(   15) = (   0.0000000   0.7142857  -0.2500000), wk =   0.0357143
        k(   16) = (   0.2500000   0.0000000   0.0000000), wk =   0.0357143
        k(   17) = (   0.2500000   0.0000000   0.2500000), wk =   0.0357143
        k(   18) = (   0.2500000   0.0000000  -0.5000000), wk =   0.0357143
        k(   19) = (   0.2500000   0.0000000  -0.2500000), wk =   0.0357143
        k(   20) = (   0.2500000   0.2380952   0.0000000), wk =   0.0357143
        k(   21) = (   0.2500000   0.2380952   0.2500000), wk =   0.0357143
        k(   22) = (   0.2500000   0.2380952  -0.5000000), wk =   0.0357143
        k(   23) = (   0.2500000   0.2380952  -0.2500000), wk =   0.0357143
        k(   24) = (   0.2500000   0.4761905   0.0000000), wk =   0.0357143
        k(   25) = (   0.2500000   0.4761905   0.2500000), wk =   0.0357143
        k(   26) = (   0.2500000   0.4761905  -0.5000000), wk =   0.0357143
        k(   27) = (   0.2500000   0.4761905  -0.2500000), wk =   0.0357143
        k(   28) = (   0.2500000   0.7142857   0.0000000), wk =   0.0357143
        k(   29) = (   0.2500000   0.7142857   0.2500000), wk =   0.0357143
        k(   30) = (   0.2500000   0.7142857  -0.5000000), wk =   0.0357143
        k(   31) = (   0.2500000   0.7142857  -0.2500000), wk =   0.0357143
        k(   32) = (   0.2500000  -0.7142857   0.0000000), wk =   0.0357143
        k(   33) = (   0.2500000  -0.7142857   0.2500000), wk =   0.0357143
        k(   34) = (   0.2500000  -0.7142857  -0.5000000), wk =   0.0357143
        k(   35) = (   0.2500000  -0.7142857  -0.2500000), wk =   0.0357143
        k(   36) = (   0.2500000  -0.4761905   0.0000000), wk =   0.0357143
        k(   37) = (   0.2500000  -0.4761905   0.2500000), wk =   0.0357143
        k(   38) = (   0.2500000  -0.4761905  -0.5000000), wk =   0.0357143
        k(   39) = (   0.2500000  -0.4761905  -0.2500000), wk =   0.0357143
        k(   40) = (   0.2500000  -0.2380952   0.0000000), wk =   0.0357143
        k(   41) = (   0.2500000  -0.2380952   0.2500000), wk =   0.0357143
        k(   42) = (   0.2500000  -0.2380952  -0.5000000), wk =   0.0357143
        k(   43) = (   0.2500000  -0.2380952  -0.2500000), wk =   0.0357143
        k(   44) = (  -0.5000000   0.0000000   0.0000000), wk =   0.0178571
        k(   45) = (  -0.5000000   0.0000000   0.2500000), wk =   0.0357143
        k(   46) = (  -0.5000000   0.0000000  -0.5000000), wk =   0.0178571
        k(   47) = (  -0.5000000   0.2380952   0.0000000), wk =   0.0357143
        k(   48) = (  -0.5000000   0.2380952   0.2500000), wk =   0.0357143
        k(   49) = (  -0.5000000   0.2380952  -0.5000000), wk =   0.0357143
        k(   50) = (  -0.5000000   0.2380952  -0.2500000), wk =   0.0357143
        k(   51) = (  -0.5000000   0.4761905   0.0000000), wk =   0.0357143
        k(   52) = (  -0.5000000   0.4761905   0.2500000), wk =   0.0357143
        k(   53) = (  -0.5000000   0.4761905  -0.5000000), wk =   0.0357143
        k(   54) = (  -0.5000000   0.4761905  -0.2500000), wk =   0.0357143
        k(   55) = (  -0.5000000   0.7142857   0.0000000), wk =   0.0357143
        k(   56) = (  -0.5000000   0.7142857   0.2500000), wk =   0.0357143
        k(   57) = (  -0.5000000   0.7142857  -0.5000000), wk =   0.0357143
        k(   58) = (  -0.5000000   0.7142857  -0.2500000), wk =   0.0357143

                       cryst. coord.
        k(    1) = (   0.0000000   0.0000000   0.0000000), wk =   0.0178571
        k(    2) = (   0.0000000   0.0000000   0.2500000), wk =   0.0357143
        k(    3) = (   0.0000000   0.0000000  -0.5000000), wk =   0.0178571
        k(    4) = (   0.0000000   0.1428571   0.0000000), wk =   0.0357143
        k(    5) = (   0.0000000   0.1428571   0.2500000), wk =   0.0357143
        k(    6) = (   0.0000000   0.1428571  -0.5000000), wk =   0.0357143
        k(    7) = (   0.0000000   0.1428571  -0.2500000), wk =   0.0357143
        k(    8) = (   0.0000000   0.2857143   0.0000000), wk =   0.0357143
        k(    9) = (   0.0000000   0.2857143   0.2500000), wk =   0.0357143
        k(   10) = (   0.0000000   0.2857143  -0.5000000), wk =   0.0357143
        k(   11) = (   0.0000000   0.2857143  -0.2500000), wk =   0.0357143
        k(   12) = (   0.0000000   0.4285714   0.0000000), wk =   0.0357143
        k(   13) = (   0.0000000   0.4285714   0.2500000), wk =   0.0357143
        k(   14) = (   0.0000000   0.4285714  -0.5000000), wk =   0.0357143
        k(   15) = (   0.0000000   0.4285714  -0.2500000), wk =   0.0357143
        k(   16) = (   0.2500000   0.0000000   0.0000000), wk =   0.0357143
        k(   17) = (   0.2500000   0.0000000   0.2500000), wk =   0.0357143
        k(   18) = (   0.2500000   0.0000000  -0.5000000), wk =   0.0357143
        k(   19) = (   0.2500000   0.0000000  -0.2500000), wk =   0.0357143
        k(   20) = (   0.2500000   0.1428571   0.0000000), wk =   0.0357143
        k(   21) = (   0.2500000   0.1428571   0.2500000), wk =   0.0357143
        k(   22) = (   0.2500000   0.1428571  -0.5000000), wk =   0.0357143
        k(   23) = (   0.2500000   0.1428571  -0.2500000), wk =   0.0357143
        k(   24) = (   0.2500000   0.2857143   0.0000000), wk =   0.0357143
        k(   25) = (   0.2500000   0.2857143   0.2500000), wk =   0.0357143
        k(   26) = (   0.2500000   0.2857143  -0.5000000), wk =   0.0357143
        k(   27) = (   0.2500000   0.2857143  -0.2500000), wk =   0.0357143
        k(   28) = (   0.2500000   0.4285714   0.0000000), wk =   0.0357143
        k(   29) = (   0.2500000   0.4285714   0.2500000), wk =   0.0357143
        k(   30) = (   0.2500000   0.4285714  -0.5000000), wk =   0.0357143
        k(   31) = (   0.2500000   0.4285714  -0.2500000), wk =   0.0357143
        k(   32) = (   0.2500000  -0.4285714   0.0000000), wk =   0.0357143
        k(   33) = (   0.2500000  -0.4285714   0.2500000), wk =   0.0357143
        k(   34) = (   0.2500000  -0.4285714  -0.5000000), wk =   0.0357143
        k(   35) = (   0.2500000  -0.4285714  -0.2500000), wk =   0.0357143
        k(   36) = (   0.2500000  -0.2857143   0.0000000), wk =   0.0357143
        k(   37) = (   0.2500000  -0.2857143   0.2500000), wk =   0.0357143
        k(   38) = (   0.2500000  -0.2857143  -0.5000000), wk =   0.0357143
        k(   39) = (   0.2500000  -0.2857143  -0.2500000), wk =   0.0357143
        k(   40) = (   0.2500000  -0.1428571   0.0000000), wk =   0.0357143
        k(   41) = (   0.2500000  -0.1428571   0.2500000), wk =   0.0357143
        k(   42) = (   0.2500000  -0.1428571  -0.5000000), wk =   0.0357143
        k(   43) = (   0.2500000  -0.1428571  -0.2500000), wk =   0.0357143
        k(   44) = (  -0.5000000   0.0000000   0.0000000), wk =   0.0178571
        k(   45) = (  -0.5000000   0.0000000   0.2500000), wk =   0.0357143
        k(   46) = (  -0.5000000   0.0000000  -0.5000000), wk =   0.0178571
        k(   47) = (  -0.5000000   0.1428571   0.0000000), wk =   0.0357143
        k(   48) = (  -0.5000000   0.1428571   0.2500000), wk =   0.0357143
        k(   49) = (  -0.5000000   0.1428571  -0.5000000), wk =   0.0357143
        k(   50) = (  -0.5000000   0.1428571  -0.2500000), wk =   0.0357143
        k(   51) = (  -0.5000000   0.2857143   0.0000000), wk =   0.0357143
        k(   52) = (  -0.5000000   0.2857143   0.2500000), wk =   0.0357143
        k(   53) = (  -0.5000000   0.2857143  -0.5000000), wk =   0.0357143
        k(   54) = (  -0.5000000   0.2857143  -0.2500000), wk =   0.0357143
        k(   55) = (  -0.5000000   0.4285714   0.0000000), wk =   0.0357143
        k(   56) = (  -0.5000000   0.4285714   0.2500000), wk =   0.0357143
        k(   57) = (  -0.5000000   0.4285714  -0.5000000), wk =   0.0357143
        k(   58) = (  -0.5000000   0.4285714  -0.2500000), wk =   0.0357143

     Dense  grid:  4566219 G-vectors     FFT dimensions: ( 250, 150, 250)

     Smooth grid:  1154937 G-vectors     FFT dimensions: ( 160,  96, 160)

     Dynamical RAM for                 wfc:     132.18 MB

     Dynamical RAM for     wfc (w. buffer):    2114.91 MB

     Dynamical RAM for           str. fact:      23.23 MB

     Dynamical RAM for           local pot:       0.00 MB

     Dynamical RAM for          nlocal pot:    1312.03 MB

     Dynamical RAM for                qrad:      29.33 MB

     Dynamical RAM for          rho,v,vnew:      47.26 MB

     Dynamical RAM for               rhoin:      15.75 MB

     Dynamical RAM for            rho*nmix:     123.87 MB

     Dynamical RAM for           G-vectors:      30.01 MB

     Dynamical RAM for          h,s,v(r/c):      53.39 MB

     Dynamical RAM for          <psi|beta>:      44.17 MB

     Dynamical RAM for                 psi:     528.73 MB

     Dynamical RAM for                hpsi:     528.73 MB

     Dynamical RAM for                spsi:     528.73 MB

     Dynamical RAM for      wfcinit/wfcrot:     620.44 MB

     Dynamical RAM for           addusdens:     930.93 MB

     Dynamical RAM for          addusforce:    2103.03 MB

     Dynamical RAM for         addusstress:     391.92 MB

     Estimated static dynamical RAM per process >       3.68 GB

     Estimated max dynamical RAM per process >       5.73 GB

     Estimated total dynamical RAM >     206.38 GB

     Initial potential from superposition of free atoms

     starting charge  899.32532, renormalised to  900.00000
     Starting wfcs are 1200 randomized atomic wfcs
