begin
comment 4 atoms, species Al4
lattice      7.4118629827     0.0000000000    -0.0000000000
lattice      0.0000000000     7.4118629827    -0.0000000000
lattice     -0.0000000000    -0.0000000000     7.4118629827
atom      0.0000000000     0.0000000000     0.0000000000   Al  0.0 0.0   -3.12464373e-13 -3.12768365e-13 -3.13017090e-13
atom      0.0000000000     3.7059314914     3.7059314914   Al  0.0 0.0   -3.12597154e-13  3.12693881e-13  3.12865183e-13
atom      3.7059314914    -0.0000000000     3.7059314914   Al  0.0 0.0    3.12441163e-13 -3.12760327e-13  3.13000669e-13
atom      3.7059314914     3.7059314914    -0.0000000000   Al  0.0 0.0    3.12562069e-13  3.12663017e-13 -3.12615682e-13
energy -7.900026926226082e+01
charge 0.0000
end
begin
comment 4 atoms, species Al4
lattice      7.4691712017     0.0000000000    -0.0000000000
lattice      0.0000000000     7.4691712017    -0.0000000000
lattice     -0.0000000000    -0.0000000000     7.4691712017
atom      0.0000000000     0.0000000000     0.0000000000   Al  0.0 0.0   -2.65222957e-13 -2.65392410e-13 -2.65372841e-13
atom      0.0000000000     3.7345856008     3.7345856008   Al  0.0 0.0   -2.65141993e-13  2.65112898e-13  2.65360023e-13
atom      3.7345856008    -0.0000000000     3.7345856008   Al  0.0 0.0    2.64985463e-13 -2.65305610e-13  2.65253706e-13
atom      3.7345856008     3.7345856008    -0.0000000000   Al  0.0 0.0    2.65165743e-13  2.65232099e-13 -2.65605125e-13
energy -7.900260045579070e+01
charge 0.0000
end
begin
comment 4 atoms, species Al4
lattice      7.5264794206     0.0000000000    -0.0000000000
lattice      0.0000000000     7.5264794206    -0.0000000000
lattice     -0.0000000000    -0.0000000000     7.5264794206
atom      0.0000000000     0.0000000000     0.0000000000   Al  0.0 0.0   -2.22481521e-13 -2.22277810e-13 -2.22711362e-13
atom      0.0000000000     3.7632397103     3.7632397103   Al  0.0 0.0   -2.22477203e-13  2.22738973e-13  2.22023511e-13
atom      3.7632397103    -0.0000000000     3.7632397103   Al  0.0 0.0    2.22441579e-13 -2.22666839e-13  2.22274971e-13
atom      3.7632397103     3.7632397103    -0.0000000000   Al  0.0 0.0    2.22579757e-13  2.22697116e-13 -2.22101206e-13
energy -7.900422163079223e+01
charge 0.0000
end
begin
comment 4 atoms, species Al4
lattice      7.5837876396     0.0000000000    -0.0000000000
lattice      0.0000000000     7.5837876396    -0.0000000000
lattice     -0.0000000000    -0.0000000000     7.5837876396
atom      0.0000000000     0.0000000000     0.0000000000   Al  0.0 0.0   -1.85166832e-13 -1.85068323e-13 -1.84978526e-13
atom      0.0000000000     3.7918938198     3.7918938198   Al  0.0 0.0   -1.85167911e-13  1.85158730e-13  1.85002179e-13
atom      3.7918938198    -0.0000000000     3.7918938198   Al  0.0 0.0    1.85186263e-13 -1.85263907e-13  1.85098480e-13
atom      3.7918938198     3.7918938198    -0.0000000000   Al  0.0 0.0    1.85094504e-13  1.85323046e-13 -1.85192718e-13
energy -7.900518123082715e+01
charge 0.0000
end
begin
comment 4 atoms, species Al4
lattice      7.6410958585     0.0000000000    -0.0000000000
lattice      0.0000000000     7.6410958585    -0.0000000000
lattice     -0.0000000000    -0.0000000000     7.6410958585
atom      0.0000000000     0.0000000000     0.0000000000   Al  0.0 0.0   -1.51881991e-13 -1.51892332e-13 -1.51533783e-13
atom      0.0000000000     3.8205479292     3.8205479292   Al  0.0 0.0   -1.51781595e-13  1.52016626e-13  1.51722825e-13
atom      3.8205479292    -0.0000000000     3.8205479292   Al  0.0 0.0    1.51866877e-13 -1.51924648e-13  1.51547858e-13
atom      3.8205479292     3.8205479292    -0.0000000000   Al  0.0 0.0    1.51858241e-13  1.51877589e-13 -1.51667228e-13
energy -7.900549733693582e+01
charge 0.0000
end
begin
comment 4 atoms, species Al4
lattice      7.6984040774     0.0000000000    -0.0000000000
lattice      0.0000000000     7.6984040774    -0.0000000000
lattice     -0.0000000000    -0.0000000000     7.6984040774
atom      0.0000000000     0.0000000000     0.0000000000   Al  0.0 0.0   -1.22325812e-13 -1.22243797e-13 -1.22461468e-13
atom      0.0000000000     3.8492020387     3.8492020387   Al  0.0 0.0   -1.22329050e-13  1.22397586e-13  1.22562153e-13
atom      3.8492020387    -0.0000000000     3.8492020387   Al  0.0 0.0    1.22364675e-13 -1.22220789e-13  1.22394325e-13
atom      3.8492020387     3.8492020387    -0.0000000000   Al  0.0 0.0    1.22280472e-13  1.22236763e-13 -1.22383015e-13
energy -7.900519264269751e+01
charge 0.0000
end
begin
comment 4 atoms, species Al4
lattice      7.7557122964     0.0000000000    -0.0000000000
lattice      0.0000000000     7.7557122964    -0.0000000000
lattice     -0.0000000000    -0.0000000000     7.7557122964
atom      0.0000000000     0.0000000000     0.0000000000   Al  0.0 0.0   -9.64076155e-14 -9.65268812e-14 -9.64775692e-14
atom      0.0000000000     3.8778561482     3.8778561482   Al  0.0 0.0   -9.64777843e-14  9.65352810e-14  9.65420728e-14
atom      3.8778561482    -0.0000000000     3.8778561482   Al  0.0 0.0    9.64567337e-14 -9.64935502e-14  9.64267348e-14
atom      3.8778561482     3.8778561482    -0.0000000000   Al  0.0 0.0    9.64497168e-14  9.65141591e-14 -9.63347324e-14
energy -7.900431042525088e+01
charge 0.0000
end
begin
comment 4 atoms, species Al4
lattice      7.8130205153     0.0000000000    -0.0000000000
lattice      0.0000000000     7.8130205153    -0.0000000000
lattice     -0.0000000000    -0.0000000000     7.8130205153
atom      0.0000000000     0.0000000000     0.0000000000   Al  0.0 0.0   -7.41403559e-14 -7.42270742e-14 -7.39408093e-14
atom      0.0000000000     3.9065102577     3.9065102577   Al  0.0 0.0   -7.40572329e-14  7.41590981e-14  7.39984152e-14
atom      3.9065102577    -0.0000000000     3.9065102577   Al  0.0 0.0    7.40820618e-14 -7.41042619e-14  7.40660105e-14
atom      3.9065102577     3.9065102577    -0.0000000000   Al  0.0 0.0    7.40928570e-14  7.40547347e-14 -7.37393588e-14
energy -7.900290852602853e+01
charge 0.0000
end
begin
comment 4 atoms, species Al4
lattice      7.8703287342     0.0000000000    -0.0000000000
lattice      0.0000000000     7.8703287342    -0.0000000000
lattice     -0.0000000000    -0.0000000000     7.8703287342
atom      0.0000000000     0.0000000000     0.0000000000   Al  0.0 0.0   -5.51138154e-14 -5.51929071e-14 -5.50248077e-14
atom      0.0000000000     3.9351643671     3.9351643671   Al  0.0 0.0   -5.50641575e-14  5.51706631e-14  5.51574659e-14
atom      3.9351643671    -0.0000000000     3.9351643671   Al  0.0 0.0    5.51035600e-14 -5.51567095e-14  5.51526687e-14
atom      3.9351643671     3.9351643671    -0.0000000000   Al  0.0 0.0    5.51143552e-14  5.52023066e-14 -5.50315437e-14
energy -7.900105288955633e+01
charge 0.0000
end
