################################################################################
# Symmetry function scaling data.
################################################################################
# Col  Name     Description
################################################################################
# 1    e_index  Element index.
# 2    sf_index Symmetry function index.
# 3    sf_min   Symmetry function minimum.
# 4    sf_max   Symmetry function maximum.
# 5    sf_mean  Symmetry function mean.
# 6    sf_sigma Symmetry function sigma.
#########################################################################################################################
#        1          2                        3                        4                        5                        6
#  e_index   sf_index                   sf_min                   sf_max                  sf_mean                 sf_sigma
#########################################################################################################################
         1          1   0.0000000000000000E+00   2.7130085254625830E-01   4.0732965436618841E-02   3.4163304992181655E-02
         1          2   0.0000000000000000E+00   3.9521006259624936E-01   6.3058389410198867E-02   6.4039560002065121E-02
         1          3   0.0000000000000000E+00   4.0168287716003465E-01   6.1191613839981569E-02   5.3594681395651288E-02
         1          4   0.0000000000000000E+00   2.4046181516168091E-01   3.4095678213340988E-02   3.5842271805740004E-02
         1          5   0.0000000000000000E+00   2.4741538729968668E-01   3.4346516189892373E-02   3.0599292219416038E-02
         1          6   0.0000000000000000E+00   7.5654590768936950E-02   8.6210763025306343E-03   8.2365164086012424E-03
         1          7   0.0000000000000000E+00   7.7250416050229240E-02   8.4177099006072197E-03   9.6380347784112939E-03
         1          8   0.0000000000000000E+00   8.1172768576032686E-02   9.2221101052558461E-03   8.7043428115149320E-03
         1          9   0.0000000000000000E+00   1.9398111155760858E-02   1.1304733041280928E-03   1.3067204435540782E-03
         1         10   0.0000000000000000E+00   2.3133126908858044E+00   6.7452683905022381E-01   3.8208325703590751E-01
         1         11   0.0000000000000000E+00   3.0010779663455778E+00   6.8204772412496995E-01   6.0302510288778832E-01
         1         12   0.0000000000000000E+00   2.4911560188348387E+00   5.2765075060048405E-01   4.2460973016299841E-01
         1         13   0.0000000000000000E+00   2.9826261493021193E+00   9.9527429863407568E-01   5.2773637399162832E-01
         1         14   0.0000000000000000E+00   2.7437747114041575E+00   6.3178925928426011E-01   5.0669289342051904E-01
         1         15   0.0000000000000000E+00   3.5934985507838548E+00   1.2211469274586926E+00   6.4293310233144629E-01
         1         16   0.0000000000000000E+00   4.6057568494923311E+00   1.0955257927458408E+00   9.5220474148379319E-01
         1         17   0.0000000000000000E+00   1.0082880801664333E+00   3.4214539444594583E-01   1.9067247621409167E-01
         1         18   0.0000000000000000E+00   1.2682336317965772E+00   3.1640304929200957E-01   2.8055928449866863E-01
         1         19   0.0000000000000000E+00   9.4491261355826606E-01   2.2472798755910908E-01   1.8651466599749841E-01
         1         20   0.0000000000000000E+00   8.4763971944368812E+00   2.7136749469547699E+00   1.4469280616201636E+00
         1         21   0.0000000000000000E+00   1.0748266623525652E+01   2.5594430888825102E+00   2.2369928434807336E+00
         1         22   0.0000000000000000E+00   8.3310835332364412E+00   1.8447515843343567E+00   1.4677521800256355E+00
         1         23   0.0000000000000000E+00   5.4920718713832750E+00   1.2251966788062727E+00   9.8974988439076617E-01
         1         24   0.0000000000000000E+00   7.0984780943659134E+00   2.3659364596063623E+00   1.2535990506416734E+00
         1         25   0.0000000000000000E+00   8.9648573964089504E+00   2.1609852212891631E+00   1.9079811396232944E+00
         1         26   0.0000000000000000E+00   2.0151085986421946E+00   6.8040440832659144E-01   3.4215728864783246E-01
         1         27   0.0000000000000000E+00   2.4366352936956055E+00   6.1025581627071745E-01   5.3688345124334036E-01
         1         28   0.0000000000000000E+00   1.9107057337718865E+00   4.1357536437724746E-01   3.3507079068976720E-01
         1         29   0.0000000000000000E+00   3.7491199988472510E+00   1.2410516498185897E+00   6.6384844795334419E-01
         1         30   0.0000000000000000E+00   4.6463680586300331E+00   1.1619946003598864E+00   1.0220598394952176E+00
         1         31   0.0000000000000000E+00   3.7008020071429568E+00   8.0031439038070917E-01   6.5817802345727372E-01
         1         32   0.0000000000000000E+00   5.0690549049959621E+00   1.7455070211703130E+00   9.2619761538314027E-01
         1         33   0.0000000000000000E+00   4.7395800473405361E+00   1.0875079496195565E+00   8.5576810518983504E-01
         1         34   0.0000000000000000E+00   6.4205420500730581E-04   2.7311713823428941E-05   4.5874537555199330E-05
         1         35   0.0000000000000000E+00   1.2836623430994302E-03   3.4533611434369887E-05   7.3599446845206397E-05
         1         36   0.0000000000000000E+00   1.3626496616377032E-03   2.4455103135484750E-05   6.1687379816151235E-05
         1         37   0.0000000000000000E+00   2.5700375903100030E-02   1.6751907255405465E-03   2.3422260786851502E-03
         1         38   0.0000000000000000E+00   1.7800106588270685E-02   2.2470337990741144E-03   2.6983259004395113E-03
         1         39   0.0000000000000000E+00   1.8763263654526765E-02   2.7257245853509571E-03   2.8261683533317501E-03
         1         40   0.0000000000000000E+00   4.9431816113663700E-02   3.3553392687017719E-03   5.1002811019575543E-03
         1         41   0.0000000000000000E+00   1.3997368055798995E-02   2.2048753139217677E-03   2.6189859287321679E-03
         1         42   0.0000000000000000E+00   4.3603040244747766E-02   2.0084641911556483E-03   2.9747057701447420E-03
         1         43   0.0000000000000000E+00   7.2741228484792808E-02   4.8540260457811402E-03   6.6956289417763023E-03
         1         44   0.0000000000000000E+00   5.4227858950188529E-02   6.9016078713257066E-03   8.1810653062202119E-03
         1         45   0.0000000000000000E+00   6.4647857851531057E-02   9.7803226162226555E-03   1.0325602851757853E-02
         1         46   0.0000000000000000E+00   1.4149587845445968E-01   9.8698796926956368E-03   1.4647521955340153E-02
         1         47   0.0000000000000000E+00   4.6439163178850079E-02   7.2545400282126218E-03   8.3379673697107689E-03
         1         48   0.0000000000000000E+00   1.0701323805938884E-01   5.0980696021857494E-03   8.2233277435492177E-03
         1         49   0.0000000000000000E+00   2.2086443690754499E-03   9.0319136400299449E-05   1.5124532963251686E-04
         1         50   0.0000000000000000E+00   1.6622814218965861E-03   1.3080066139510690E-04   1.5470619040245347E-04
         1         51   0.0000000000000000E+00   5.2482204893325932E-03   2.0207386489986596E-04   3.0381059750151236E-04
         1         52   0.0000000000000000E+00   3.4932526473293563E-02   2.2395916136370795E-03   3.0999120042367549E-03
         1         53   0.0000000000000000E+00   2.8412817340982652E-02   3.3284904663549233E-03   3.9370843340761639E-03
         1         54   0.0000000000000000E+00   3.5444996758536587E-02   5.1098159850920290E-03   5.5043351699537724E-03
         1         55   0.0000000000000000E+00   7.1547796176798212E-02   4.7827762129415254E-03   7.0564215974293866E-03
         1         56   0.0000000000000000E+00   2.5539274688156321E-02   3.7621215458150349E-03   4.2936978241593015E-03
         1         57   0.0000000000000000E+00   4.9365371985488238E-02   2.4681295407372422E-03   4.1486022131829083E-03
         1         58   0.0000000000000000E+00   5.6732094208831463E-03   6.9097735587054956E-04   7.4558181894793815E-04
         1         59   0.0000000000000000E+00   1.3769701466110654E-02   5.0504802958223935E-04   8.2096246594805819E-04
         1         60   0.0000000000000000E+00   2.0237195053867511E-02   1.0588003301575523E-03   1.6580172026309031E-03
         1         61   0.0000000000000000E+00   1.5690603951747182E-02   1.6689419449764848E-03   2.1293874242320448E-03
         1         62   0.0000000000000000E+00   1.9817818426210883E-02   2.5254472565081577E-03   2.7756395601082314E-03
         1         63   0.0000000000000000E+00   1.5915960072048183E-02   1.9898630373072312E-03   2.3487726895802408E-03
         1         64   0.0000000000000000E+00   1.5509126032092733E-02   6.9348903477309070E-04   1.2544363636974997E-03
         2          1   0.0000000000000000E+00   2.3254631630308936E-01   1.5265149676506615E-02   2.5669610339902504E-02
         2          2   0.0000000000000000E+00   5.4113540772279134E-01   1.8844036749170828E-01   6.9638707436363259E-02
         2          3   0.0000000000000000E+00   4.4941199381935804E-01   2.3267406370789129E-02   3.7928637495567012E-02
         2          4   0.0000000000000000E+00   1.3102661764935097E-01   8.2538681389866825E-03   1.4003143669696894E-02
         2          5   0.0000000000000000E+00   3.0261633444055008E-01   5.0425103471229804E-02   2.1930437659057091E-02
         2          6   0.0000000000000000E+00   4.0340329421865211E-02   2.0377558445125463E-03   3.5753929130424417E-03
         2          7   0.0000000000000000E+00   9.7455023039941330E-02   3.9816148458675857E-03   7.3139580222981093E-03
         2          8   0.0000000000000000E+00   1.4936132628618448E-01   8.7349008850758358E-03   4.8659518221545192E-03
         2          9   0.0000000000000000E+00   1.8609503593757304E+00   1.6510984014451244E-01   2.5486754247850313E-01
         2         10   7.9136993376902262E-03   3.0618243828437453E+00   1.7619047833173798E+00   5.0976594328079616E-01
         2         11   0.0000000000000000E+00   2.6712995405995397E+00   1.9455200535896935E-01   2.6129322869170551E-01
         2         12   7.9991969916885577E-02   3.7536254253244428E+00   2.2824049024598088E+00   6.2529853476528829E-01
         2         13   0.0000000000000000E+00   2.5732383333585709E+00   2.6520444554890660E-01   3.9550408592758651E-01
         2         14   1.7868929598630335E-02   4.6131243520383762E+00   2.7601949448158973E+00   7.5661811696329084E-01
         2         15   0.0000000000000000E+00   3.5793493195991513E+00   2.9979198381305378E-01   3.7653237407714102E-01
         2         16   0.0000000000000000E+00   6.8113354525670777E-01   7.6594723568446321E-02   1.1033403155824731E-01
         2         17   6.0692111542231461E-02   1.2939796317039192E+00   7.7500693636332885E-01   2.1254394822628370E-01
         2         18   0.0000000000000000E+00   1.0318285694365241E+00   8.9400753598382107E-02   1.1283413141997133E-01
         2         19   0.0000000000000000E+00   6.2960186779573561E+00   6.1958895883206377E-01   9.0694667369426929E-01
         2         20   2.0540649781880238E-01   1.0757099434595167E+01   6.4792712841598732E+00   1.7891376522763873E+00
         2         21   0.0000000000000000E+00   8.9166934781624505E+00   7.2179947261298938E-01   9.0558689689450811E-01
         2         22   0.0000000000000000E+00   4.9370901734010388E+00   5.2313043768229350E-01   7.5221794864499181E-01
         2         23   2.4695060482444503E-01   8.9382883412993195E+00   5.4272803910697194E+00   1.4872935259841782E+00
         2         24   0.0000000000000000E+00   7.0602190869728290E+00   6.1309975568243302E-01   7.6413568569603607E-01
         2         25   0.0000000000000000E+00   1.5079223321143589E+00   1.4773048381766213E-01   2.1373167692594824E-01
         2         26   9.3053143587377984E-02   2.5402800004468076E+00   1.5428012873257340E+00   4.1807275185145987E-01
         2         27   0.0000000000000000E+00   2.0211219399174007E+00   1.7171656897148355E-01   2.1514459070455164E-01
         2         28   0.0000000000000000E+00   2.6742600505155538E+00   2.8129518789957009E-01   4.0576300992659164E-01
         2         29   2.4668783293590466E-01   4.8159501662919535E+00   2.8587987759312621E+00   7.8963560963593726E-01
         2         30   0.0000000000000000E+00   3.9679454776944159E+00   3.2514733575001759E-01   4.0729530284932042E-01
         2         31   0.0000000000000000E+00   3.6709998033074278E+00   3.7772751167701912E-01   5.7053440781236608E-01
         2         32   0.0000000000000000E+00   5.0595417522259956E+00   4.1971437045708332E-01   5.3004732324531689E-01
         2         33   0.0000000000000000E+00   2.3781238221211687E-03   7.1217667722564299E-05   7.1516786008253856E-05
         2         34   0.0000000000000000E+00   5.0918081153491167E-04   1.6499042455612962E-05   3.0881450717624997E-05
         2         35   0.0000000000000000E+00   1.8451182511965204E-03   2.1313254722650995E-04   2.1154558496646808E-04
         2         36   0.0000000000000000E+00   9.5703916259564693E-04   3.6629721820845931E-05   5.9117282276671387E-05
         2         37   0.0000000000000000E+00   1.9160299668644846E-03   6.2205176710094599E-06   3.3887067591188779E-05
         2         38   0.0000000000000000E+00   1.9109605570006225E-02   3.1135579778364105E-04   1.0385136089588851E-03
         2         39   0.0000000000000000E+00   1.8330093670005390E-02   1.6731000018472663E-03   2.3100080960796747E-03
         2         40   0.0000000000000000E+00   2.1147493300918484E-02   5.7969634473712870E-04   1.4708157862551329E-03
         2         41   0.0000000000000000E+00   6.7718602411819068E-02   1.5529336290269927E-02   8.9174473145974091E-03
         2         42   0.0000000000000000E+00   2.4729372171558430E-02   2.3692467920740884E-03   3.1183824055252946E-03
         2         43   0.0000000000000000E+00   5.2613753382351587E-02   4.9673992522921491E-04   1.6052019768027757E-03
         2         44   0.0000000000000000E+00   4.8733745404698464E-02   7.9599395965237183E-04   2.6455261747985563E-03
         2         45   0.0000000000000000E+00   5.5620550080099904E-02   4.7300114267377633E-03   6.3143926542600553E-03
         2         46   0.0000000000000000E+00   6.3774066057765560E-02   1.7102351362367541E-03   4.4176483401448582E-03
         2         47   0.0000000000000000E+00   1.5306318424097529E-01   4.4353367205789182E-02   2.4879610897947903E-02
         2         48   0.0000000000000000E+00   9.4495833945199517E-02   6.9693515464299980E-03   8.9879121249739850E-03
         2         49   0.0000000000000000E+00   1.2810639439083824E-01   1.2145258525335702E-03   3.6000408713129629E-03
         2         50   0.0000000000000000E+00   1.5882624145234609E-03   2.2543955981371058E-05   8.0473787969414286E-05
         2         51   0.0000000000000000E+00   2.2206270313278086E-03   4.0390530030497714E-05   9.8826155761804231E-05
         2         52   0.0000000000000000E+00   6.7934054320032281E-03   5.4127155783855371E-05   2.1850749086673910E-04
         2         53   0.0000000000000000E+00   2.1313607128363679E-02   3.4579386234702544E-04   1.1433833892392565E-03
         2         54   0.0000000000000000E+00   2.8412817340982683E-02   2.2241946862478325E-03   2.9314968379026175E-03
         2         55   0.0000000000000000E+00   3.1964880607924372E-02   8.2223691016973077E-04   2.1083531466474783E-03
         2         56   0.0000000000000000E+00   7.6705002742550293E-02   2.1232286299941339E-02   1.2162378529291713E-02
         2         57   0.0000000000000000E+00   5.3217335007967360E-02   3.4153587590423072E-03   4.4069702354926615E-03
         2         58   0.0000000000000000E+00   5.9837973108008487E-02   5.6518267154136896E-04   1.6256622836406428E-03
         2         59   0.0000000000000000E+00   1.7099616999585995E-02   1.3626685531579046E-04   4.7401286264252425E-04
         2         60   0.0000000000000000E+00   1.4035218453200080E-02   1.9310982831861737E-04   6.7849166678582342E-04
         2         61   0.0000000000000000E+00   2.1970609555680330E-02   4.6617825868509790E-04   1.2706849480611619E-03
         2         62   0.0000000000000000E+00   3.0477700648397339E-02   1.9498661889683260E-03   2.6163586742113574E-03
         2         63   0.0000000000000000E+00   1.3295627141334134E-02   9.3541259937744085E-04   1.3091890356806254E-03
         2         64   0.0000000000000000E+00   3.2388699163526199E-02   2.4923531941906720E-04   8.1644840668705198E-04
         3          1   0.0000000000000000E+00   3.0534156731092249E-01   5.9706922165918601E-02   5.5350705835338250E-02
         3          2   0.0000000000000000E+00   4.3901547981743599E-01   9.3782662706048167E-02   8.0042912917820133E-02
         3          3   0.0000000000000000E+00   3.1798280282981040E-01   8.2472719877755049E-02   7.0821348778998372E-02
         3          4   0.0000000000000000E+00   2.3885377271341673E-01   5.1412905106136560E-02   4.6549485993019502E-02
         3          5   0.0000000000000000E+00   7.0133934501018430E-02   8.9983541159732207E-03   9.2467092287194397E-03
         3          6   0.0000000000000000E+00   9.7069580610931488E-02   1.6048477263206434E-02   1.4082472140465558E-02
         3          7   0.0000000000000000E+00   1.3197414192131851E-01   1.7953753951298859E-02   1.8504376560725757E-02
         3          8   0.0000000000000000E+00   8.2064371094735036E-02   7.0949111596717730E-03   8.2612192623211563E-03
         3          9   0.0000000000000000E+00   2.0345747731280301E+00   5.1484836434085324E-01   4.0852041972508035E-01
         3         10   0.0000000000000000E+00   3.0954794917997921E+00   7.8417013080889808E-01   6.6987684339317433E-01
         3         11   0.0000000000000000E+00   1.8888161099797887E+00   5.8669151495372540E-01   3.7658689523174083E-01
         3         12   0.0000000000000000E+00   2.7835817090239923E+00   7.4245263784722160E-01   5.5598882887772505E-01
         3         13   0.0000000000000000E+00   4.6389840941046696E+00   1.2083551579351703E+00   1.0499445409204053E+00
         3         14   0.0000000000000000E+00   3.7701956812091120E+00   1.2436278735208217E+00   7.7082776236223127E-01
         3         15   0.0000000000000000E+00   7.4445320161868467E-01   2.1927541405891593E-01   1.7949308845485115E-01
         3         16   0.0000000000000000E+00   1.2830126046059556E+00   3.6034272951494561E-01   3.1294134048496791E-01
         3         17   0.0000000000000000E+00   1.0398713814893850E+00   3.1623922123752352E-01   2.0495429970751788E-01
         3         18   0.0000000000000000E+00   6.8540117286484765E+00   1.7999923902863284E+00   1.3970708176825779E+00
         3         19   0.0000000000000000E+00   1.0930525792323742E+01   2.9093176696501577E+00   2.4947975104772264E+00
         3         20   0.0000000000000000E+00   8.5560425826951878E+00   2.7700880371396144E+00   1.7031305677825923E+00
         3         21   0.0000000000000000E+00   5.3797507950902732E+00   1.4646923648264996E+00   1.1368479533768587E+00
         3         22   0.0000000000000000E+00   7.1949764246998837E+00   2.3337730165063966E+00   1.4713213630488906E+00
         3         23   0.0000000000000000E+00   1.6282834585903927E+00   4.0354078836991780E-01   3.2018919846764216E-01
         3         24   0.0000000000000000E+00   2.4751724536071404E+00   6.9212858589645743E-01   5.9791873125467521E-01
         3         25   0.0000000000000000E+00   2.0238280307443266E+00   6.8866584814129783E-01   4.1118980794689136E-01
         3         26   0.0000000000000000E+00   2.9639182584897532E+00   7.8089636824554798E-01   6.3009318144070581E-01
         3         27   0.0000000000000000E+00   4.7109254882398908E+00   1.3105535886757231E+00   1.1420719963709749E+00
         3         28   0.0000000000000000E+00   3.9109541357386362E+00   1.2179479519914005E+00   7.8259034629132751E-01
         3         29   0.0000000000000000E+00   3.9531328223653115E+00   1.0611217522804945E+00   7.9517375675452773E-01
         3         30   0.0000000000000000E+00   5.4169076782968890E+00   1.7653635185496148E+00   1.0908159007283651E+00
         3         31   0.0000000000000000E+00   9.1490827164389583E-04   4.2849002592561808E-05   7.4666626023859033E-05
         3         32   0.0000000000000000E+00   1.7681121257889058E-03   7.1778124903008024E-05   1.1361581270790358E-04
         3         33   0.0000000000000000E+00   1.2904324640271244E-03   5.1186256859753405E-05   9.3202210490660404E-05
         3         34   0.0000000000000000E+00   7.8562056921104614E-04   3.4386538495914620E-05   6.3712095775152961E-05
         3         35   0.0000000000000000E+00   2.2201965220462831E-04   3.6872076373273631E-06   7.3652532262461901E-06
         3         36   0.0000000000000000E+00   2.6379504688445421E-04   6.5358283725571158E-06   1.3570815747973935E-05
         3         37   0.0000000000000000E+00   2.4759693365344778E-02   2.0672380435061161E-03   2.8277964157605649E-03
         3         38   0.0000000000000000E+00   2.0740165863945892E-02   2.6895655897651665E-03   3.1751136823627967E-03
         3         39   0.0000000000000000E+00   2.7787479372907490E-02   3.4810250202475966E-03   4.2163625271640455E-03
         3         40   0.0000000000000000E+00   5.6917289316203164E-02   5.1205423631080476E-03   6.2993139499218052E-03
         3         41   0.0000000000000000E+00   3.0141134414634330E-02   3.4308714088871640E-03   4.0685049019745581E-03
         3         42   0.0000000000000000E+00   6.2364284376029692E-02   4.0340684918984153E-03   5.3001579545554726E-03
         3         43   0.0000000000000000E+00   4.4528650841255409E-02   6.5403360278791850E-03   7.5554200417346437E-03
         3         44   0.0000000000000000E+00   7.9215383712369400E-02   1.0387191012690844E-02   1.1889659370996678E-02
         3         45   0.0000000000000000E+00   1.5740800105747102E-01   1.3699746503009511E-02   1.7180459809528023E-02
         3         46   0.0000000000000000E+00   9.4495833945199434E-02   1.0364139403990771E-02   1.1904310644388957E-02
         3         47   0.0000000000000000E+00   7.8667373236484872E-02   8.9421765136888688E-03   1.1719576964319309E-02
         3         48   0.0000000000000000E+00   1.3342843898304370E-02   1.3688215659513070E-03   2.0836202807905111E-03
         3         49   0.0000000000000000E+00   3.1080381761993472E-03   1.8291928600501072E-04   2.9724189918079494E-04
         3         50   0.0000000000000000E+00   2.9575480790742935E-03   2.4438316928425646E-04   3.0726397724244100E-04
         3         51   0.0000000000000000E+00   3.5195474449085926E-03   2.8449011271118249E-04   3.9297923845928672E-04
         3         52   0.0000000000000000E+00   4.7871829423168869E-03   4.3929994793284516E-04   7.7212588203622371E-04
         3         53   0.0000000000000000E+00   2.7717000240768695E-02   1.4095252686163052E-03   1.8738767410451020E-03
         3         54   0.0000000000000000E+00   3.8713085664223185E-02   5.1254663272125136E-03   5.7474916125168050E-03
         3         55   0.0000000000000000E+00   5.3217335007967360E-02   5.3261074223192682E-03   6.0585254137645195E-03
         3         56   0.0000000000000000E+00   4.3249345055998534E-02   4.8021905710548410E-03   6.5510064672375289E-03
         3         57   0.0000000000000000E+00   7.1369364969447050E-03   5.3148782280253550E-04   7.7730982021691349E-04
         3         58   0.0000000000000000E+00   9.2388481616738714E-03   9.5796872807126312E-04   1.2332142217213096E-03
         3         59   0.0000000000000000E+00   8.6061698648746323E-03   8.8691587053444201E-04   1.2481384405959696E-03
         3         60   0.0000000000000000E+00   1.8772079380804257E-02   1.0377044400951198E-03   1.4708581271142798E-03
         3         61   0.0000000000000000E+00   1.5135533137616033E-02   1.7769060895684353E-03   2.1436580063317469E-03
         3         62   0.0000000000000000E+00   2.5730514924125647E-02   2.7764333460824808E-03   3.3865681406280083E-03
         3         63   0.0000000000000000E+00   2.3851408433590304E-02   2.4209604359372383E-03   3.2533599183209709E-03
         3         64   0.0000000000000000E+00   1.6504329632860082E-02   1.4228930332491772E-03   1.7456668814766919E-03
